<LesHouchesEvents version="3.0">
<header>
<!--
#*********************************************************************
#                                                                    *
#                        MadGraph5_aMC@NLO                           *
#                                                                    *
#                           Going Beyond                             *
#                                                                    *
#                   http://madgraph.hep.uiuc.edu                     *
#                   http://madgraph.phys.ucl.ac.be                   *
#                   http://amcatnlo.cern.ch                          *
#                                                                    *
#                     The MadGraph5_aMC@NLO team                     *
#                                                                    *
#....................................................................*
#                                                                    *
# This file contains all the information necessary to reproduce      *
# the events generated:                                              *
#                                                                    *
# 1. software version                                                *
# 2. proc_card          : code generation info including model       *
# 3. param_card         : model primary parameters in the LH format  *
# 4. run_card           : running parameters (collider and cuts)     *
# 5. pythia_card        : present only if pythia has been run        *
# 6. pgs_card           : present only if pgs has been run           *
# 7. delphes_cards      : present only if delphes has been run       *
#                                                                    *
#                                                                    *
#*********************************************************************
-->
<MGVersion>
#5.2.2.3
</MGVersion>
<MG5ProcCard>
#************************************************************
#*                     MadGraph5_aMC@NLO                    *
#*                                                          *
#*                *                       *                 *
#*                  *        * *        *                   *
#*                    * * * * 5 * * * *                     *
#*                  *        * *        *                   *
#*                *                       *                 *
#*                                                          *
#*                                                          *
#*         VERSION 2.2.3                 2015-02-10         *
#*                                                          *
#*    The MadGraph5_aMC@NLO Development Team - Find us at   *
#*    https://server06.fynu.ucl.ac.be/projects/madgraph     *
#*                                                          *
#************************************************************
#*                                                          *
#*               Command File for MadGraph5_aMC@NLO         *
#*                                                          *
#*     run as ./bin/mg5_aMC  filename                       *
#*                                                          *
#************************************************************
set group_subprocesses Auto
set ignore_six_quark_processes False
set loop_optimized_output True
set gauge unitary
set complex_mass_scheme False
import model sm
define p = g u c d s u~ c~ d~ s~
define j = g u c d s u~ c~ d~ s~
define l+ = e+ mu+
define l- = e- mu-
define vl = ve vm vt
define vl~ = ve~ vm~ vt~
import model Zprime_UFO
generate p p > zph, zph > j j
add process p p > zph, zph > b b~
output Dijet_signal
</MG5ProcCard>
<MGProcCard>
#*********************************************************************
#                        MadGraph/MadEvent                           *
#                   http://madgraph.hep.uiuc.edu                     *
#                                                                    *
#                          proc_card.dat                             *
#*********************************************************************
#                                                                    *
#            This Files is generated by MADGRAPH 5                   *
#                                                                    *
# WARNING: This Files is generated for MADEVENT (compatibility issue)*
#          This files is NOT a valid MG4 proc_card.dat               *
#          Running this in MG4 will NEVER reproduce the result of MG5*
#                                                                    *
#*********************************************************************
#*********************************************************************
# Process(es) requested : mg2 input                                  *
#*********************************************************************
# Begin PROCESS # This is TAG. Do not modify this line
p p > zph , zph > j j           #Process
# Be carefull the coupling are here in MG5 convention
          
end_coup           # End the couplings input

done               # this tells MG there are no more procs
# End PROCESS  # This is TAG. Do not modify this line
#*********************************************************************
# Model information                                                  *
#*********************************************************************
# Begin MODEL  # This is TAG. Do not modify this line
Zprime_UFO
# End   MODEL  # This is TAG. Do not modify this line
#*********************************************************************
# Start multiparticle definitions                                    *
#*********************************************************************
# Begin MULTIPARTICLES # This is TAG. Do not modify this line

# End  MULTIPARTICLES # This is TAG. Do not modify this line
</MGProcCard>
<MGRunCard>
#*********************************************************************
#                       MadGraph5_aMC@NLO                            *
#                                                                    *
#                     run_card.dat MadEvent                          *
#                                                                    *
#  This file is used to set the parameters of the run.               *
#                                                                    *
#  Some notation/conventions:                                        *
#                                                                    *
#   Lines starting with a '# ' are info or comments                  *
#                                                                    *
#   mind the format:   value    = variable     ! comment             *
#*********************************************************************
#
#*******************                                                 
# Running parameters
#*******************                                                 
#                                                                    
#*********************************************************************
# Tag name for the run (one word)                                    *
#*********************************************************************
  tag_1     = run_tag ! name of the run 
#*********************************************************************
# Run to generate the grid pack                                      *
#*********************************************************************
  .false.     = gridpack  !True = setting up the grid pack
#*********************************************************************
# Number of events and rnd seed                                      *
# Warning: Do not generate more than 1M events in a single run       *
# If you want to run Pythia, avoid more than 50k events in a run.    *
#*********************************************************************
  2000 = nevents ! Number of unweighted events requested 
 1398 = iseed   ! rnd seed (0=assigned automatically=default))
#*********************************************************************
# Collider type and energy                                           *
# lpp: 0=No PDF, 1=proton, -1=antiproton, 2=photon from proton,      *
#                                         3=photon from electron     *
#*********************************************************************
        1     = lpp1    ! beam 1 type 
        1     = lpp2    ! beam 2 type
     4000     = ebeam1  ! beam 1 total energy in GeV
     4000     = ebeam2  ! beam 2 total energy in GeV
#*********************************************************************
# Beam polarization from -100 (left-handed) to 100 (right-handed)    *
#*********************************************************************
        0     = polbeam1 ! beam polarization for beam 1
        0     = polbeam2 ! beam polarization for beam 2
#*********************************************************************
# PDF CHOICE: this automatically fixes also alpha_s and its evol.    *
#*********************************************************************
 'nn23lo1'    = pdlabel     ! PDF set                                     
 230000    = lhaid     ! if pdlabel=lhapdf, this is the lhapdf number
#*********************************************************************
# Renormalization and factorization scales                           *
#*********************************************************************
 F        = fixed_ren_scale  ! if .true. use fixed ren scale
 F        = fixed_fac_scale  ! if .true. use fixed fac scale
 91.1880  = scale            ! fixed ren scale
 91.1880  = dsqrt_q2fact1    ! fixed fact scale for pdf1
 91.1880  = dsqrt_q2fact2    ! fixed fact scale for pdf2
 1        = scalefact        ! scale factor for event-by-event scales
#*********************************************************************
# Matching - Warning! ickkw > 1 is still beta
#*********************************************************************
 0        = ickkw            ! 0 no matching, 1 MLM, 2 CKKW matching
 1        = highestmult      ! for ickkw=2, highest mult group
 1        = ktscheme         ! for ickkw=1, 1 Durham kT, 2 Pythia pTE
 1        = alpsfact         ! scale factor for QCD emission vx
 F        = chcluster        ! cluster only according to channel diag
 T        = pdfwgt           ! for ickkw=1, perform pdf reweighting
 5        = asrwgtflavor     ! highest quark flavor for a_s reweight
 T        = clusinfo         ! include clustering tag in output
 3.0      = lhe_version       ! Change the way clustering information pass to shower.        
#*********************************************************************
#**********************************************************
#
#**********************************************************
# Automatic ptj and mjj cuts if xqcut > 0
# (turn off for VBF and single top processes)
#**********************************************************
   T  = auto_ptj_mjj  ! Automatic setting of ptj and mjj
#**********************************************************
#                                                                    
#**********************************
# BW cutoff (M+/-bwcutoff*Gamma)
#**********************************
  15  = bwcutoff      ! (M+/-bwcutoff*Gamma)
#**********************************************************
# Apply pt/E/eta/dr/mij cuts on decay products or not
# (note that etmiss/ptll/ptheavy/ht/sorted cuts always apply)
#**********************************************************
   T  = cut_decays    ! Cut decay products 
#*************************************************************
# Number of helicities to sum per event (0 = all helicities)
# 0 gives more stable result, but longer run time (needed for
# long decay chains e.g.).
# Use >=2 if most helicities contribute, e.g. pure QCD.
#*************************************************************
   0  = nhel          ! Number of helicities used per event
#*******************                                                 
# Standard Cuts
#*******************                                                 
#                                                                    
#*********************************************************************
# Minimum and maximum pt's (for max, -1 means no cut)                *
#*********************************************************************
 20  = ptj       ! minimum pt for the jets 
  0  = ptb       ! minimum pt for the b 
 10  = pta       ! minimum pt for the photons 
 10  = ptl       ! minimum pt for the charged leptons 
  0  = misset    ! minimum missing Et (sum of neutrino's momenta)
  0  = ptheavy   ! minimum pt for one heavy final state
 1.0 = ptonium   ! minimum pt for the quarkonium states
 -1  = ptjmax    ! maximum pt for the jets
 -1  = ptbmax    ! maximum pt for the b
 -1  = ptamax    ! maximum pt for the photons
 -1  = ptlmax    ! maximum pt for the charged leptons
 -1  = missetmax ! maximum missing Et (sum of neutrino's momenta)
#*********************************************************************
# Minimum and maximum E's (in the center of mass frame)              *
#*********************************************************************
  0  = ej     ! minimum E for the jets 
  0  = eb     ! minimum E for the b 
  0  = ea     ! minimum E for the photons 
  0  = el     ! minimum E for the charged leptons 
 -1   = ejmax ! maximum E for the jets
 -1   = ebmax ! maximum E for the b
 -1   = eamax ! maximum E for the photons
 -1   = elmax ! maximum E for the charged leptons
#*********************************************************************
# Maximum and minimum absolute rapidity (for max, -1 means no cut)   *
#*********************************************************************
   5  = etaj    ! max rap for the jets 
  -1  = etab    ! max rap for the b
 2.5  = etaa    ! max rap for the photons 
 2.5  = etal    ! max rap for the charged leptons 
 0.6  = etaonium ! max rap for the quarkonium states
   0  = etajmin ! min rap for the jets
   0  = etabmin ! min rap for the b
   0  = etaamin ! min rap for the photons
   0  = etalmin ! main rap for the charged leptons
#*********************************************************************
# Minimum and maximum DeltaR distance                                *
#*********************************************************************
 0.4 = drjj    ! min distance between jets 
 0   = drbb    ! min distance between b's 
 0.4 = drll    ! min distance between leptons 
 0.4 = draa    ! min distance between gammas 
 0   = drbj    ! min distance between b and jet 
 0.4 = draj    ! min distance between gamma and jet 
 0.4 = drjl    ! min distance between jet and lepton 
 0   = drab    ! min distance between gamma and b 
 0   = drbl    ! min distance between b and lepton 
 0.4 = dral    ! min distance between gamma and lepton 
 -1  = drjjmax ! max distance between jets
 -1  = drbbmax ! max distance between b's
 -1  = drllmax ! max distance between leptons
 -1  = draamax ! max distance between gammas
 -1  = drbjmax ! max distance between b and jet
 -1  = drajmax ! max distance between gamma and jet
 -1  = drjlmax ! max distance between jet and lepton
 -1  = drabmax ! max distance between gamma and b
 -1  = drblmax ! max distance between b and lepton
 -1  = dralmax ! maxdistance between gamma and lepton
#*********************************************************************
# Minimum and maximum invariant mass for pairs                       *
# WARNING: for four lepton final state mmll cut require to have      *
#          different lepton masses for each flavor!                  *           
#*********************************************************************
 0   = mmjj    ! min invariant mass of a jet pair 
 0   = mmbb    ! min invariant mass of a b pair 
 0   = mmaa    ! min invariant mass of gamma gamma pair
 0   = mmll    ! min invariant mass of l+l- (same flavour) lepton pair
 -1  = mmjjmax ! max invariant mass of a jet pair
 -1  = mmbbmax ! max invariant mass of a b pair
 -1  = mmaamax ! max invariant mass of gamma gamma pair
 -1  = mmllmax ! max invariant mass of l+l- (same flavour) lepton pair
#*********************************************************************
# Minimum and maximum invariant mass for all letpons                 *
#*********************************************************************
 0   = mmnl    ! min invariant mass for all letpons (l+- and vl) 
 -1  = mmnlmax ! max invariant mass for all letpons (l+- and vl) 
#*********************************************************************
# Minimum and maximum pt for 4-momenta sum of leptons                *
#*********************************************************************
 0   = ptllmin  ! Minimum pt for 4-momenta sum of leptons(l and vl)
 -1  = ptllmax  ! Maximum pt for 4-momenta sum of leptons(l and vl)
#*********************************************************************
# Inclusive cuts                                                     *
#*********************************************************************
 0  = xptj ! minimum pt for at least one jet  
 0  = xptb ! minimum pt for at least one b 
 0  = xpta ! minimum pt for at least one photon 
 0  = xptl ! minimum pt for at least one charged lepton 
#*********************************************************************
# Control the pt's of the jets sorted by pt                          *
#*********************************************************************
 0   = ptj1min ! minimum pt for the leading jet in pt
 0   = ptj2min ! minimum pt for the second jet in pt
 0   = ptj3min ! minimum pt for the third jet in pt
 0   = ptj4min ! minimum pt for the fourth jet in pt
 -1  = ptj1max ! maximum pt for the leading jet in pt 
 -1  = ptj2max ! maximum pt for the second jet in pt
 -1  = ptj3max ! maximum pt for the third jet in pt
 -1  = ptj4max ! maximum pt for the fourth jet in pt
 0   = cutuse  ! reject event if fails any (0) / all (1) jet pt cuts
#*********************************************************************
# Control the pt's of leptons sorted by pt                           *
#*********************************************************************
 0   = ptl1min ! minimum pt for the leading lepton in pt
 0   = ptl2min ! minimum pt for the second lepton in pt
 0   = ptl3min ! minimum pt for the third lepton in pt
 0   = ptl4min ! minimum pt for the fourth lepton in pt
 -1  = ptl1max ! maximum pt for the leading lepton in pt 
 -1  = ptl2max ! maximum pt for the second lepton in pt
 -1  = ptl3max ! maximum pt for the third lepton in pt
 -1  = ptl4max ! maximum pt for the fourth lepton in pt
#*********************************************************************
# Control the Ht(k)=Sum of k leading jets                            *
#*********************************************************************
 0   = htjmin ! minimum jet HT=Sum(jet pt)
 -1  = htjmax ! maximum jet HT=Sum(jet pt)
 0   = ihtmin  !inclusive Ht for all partons (including b)
 -1  = ihtmax  !inclusive Ht for all partons (including b)
 0   = ht2min ! minimum Ht for the two leading jets
 0   = ht3min ! minimum Ht for the three leading jets
 0   = ht4min ! minimum Ht for the four leading jets
 -1  = ht2max ! maximum Ht for the two leading jets
 -1  = ht3max ! maximum Ht for the three leading jets
 -1  = ht4max ! maximum Ht for the four leading jets
#***********************************************************************
# Photon-isolation cuts, according to hep-ph/9801442                   *
# When ptgmin=0, all the other parameters are ignored                  *
# When ptgmin>0, pta and draj are not going to be used                 *
#***********************************************************************
   0 = ptgmin ! Min photon transverse momentum
 0.4 = R0gamma ! Radius of isolation code
 1.0 = xn ! n parameter of eq.(3.4) in hep-ph/9801442
 1.0 = epsgamma ! epsilon_gamma parameter of eq.(3.4) in hep-ph/9801442
 .true. = isoEM ! isolate photons from EM energy (photons and leptons)
#*********************************************************************
# WBF cuts                                                           *
#*********************************************************************
 0   = xetamin ! minimum rapidity for two jets in the WBF case  
 0   = deltaeta ! minimum rapidity for two jets in the WBF case 
#*********************************************************************
# KT DURHAM CUT                                                      *
#*********************************************************************
 -1    =  ktdurham        
 0.4  =  dparameter 
#*********************************************************************
# maximal pdg code for quark to be considered as a light jet         *
# (otherwise b cuts are applied)                                     *
#*********************************************************************
 4 = maxjetflavor    ! Maximum jet pdg code
#*********************************************************************
# Jet measure cuts                                                   *
#*********************************************************************
 0   = xqcut   ! minimum kt jet measure between partons
#*********************************************************************
#
#*********************************************************************
# Store info for systematics studies                                 *
# WARNING: If use_syst is T, matched Pythia output is                *
#          meaningful ONLY if plotted taking matchscale              *
#          reweighting into account!                                 *
#*********************************************************************
   F  = use_syst      ! Enable systematics studies
#
#**************************************
# Parameter of the systematics study
#  will be used by SysCalc (if installed)
#**************************************                                  
#
0.5 1 2 = sys_scalefact  # factorization/renormalization scale factor
0.5 1 2 = sys_alpsfact  # \alpha_s emission scale factors
30 50 = sys_matchscale # variation of merging scale
# PDF sets and number of members (0 or none for all members).
CT10nlo.LHgrid = sys_pdf # matching scales
# MSTW2008nlo68cl.LHgrid 1  = sys_pdf
</MGRunCard>
<slha>
######################################################################
## PARAM_CARD AUTOMATICALY GENERATED BY MG5 FOLLOWING UFO MODEL   ####
######################################################################
##                                                                  ##
##  Width set on Auto will be computed following the information    ##
##        present in the decay.py files of the model.               ##
##        See  arXiv:1402.1178 for more details.                    ##
##                                                                  ##
######################################################################

###################################
## INFORMATION FOR CKMBLOCK
###################################
Block ckmblock 
    1 2.277360e-01 # cabi 

###################################
## INFORMATION FOR FRBLOCK
###################################
Block frblock 
    1 6.000000e-01 # gz 

###################################
## INFORMATION FOR MASS
###################################
Block mass 
    1 5.040000e-03 # MD 
    2 2.550000e-03 # MU 
    3 1.010000e-01 # MS 
    4 1.270000e+00 # MC 
    5 4.700000e+00 # MB 
    6 1.720000e+02 # MT 
   11 5.110000e-04 # Me 
   13 1.056600e-01 # MM 
   15 1.777000e+00 # MTA 
   23 9.118760e+01 # MZ 
   25 1.200000e+02 # MH 
  10030 3.300000e+03 # MZph 
  10031 3.000000e+02 # MZpl 
## Dependent parameters, given by model restrictions.
## Those values should be edited following the 
## analytical expression. MG5 ignores those values 
## but they are important for interfacing the output of MG5
## to external program such as Pythia.
  12 0.000000 # ve : 0.0 
  14 0.000000 # vm : 0.0 
  16 0.000000 # vt : 0.0 
  21 0.000000 # g : 0.0 
  22 0.000000 # a : 0.0 
  24 79.824360 # w+ : cmath.sqrt(MZ__exp__2/2. + cmath.sqrt(MZ__exp__4/4. - (aEW*cmath.pi*MZ__exp__2)/(Gf*sqrt__2))) 

###################################
## INFORMATION FOR SMINPUTS
###################################
Block sminputs 
    1 1.279000e+02 # aEWM1 
    2 1.166370e-05 # Gf 
    3 1.184000e-01 # aS 

###################################
## INFORMATION FOR YUKAWA
###################################
Block yukawa 
    1 5.040000e-03 # ymdo 
    2 2.550000e-03 # ymup 
    3 1.010000e-01 # yms 
    4 1.270000e+00 # ymc 
    5 4.700000e+00 # ymb 
    6 1.720000e+02 # ymt 
   11 5.110000e-04 # yme 
   13 1.056600e-01 # ymm 
   15 1.777000e+00 # ymtau 

###################################
## INFORMATION FOR DECAY
###################################
DECAY   6 1.508336e+00 # WT 
DECAY  23 2.495200e+00 # WZ 
DECAY  24 2.085000e+00 # WW 
DECAY  25 5.753088e-03 # WH 
## Dependent parameters, given by model restrictions.
## Those values should be edited following the 
## analytical expression. MG5 ignores those values 
## but they are important for interfacing the output of MG5
## to external program such as Pythia.
DECAY  1 0.000000 # d : 0.0 
DECAY  2 0.000000 # u : 0.0 
DECAY  3 0.000000 # s : 0.0 
DECAY  4 0.000000 # c : 0.0 
DECAY  5 0.000000 # b : 0.0 
DECAY  11 0.000000 # e- : 0.0 
DECAY  12 0.000000 # ve : 0.0 
DECAY  13 0.000000 # mu- : 0.0 
DECAY  14 0.000000 # vm : 0.0 
DECAY  15 0.000000 # ta- : 0.0 
DECAY  16 0.000000 # vt : 0.0 
DECAY  21 0.000000 # g : 0.0 
DECAY  22 0.000000 # a : 0.0 
DECAY  10030 0.308725 # zph : (gz__exp__2*MZph*(5 + cmath.sqrt(1 - (4*MT__exp__2)/MZph__exp__2)))/(144.*cmath.pi) 
DECAY  10031 0.132629 # zpl : (5*gz__exp__2*MZpl)/(144.*cmath.pi) 
#===========================================================
# QUANTUM NUMBERS OF NEW STATE(S) (NON SM PDG CODE)
#===========================================================

Block QNUMBERS 10030  # zph 
        1 0  # 3 times electric charge
        2 3  # number of spin states (2S+1)
        3 1  # colour rep (1: singlet, 3: triplet, 8: octet)
        4 0  # Particle/Antiparticle distinction (0=own anti)
Block QNUMBERS 10031  # zpl 
        1 0  # 3 times electric charge
        2 3  # number of spin states (2S+1)
        3 1  # colour rep (1: singlet, 3: triplet, 8: octet)
        4 0  # Particle/Antiparticle distinction (0=own anti)
</slha>
## END BANNER##
<MGGenerationInfo>
#  Number of Events        :         3869
#  Integrated weight (pb)  :  0.15954E-03
#  Max wgt                 :  0.64261E-07
#  Average wgt             :  0.41235E-07
</MGGenerationInfo>
</header>
<init>
     2212     2212  0.40000000000E+04  0.40000000000E+04 0 0  247000  247000 2   1
  0.15966846207E-03  0.32827411460E-06  0.64260790000E-07   0
</init>
<event>
 5   0  0.6377741E-07  0.3305946E+04  0.7818609E-02  0.8161384E-01
        2   -1    0    0  501    0  0.00000000000E+00  0.00000000000E+00  0.22825044097E+04  0.22825044097E+04  0.25500000920E-02 0. -1.
       -2   -1    0    0    0  501  0.00000000000E+00  0.00000000000E+00 -0.11970712822E+04  0.11970712822E+04  0.25500000920E-02 0.  1.
    10030    2    1    2    0    0  0.00000000000E+00  0.00000000000E+00  0.10854331275E+04  0.34795756920E+04  0.33059464487E+04 0.  0.
        1    1    3    3  502    0  0.27677115257E+03 -0.16213734690E+04  0.37019862129E+03  0.16859718907E+04  0.50400001928E-02 0.  1.
       -1    1    3    3    0  502 -0.27677115257E+03  0.16213734690E+04  0.71523450618E+03  0.17936038013E+04  0.50400001928E-02 0. -1.
</event>
<event>
 5   0  0.6377741E-07  0.3296064E+04  0.7818609E-02  0.8163898E-01
       -2   -1    0    0    0  501  0.00000000000E+00  0.00000000000E+00  0.13760752145E+04  0.13760752145E+04  0.25500000920E-02 0.  1.
        2   -1    0    0  501    0  0.00000000000E+00  0.00000000000E+00 -0.19737356734E+04  0.19737356734E+04  0.25500000920E-02 0. -1.
    10030    2    1    2    0    0  0.00000000000E+00  0.00000000000E+00 -0.59766045895E+03  0.33498108879E+04  0.32960635553E+04 0.  0.
        1    1    3    3  502    0 -0.95984093744E+03  0.12702704288E+04  0.13370002691E+03  0.15977350483E+04  0.50400001928E-02 0.  1.
       -1    1    3    3    0  502  0.95984093744E+03 -0.12702704288E+04 -0.73136048587E+03  0.17520758396E+04  0.50400001928E-02 0. -1.
</event>
<event>
 5   0  0.6351753E-07  0.3298247E+04  0.7818609E-02  0.8163342E-01
        2   -1    0    0  501    0  0.00000000000E+00  0.00000000000E+00  0.22661083508E+04  0.22661083508E+04  0.25500000920E-02 0.  1.
       -2   -1    0    0    0  501  0.00000000000E+00  0.00000000000E+00 -0.12001225371E+04  0.12001225371E+04  0.25500000920E-02 0. -1.
    10030    2    1    2    0    0  0.00000000000E+00  0.00000000000E+00  0.10659858137E+04  0.34662308879E+04  0.32982466271E+04 0.  0.
        3    1    3    3  502    0 -0.12227345154E+04 -0.38805285555E+03  0.16220859216E+04  0.20680491922E+04  0.10100000352E+00 0.  1.
       -3    1    3    3    0  502  0.12227345154E+04  0.38805285555E+03 -0.55610010792E+03  0.13981816957E+04  0.10100000352E+00 0. -1.
</event>
<event>
 5   0  0.6377741E-07  0.3302060E+04  0.7818609E-02  0.8162371E-01
       -2   -1    0    0    0  501  0.00000000000E+00  0.00000000000E+00  0.13958883458E+04  0.13958883458E+04  0.25500000920E-02 0. -1.
        2   -1    0    0  501    0  0.00000000000E+00  0.00000000000E+00 -0.19528069652E+04  0.19528069652E+04  0.25500000920E-02 0.  1.
    10030    2    1    2    0    0  0.00000000000E+00  0.00000000000E+00 -0.55691861945E+03  0.33486953110E+04  0.33020602565E+04 0.  0.
        1    1    3    3  502    0 -0.14765361434E+04  0.48765004484E+03  0.28430032864E+03  0.15807555870E+04  0.50400001928E-02 0.  1.
       -1    1    3    3    0  502  0.14765361434E+04 -0.48765004484E+03 -0.84121894809E+03  0.17679397240E+04  0.50400001928E-02 0. -1.
</event>
<event>
 5   0  0.6351753E-07  0.3294316E+04  0.7818609E-02  0.8164343E-01
       -2   -1    0    0    0  501  0.00000000000E+00  0.00000000000E+00  0.14483687405E+04  0.14483687405E+04  0.25500000920E-02 0. -1.
        2   -1    0    0  501    0  0.00000000000E+00  0.00000000000E+00 -0.18732306731E+04  0.18732306731E+04  0.25500000920E-02 0.  1.
    10030    2    1    2    0    0  0.00000000000E+00  0.00000000000E+00 -0.42486193260E+03  0.33215994135E+04  0.32943155590E+04 0.  0.
        3    1    3    3  502    0 -0.13437344962E+04  0.10162702484E+03  0.74260875790E+03  0.15386416822E+04  0.10100000352E+00 0. -1.
       -3    1    3    3    0  502  0.13437344962E+04 -0.10162702484E+03 -0.11674706905E+04  0.17829577314E+04  0.10100000352E+00 0.  1.
</event>
<event>
 5   0  0.2080828E-07  0.3305750E+04  0.7818609E-02  0.8161434E-01
        1   -1    0    0  501    0  0.00000000000E+00  0.00000000000E+00  0.14288810489E+04  0.14288810489E+04  0.50400001928E-02 0. -1.
       -1   -1    0    0    0  501  0.00000000000E+00  0.00000000000E+00 -0.19119830559E+04  0.19119830559E+04  0.50400001928E-02 0.  1.
    10030    2    1    2    0    0  0.00000000000E+00  0.00000000000E+00 -0.48310200699E+03  0.33408641048E+04  0.33057503562E+04 0.  0.
        1    1    3    3  502    0  0.15711245424E+03  0.46910803139E+03 -0.18354046827E+04  0.19009095238E+04  0.50400001928E-02 0.  1.
       -1    1    3    3    0  502 -0.15711245424E+03 -0.46910803139E+03  0.13523026757E+04  0.14399545810E+04  0.50400001928E-02 0. -1.
</event>
<event>
 5   0  0.2037333E-07  0.3297076E+04  0.7818609E-02  0.8163640E-01
        1   -1    0    0  501    0  0.00000000000E+00  0.00000000000E+00  0.21907960438E+04  0.21907960438E+04  0.50400001928E-02 0. -1.
       -1   -1    0    0    0  501  0.00000000000E+00  0.00000000000E+00 -0.12404974517E+04  0.12404974518E+04  0.50400001928E-02 0.  1.
    10030    2    1    2    0    0  0.00000000000E+00  0.00000000000E+00  0.95029859204E+03  0.34312934956E+04  0.32970756192E+04 0.  0.
        3    1    3    3  502    0 -0.16018329763E+04 -0.17724999572E+03  0.83624721523E+03  0.18156530121E+04  0.10100000352E+00 0.  1.
       -3    1    3    3    0  502  0.16018329763E+04  0.17724999572E+03  0.11405137681E+03  0.16156404835E+04  0.10100000352E+00 0. -1.
</event>
<event>
 5   0  0.6377741E-07  0.3289764E+04  0.7818609E-02  0.8165505E-01
       -2   -1    0    0    0  501  0.00000000000E+00  0.00000000000E+00  0.10321439415E+04  0.10321439415E+04  0.25500000920E-02 0. -1.
        2   -1    0    0  501    0  0.00000000000E+00  0.00000000000E+00 -0.26213748572E+04  0.26213748572E+04  0.25500000920E-02 0.  1.
    10030    2    1    2    0    0  0.00000000000E+00  0.00000000000E+00 -0.15892309157E+04  0.36535187987E+04  0.32897636251E+04 0.  0.
        1    1    3    3  502    0  0.12229891925E+04 -0.55917298587E+03  0.25736000033E+03  0.13691644032E+04  0.50400001928E-02 0. -1.
       -1    1    3    3    0  502 -0.12229891925E+04  0.55917298587E+03 -0.18465909160E+04  0.22843543955E+04  0.50400001928E-02 0.  1.
</event>
<event>
 5   0  0.2057130E-07  0.3301979E+04  0.7818609E-02  0.8162392E-01
        1   -1    0    0  501    0  0.00000000000E+00  0.00000000000E+00  0.13796633202E+04  0.13796633202E+04  0.50400001928E-02 0.  1.
       -1   -1    0    0    0  501  0.00000000000E+00  0.00000000000E+00 -0.19756745084E+04  0.19756745084E+04  0.50400001928E-02 0. -1.
    10030    2    1    2    0    0  0.00000000000E+00  0.00000000000E+00 -0.59601118821E+03  0.33553378286E+04  0.33019785898E+04 0.  0.
        2    1    3    3  502    0 -0.22680643716E+03 -0.93266390359E+03  0.10670047263E+04  0.14352011019E+04  0.25500000920E-02 0.  1.
       -2    1    3    3    0  502  0.22680643716E+03  0.93266390359E+03 -0.16630159145E+04  0.19201367266E+04  0.25500000920E-02 0. -1.
</event>
<event>
 5   0  0.6377741E-07  0.3274689E+04  0.7818609E-02  0.8169366E-01
       -2   -1    0    0    0  501  0.00000000000E+00  0.00000000000E+00  0.15444915412E+04  0.15444915412E+04  0.25500000920E-02 0. -1.
        2   -1    0    0  501    0  0.00000000000E+00  0.00000000000E+00 -0.17357797528E+04  0.17357797528E+04  0.25500000920E-02 0.  1.
    10030    2    1    2    0    0  0.00000000000E+00  0.00000000000E+00 -0.19128821165E+03  0.32802712940E+04  0.32746890818E+04 0.  0.
        1    1    3    3  502    0  0.15966949395E+04 -0.33863922325E+03 -0.22542534248E+03  0.16477038078E+04  0.50400001928E-02 0.  1.
       -1    1    3    3    0  502 -0.15966949395E+04  0.33863922325E+03  0.34137130829E+02  0.16325674862E+04  0.50400001928E-02 0. -1.
</event>
<event>
 5   0  0.2057130E-07  0.3295421E+04  0.7818609E-02  0.8164061E-01
        1   -1    0    0  501    0  0.00000000000E+00  0.00000000000E+00  0.12283804094E+04  0.12283804094E+04  0.50400001928E-02 0.  1.
       -1   -1    0    0    0  501  0.00000000000E+00  0.00000000000E+00 -0.22101872169E+04  0.22101872169E+04  0.50400001928E-02 0. -1.
    10030    2    1    2    0    0  0.00000000000E+00  0.00000000000E+00 -0.98180680757E+03  0.34385676263E+04  0.32954214774E+04 0.  0.
        2    1    3    3  502    0 -0.58625877533E+02 -0.15750229043E+04 -0.99220612435E+03  0.18624196991E+04  0.25500000920E-02 0.  1.
       -2    1    3    3    0  502  0.58625877533E+02  0.15750229043E+04  0.10399316786E+02  0.15761479272E+04  0.25500000920E-02 0. -1.
</event>
<event>
 5   0  0.6258718E-07  0.3303996E+04  0.7818609E-02  0.8161879E-01
        2   -1    0    0  501    0  0.00000000000E+00  0.00000000000E+00  0.15592791140E+04  0.15592791140E+04  0.25500000920E-02 0. -1.
       -2   -1    0    0    0  501  0.00000000000E+00  0.00000000000E+00 -0.17502297795E+04  0.17502297795E+04  0.25500000920E-02 0.  1.
    10030    2    1    2    0    0  0.00000000000E+00  0.00000000000E+00 -0.19095066548E+03  0.33095088935E+04  0.33039956052E+04 0.  0.
        5    1    3    3  502    0  0.63415814232E+03  0.11951431710E+04 -0.10449763482E+04  0.17095383608E+04  0.46999998093E+01 0. -1.
       -5    1    3    3    0  502 -0.63415814232E+03 -0.11951431710E+04  0.85402568276E+03  0.15999705327E+04  0.46999998093E+01 0.  1.
</event>
<event>
 5   0  0.2087665E-07  0.3300899E+04  0.7818609E-02  0.8162667E-01
       -1   -1    0    0    0  501  0.00000000000E+00  0.00000000000E+00  0.19248340774E+04  0.19248340774E+04  0.50400001928E-02 0. -1.
        1   -1    0    0  501    0  0.00000000000E+00  0.00000000000E+00 -0.14151787031E+04  0.14151787031E+04  0.50400001928E-02 0.  1.
    10030    2    1    2    0    0  0.00000000000E+00  0.00000000000E+00  0.50965537435E+03  0.33400127805E+04  0.33008993886E+04 0.  0.
        5    1    3    3  502    0  0.16372490278E+04  0.19868958268E+03  0.31801906766E+03  0.16796488164E+04  0.46999998093E+01 0. -1.
       -5    1    3    3    0  502 -0.16372490278E+04 -0.19868958268E+03  0.19163630669E+03  0.16603639641E+04  0.46999998093E+01 0.  1.
</event>
<event>
 5   0  0.2080828E-07  0.3368880E+04  0.7818609E-02  0.8145587E-01
        1   -1    0    0  501    0  0.00000000000E+00  0.00000000000E+00  0.20925885741E+04  0.20925885741E+04  0.50400001928E-02 0. -1.
       -1   -1    0    0    0  501  0.00000000000E+00  0.00000000000E+00 -0.13558986424E+04  0.13558986424E+04  0.50400001928E-02 0.  1.
    10030    2    1    2    0    0  0.00000000000E+00  0.00000000000E+00  0.73668993174E+03  0.34484872165E+04  0.33688799365E+04 0.  0.
        1    1    3    3  502    0 -0.42087492496E+03 -0.16212625091E+04  0.55062640351E+03  0.17631838424E+04  0.50400001928E-02 0.  1.
       -1    1    3    3    0  502  0.42087492496E+03  0.16212625091E+04  0.18606352823E+03  0.16853033740E+04  0.50400001928E-02 0. -1.
</event>
<event>
 5   0  0.2037333E-07  0.3287223E+04  0.7818609E-02  0.8166154E-01
        1   -1    0    0  501    0  0.00000000000E+00  0.00000000000E+00  0.22517825566E+04  0.22517825566E+04  0.50400001928E-02 0. -1.
       -1   -1    0    0    0  501  0.00000000000E+00  0.00000000000E+00 -0.11996979043E+04  0.11996979043E+04  0.50400001928E-02 0.  1.
    10030    2    1    2    0    0  0.00000000000E+00  0.00000000000E+00  0.10520846524E+04  0.34514804609E+04  0.32872230311E+04 0.  0.
        3    1    3    3  502    0 -0.62611599174E+03 -0.56810673740E+03 -0.95388896477E+03  0.12746256970E+04  0.10100000352E+00 0.  1.
       -3    1    3    3    0  502  0.62611599174E+03  0.56810673740E+03  0.20059736171E+04  0.21768547639E+04  0.10100000352E+00 0. -1.
</event>
<event>
 5   0  0.2037333E-07  0.3294013E+04  0.7818609E-02  0.8164421E-01
       -1   -1    0    0    0  501  0.00000000000E+00  0.00000000000E+00  0.93724494273E+03  0.93724494274E+03  0.50400001928E-02 0.  1.
        1   -1    0    0  501    0  0.00000000000E+00  0.00000000000E+00 -0.28942592106E+04  0.28942592106E+04  0.50400001928E-02 0. -1.
    10030    2    1    2    0    0  0.00000000000E+00  0.00000000000E+00 -0.19570142679E+04  0.38315041533E+04  0.32940126339E+04 0.  0.
        3    1    3    3  502    0 -0.33590976715E+03  0.24399826782E+02  0.89676289209E+03  0.95792192690E+03  0.10100000352E+00 0.  1.
       -3    1    3    3    0  502  0.33590976715E+03 -0.24399826782E+02 -0.28537771599E+04  0.28735822264E+04  0.10100000352E+00 0. -1.
</event>
<event>
 5   0  0.6377741E-07  0.3314918E+04  0.7818609E-02  0.8159110E-01
        2   -1    0    0  501    0  0.00000000000E+00  0.00000000000E+00  0.24302225342E+04  0.24302225342E+04  0.25500000920E-02 0. -1.
       -2   -1    0    0    0  501  0.00000000000E+00  0.00000000000E+00 -0.11304192962E+04  0.11304192962E+04  0.25500000920E-02 0.  1.
    10030    2    1    2    0    0  0.00000000000E+00  0.00000000000E+00  0.12998032380E+04  0.35606418305E+04  0.33149180665E+04 0.  0.
        1    1    3    3  502    0 -0.19443863352E+03  0.22013623345E+03 -0.11022436190E+04  0.11407047555E+04  0.50400001928E-02 0.  1.
       -1    1    3    3    0  502  0.19443863352E+03 -0.22013623345E+03  0.24020468570E+04  0.24199370750E+04  0.50400001928E-02 0. -1.
</event>
<event>
 5   0  0.2080770E-07  0.3297107E+04  0.7818609E-02  0.8163632E-01
       -1   -1    0    0    0  501  0.00000000000E+00  0.00000000000E+00  0.20986479142E+04  0.20986479142E+04  0.50400001928E-02 0. -1.
        1   -1    0    0  501    0  0.00000000000E+00  0.00000000000E+00 -0.12949906533E+04  0.12949906533E+04  0.50400001928E-02 0.  1.
    10030    2    1    2    0    0  0.00000000000E+00  0.00000000000E+00  0.80365726092E+03  0.33936385676E+04  0.32971074799E+04 0.  0.
        4    1    3    3  502    0  0.34278882035E+03  0.75313799891E+03  0.18694090130E+04  0.20443611940E+04  0.12699999809E+01 0. -1.
       -4    1    3    3    0  502 -0.34278882035E+03 -0.75313799891E+03 -0.10657517521E+04  0.13492773736E+04  0.12699999809E+01 0.  1.
</event>
<event>
 5   0  0.2080828E-07  0.3305091E+04  0.7818609E-02  0.8161601E-01
       -1   -1    0    0    0  501  0.00000000000E+00  0.00000000000E+00  0.12405056509E+04  0.12405056509E+04  0.50400001928E-02 0.  1.
        1   -1    0    0  501    0  0.00000000000E+00  0.00000000000E+00 -0.22014468617E+04  0.22014468617E+04  0.50400001928E-02 0. -1.
    10030    2    1    2    0    0  0.00000000000E+00  0.00000000000E+00 -0.96094121079E+03  0.34419525126E+04  0.33050913888E+04 0.  0.
        1    1    3    3  502    0 -0.48778190407E+02  0.45087645407E+03  0.11744325825E+04  0.12589522547E+04  0.50400001928E-02 0.  1.
       -1    1    3    3    0  502  0.48778190407E+02 -0.45087645407E+03 -0.21353737933E+04  0.21830002579E+04  0.50400001928E-02 0. -1.
</event>
<event>
 5   0  0.6424183E-07  0.3301707E+04  0.7818609E-02  0.8162461E-01
        2   -1    0    0  501    0  0.00000000000E+00  0.00000000000E+00  0.20289183030E+04  0.20289183030E+04  0.25500000920E-02 0.  1.
       -2   -1    0    0    0  501  0.00000000000E+00  0.00000000000E+00 -0.13432366848E+04  0.13432366848E+04  0.25500000920E-02 0. -1.
    10030    2    1    2    0    0  0.00000000000E+00  0.00000000000E+00  0.68568161819E+03  0.33721549879E+04  0.33017071313E+04 0.  0.
        2    1    3    3  502    0  0.15707523818E+04  0.13822989010E+03 -0.15641108700E+03  0.15845614458E+04  0.25500000920E-02 0. -1.
       -2    1    3    3    0  502 -0.15707523818E+04 -0.13822989010E+03  0.84209270519E+03  0.17875935420E+04  0.25500000920E-02 0.  1.
</event>
<event>
 5   0  0.2037333E-07  0.3292797E+04  0.7818609E-02  0.8164731E-01
       -1   -1    0    0    0  501  0.00000000000E+00  0.00000000000E+00  0.11848959529E+04  0.11848959529E+04  0.50400001928E-02 0.  1.
        1   -1    0    0  501    0  0.00000000000E+00  0.00000000000E+00 -0.22876510314E+04  0.22876510314E+04  0.50400001928E-02 0. -1.
    10030    2    1    2    0    0  0.00000000000E+00  0.00000000000E+00 -0.11027550785E+04  0.34725469844E+04  0.32927972600E+04 0.  0.
        3    1    3    3  502    0  0.25573823303E+03  0.71947653139E+03  0.98686947156E+03  0.12477819870E+04  0.10100000352E+00 0.  1.
       -3    1    3    3    0  502 -0.25573823303E+03 -0.71947653139E+03 -0.20896245501E+04  0.22247649974E+04  0.10100000352E+00 0. -1.
</event>
<event>
 5   0  0.6351753E-07  0.3297520E+04  0.7818609E-02  0.8163527E-01
        2   -1    0    0  501    0  0.00000000000E+00  0.00000000000E+00  0.14986321995E+04  0.14986321995E+04  0.25500000920E-02 0. -1.
       -2   -1    0    0    0  501  0.00000000000E+00  0.00000000000E+00 -0.18139268719E+04  0.18139268719E+04  0.25500000920E-02 0.  1.
    10030    2    1    2    0    0  0.00000000000E+00  0.00000000000E+00 -0.31529467239E+03  0.33125590715E+04  0.32975198061E+04 0.  0.
        3    1    3    3  502    0  0.61037417369E+03 -0.14450241631E+04  0.35236664250E+03  0.16077355892E+04  0.10100000352E+00 0.  1.
       -3    1    3    3    0  502 -0.61037417369E+03  0.14450241631E+04 -0.66766131489E+03  0.17048234822E+04  0.10100000352E+00 0. -1.
</event>
<event>
 5   0  0.2080828E-07  0.3293186E+04  0.7818609E-02  0.8164631E-01
        1   -1    0    0  501    0  0.00000000000E+00  0.00000000000E+00  0.22312366270E+04  0.22312366270E+04  0.50400001928E-02 0. -1.
       -1   -1    0    0    0  501  0.00000000000E+00  0.00000000000E+00 -0.12151416605E+04  0.12151416605E+04  0.50400001928E-02 0.  1.
    10030    2    1    2    0    0  0.00000000000E+00  0.00000000000E+00  0.10160949665E+04  0.34463782876E+04  0.32931860440E+04 0.  0.
        1    1    3    3  502    0  0.54436757973E+02  0.13324090624E+04 -0.50279963793E+03  0.14251613053E+04  0.50400001928E-02 0.  1.
       -1    1    3    3    0  502 -0.54436757973E+02 -0.13324090624E+04  0.15188946044E+04  0.20212169823E+04  0.50400001928E-02 0. -1.
</event>
<event>
 5   0  0.6424183E-07  0.3312029E+04  0.7818609E-02  0.8159841E-01
       -2   -1    0    0    0  501  0.00000000000E+00  0.00000000000E+00  0.14717673254E+04  0.14717673254E+04  0.25500000920E-02 0.  1.
        2   -1    0    0  501    0  0.00000000000E+00  0.00000000000E+00 -0.18633270737E+04  0.18633270737E+04  0.25500000920E-02 0. -1.
    10030    2    1    2    0    0  0.00000000000E+00  0.00000000000E+00 -0.39155974832E+03  0.33350943991E+04  0.33120289271E+04 0.  0.
        2    1    3    3  502    0 -0.11439871822E+04  0.97462962050E+03 -0.89616259228E+03  0.17497762605E+04  0.25500000920E-02 0. -1.
       -2    1    3    3    0  502  0.11439871822E+04 -0.97462962050E+03  0.50460284396E+03  0.15853181385E+04  0.25500000920E-02 0.  1.
</event>
<event>
 5   0  0.2057130E-07  0.3305106E+04  0.7818609E-02  0.8161597E-01
       -1   -1    0    0    0  501  0.00000000000E+00  0.00000000000E+00  0.87915089927E+03  0.87915089928E+03  0.50400001928E-02 0.  1.
        1   -1    0    0  501    0  0.00000000000E+00  0.00000000000E+00 -0.31063275960E+04  0.31063275961E+04  0.50400001928E-02 0. -1.
    10030    2    1    2    0    0  0.00000000000E+00  0.00000000000E+00 -0.22271766968E+04  0.39854784953E+04  0.33051055653E+04 0.  0.
        2    1    3    3  502    0  0.86415466158E+03  0.82364149403E+03  0.26435223652E+03  0.12227144780E+04  0.25500000920E-02 0.  1.
       -2    1    3    3    0  502 -0.86415466158E+03 -0.82364149403E+03 -0.24915289333E+04  0.27627640173E+04  0.25500000920E-02 0. -1.
</event>
<event>
 5   0  0.6351753E-07  0.3301841E+04  0.7818609E-02  0.8162427E-01
       -2   -1    0    0    0  501  0.00000000000E+00  0.00000000000E+00  0.18615059838E+04  0.18615059838E+04  0.25500000920E-02 0.  1.
        2   -1    0    0  501    0  0.00000000000E+00  0.00000000000E+00 -0.14641580010E+04  0.14641580010E+04  0.25500000920E-02 0. -1.
    10030    2    1    2    0    0  0.00000000000E+00  0.00000000000E+00  0.39734798278E+03  0.33256639848E+04  0.33018412318E+04 0.  0.
        3    1    3    3  502    0  0.23463871204E+03  0.81701289802E+01  0.18446052987E+04  0.18594867019E+04  0.10100000352E+00 0.  1.
       -3    1    3    3    0  502 -0.23463871204E+03 -0.81701289802E+01 -0.14472573159E+04  0.14661772829E+04  0.10100000352E+00 0. -1.
</event>
<event>
 5   0  0.6258718E-07  0.3306395E+04  0.7818609E-02  0.8161270E-01
        2   -1    0    0  501    0  0.00000000000E+00  0.00000000000E+00  0.18555021216E+04  0.18555021216E+04  0.25500000920E-02 0.  1.
       -2   -1    0    0    0  501  0.00000000000E+00  0.00000000000E+00 -0.14729499697E+04  0.14729499697E+04  0.25500000920E-02 0. -1.
    10030    2    1    2    0    0  0.00000000000E+00  0.00000000000E+00  0.38255215193E+03  0.33284520913E+04  0.33063948910E+04 0.  0.
        5    1    3    3  502    0 -0.10411091200E+04 -0.23132111353E+03  0.14628821776E+04  0.18103767599E+04  0.46999998093E+01 0.  1.
       -5    1    3    3    0  502  0.10411091200E+04  0.23132111353E+03 -0.10803300256E+04  0.15180753314E+04  0.46999998093E+01 0. -1.
</event>
<event>
 5   0  0.2057130E-07  0.3305604E+04  0.7818609E-02  0.8161471E-01
       -1   -1    0    0    0  501  0.00000000000E+00  0.00000000000E+00  0.14487596923E+04  0.14487596923E+04  0.50400001928E-02 0. -1.
        1   -1    0    0  501    0  0.00000000000E+00  0.00000000000E+00 -0.18855816152E+04  0.18855816152E+04  0.50400001928E-02 0.  1.
    10030    2    1    2    0    0  0.00000000000E+00  0.00000000000E+00 -0.43682192291E+03  0.33343413075E+04  0.33056041146E+04 0.  0.
        2    1    3    3  502    0  0.19437738826E+03  0.96259486871E+03  0.11225760529E+04  0.14914920197E+04  0.25500000920E-02 0. -1.
       -2    1    3    3    0  502 -0.19437738826E+03 -0.96259486871E+03 -0.15593979758E+04  0.18428492878E+04  0.25500000920E-02 0.  1.
</event>
<event>
 5   0  0.6351753E-07  0.3289075E+04  0.7818609E-02  0.8165681E-01
       -2   -1    0    0    0  501  0.00000000000E+00  0.00000000000E+00  0.17036074937E+04  0.17036074937E+04  0.25500000920E-02 0. -1.
        2   -1    0    0  501    0  0.00000000000E+00  0.00000000000E+00 -0.15875158162E+04  0.15875158162E+04  0.25500000920E-02 0.  1.
    10030    2    1    2    0    0  0.00000000000E+00  0.00000000000E+00  0.11609167745E+03  0.32911233099E+04  0.32890751532E+04 0.  0.
        3    1    3    3  502    0  0.44591586397E+03  0.20095575290E+03  0.16291444823E+04  0.17009808720E+04  0.10100000352E+00 0. -1.
       -3    1    3    3    0  502 -0.44591586397E+03 -0.20095575290E+03 -0.15130528049E+04  0.15901424379E+04  0.10100000352E+00 0.  1.
</event>
<event>
 5   0  0.6377741E-07  0.3283658E+04  0.7818609E-02  0.8167066E-01
        2   -1    0    0  501    0  0.00000000000E+00  0.00000000000E+00  0.23213395886E+04  0.23213395886E+04  0.25500000920E-02 0.  1.
       -2   -1    0    0    0  501  0.00000000000E+00  0.00000000000E+00 -0.11612272309E+04  0.11612272309E+04  0.25500000920E-02 0. -1.
    10030    2    1    2    0    0  0.00000000000E+00  0.00000000000E+00  0.11601123577E+04  0.34825668194E+04  0.32836581688E+04 0.  0.
        1    1    3    3  502    0 -0.13890852079E+04  0.87432462004E+03  0.62249889307E+03  0.17554219230E+04  0.50400001928E-02 0.  1.
       -1    1    3    3    0  502  0.13890852079E+04 -0.87432462004E+03  0.53761346464E+03  0.17271448964E+04  0.50400001928E-02 0. -1.
</event>
<event>
 5   0  0.2087665E-07  0.3291289E+04  0.7818609E-02  0.8165115E-01
        1   -1    0    0  501    0  0.00000000000E+00  0.00000000000E+00  0.21651054309E+04  0.21651054309E+04  0.50400001928E-02 0.  1.
       -1   -1    0    0    0  501  0.00000000000E+00  0.00000000000E+00 -0.12508147075E+04  0.12508147075E+04  0.50400001928E-02 0. -1.
    10030    2    1    2    0    0  0.00000000000E+00  0.00000000000E+00  0.91429072341E+03  0.34159201385E+04  0.32912889368E+04 0.  0.
        5    1    3    3  502    0  0.14827956554E+04  0.32383854323E+03  0.11172885463E+04  0.18846511994E+04  0.46999998093E+01 0.  1.
       -5    1    3    3    0  502 -0.14827956554E+04 -0.32383854323E+03 -0.20299782289E+03  0.15312689391E+04  0.46999998093E+01 0. -1.
</event>
<event>
 5   0  0.6351753E-07  0.3282490E+04  0.7818609E-02  0.8167365E-01
       -2   -1    0    0    0  501  0.00000000000E+00  0.00000000000E+00  0.12690080891E+04  0.12690080891E+04  0.25500000920E-02 0.  1.
        2   -1    0    0  501    0  0.00000000000E+00  0.00000000000E+00 -0.21226697334E+04  0.21226697334E+04  0.25500000920E-02 0. -1.
    10030    2    1    2    0    0  0.00000000000E+00  0.00000000000E+00 -0.85366164430E+03  0.33916778226E+04  0.32824899466E+04 0.  0.
        3    1    3    3  502    0 -0.15475552076E+02  0.53743784599E+03  0.11754298065E+04  0.12925610900E+04  0.10100000352E+00 0.  1.
       -3    1    3    3    0  502  0.15475552076E+02 -0.53743784599E+03 -0.20290914508E+04  0.20991167326E+04  0.10100000352E+00 0. -1.
</event>
<event>
 5   0  0.2080770E-07  0.3121808E+04  0.7818609E-02  0.8209778E-01
        1   -1    0    0  501    0  0.00000000000E+00  0.00000000000E+00  0.23359649285E+04  0.23359649286E+04  0.50400001928E-02 0.  1.
       -1   -1    0    0    0  501  0.00000000000E+00  0.00000000000E+00 -0.10430043127E+04  0.10430043127E+04  0.50400001928E-02 0. -1.
    10030    2    1    2    0    0  0.00000000000E+00  0.00000000000E+00  0.12929606158E+04  0.33789692413E+04  0.31218081266E+04 0.  0.
        4    1    3    3  502    0  0.22759119728E+03  0.12225318981E+03 -0.10197020928E+04  0.10519208936E+04  0.12699999809E+01 0. -1.
       -4    1    3    3    0  502 -0.22759119728E+03 -0.12225318981E+03  0.23126627086E+04  0.23270483476E+04  0.12699999809E+01 0.  1.
</event>
<event>
 5   0  0.2080828E-07  0.3274492E+04  0.7818609E-02  0.8169416E-01
        1   -1    0    0  501    0  0.00000000000E+00  0.00000000000E+00  0.31538690230E+04  0.31538690230E+04  0.50400001928E-02 0. -1.
       -1   -1    0    0    0  501  0.00000000000E+00  0.00000000000E+00 -0.84993204543E+03  0.84993204545E+03  0.50400001928E-02 0.  1.
    10030    2    1    2    0    0  0.00000000000E+00  0.00000000000E+00  0.23039369776E+04  0.40038010684E+04  0.32744919299E+04 0.  0.
        1    1    3    3  502    0 -0.60892009091E+03 -0.13092959995E+04  0.20838118810E+03  0.14589250875E+04  0.50400001928E-02 0.  1.
       -1    1    3    3    0  502  0.60892009091E+03  0.13092959995E+04  0.20955557895E+04  0.25448759809E+04  0.50400001928E-02 0. -1.
</event>
<event>
 5   0  0.2087665E-07  0.3283334E+04  0.7818609E-02  0.8167149E-01
        1   -1    0    0  501    0  0.00000000000E+00  0.00000000000E+00  0.15336518416E+04  0.15336518416E+04  0.50400001928E-02 0. -1.
       -1   -1    0    0    0  501  0.00000000000E+00  0.00000000000E+00 -0.17572894993E+04  0.17572894993E+04  0.50400001928E-02 0.  1.
    10030    2    1    2    0    0  0.00000000000E+00  0.00000000000E+00 -0.22363765772E+03  0.32909413410E+04  0.32833338404E+04 0.  0.
        5    1    3    3  502    0 -0.30612525795E+03 -0.10703354706E+04  0.10975078921E+04  0.15632902342E+04  0.46999998093E+01 0. -1.
       -5    1    3    3    0  502  0.30612525795E+03  0.10703354706E+04 -0.13211455498E+04  0.17276511068E+04  0.46999998093E+01 0.  1.
</event>
<event>
 5   0  0.6426079E-07  0.3296686E+04  0.7818609E-02  0.8163739E-01
        2   -1    0    0  501    0  0.00000000000E+00  0.00000000000E+00  0.18597604198E+04  0.18597604198E+04  0.25500000920E-02 0.  1.
       -2   -1    0    0    0  501  0.00000000000E+00  0.00000000000E+00 -0.14609591735E+04  0.14609591735E+04  0.25500000920E-02 0. -1.
    10030    2    1    2    0    0  0.00000000000E+00  0.00000000000E+00  0.39880124632E+03  0.33207195933E+04  0.32966856361E+04 0.  0.
        4    1    3    3  502    0  0.74016600485E+03  0.77810855515E+03  0.14590105650E+04  0.18116324352E+04  0.12699999809E+01 0.  1.
       -4    1    3    3    0  502 -0.74016600485E+03 -0.77810855515E+03 -0.10602093187E+04  0.15090871581E+04  0.12699999809E+01 0. -1.
</event>
<event>
 5   0  0.6426079E-07  0.3304124E+04  0.7818609E-02  0.8161847E-01
        2   -1    0    0  501    0  0.00000000000E+00  0.00000000000E+00  0.21017037222E+04  0.21017037222E+04  0.25500000920E-02 0.  1.
       -2   -1    0    0    0  501  0.00000000000E+00  0.00000000000E+00 -0.12986169775E+04  0.12986169775E+04  0.25500000920E-02 0. -1.
    10030    2    1    2    0    0  0.00000000000E+00  0.00000000000E+00  0.80308674469E+03  0.34003206997E+04  0.33041235663E+04 0.  0.
        4    1    3    3  502    0 -0.25347179850E+03 -0.10552476803E+04  0.16834046089E+04  0.20029099604E+04  0.12699999809E+01 0.  1.
       -4    1    3    3    0  502  0.25347179850E+03  0.10552476803E+04 -0.88031786421E+03  0.13974107393E+04  0.12699999809E+01 0. -1.
</event>
<event>
 5   0  0.2057130E-07  0.3296454E+04  0.7818609E-02  0.8163798E-01
       -1   -1    0    0    0  501  0.00000000000E+00  0.00000000000E+00  0.11273952511E+04  0.11273952511E+04  0.50400001928E-02 0. -1.
        1   -1    0    0  501    0  0.00000000000E+00  0.00000000000E+00 -0.24096720860E+04  0.24096720860E+04  0.50400001928E-02 0.  1.
    10030    2    1    2    0    0  0.00000000000E+00  0.00000000000E+00 -0.12822768349E+04  0.35370673372E+04  0.32964543780E+04 0.  0.
        2    1    3    3  502    0  0.91090250759E+03 -0.97471921557E+03 -0.16796876819E+04  0.21450341807E+04  0.25500000920E-02 0.  1.
       -2    1    3    3    0  502 -0.91090250759E+03  0.97471921557E+03  0.39741084697E+03  0.13920331565E+04  0.25500000920E-02 0. -1.
</event>
<event>
 5   0  0.2087665E-07  0.3304040E+04  0.7818609E-02  0.8161868E-01
        1   -1    0    0  501    0  0.00000000000E+00  0.00000000000E+00  0.12666980348E+04  0.12666980348E+04  0.50400001928E-02 0.  1.
       -1   -1    0    0    0  501  0.00000000000E+00  0.00000000000E+00 -0.21545540301E+04  0.21545540301E+04  0.50400001928E-02 0. -1.
    10030    2    1    2    0    0  0.00000000000E+00  0.00000000000E+00 -0.88785599533E+03  0.34212520649E+04  0.33040395614E+04 0.  0.
        5    1    3    3  502    0  0.92782777369E+03 -0.15510553044E+03  0.96227106914E+03  0.13457004881E+04  0.46999998093E+01 0.  1.
       -5    1    3    3    0  502 -0.92782777369E+03  0.15510553044E+03 -0.18501270645E+04  0.20755515768E+04  0.46999998093E+01 0. -1.
</event>
<event>
 5   0  0.2087665E-07  0.3306138E+04  0.7818609E-02  0.8161335E-01
        1   -1    0    0  501    0  0.00000000000E+00  0.00000000000E+00  0.26568020449E+04  0.26568020449E+04  0.50400001928E-02 0.  1.
       -1   -1    0    0    0  501  0.00000000000E+00  0.00000000000E+00 -0.10285438522E+04  0.10285438522E+04  0.50400001928E-02 0. -1.
    10030    2    1    2    0    0  0.00000000000E+00  0.00000000000E+00  0.16282581927E+04  0.36853458971E+04  0.33061381761E+04 0.  0.
        5    1    3    3  502    0  0.97166785415E+03 -0.60932253401E+03  0.21411362967E+04  0.24289707904E+04  0.46999998093E+01 0.  1.
       -5    1    3    3    0  502 -0.97166785415E+03  0.60932253401E+03 -0.51287810406E+03  0.12563751068E+04  0.46999998093E+01 0. -1.
</event>
<event>
 5   0  0.6424183E-07  0.3301620E+04  0.7818609E-02  0.8162483E-01
        2   -1    0    0  501    0  0.00000000000E+00  0.00000000000E+00  0.16049570381E+04  0.16049570381E+04  0.25500000920E-02 0.  1.
       -2   -1    0    0    0  501  0.00000000000E+00  0.00000000000E+00 -0.16979727657E+04  0.16979727657E+04  0.25500000920E-02 0. -1.
    10030    2    1    2    0    0  0.00000000000E+00  0.00000000000E+00 -0.93015727676E+02  0.33029298038E+04  0.33016198090E+04 0.  0.
        2    1    3    3  502    0 -0.11552301060E+04  0.59516000224E+03 -0.10649497674E+04  0.16801458368E+04  0.25500000920E-02 0. -1.
       -2    1    3    3    0  502  0.11552301060E+04 -0.59516000224E+03  0.97193403969E+03  0.16227839670E+04  0.25500000920E-02 0.  1.
</event>
<event>
 5   0  0.6351753E-07  0.3288582E+04  0.7818609E-02  0.8165807E-01
       -2   -1    0    0    0  501  0.00000000000E+00  0.00000000000E+00  0.15294479491E+04  0.15294479491E+04  0.25500000920E-02 0.  1.
        2   -1    0    0  501    0  0.00000000000E+00  0.00000000000E+00 -0.17677575024E+04  0.17677575024E+04  0.25500000920E-02 0. -1.
    10030    2    1    2    0    0  0.00000000000E+00  0.00000000000E+00 -0.23830955337E+03  0.32972054515E+04  0.32885821179E+04 0.  0.
        3    1    3    3  502    0  0.29142693703E+03  0.27458738312E+03 -0.17181297981E+04  0.17641705995E+04  0.10100000352E+00 0. -1.
       -3    1    3    3    0  502 -0.29142693703E+03 -0.27458738312E+03  0.14798202448E+04  0.15330348520E+04  0.10100000352E+00 0.  1.
</event>
<event>
 5   0  0.6377741E-07  0.3299129E+04  0.7818609E-02  0.8163117E-01
        2   -1    0    0  501    0  0.00000000000E+00  0.00000000000E+00  0.19445573824E+04  0.19445573824E+04  0.25500000920E-02 0. -1.
       -2   -1    0    0    0  501  0.00000000000E+00  0.00000000000E+00 -0.13993227251E+04  0.13993227251E+04  0.25500000920E-02 0.  1.
    10030    2    1    2    0    0  0.00000000000E+00  0.00000000000E+00  0.54523465736E+03  0.33438801075E+04  0.32991291793E+04 0.  0.
        1    1    3    3  502    0 -0.59446945690E+03  0.29665559442E+03  0.18029536255E+04  0.19214682544E+04  0.50400001928E-02 0. -1.
       -1    1    3    3    0  502  0.59446945690E+03 -0.29665559442E+03 -0.12577189682E+04  0.14224118531E+04  0.50400001928E-02 0.  1.
</event>
<event>
 5   0  0.6424183E-07  0.3317532E+04  0.7818609E-02  0.8158449E-01
       -2   -1    0    0    0  501  0.00000000000E+00  0.00000000000E+00  0.14536838731E+04  0.14536838731E+04  0.25500000920E-02 0.  1.
        2   -1    0    0  501    0  0.00000000000E+00  0.00000000000E+00 -0.18927810201E+04  0.18927810201E+04  0.25500000920E-02 0. -1.
    10030    2    1    2    0    0  0.00000000000E+00  0.00000000000E+00 -0.43909714700E+03  0.33464648932E+04  0.33175323626E+04 0.  0.
        2    1    3    3  502    0 -0.37007465105E+03 -0.12137614267E+04 -0.12971975722E+04  0.18146331832E+04  0.25500000920E-02 0. -1.
       -2    1    3    3    0  502  0.37007465105E+03  0.12137614267E+04  0.85810042517E+03  0.15318317101E+04  0.25500000920E-02 0.  1.
</event>
<event>
 5   0  0.6351753E-07  0.3299856E+04  0.7818609E-02  0.8162932E-01
        2   -1    0    0  501    0  0.00000000000E+00  0.00000000000E+00  0.20400669564E+04  0.20400669564E+04  0.25500000920E-02 0. -1.
       -2   -1    0    0    0  501  0.00000000000E+00  0.00000000000E+00 -0.13343988267E+04  0.13343988267E+04  0.25500000920E-02 0.  1.
    10030    2    1    2    0    0  0.00000000000E+00  0.00000000000E+00  0.70566812974E+03  0.33744657831E+04  0.32998563320E+04 0.  0.
        3    1    3    3  502    0  0.45571313363E+03  0.13211472516E+04 -0.54401197872E+03  0.14996844880E+04  0.10100000352E+00 0.  1.
       -3    1    3    3    0  502 -0.45571313363E+03 -0.13211472516E+04  0.12496801085E+04  0.18747812950E+04  0.10100000352E+00 0. -1.
</event>
<event>
 5   0  0.2087665E-07  0.3313522E+04  0.7818609E-02  0.8159463E-01
       -1   -1    0    0    0  501  0.00000000000E+00  0.00000000000E+00  0.22544778280E+04  0.22544778280E+04  0.50400001928E-02 0. -1.
        1   -1    0    0  501    0  0.00000000000E+00  0.00000000000E+00 -0.12175131540E+04  0.12175131541E+04  0.50400001928E-02 0.  1.
    10030    2    1    2    0    0  0.00000000000E+00  0.00000000000E+00  0.10369646740E+04  0.34719909821E+04  0.33135216378E+04 0.  0.
        5    1    3    3  502    0  0.53863734258E+03 -0.11008191918E+04 -0.64969045929E+03  0.13871023260E+04  0.46999998093E+01 0.  1.
       -5    1    3    3    0  502 -0.53863734258E+03  0.11008191918E+04  0.16866551332E+04  0.20848886561E+04  0.46999998093E+01 0. -1.
</event>
<event>
 5   0  0.6258718E-07  0.3365954E+04  0.7818609E-02  0.8146313E-01
       -2   -1    0    0    0  501  0.00000000000E+00  0.00000000000E+00  0.10993517800E+04  0.10993517800E+04  0.25500000920E-02 0. -1.
        2   -1    0    0  501    0  0.00000000000E+00  0.00000000000E+00 -0.25764383901E+04  0.25764383901E+04  0.25500000920E-02 0.  1.
    10030    2    1    2    0    0  0.00000000000E+00  0.00000000000E+00 -0.14770866100E+04  0.36757901701E+04  0.33659543254E+04 0.  0.
        5    1    3    3  502    0 -0.10597816024E+04  0.13073127662E+04 -0.72363666156E+03  0.18319049707E+04  0.46999998093E+01 0.  1.
       -5    1    3    3    0  502  0.10597816024E+04 -0.13073127662E+04 -0.75344994848E+03  0.18438851994E+04  0.46999998093E+01 0. -1.
</event>
<event>
 5   0  0.2087665E-07  0.3297098E+04  0.7818609E-02  0.8163634E-01
        1   -1    0    0  501    0  0.00000000000E+00  0.00000000000E+00  0.25132134803E+04  0.25132134803E+04  0.50400001928E-02 0.  1.
       -1   -1    0    0    0  501  0.00000000000E+00  0.00000000000E+00 -0.10813702586E+04  0.10813702586E+04  0.50400001928E-02 0. -1.
    10030    2    1    2    0    0  0.00000000000E+00  0.00000000000E+00  0.14318432217E+04  0.35945837389E+04  0.32970983068E+04 0.  0.
        5    1    3    3  502    0  0.32156554448E+03 -0.29079448701E+03 -0.10180959226E+04  0.11065745481E+04  0.46999998093E+01 0. -1.
       -5    1    3    3    0  502 -0.32156554448E+03  0.29079448701E+03  0.24499391442E+04  0.24880091908E+04  0.46999998093E+01 0.  1.
</event>
<event>
 5   0  0.2037333E-07  0.3230019E+04  0.7818609E-02  0.8180934E-01
       -1   -1    0    0    0  501  0.00000000000E+00  0.00000000000E+00  0.14905595900E+04  0.14905595900E+04  0.50400001928E-02 0. -1.
        1   -1    0    0  501    0  0.00000000000E+00  0.00000000000E+00 -0.17498502757E+04  0.17498502757E+04  0.50400001928E-02 0.  1.
    10030    2    1    2    0    0  0.00000000000E+00  0.00000000000E+00 -0.25929068570E+03  0.32404098658E+04  0.32300192628E+04 0.  0.
        3    1    3    3  502    0  0.39823689998E+03 -0.11594865095E+04 -0.11843381407E+04  0.17045992009E+04  0.10100000352E+00 0.  1.
       -3    1    3    3    0  502 -0.39823689998E+03  0.11594865095E+04  0.92504745496E+03  0.15358106648E+04  0.10100000352E+00 0. -1.
</event>
<event>
 5   0  0.6351753E-07  0.3297731E+04  0.7818609E-02  0.8163473E-01
        2   -1    0    0  501    0  0.00000000000E+00  0.00000000000E+00  0.78311029092E+03  0.78311029092E+03  0.25500000920E-02 0.  1.
       -2   -1    0    0    0  501  0.00000000000E+00  0.00000000000E+00 -0.34717432607E+04  0.34717432607E+04  0.25500000920E-02 0. -1.
    10030    2    1    2    0    0  0.00000000000E+00  0.00000000000E+00 -0.26886329698E+04  0.42548535516E+04  0.32977312655E+04 0.  0.
        3    1    3    3  502    0  0.72755042982E+03  0.62985488163E+03 -0.30718421346E+04  0.32190465840E+04  0.10100000352E+00 0. -1.
       -3    1    3    3    0  502 -0.72755042982E+03 -0.62985488163E+03  0.38320916487E+03  0.10358069676E+04  0.10100000352E+00 0.  1.
</event>
<event>
 5   0  0.2080828E-07  0.3300592E+04  0.7818609E-02  0.8162745E-01
       -1   -1    0    0    0  501  0.00000000000E+00  0.00000000000E+00  0.15264423084E+04  0.15264423084E+04  0.50400001928E-02 0.  1.
        1   -1    0    0  501    0  0.00000000000E+00  0.00000000000E+00 -0.17841993817E+04  0.17841993817E+04  0.50400001928E-02 0. -1.
    10030    2    1    2    0    0  0.00000000000E+00  0.00000000000E+00 -0.25775707333E+03  0.33106416901E+04  0.33005923243E+04 0.  0.
        1    1    3    3  502    0  0.99066012031E+03  0.38520866403E+03 -0.13951342925E+04  0.17539078890E+04  0.50400001928E-02 0. -1.
       -1    1    3    3    0  502 -0.99066012031E+03 -0.38520866403E+03  0.11373772192E+04  0.15567338011E+04  0.50400001928E-02 0.  1.
</event>
<event>
 5   0  0.2087665E-07  0.3310112E+04  0.7818609E-02  0.8160327E-01
       -1   -1    0    0    0  501  0.00000000000E+00  0.00000000000E+00  0.17272451204E+04  0.17272451204E+04  0.50400001928E-02 0.  1.
        1   -1    0    0  501    0  0.00000000000E+00  0.00000000000E+00 -0.15858839617E+04  0.15858839617E+04  0.50400001928E-02 0. -1.
    10030    2    1    2    0    0  0.00000000000E+00  0.00000000000E+00  0.14136115870E+03  0.33131290821E+04  0.33101119826E+04 0.  0.
        5    1    3    3  502    0  0.30554913343E+03  0.74919711710E+03 -0.13744261292E+04  0.15949062254E+04  0.46999998093E+01 0. -1.
       -5    1    3    3    0  502 -0.30554913343E+03 -0.74919711710E+03  0.15157872879E+04  0.17182228567E+04  0.46999998093E+01 0.  1.
</event>
<event>
 5   0  0.2080770E-07  0.3308074E+04  0.7818609E-02  0.8160844E-01
        1   -1    0    0  501    0  0.00000000000E+00  0.00000000000E+00  0.93640943313E+03  0.93640943315E+03  0.50400001928E-02 0.  1.
       -1   -1    0    0    0  501  0.00000000000E+00  0.00000000000E+00 -0.29216255521E+04  0.29216255521E+04  0.50400001928E-02 0. -1.
    10030    2    1    2    0    0  0.00000000000E+00  0.00000000000E+00 -0.19852161190E+04  0.38580349853E+04  0.33080735948E+04 0.  0.
        4    1    3    3  502    0  0.50924764053E+03 -0.10299426330E+04  0.39504167049E+03  0.12149792265E+04  0.12699999809E+01 0.  1.
       -4    1    3    3    0  502 -0.50924764053E+03  0.10299426330E+04 -0.23802577895E+04  0.26430557587E+04  0.12699999809E+01 0. -1.
</event>
<event>
 5   0  0.2087665E-07  0.3299120E+04  0.7818609E-02  0.8163119E-01
       -1   -1    0    0    0  501  0.00000000000E+00  0.00000000000E+00  0.15448531931E+04  0.15448531931E+04  0.50400001928E-02 0.  1.
        1   -1    0    0  501    0  0.00000000000E+00  0.00000000000E+00 -0.17613639221E+04  0.17613639221E+04  0.50400001928E-02 0. -1.
    10030    2    1    2    0    0  0.00000000000E+00  0.00000000000E+00 -0.21651072900E+03  0.33062171153E+04  0.32991202945E+04 0.  0.
        5    1    3    3  502    0 -0.94062574742E+03 -0.60333366134E+03  0.11077129887E+04  0.15734797295E+04  0.46999998093E+01 0.  1.
       -5    1    3    3    0  502  0.94062574742E+03  0.60333366134E+03 -0.13242237177E+04  0.17327373858E+04  0.46999998093E+01 0. -1.
</event>
<event>
 5   0  0.6426079E-07  0.3295375E+04  0.7818609E-02  0.8164073E-01
        2   -1    0    0  501    0  0.00000000000E+00  0.00000000000E+00  0.17110027586E+04  0.17110027586E+04  0.25500000920E-02 0.  1.
       -2   -1    0    0    0  501  0.00000000000E+00  0.00000000000E+00 -0.15867155608E+04  0.15867155608E+04  0.25500000920E-02 0. -1.
    10030    2    1    2    0    0  0.00000000000E+00  0.00000000000E+00  0.12428719779E+03  0.32977183195E+04  0.32953753666E+04 0.  0.
        4    1    3    3  502    0  0.11726076978E+04 -0.11573055552E+04  0.39585883070E+02  0.16480089855E+04  0.12699999809E+01 0.  1.
       -4    1    3    3    0  502 -0.11726076978E+04  0.11573055552E+04  0.84701314724E+02  0.16497093340E+04  0.12699999809E+01 0. -1.
</event>
<event>
 5   0  0.6377741E-07  0.3300715E+04  0.7818609E-02  0.8162713E-01
        2   -1    0    0  501    0  0.00000000000E+00  0.00000000000E+00  0.13541601114E+04  0.13541601114E+04  0.25500000920E-02 0. -1.
       -2   -1    0    0    0  501  0.00000000000E+00  0.00000000000E+00 -0.20113430436E+04  0.20113430436E+04  0.25500000920E-02 0.  1.
    10030    2    1    2    0    0  0.00000000000E+00  0.00000000000E+00 -0.65718293225E+03  0.33655031550E+04  0.33007153891E+04 0.  0.
        1    1    3    3  502    0  0.19702609551E+03  0.14459555501E+04 -0.11144821093E+04  0.18362127075E+04  0.50400001928E-02 0.  1.
       -1    1    3    3    0  502 -0.19702609551E+03 -0.14459555501E+04  0.45729917709E+03  0.15292904474E+04  0.50400001928E-02 0. -1.
</event>
<event>
 5   0  0.2080770E-07  0.3294276E+04  0.7818609E-02  0.8164353E-01
       -1   -1    0    0    0  501  0.00000000000E+00  0.00000000000E+00  0.10348796182E+04  0.10348796182E+04  0.50400001928E-02 0.  1.
        1   -1    0    0  501    0  0.00000000000E+00  0.00000000000E+00 -0.26216230109E+04  0.26216230109E+04  0.50400001928E-02 0. -1.
    10030    2    1    2    0    0  0.00000000000E+00  0.00000000000E+00 -0.15867433927E+04  0.36565026291E+04  0.32942763822E+04 0.  0.
        4    1    3    3  502    0  0.59679002931E+02  0.11525385069E+04 -0.20978210648E+04  0.23943185724E+04  0.12699999809E+01 0. -1.
       -4    1    3    3    0  502 -0.59679002931E+02 -0.11525385069E+04  0.51107767203E+03  0.12621840567E+04  0.12699999809E+01 0.  1.
</event>
<event>
 5   0  0.6424183E-07  0.3320216E+04  0.7818609E-02  0.8157770E-01
       -2   -1    0    0    0  501  0.00000000000E+00  0.00000000000E+00  0.13532031845E+04  0.13532031845E+04  0.25500000920E-02 0.  1.
        2   -1    0    0  501    0  0.00000000000E+00  0.00000000000E+00 -0.20366182748E+04  0.20366182748E+04  0.25500000920E-02 0. -1.
    10030    2    1    2    0    0  0.00000000000E+00  0.00000000000E+00 -0.68341509027E+03  0.33898214593E+04  0.33202158575E+04 0.  0.
        2    1    3    3  502    0  0.55817992976E+03 -0.12961061266E+04  0.55098094363E+03  0.15149375979E+04  0.25500000920E-02 0.  1.
       -2    1    3    3    0  502 -0.55817992976E+03  0.12961061266E+04 -0.12343960339E+04  0.18748838614E+04  0.25500000920E-02 0. -1.
</event>
<event>
 5   0  0.2087665E-07  0.3290701E+04  0.7818609E-02  0.8165266E-01
       -1   -1    0    0    0  501  0.00000000000E+00  0.00000000000E+00  0.14621612637E+04  0.14621612637E+04  0.50400001928E-02 0. -1.
        1   -1    0    0  501    0  0.00000000000E+00  0.00000000000E+00 -0.18514904309E+04  0.18514904309E+04  0.50400001928E-02 0.  1.
    10030    2    1    2    0    0  0.00000000000E+00  0.00000000000E+00 -0.38932916726E+03  0.33136516946E+04  0.32907005869E+04 0.  0.
        5    1    3    3  502    0  0.47727681050E+02  0.15922249165E+04 -0.60948111832E+03  0.17055636722E+04  0.46999998093E+01 0.  1.
       -5    1    3    3    0  502 -0.47727681050E+02 -0.15922249165E+04  0.22015195106E+03  0.16080880224E+04  0.46999998093E+01 0. -1.
</event>
<event>
 5   0  0.6424183E-07  0.3293857E+04  0.7818609E-02  0.8164460E-01
       -2   -1    0    0    0  501  0.00000000000E+00  0.00000000000E+00  0.14385691367E+04  0.14385691367E+04  0.25500000920E-02 0.  1.
        2   -1    0    0  501    0  0.00000000000E+00  0.00000000000E+00 -0.18854656661E+04  0.18854656662E+04  0.25500000920E-02 0. -1.
    10030    2    1    2    0    0  0.00000000000E+00  0.00000000000E+00 -0.44689652941E+03  0.33240348029E+04  0.32938565334E+04 0.  0.
        2    1    3    3  502    0  0.12488178653E+04  0.10235696572E+04  0.10376278218E+03  0.16180258400E+04  0.25500000920E-02 0.  1.
       -2    1    3    3    0  502 -0.12488178653E+04 -0.10235696572E+04 -0.55065931159E+03  0.17060089629E+04  0.25500000920E-02 0. -1.
</event>
<event>
 5   0  0.2080770E-07  0.3297284E+04  0.7818609E-02  0.8163587E-01
       -1   -1    0    0    0  501  0.00000000000E+00  0.00000000000E+00  0.13359244158E+04  0.13359244159E+04  0.50400001928E-02 0. -1.
        1   -1    0    0  501    0  0.00000000000E+00  0.00000000000E+00 -0.20345615582E+04  0.20345615582E+04  0.50400001928E-02 0.  1.
    10030    2    1    2    0    0  0.00000000000E+00  0.00000000000E+00 -0.69863714236E+03  0.33704859741E+04  0.32972840103E+04 0.  0.
        4    1    3    3  502    0  0.10352041713E+04  0.90654256093E+03 -0.12775261892E+04  0.18776426358E+04  0.12699999809E+01 0.  1.
       -4    1    3    3    0  502 -0.10352041713E+04 -0.90654256093E+03  0.57888904679E+03  0.14928433382E+04  0.12699999809E+01 0. -1.
</event>
<event>
 5   0  0.2080770E-07  0.3278123E+04  0.7818609E-02  0.8168484E-01
        1   -1    0    0  501    0  0.00000000000E+00  0.00000000000E+00  0.19897423241E+04  0.19897423241E+04  0.50400001928E-02 0. -1.
       -1   -1    0    0    0  501  0.00000000000E+00  0.00000000000E+00 -0.13501860235E+04  0.13501860235E+04  0.50400001928E-02 0.  1.
    10030    2    1    2    0    0  0.00000000000E+00  0.00000000000E+00  0.63955630063E+03  0.33399283476E+04  0.32781228020E+04 0.  0.
        4    1    3    3  502    0  0.77487267782E+03  0.11738264980E+02 -0.11517359252E+04  0.13881868419E+04  0.12699999809E+01 0.  1.
       -4    1    3    3    0  502 -0.77487267782E+03 -0.11738264980E+02  0.17912922258E+04  0.19517415057E+04  0.12699999809E+01 0. -1.
</event>
<event>
 5   0  0.2080770E-07  0.3226340E+04  0.7818609E-02  0.8181895E-01
       -1   -1    0    0    0  501  0.00000000000E+00  0.00000000000E+00  0.10450735847E+04  0.10450735847E+04  0.50400001928E-02 0. -1.
        1   -1    0    0  501    0  0.00000000000E+00  0.00000000000E+00 -0.24900812178E+04  0.24900812178E+04  0.50400001928E-02 0.  1.
    10030    2    1    2    0    0  0.00000000000E+00  0.00000000000E+00 -0.14450076331E+04  0.35351548026E+04  0.32263404065E+04 0.  0.
        4    1    3    3  502    0  0.38139259428E+03  0.23513374843E+03  0.97552759580E+03  0.10735007656E+04  0.12699999809E+01 0. -1.
       -4    1    3    3    0  502 -0.38139259428E+03 -0.23513374843E+03 -0.24205352289E+04  0.24616540370E+04  0.12699999809E+01 0.  1.
</event>
<event>
 5   0  0.6426079E-07  0.3312369E+04  0.7818609E-02  0.8159755E-01
        2   -1    0    0  501    0  0.00000000000E+00  0.00000000000E+00  0.12777544667E+04  0.12777544667E+04  0.25500000920E-02 0.  1.
       -2   -1    0    0    0  501  0.00000000000E+00  0.00000000000E+00 -0.21466932791E+04  0.21466932791E+04  0.25500000920E-02 0. -1.
    10030    2    1    2    0    0  0.00000000000E+00  0.00000000000E+00 -0.86893881247E+03  0.34244477458E+04  0.33123688961E+04 0.  0.
        4    1    3    3  502    0 -0.11798107055E+04 -0.33441109374E+03 -0.15853115432E+04  0.20042450904E+04  0.12699999809E+01 0. -1.
       -4    1    3    3    0  502  0.11798107055E+04  0.33441109374E+03  0.71637273072E+03  0.14202026555E+04  0.12699999809E+01 0.  1.
</event>
<event>
 5   0  0.1994250E-07  0.3297324E+04  0.7818609E-02  0.8163576E-01
        3   -1    0    0  501    0  0.00000000000E+00  0.00000000000E+00  0.16151231779E+04  0.16151231810E+04  0.10100000352E+00 0. -1.
       -3   -1    0    0    0  501  0.00000000000E+00  0.00000000000E+00 -0.16828977704E+04  0.16828977734E+04  0.10100000352E+00 0.  1.
    10030    2    1    2    0    0  0.00000000000E+00  0.00000000000E+00 -0.67774592516E+02  0.32980209545E+04  0.32973244943E+04 0.  0.
        5    1    3    3  502    0  0.15138962432E+04 -0.56355051416E+03 -0.36349308714E+03  0.16557839024E+04  0.46999998093E+01 0. -1.
       -5    1    3    3    0  502 -0.15138962432E+04  0.56355051416E+03  0.29571849463E+03  0.16422370521E+04  0.46999998093E+01 0.  1.
</event>
<event>
 5   0  0.6258718E-07  0.3300933E+04  0.7818609E-02  0.8162658E-01
       -2   -1    0    0    0  501  0.00000000000E+00  0.00000000000E+00  0.19341661298E+04  0.19341661298E+04  0.25500000920E-02 0. -1.
        2   -1    0    0  501    0  0.00000000000E+00  0.00000000000E+00 -0.14083790442E+04  0.14083790442E+04  0.25500000920E-02 0.  1.
    10030    2    1    2    0    0  0.00000000000E+00  0.00000000000E+00  0.52578708560E+03  0.33425451741E+04  0.33009326230E+04 0.  0.
        5    1    3    3  502    0 -0.26696158840E+03 -0.97248868836E+03  0.15858915641E+04  0.18793820478E+04  0.46999998093E+01 0. -1.
       -5    1    3    3    0  502  0.26696158840E+03  0.97248868836E+03 -0.10601044785E+04  0.14631631262E+04  0.46999998093E+01 0.  1.
</event>
<event>
 5   0  0.6258718E-07  0.3347859E+04  0.7818609E-02  0.8150823E-01
       -2   -1    0    0    0  501  0.00000000000E+00  0.00000000000E+00  0.15058315157E+04  0.15058315157E+04  0.25500000920E-02 0.  1.
        2   -1    0    0  501    0  0.00000000000E+00  0.00000000000E+00 -0.18607919610E+04  0.18607919610E+04  0.25500000920E-02 0. -1.
    10030    2    1    2    0    0  0.00000000000E+00  0.00000000000E+00 -0.35496044532E+03  0.33666234767E+04  0.33478585269E+04 0.  0.
        5    1    3    3  502    0 -0.12073235844E+04 -0.31290676311E+03 -0.13001950211E+04  0.18016853395E+04  0.46999998093E+01 0. -1.
       -5    1    3    3    0  502  0.12073235844E+04  0.31290676311E+03  0.94523457577E+03  0.15649381371E+04  0.46999998093E+01 0.  1.
</event>
<event>
 5   0  0.6426079E-07  0.3298400E+04  0.7818609E-02  0.8163303E-01
        2   -1    0    0  501    0  0.00000000000E+00  0.00000000000E+00  0.20902755175E+04  0.20902755175E+04  0.25500000920E-02 0.  1.
       -2   -1    0    0    0  501  0.00000000000E+00  0.00000000000E+00 -0.13011971288E+04  0.13011971288E+04  0.25500000920E-02 0. -1.
    10030    2    1    2    0    0  0.00000000000E+00  0.00000000000E+00  0.78907838872E+03  0.33914726463E+04  0.32983999162E+04 0.  0.
        4    1    3    3  502    0  0.61814887617E+03 -0.13859404552E+04 -0.26937403972E+03  0.15412666754E+04  0.12699999809E+01 0.  1.
       -4    1    3    3    0  502 -0.61814887617E+03  0.13859404552E+04  0.10584524284E+04  0.18502059709E+04  0.12699999809E+01 0. -1.
</event>
<event>
 5   0  0.2080828E-07  0.3317678E+04  0.7818609E-02  0.8158412E-01
       -1   -1    0    0    0  501  0.00000000000E+00  0.00000000000E+00  0.14437121357E+04  0.14437121357E+04  0.50400001928E-02 0.  1.
        1   -1    0    0  501    0  0.00000000000E+00  0.00000000000E+00 -0.19060221776E+04  0.19060221776E+04  0.50400001928E-02 0. -1.
    10030    2    1    2    0    0  0.00000000000E+00  0.00000000000E+00 -0.46231004192E+03  0.33497343134E+04  0.33176783140E+04 0.  0.
        1    1    3    3  502    0 -0.96476851492E+03  0.24541876548E+03  0.11085942883E+04  0.14899630713E+04  0.50400001928E-02 0.  1.
       -1    1    3    3    0  502  0.96476851492E+03 -0.24541876548E+03 -0.15709043302E+04  0.18597712420E+04  0.50400001928E-02 0. -1.
</event>
<event>
 5   0  0.2057130E-07  0.3300637E+04  0.7818609E-02  0.8162733E-01
        1   -1    0    0  501    0  0.00000000000E+00  0.00000000000E+00  0.15797099284E+04  0.15797099284E+04  0.50400001928E-02 0. -1.
       -1   -1    0    0    0  501  0.00000000000E+00  0.00000000000E+00 -0.17240827794E+04  0.17240827794E+04  0.50400001928E-02 0.  1.
    10030    2    1    2    0    0  0.00000000000E+00  0.00000000000E+00 -0.14437285098E+03  0.33037927078E+04  0.33006367168E+04 0.  0.
        2    1    3    3  502    0  0.11847266096E+04 -0.63700043675E+03  0.88486796403E+03  0.16100739144E+04  0.25500000920E-02 0. -1.
       -2    1    3    3    0  502 -0.11847266096E+04  0.63700043675E+03 -0.10292408150E+04  0.16937187935E+04  0.25500000920E-02 0.  1.
</event>
<event>
 5   0  0.6424183E-07  0.3311891E+04  0.7818609E-02  0.8159876E-01
        2   -1    0    0  501    0  0.00000000000E+00  0.00000000000E+00  0.19599508108E+04  0.19599508108E+04  0.25500000920E-02 0.  1.
       -2   -1    0    0    0  501  0.00000000000E+00  0.00000000000E+00 -0.13990941711E+04  0.13990941711E+04  0.25500000920E-02 0. -1.
    10030    2    1    2    0    0  0.00000000000E+00  0.00000000000E+00  0.56085663971E+03  0.33590449820E+04  0.33118911547E+04 0.  0.
        2    1    3    3  502    0 -0.11358472669E+04  0.86406207752E+02  0.14994309902E+04  0.18830582415E+04  0.25500000920E-02 0.  1.
       -2    1    3    3    0  502  0.11358472669E+04 -0.86406207752E+02 -0.93857435052E+03  0.14759867404E+04  0.25500000920E-02 0. -1.
</event>
<event>
 5   0  0.2057130E-07  0.3295537E+04  0.7818609E-02  0.8164032E-01
       -1   -1    0    0    0  501  0.00000000000E+00  0.00000000000E+00  0.14597110580E+04  0.14597110580E+04  0.50400001928E-02 0. -1.
        1   -1    0    0  501    0  0.00000000000E+00  0.00000000000E+00 -0.18600536961E+04  0.18600536961E+04  0.50400001928E-02 0.  1.
    10030    2    1    2    0    0  0.00000000000E+00  0.00000000000E+00 -0.40034263810E+03  0.33197647541E+04  0.32955369509E+04 0.  0.
        2    1    3    3  502    0  0.15748375076E+04 -0.43705116658E+03  0.11166293009E+02  0.16343963973E+04  0.25500000920E-02 0.  1.
       -2    1    3    3    0  502 -0.15748375076E+04  0.43705116658E+03 -0.41150893111E+03  0.16853683567E+04  0.25500000920E-02 0. -1.
</event>
<event>
 5   0  0.6351753E-07  0.3300680E+04  0.7818609E-02  0.8162722E-01
        2   -1    0    0  501    0  0.00000000000E+00  0.00000000000E+00  0.13069912432E+04  0.13069912432E+04  0.25500000920E-02 0.  1.
       -2   -1    0    0    0  501  0.00000000000E+00  0.00000000000E+00 -0.20838871857E+04  0.20838871857E+04  0.25500000920E-02 0. -1.
    10030    2    1    2    0    0  0.00000000000E+00  0.00000000000E+00 -0.77689594250E+03  0.33908784290E+04  0.33006801139E+04 0.  0.
        3    1    3    3  502    0 -0.10595889434E+04  0.23438590994E+03  0.88889481961E+03  0.14027827680E+04  0.10100000352E+00 0.  1.
       -3    1    3    3    0  502  0.10595889434E+04 -0.23438590994E+03 -0.16657907621E+04  0.19880956609E+04  0.10100000352E+00 0. -1.
</event>
<event>
 5   0  0.6258718E-07  0.3290964E+04  0.7818609E-02  0.8165198E-01
        2   -1    0    0  501    0  0.00000000000E+00  0.00000000000E+00  0.18781853682E+04  0.18781853682E+04  0.25500000920E-02 0. -1.
       -2   -1    0    0    0  501  0.00000000000E+00  0.00000000000E+00 -0.14416105367E+04  0.14416105367E+04  0.25500000920E-02 0.  1.
    10030    2    1    2    0    0  0.00000000000E+00  0.00000000000E+00  0.43657483152E+03  0.33197959049E+04  0.32909644889E+04 0.  0.
        5    1    3    3  502    0  0.37428173631E+03 -0.13174610784E+04  0.11383077835E+04  0.17808866363E+04  0.46999998093E+01 0. -1.
       -5    1    3    3    0  502 -0.37428173631E+03  0.13174610784E+04 -0.70173295202E+03  0.15389092687E+04  0.46999998093E+01 0.  1.
</event>
<event>
 5   0  0.2087665E-07  0.3318915E+04  0.7818609E-02  0.8158099E-01
        1   -1    0    0  501    0  0.00000000000E+00  0.00000000000E+00  0.18481174078E+04  0.18481174078E+04  0.50400001928E-02 0. -1.
       -1   -1    0    0    0  501  0.00000000000E+00  0.00000000000E+00 -0.14900565640E+04  0.14900565640E+04  0.50400001928E-02 0.  1.
    10030    2    1    2    0    0  0.00000000000E+00  0.00000000000E+00  0.35806084383E+03  0.33381739718E+04  0.33189151689E+04 0.  0.
        5    1    3    3  502    0  0.33878956894E+03  0.16231028731E+04  0.24677163489E+03  0.16763530769E+04  0.46999998093E+01 0.  1.
       -5    1    3    3    0  502 -0.33878956894E+03 -0.16231028731E+04  0.11128920894E+03  0.16618208949E+04  0.46999998093E+01 0. -1.
</event>
<event>
 5   0  0.2037333E-07  0.3292790E+04  0.7818609E-02  0.8164732E-01
        1   -1    0    0  501    0  0.00000000000E+00  0.00000000000E+00  0.16083627655E+04  0.16083627655E+04  0.50400001928E-02 0. -1.
       -1   -1    0    0    0  501  0.00000000000E+00  0.00000000000E+00 -0.16853262147E+04  0.16853262147E+04  0.50400001928E-02 0.  1.
    10030    2    1    2    0    0  0.00000000000E+00  0.00000000000E+00 -0.76963449154E+02  0.32936889802E+04  0.32927896571E+04 0.  0.
        3    1    3    3  502    0  0.41056572197E+03 -0.15309723778E+04  0.40680869003E+03  0.16364394135E+04  0.10100000352E+00 0. -1.
       -3    1    3    3    0  502 -0.41056572197E+03  0.15309723778E+04 -0.48377213918E+03  0.16572495667E+04  0.10100000352E+00 0.  1.
</event>
<event>
 5   0  0.6351753E-07  0.3302669E+04  0.7818609E-02  0.8162217E-01
       -2   -1    0    0    0  501  0.00000000000E+00  0.00000000000E+00  0.14094400098E+04  0.14094400098E+04  0.25500000920E-02 0. -1.
        2   -1    0    0  501    0  0.00000000000E+00  0.00000000000E+00 -0.19347440713E+04  0.19347440713E+04  0.25500000920E-02 0.  1.
    10030    2    1    2    0    0  0.00000000000E+00  0.00000000000E+00 -0.52530406146E+03  0.33441840811E+04  0.33026690436E+04 0.  0.
        3    1    3    3  502    0 -0.74107617761E+03  0.94081454058E+03  0.88855597321E+03  0.14912604161E+04  0.10100000352E+00 0. -1.
       -3    1    3    3    0  502  0.74107617761E+03 -0.94081454058E+03 -0.14138600347E+04  0.18529236651E+04  0.10100000352E+00 0.  1.
</event>
<event>
 5   0  0.6377741E-07  0.3263869E+04  0.7818609E-02  0.8172150E-01
        2   -1    0    0  501    0  0.00000000000E+00  0.00000000000E+00  0.22801369156E+04  0.22801369156E+04  0.25500000920E-02 0.  1.
       -2   -1    0    0    0  501  0.00000000000E+00  0.00000000000E+00 -0.11680047593E+04  0.11680047593E+04  0.25500000920E-02 0. -1.
    10030    2    1    2    0    0  0.00000000000E+00  0.00000000000E+00  0.11121321563E+04  0.34481416749E+04  0.32638693413E+04 0.  0.
        1    1    3    3  502    0 -0.17013482651E+03  0.52314836960E+02 -0.11577189323E+04  0.11713222561E+04  0.50400001928E-02 0. -1.
       -1    1    3    3    0  502  0.17013482651E+03 -0.52314836960E+02  0.22698510886E+04  0.22768194188E+04  0.50400001928E-02 0.  1.
</event>
<event>
 5   0  0.6377741E-07  0.3310324E+04  0.7818609E-02  0.8160273E-01
       -2   -1    0    0    0  501  0.00000000000E+00  0.00000000000E+00  0.22096496989E+04  0.22096496989E+04  0.25500000920E-02 0. -1.
        2   -1    0    0  501    0  0.00000000000E+00  0.00000000000E+00 -0.12398173553E+04  0.12398173553E+04  0.25500000920E-02 0.  1.
    10030    2    1    2    0    0  0.00000000000E+00  0.00000000000E+00  0.96983234365E+03  0.34494670542E+04  0.33103244831E+04 0.  0.
        1    1    3    3  502    0  0.69139481689E+03 -0.24985614342E+03 -0.10603547475E+04  0.12902740313E+04  0.50400001928E-02 0.  1.
       -1    1    3    3    0  502 -0.69139481689E+03  0.24985614342E+03  0.20301870911E+04  0.21591930229E+04  0.50400001928E-02 0. -1.
</event>
<event>
 5   0  0.6424183E-07  0.3299685E+04  0.7818609E-02  0.8162976E-01
        2   -1    0    0  501    0  0.00000000000E+00  0.00000000000E+00  0.18619339932E+04  0.18619339932E+04  0.25500000920E-02 0.  1.
       -2   -1    0    0    0  501  0.00000000000E+00  0.00000000000E+00 -0.14619097672E+04  0.14619097672E+04  0.25500000920E-02 0. -1.
    10030    2    1    2    0    0  0.00000000000E+00  0.00000000000E+00  0.40002422601E+03  0.33238437604E+04  0.32996845246E+04 0.  0.
        2    1    3    3  502    0  0.31069018029E+03 -0.72684333604E+02 -0.14305327703E+04  0.14656859852E+04  0.25500000920E-02 0. -1.
       -2    1    3    3    0  502 -0.31069018029E+03  0.72684333604E+02  0.18305569963E+04  0.18581577751E+04  0.25500000920E-02 0.  1.
</event>
<event>
 5   0  0.2080828E-07  0.3201461E+04  0.7818609E-02  0.8188431E-01
        1   -1    0    0  501    0  0.00000000000E+00  0.00000000000E+00  0.11307946581E+04  0.11307946581E+04  0.50400001928E-02 0. -1.
       -1   -1    0    0    0  501  0.00000000000E+00  0.00000000000E+00 -0.22659628905E+04  0.22659628905E+04  0.50400001928E-02 0.  1.
    10030    2    1    2    0    0  0.00000000000E+00  0.00000000000E+00 -0.11351682324E+04  0.33967575486E+04  0.32014613738E+04 0.  0.
        1    1    3    3  502    0  0.14615318780E+04 -0.30624168150E+03 -0.11793688152E+04  0.19028321524E+04  0.50400001928E-02 0.  1.
       -1    1    3    3    0  502 -0.14615318780E+04  0.30624168150E+03  0.44200582783E+02  0.14939253962E+04  0.50400001928E-02 0. -1.
</event>
<event>
 5   0  0.6377741E-07  0.3296877E+04  0.7818609E-02  0.8163690E-01
        2   -1    0    0  501    0  0.00000000000E+00  0.00000000000E+00  0.16245590050E+04  0.16245590050E+04  0.25500000920E-02 0. -1.
       -2   -1    0    0    0  501  0.00000000000E+00  0.00000000000E+00 -0.16726693309E+04  0.16726693309E+04  0.25500000920E-02 0.  1.
    10030    2    1    2    0    0  0.00000000000E+00  0.00000000000E+00 -0.48110325866E+02  0.32972283358E+04  0.32968773249E+04 0.  0.
        1    1    3    3  502    0 -0.12605539103E+04  0.10419446402E+04 -0.23072960174E+03  0.16516297839E+04  0.50400001928E-02 0.  1.
       -1    1    3    3    0  502  0.12605539103E+04 -0.10419446402E+04  0.18261927588E+03  0.16455985519E+04  0.50400001928E-02 0. -1.
</event>
<event>
 5   0  0.6426079E-07  0.3302969E+04  0.7818609E-02  0.8162140E-01
        2   -1    0    0  501    0  0.00000000000E+00  0.00000000000E+00  0.16293519874E+04  0.16293519874E+04  0.25500000920E-02 0. -1.
       -2   -1    0    0    0  501  0.00000000000E+00  0.00000000000E+00 -0.16739175767E+04  0.16739175767E+04  0.25500000920E-02 0.  1.
    10030    2    1    2    0    0  0.00000000000E+00  0.00000000000E+00 -0.44565589289E+02  0.33032695640E+04  0.33029689252E+04 0.  0.
        4    1    3    3  502    0 -0.64382845759E+03  0.14711887621E+04  0.36309350567E+03  0.16464355327E+04  0.12699999809E+01 0. -1.
       -4    1    3    3    0  502  0.64382845759E+03 -0.14711887621E+04 -0.40765909496E+03  0.16568340313E+04  0.12699999809E+01 0.  1.
</event>
<event>
 5   0  0.6351753E-07  0.3299821E+04  0.7818609E-02  0.8162941E-01
       -2   -1    0    0    0  501  0.00000000000E+00  0.00000000000E+00  0.12073760190E+04  0.12073760190E+04  0.25500000920E-02 0. -1.
        2   -1    0    0  501    0  0.00000000000E+00  0.00000000000E+00 -0.22546454420E+04  0.22546454420E+04  0.25500000920E-02 0.  1.
    10030    2    1    2    0    0  0.00000000000E+00  0.00000000000E+00 -0.10472694230E+04  0.34620214611E+04  0.32998211092E+04 0.  0.
        3    1    3    3  502    0  0.14101001604E+04 -0.47524634875E+03  0.22411372908E+03  0.15048151143E+04  0.10100000352E+00 0. -1.
       -3    1    3    3    0  502 -0.14101001604E+04  0.47524634875E+03 -0.12713831521E+04  0.19572063468E+04  0.10100000352E+00 0.  1.
</event>
<event>
 5   0  0.2087665E-07  0.3288599E+04  0.7818609E-02  0.8165802E-01
       -1   -1    0    0    0  501  0.00000000000E+00  0.00000000000E+00  0.16651782197E+04  0.16651782198E+04  0.50400001928E-02 0. -1.
        1   -1    0    0  501    0  0.00000000000E+00  0.00000000000E+00 -0.16236826505E+04  0.16236826505E+04  0.50400001928E-02 0.  1.
    10030    2    1    2    0    0  0.00000000000E+00  0.00000000000E+00  0.41495569205E+02  0.32888608703E+04  0.32885990850E+04 0.  0.
        5    1    3    3  502    0  0.16438829505E+04  0.93868996131E+01 -0.14746258580E+02  0.16439826067E+04  0.46999998093E+01 0. -1.
       -5    1    3    3    0  502 -0.16438829505E+04 -0.93868996131E+01  0.56241827785E+02  0.16448782636E+04  0.46999998093E+01 0.  1.
</event>
<event>
 5   0  0.2057130E-07  0.3303605E+04  0.7818609E-02  0.8161979E-01
        1   -1    0    0  501    0  0.00000000000E+00  0.00000000000E+00  0.27095872838E+04  0.27095872838E+04  0.50400001928E-02 0. -1.
       -1   -1    0    0    0  501  0.00000000000E+00  0.00000000000E+00 -0.10069621352E+04  0.10069621352E+04  0.50400001928E-02 0.  1.
    10030    2    1    2    0    0  0.00000000000E+00  0.00000000000E+00  0.17026251486E+04  0.37165494190E+04  0.33036051803E+04 0.  0.
        2    1    3    3  502    0 -0.10435555527E+04 -0.34127470671E+03  0.22396600864E+04  0.24943042957E+04  0.25500000920E-02 0. -1.
       -2    1    3    3    0  502  0.10435555527E+04  0.34127470671E+03 -0.53703493778E+03  0.12222451233E+04  0.25500000920E-02 0.  1.
</event>
<event>
 5   0  0.6377741E-07  0.3360024E+04  0.7818609E-02  0.8147788E-01
        2   -1    0    0  501    0  0.00000000000E+00  0.00000000000E+00  0.21517283346E+04  0.21517283346E+04  0.25500000920E-02 0.  1.
       -2   -1    0    0    0  501  0.00000000000E+00  0.00000000000E+00 -0.13117086296E+04  0.13117086296E+04  0.25500000920E-02 0. -1.
    10030    2    1    2    0    0  0.00000000000E+00  0.00000000000E+00  0.84001970502E+03  0.34634369641E+04  0.33600241814E+04 0.  0.
        1    1    3    3  502    0  0.16154025063E+04  0.12705095492E+03 -0.37234241136E+02  0.16208188027E+04  0.50400001928E-02 0.  1.
       -1    1    3    3    0  502 -0.16154025063E+04 -0.12705095492E+03  0.87725394616E+03  0.18426181614E+04  0.50400001928E-02 0. -1.
</event>
<event>
 5   0  0.6426079E-07  0.3362123E+04  0.7818609E-02  0.8147266E-01
       -2   -1    0    0    0  501  0.00000000000E+00  0.00000000000E+00  0.25946455114E+04  0.25946455114E+04  0.25500000920E-02 0. -1.
        2   -1    0    0  501    0  0.00000000000E+00  0.00000000000E+00 -0.10891536183E+04  0.10891536183E+04  0.25500000920E-02 0.  1.
    10030    2    1    2    0    0  0.00000000000E+00  0.00000000000E+00  0.15054918932E+04  0.36837991297E+04  0.33621228692E+04 0.  0.
        4    1    3    3  502    0  0.92062647481E+03  0.84164915422E+03 -0.48203801352E+03  0.13372691069E+04  0.12699999809E+01 0.  1.
       -4    1    3    3    0  502 -0.92062647481E+03 -0.84164915422E+03  0.19875299067E+04  0.23465300228E+04  0.12699999809E+01 0. -1.
</event>
<event>
 5   0  0.6351753E-07  0.3318058E+04  0.7818609E-02  0.8158316E-01
        2   -1    0    0  501    0  0.00000000000E+00  0.00000000000E+00  0.19818428331E+04  0.19818428331E+04  0.25500000920E-02 0. -1.
       -2   -1    0    0    0  501  0.00000000000E+00  0.00000000000E+00 -0.13887972656E+04  0.13887972656E+04  0.25500000920E-02 0.  1.
    10030    2    1    2    0    0  0.00000000000E+00  0.00000000000E+00  0.59304556749E+03  0.33706400987E+04  0.33180584126E+04 0.  0.
        3    1    3    3  502    0  0.24724292861E+03  0.35573419904E+03  0.19233701627E+04  0.19715548887E+04  0.10100000352E+00 0. -1.
       -3    1    3    3    0  502 -0.24724292861E+03 -0.35573419904E+03 -0.13303245952E+04  0.13990852100E+04  0.10100000352E+00 0.  1.
</event>
<event>
 5   0  0.2037333E-07  0.3292324E+04  0.7818609E-02  0.8164851E-01
       -1   -1    0    0    0  501  0.00000000000E+00  0.00000000000E+00  0.22823194936E+04  0.22823194936E+04  0.50400001928E-02 0. -1.
        1   -1    0    0  501    0  0.00000000000E+00  0.00000000000E+00 -0.11873221942E+04  0.11873221942E+04  0.50400001928E-02 0.  1.
    10030    2    1    2    0    0  0.00000000000E+00  0.00000000000E+00  0.10949972994E+04  0.34696416878E+04  0.32923235497E+04 0.  0.
        3    1    3    3  502    0  0.10884250298E+04 -0.99575790535E+03  0.13173531218E+04  0.19777821188E+04  0.10100000352E+00 0. -1.
       -3    1    3    3    0  502 -0.10884250298E+04  0.99575790535E+03 -0.22235582234E+03  0.14918595690E+04  0.10100000352E+00 0.  1.
</event>
<event>
 5   0  0.6424183E-07  0.3302891E+04  0.7818609E-02  0.8162160E-01
        2   -1    0    0  501    0  0.00000000000E+00  0.00000000000E+00  0.15485852092E+04  0.15485852093E+04  0.25500000920E-02 0.  1.
       -2   -1    0    0    0  501  0.00000000000E+00  0.00000000000E+00 -0.17611384694E+04  0.17611384694E+04  0.25500000920E-02 0. -1.
    10030    2    1    2    0    0  0.00000000000E+00  0.00000000000E+00 -0.21255326015E+03  0.33097236787E+04  0.33028914515E+04 0.  0.
        2    1    3    3  502    0  0.15619200141E+04  0.46706462962E+03 -0.37050652161E+03  0.16718309069E+04  0.25500000920E-02 0.  1.
       -2    1    3    3    0  502 -0.15619200141E+04 -0.46706462962E+03  0.15795326145E+03  0.16378927717E+04  0.25500000920E-02 0. -1.
</event>
<event>
 5   0  0.2080828E-07  0.3299211E+04  0.7818609E-02  0.8163096E-01
        1   -1    0    0  501    0  0.00000000000E+00  0.00000000000E+00  0.17356158113E+04  0.17356158113E+04  0.50400001928E-02 0.  1.
       -1   -1    0    0    0  501  0.00000000000E+00  0.00000000000E+00 -0.15678572566E+04  0.15678572566E+04  0.50400001928E-02 0. -1.
    10030    2    1    2    0    0  0.00000000000E+00  0.00000000000E+00  0.16775855475E+03  0.33034730679E+04  0.32992107204E+04 0.  0.
        1    1    3    3  502    0  0.32212128565E+03 -0.49571883091E+03 -0.14581423358E+04  0.15734288523E+04  0.50400001928E-02 0. -1.
       -1    1    3    3    0  502 -0.32212128565E+03  0.49571883091E+03  0.16259008905E+04  0.17300442156E+04  0.50400001928E-02 0.  1.
</event>
<event>
 5   0  0.2057130E-07  0.3301312E+04  0.7818609E-02  0.8162562E-01
       -1   -1    0    0    0  501  0.00000000000E+00  0.00000000000E+00  0.20326222291E+04  0.20326222292E+04  0.50400001928E-02 0. -1.
        1   -1    0    0  501    0  0.00000000000E+00  0.00000000000E+00 -0.13404681394E+04  0.13404681394E+04  0.50400001928E-02 0.  1.
    10030    2    1    2    0    0  0.00000000000E+00  0.00000000000E+00  0.69215408975E+03  0.33730903686E+04  0.33013120650E+04 0.  0.
        2    1    3    3  502    0 -0.48249158243E+02 -0.14724609924E+04  0.11067064029E+04  0.18426254144E+04  0.25500000920E-02 0. -1.
       -2    1    3    3    0  502  0.48249158243E+02  0.14724609924E+04 -0.41455231317E+03  0.15304649542E+04  0.25500000920E-02 0.  1.
</event>
<event>
 5   0  0.6258718E-07  0.3293376E+04  0.7818609E-02  0.8164583E-01
        2   -1    0    0  501    0  0.00000000000E+00  0.00000000000E+00  0.21608015838E+04  0.21608015838E+04  0.25500000920E-02 0.  1.
       -2   -1    0    0    0  501  0.00000000000E+00  0.00000000000E+00 -0.12548962947E+04  0.12548962947E+04  0.25500000920E-02 0. -1.
    10030    2    1    2    0    0  0.00000000000E+00  0.00000000000E+00  0.90590528916E+03  0.34156978785E+04  0.32933763229E+04 0.  0.
        5    1    3    3  502    0  0.16265507041E+03 -0.88709608415E+03  0.18818627917E+04  0.20868219357E+04  0.46999998093E+01 0.  1.
       -5    1    3    3    0  502 -0.16265507041E+03  0.88709608415E+03 -0.97595750258E+03  0.13288759428E+04  0.46999998093E+01 0. -1.
</event>
<event>
 5   0  0.2080828E-07  0.3292162E+04  0.7818609E-02  0.8164893E-01
        1   -1    0    0  501    0  0.00000000000E+00  0.00000000000E+00  0.23042139280E+04  0.23042139280E+04  0.50400001928E-02 0. -1.
       -1   -1    0    0    0  501  0.00000000000E+00  0.00000000000E+00 -0.11759249026E+04  0.11759249026E+04  0.50400001928E-02 0.  1.
    10030    2    1    2    0    0  0.00000000000E+00  0.00000000000E+00  0.11282890254E+04  0.34801388306E+04  0.32921619273E+04 0.  0.
        1    1    3    3  502    0 -0.11471740273E+04  0.45033651011E+03  0.17176762921E+04  0.21140537046E+04  0.50400001928E-02 0. -1.
       -1    1    3    3    0  502  0.11471740273E+04 -0.45033651011E+03 -0.58938726675E+03  0.13660851260E+04  0.50400001928E-02 0.  1.
</event>
<event>
 5   0  0.6426079E-07  0.3126210E+04  0.7818609E-02  0.8208581E-01
        2   -1    0    0  501    0  0.00000000000E+00  0.00000000000E+00  0.99418968222E+03  0.99418968222E+03  0.25500000920E-02 0.  1.
       -2   -1    0    0    0  501  0.00000000000E+00  0.00000000000E+00 -0.24575761782E+04  0.24575761782E+04  0.25500000920E-02 0. -1.
    10030    2    1    2    0    0  0.00000000000E+00  0.00000000000E+00 -0.14633864960E+04  0.34517658604E+04  0.31262097688E+04 0.  0.
        4    1    3    3  502    0 -0.12093412625E+03 -0.10960103099E+04  0.49157545327E+03  0.12072744930E+04  0.12699999809E+01 0.  1.
       -4    1    3    3    0  502  0.12093412625E+03  0.10960103099E+04 -0.19549619493E+04  0.22444913674E+04  0.12699999809E+01 0. -1.
</event>
<event>
 5   0  0.6351753E-07  0.3309286E+04  0.7818609E-02  0.8160537E-01
        2   -1    0    0  501    0  0.00000000000E+00  0.00000000000E+00  0.23382529815E+04  0.23382529815E+04  0.25500000920E-02 0. -1.
       -2   -1    0    0    0  501  0.00000000000E+00  0.00000000000E+00 -0.11708927586E+04  0.11708927586E+04  0.25500000920E-02 0.  1.
    10030    2    1    2    0    0  0.00000000000E+00  0.00000000000E+00  0.11673602229E+04  0.35091457401E+04  0.33092860159E+04 0.  0.
        3    1    3    3  502    0  0.16398761665E+04 -0.21930301212E+03  0.60867980290E+03  0.17628893230E+04  0.10100000352E+00 0. -1.
       -3    1    3    3    0  502 -0.16398761665E+04  0.21930301212E+03  0.55868042000E+03  0.17462564171E+04  0.10100000352E+00 0.  1.
</event>
<event>
 5   0  0.6258718E-07  0.3290942E+04  0.7818609E-02  0.8165204E-01
       -2   -1    0    0    0  501  0.00000000000E+00  0.00000000000E+00  0.11473448423E+04  0.11473448423E+04  0.25500000920E-02 0.  1.
        2   -1    0    0  501    0  0.00000000000E+00  0.00000000000E+00 -0.23598617311E+04  0.23598617311E+04  0.25500000920E-02 0. -1.
    10030    2    1    2    0    0  0.00000000000E+00  0.00000000000E+00 -0.12125168888E+04  0.35072065735E+04  0.32909422273E+04 0.  0.
        5    1    3    3  502    0 -0.16451234920E+04  0.23474522347E+02 -0.58079836692E+03  0.17448011893E+04  0.46999998093E+01 0. -1.
       -5    1    3    3    0  502  0.16451234920E+04 -0.23474522347E+02 -0.63171852189E+03  0.17624053842E+04  0.46999998093E+01 0.  1.
</event>
<event>
 5   0  0.2037333E-07  0.3296640E+04  0.7818609E-02  0.8163751E-01
       -1   -1    0    0    0  501  0.00000000000E+00  0.00000000000E+00  0.13341088116E+04  0.13341088116E+04  0.50400001928E-02 0.  1.
        1   -1    0    0  501    0  0.00000000000E+00  0.00000000000E+00 -0.20365341185E+04  0.20365341185E+04  0.50400001928E-02 0. -1.
    10030    2    1    2    0    0  0.00000000000E+00  0.00000000000E+00 -0.70242530694E+03  0.33706429301E+04  0.32966395693E+04 0.  0.
        3    1    3    3  502    0  0.14172298803E+04  0.74507813266E+03 -0.75150617834E+03  0.17687406548E+04  0.10100000352E+00 0. -1.
       -3    1    3    3    0  502 -0.14172298803E+04 -0.74507813266E+03  0.49080871398E+02  0.16019022753E+04  0.10100000352E+00 0.  1.
</event>
<event>
 5   0  0.6424183E-07  0.3298924E+04  0.7818609E-02  0.8163169E-01
        2   -1    0    0  501    0  0.00000000000E+00  0.00000000000E+00  0.25663015064E+04  0.25663015064E+04  0.25500000920E-02 0.  1.
       -2   -1    0    0    0  501  0.00000000000E+00  0.00000000000E+00 -0.10601733904E+04  0.10601733905E+04  0.25500000920E-02 0. -1.
    10030    2    1    2    0    0  0.00000000000E+00  0.00000000000E+00  0.15061281159E+04  0.36264748968E+04  0.32989238057E+04 0.  0.
        2    1    3    3  502    0  0.98301467263E+03  0.57860535431E+03 -0.55671739933E+03  0.12692660341E+04  0.25500000920E-02 0. -1.
       -2    1    3    3    0  502 -0.98301467263E+03 -0.57860535431E+03  0.20628455153E+04  0.23572088627E+04  0.25500000920E-02 0.  1.
</event>
<event>
 5   0  0.6426079E-07  0.3299372E+04  0.7818609E-02  0.8163055E-01
        2   -1    0    0  501    0  0.00000000000E+00  0.00000000000E+00  0.23088674543E+04  0.23088674543E+04  0.25500000920E-02 0.  1.
       -2   -1    0    0    0  501  0.00000000000E+00  0.00000000000E+00 -0.11787006841E+04  0.11787006841E+04  0.25500000920E-02 0. -1.
    10030    2    1    2    0    0  0.00000000000E+00  0.00000000000E+00  0.11301667701E+04  0.34875681384E+04  0.32993718480E+04 0.  0.
        4    1    3    3  502    0 -0.10496436692E+04  0.10656973416E+04  0.13004668137E+04  0.19820893528E+04  0.12699999809E+01 0.  1.
       -4    1    3    3    0  502  0.10496436692E+04 -0.10656973416E+04 -0.17030004356E+03  0.15054787856E+04  0.12699999809E+01 0. -1.
</event>
<event>
 5   0  0.6426079E-07  0.3304217E+04  0.7818609E-02  0.8161823E-01
        2   -1    0    0  501    0  0.00000000000E+00  0.00000000000E+00  0.83864461925E+03  0.83864461926E+03  0.25500000920E-02 0. -1.
       -2   -1    0    0    0  501  0.00000000000E+00  0.00000000000E+00 -0.32546115206E+04  0.32546115206E+04  0.25500000920E-02 0.  1.
    10030    2    1    2    0    0  0.00000000000E+00  0.00000000000E+00 -0.24159669013E+04  0.40932561398E+04  0.33042169659E+04 0.  0.
        4    1    3    3  502    0  0.75857459299E+03 -0.10965435114E+04  0.47474140991E+00  0.13333585129E+04  0.12699999809E+01 0. -1.
       -4    1    3    3    0  502 -0.75857459299E+03  0.10965435114E+04 -0.24164416427E+04  0.27598976269E+04  0.12699999809E+01 0.  1.
</event>
<event>
 5   0  0.2080770E-07  0.3309091E+04  0.7818609E-02  0.8160586E-01
       -1   -1    0    0    0  501  0.00000000000E+00  0.00000000000E+00  0.14383523078E+04  0.14383523078E+04  0.50400001928E-02 0. -1.
        1   -1    0    0  501    0  0.00000000000E+00  0.00000000000E+00 -0.19032342529E+04  0.19032342530E+04  0.50400001928E-02 0.  1.
    10030    2    1    2    0    0  0.00000000000E+00  0.00000000000E+00 -0.46488194518E+03  0.33415865607E+04  0.33090913435E+04 0.  0.
        4    1    3    3  502    0  0.75254402804E+03  0.79021944271E+03  0.10234562227E+04  0.14960727036E+04  0.12699999809E+01 0. -1.
       -4    1    3    3    0  502 -0.75254402804E+03 -0.79021944271E+03 -0.14883381679E+04  0.18455138571E+04  0.12699999809E+01 0.  1.
</event>
<event>
 5   0  0.2087665E-07  0.3124263E+04  0.7818609E-02  0.8209111E-01
       -1   -1    0    0    0  501  0.00000000000E+00  0.00000000000E+00  0.17385757367E+04  0.17385757368E+04  0.50400001928E-02 0.  1.
        1   -1    0    0  501    0  0.00000000000E+00  0.00000000000E+00 -0.14035941342E+04  0.14035941342E+04  0.50400001928E-02 0. -1.
    10030    2    1    2    0    0  0.00000000000E+00  0.00000000000E+00  0.33498160260E+03  0.31421698709E+04  0.31242629249E+04 0.  0.
        5    1    3    3  502    0  0.65135864855E+03  0.11928862719E+04 -0.60697924092E+03  0.14885199480E+04  0.46999998093E+01 0. -1.
       -5    1    3    3    0  502 -0.65135864855E+03 -0.11928862719E+04  0.94196084351E+03  0.16536499229E+04  0.46999998093E+01 0.  1.
</event>
<event>
 5   0  0.2080828E-07  0.3245930E+04  0.7818609E-02  0.8176791E-01
       -1   -1    0    0    0  501  0.00000000000E+00  0.00000000000E+00  0.12106093569E+04  0.12106093569E+04  0.50400001928E-02 0.  1.
        1   -1    0    0  501    0  0.00000000000E+00  0.00000000000E+00 -0.21757760791E+04  0.21757760791E+04  0.50400001928E-02 0. -1.
    10030    2    1    2    0    0  0.00000000000E+00  0.00000000000E+00 -0.96516672222E+03  0.33863854360E+04  0.32459296849E+04 0.  0.
        1    1    3    3  502    0 -0.45386487644E+03 -0.67479395688E+03  0.98271145779E+03  0.12755634126E+04  0.50400001928E-02 0.  1.
       -1    1    3    3    0  502  0.45386487644E+03  0.67479395688E+03 -0.19478781800E+04  0.21108220234E+04  0.50400001928E-02 0. -1.
</event>
<event>
 5   0  0.2080770E-07  0.3340815E+04  0.7818609E-02  0.8152587E-01
       -1   -1    0    0    0  501  0.00000000000E+00  0.00000000000E+00  0.11132887133E+04  0.11132887133E+04  0.50400001928E-02 0.  1.
        1   -1    0    0  501    0  0.00000000000E+00  0.00000000000E+00 -0.25063236229E+04  0.25063236229E+04  0.50400001928E-02 0. -1.
    10030    2    1    2    0    0  0.00000000000E+00  0.00000000000E+00 -0.13930349096E+04  0.36196123361E+04  0.33408153503E+04 0.  0.
        4    1    3    3  502    0 -0.82969772279E+03  0.13682621293E+04 -0.12158070004E+04  0.20096586379E+04  0.12699999809E+01 0. -1.
       -4    1    3    3    0  502  0.82969772279E+03 -0.13682621293E+04 -0.17722790919E+03  0.16099536982E+04  0.12699999809E+01 0.  1.
</event>
<event>
 5   0  0.2080828E-07  0.3302498E+04  0.7818609E-02  0.8162260E-01
        1   -1    0    0  501    0  0.00000000000E+00  0.00000000000E+00  0.26823377663E+04  0.26823377664E+04  0.50400001928E-02 0. -1.
       -1   -1    0    0    0  501  0.00000000000E+00  0.00000000000E+00 -0.10165102938E+04  0.10165102938E+04  0.50400001928E-02 0.  1.
    10030    2    1    2    0    0  0.00000000000E+00  0.00000000000E+00  0.16658274726E+04  0.36988480602E+04  0.33024984184E+04 0.  0.
        1    1    3    3  502    0  0.45901258428E+03 -0.14921496344E+04  0.23036969804E+03  0.15780599740E+04  0.50400001928E-02 0. -1.
       -1    1    3    3    0  502 -0.45901258428E+03  0.14921496344E+04  0.14354577745E+04  0.21207880861E+04  0.50400001928E-02 0.  1.
</event>
<event>
 5   0  0.6424183E-07  0.3296982E+04  0.7818609E-02  0.8163664E-01
        2   -1    0    0  501    0  0.00000000000E+00  0.00000000000E+00  0.21210512020E+04  0.21210512020E+04  0.25500000920E-02 0. -1.
       -2   -1    0    0    0  501  0.00000000000E+00  0.00000000000E+00 -0.12812147330E+04  0.12812147330E+04  0.25500000920E-02 0.  1.
    10030    2    1    2    0    0  0.00000000000E+00  0.00000000000E+00  0.83983646898E+03  0.34022659350E+04  0.32969816799E+04 0.  0.
        2    1    3    3  502    0 -0.22213305151E+03 -0.95236149700E+03  0.17893941574E+04  0.20391829158E+04  0.25500000920E-02 0. -1.
       -2    1    3    3    0  502  0.22213305151E+03  0.95236149700E+03 -0.94955768841E+03  0.13630830192E+04  0.25500000920E-02 0.  1.
</event>
<event>
 5   0  0.2080770E-07  0.3313042E+04  0.7818609E-02  0.8159585E-01
        1   -1    0    0  501    0  0.00000000000E+00  0.00000000000E+00  0.94638776436E+03  0.94638776438E+03  0.50400001928E-02 0.  1.
       -1   -1    0    0    0  501  0.00000000000E+00  0.00000000000E+00 -0.28995103145E+04  0.28995103145E+04  0.50400001928E-02 0. -1.
    10030    2    1    2    0    0  0.00000000000E+00  0.00000000000E+00 -0.19531225501E+04  0.38458980789E+04  0.33130415538E+04 0.  0.
        4    1    3    3  502    0 -0.12572260104E+04  0.10684866012E+04 -0.11478725704E+04  0.20099487329E+04  0.12699999809E+01 0. -1.
       -4    1    3    3    0  502  0.12572260104E+04 -0.10684866012E+04 -0.80524997971E+03  0.18359493460E+04  0.12699999809E+01 0.  1.
</event>
<event>
 5   0  0.6426079E-07  0.3265469E+04  0.7818609E-02  0.8171738E-01
       -2   -1    0    0    0  501  0.00000000000E+00  0.00000000000E+00  0.16690675855E+04  0.16690675855E+04  0.25500000920E-02 0. -1.
        2   -1    0    0  501    0  0.00000000000E+00  0.00000000000E+00 -0.15971922608E+04  0.15971922608E+04  0.25500000920E-02 0.  1.
    10030    2    1    2    0    0  0.00000000000E+00  0.00000000000E+00  0.71875324660E+02  0.32662598463E+04  0.32654689283E+04 0.  0.
        4    1    3    3  502    0  0.57471947138E+02  0.14727982490E+04  0.73851971475E+03  0.16485905159E+04  0.12699999809E+01 0. -1.
       -4    1    3    3    0  502 -0.57471947138E+02 -0.14727982490E+04 -0.66664439009E+03  0.16176693305E+04  0.12699999809E+01 0.  1.
</event>
<event>
 5   0  0.2080828E-07  0.3144785E+04  0.7818609E-02  0.8203553E-01
       -1   -1    0    0    0  501  0.00000000000E+00  0.00000000000E+00  0.12702265413E+04  0.12702265413E+04  0.50400001928E-02 0. -1.
        1   -1    0    0  501    0  0.00000000000E+00  0.00000000000E+00 -0.19464392835E+04  0.19464392835E+04  0.50400001928E-02 0.  1.
    10030    2    1    2    0    0  0.00000000000E+00  0.00000000000E+00 -0.67621274220E+03  0.32166658247E+04  0.31447854228E+04 0.  0.
        1    1    3    3  502    0 -0.28095319470E+03  0.43522465030E+03 -0.18566490167E+04  0.19275634270E+04  0.50400001928E-02 0.  1.
       -1    1    3    3    0  502  0.28095319470E+03 -0.43522465030E+03  0.11804362745E+04  0.12891023978E+04  0.50400001928E-02 0. -1.
</event>
<event>
 5   0  0.2037333E-07  0.3278600E+04  0.7818609E-02  0.8168362E-01
       -1   -1    0    0    0  501  0.00000000000E+00  0.00000000000E+00  0.20259858656E+04  0.20259858656E+04  0.50400001928E-02 0.  1.
        1   -1    0    0  501    0  0.00000000000E+00  0.00000000000E+00 -0.13264182344E+04  0.13264182344E+04  0.50400001928E-02 0. -1.
    10030    2    1    2    0    0  0.00000000000E+00  0.00000000000E+00  0.69956763127E+03  0.33524041000E+04  0.32786000639E+04 0.  0.
        3    1    3    3  502    0 -0.32906599049E+03  0.12462964893E+04  0.13853834889E+04  0.18923072655E+04  0.10100000352E+00 0.  1.
       -3    1    3    3    0  502  0.32906599049E+03 -0.12462964893E+04 -0.68581585765E+03  0.14600968345E+04  0.10100000352E+00 0. -1.
</event>
<event>
 5   0  0.6424183E-07  0.3215824E+04  0.7818609E-02  0.8184651E-01
       -2   -1    0    0    0  501  0.00000000000E+00  0.00000000000E+00  0.18261830346E+04  0.18261830346E+04  0.25500000920E-02 0. -1.
        2   -1    0    0  501    0  0.00000000000E+00  0.00000000000E+00 -0.14157292266E+04  0.14157292266E+04  0.25500000920E-02 0.  1.
    10030    2    1    2    0    0  0.00000000000E+00  0.00000000000E+00  0.41045380800E+03  0.32419122612E+04  0.32158238106E+04 0.  0.
        2    1    3    3  502    0  0.14924850461E+04 -0.22005435057E+03  0.76601767946E+03  0.16919570371E+04  0.25500000920E-02 0. -1.
       -2    1    3    3    0  502 -0.14924850461E+04  0.22005435057E+03 -0.35556387146E+03  0.15499552241E+04  0.25500000920E-02 0.  1.
</event>
<event>
 5   0  0.6351753E-07  0.3354146E+04  0.7818609E-02  0.8149253E-01
       -2   -1    0    0    0  501  0.00000000000E+00  0.00000000000E+00  0.12614859386E+04  0.12614859386E+04  0.25500000920E-02 0.  1.
        2   -1    0    0  501    0  0.00000000000E+00  0.00000000000E+00 -0.22295725659E+04  0.22295725659E+04  0.25500000920E-02 0. -1.
    10030    2    1    2    0    0  0.00000000000E+00  0.00000000000E+00 -0.96808662732E+03  0.34910585045E+04  0.33541463539E+04 0.  0.
        3    1    3    3  502    0  0.14510430725E+04 -0.86989467673E+02  0.38644543439E+03  0.15041387069E+04  0.10100000352E+00 0.  1.
       -3    1    3    3    0  502 -0.14510430725E+04  0.86989467673E+02 -0.13545320617E+04  0.19869197976E+04  0.10100000352E+00 0. -1.
</event>
<event>
 5   0  0.6258718E-07  0.3301649E+04  0.7818609E-02  0.8162476E-01
       -2   -1    0    0    0  501  0.00000000000E+00  0.00000000000E+00  0.11941421651E+04  0.11941421651E+04  0.25500000920E-02 0. -1.
        2   -1    0    0  501    0  0.00000000000E+00  0.00000000000E+00 -0.22821580396E+04  0.22821580396E+04  0.25500000920E-02 0.  1.
    10030    2    1    2    0    0  0.00000000000E+00  0.00000000000E+00 -0.10880158745E+04  0.34763002047E+04  0.33016487654E+04 0.  0.
        5    1    3    3  502    0  0.10364703444E+03 -0.45726891538E+03 -0.22105704235E+04  0.22597524767E+04  0.46999998093E+01 0.  1.
       -5    1    3    3    0  502 -0.10364703444E+03  0.45726891538E+03  0.11225545491E+04  0.12165477279E+04  0.46999998093E+01 0. -1.
</event>
<event>
 5   0  0.2080770E-07  0.3287792E+04  0.7818609E-02  0.8166009E-01
       -1   -1    0    0    0  501  0.00000000000E+00  0.00000000000E+00  0.13582271971E+04  0.13582271971E+04  0.50400001928E-02 0.  1.
        1   -1    0    0  501    0  0.00000000000E+00  0.00000000000E+00 -0.19896477075E+04  0.19896477075E+04  0.50400001928E-02 0. -1.
    10030    2    1    2    0    0  0.00000000000E+00  0.00000000000E+00 -0.63142051042E+03  0.33478749046E+04  0.32877917385E+04 0.  0.
        4    1    3    3  502    0 -0.13577882871E+04  0.32312712572E+03  0.56871964072E+03  0.15071309878E+04  0.12699999809E+01 0.  1.
       -4    1    3    3    0  502  0.13577882871E+04 -0.32312712572E+03 -0.12001401511E+04  0.18407439168E+04  0.12699999809E+01 0. -1.
</event>
<event>
 5   0  0.2080828E-07  0.3329785E+04  0.7818609E-02  0.8155358E-01
        1   -1    0    0  501    0  0.00000000000E+00  0.00000000000E+00  0.22184378323E+04  0.22184378323E+04  0.50400001928E-02 0. -1.
       -1   -1    0    0    0  501  0.00000000000E+00  0.00000000000E+00 -0.12494679043E+04  0.12494679043E+04  0.50400001928E-02 0.  1.
    10030    2    1    2    0    0  0.00000000000E+00  0.00000000000E+00  0.96896992801E+03  0.34679057365E+04  0.33297848994E+04 0.  0.
        1    1    3    3  502    0 -0.18794480733E+03 -0.11537853318E+04 -0.75015174588E+03  0.13889821756E+04  0.50400001928E-02 0.  1.
       -1    1    3    3    0  502  0.18794480733E+03  0.11537853318E+04  0.17191216739E+04  0.20789235609E+04  0.50400001928E-02 0. -1.
</event>
<event>
 5   0  0.2087665E-07  0.3301684E+04  0.7818609E-02  0.8162467E-01
        1   -1    0    0  501    0  0.00000000000E+00  0.00000000000E+00  0.12627454332E+04  0.12627454332E+04  0.50400001928E-02 0. -1.
       -1   -1    0    0    0  501  0.00000000000E+00  0.00000000000E+00 -0.21582177626E+04  0.21582177626E+04  0.50400001928E-02 0.  1.
    10030    2    1    2    0    0  0.00000000000E+00  0.00000000000E+00 -0.89547232938E+03  0.34209631958E+04  0.33016841906E+04 0.  0.
        5    1    3    3  502    0 -0.39726539607E+03  0.77835934418E+03  0.10034311430E+04  0.13306236179E+04  0.46999998093E+01 0. -1.
       -5    1    3    3    0  502  0.39726539607E+03 -0.77835934418E+03 -0.18989034724E+04  0.20903395779E+04  0.46999998093E+01 0.  1.
</event>
<event>
 5   0  0.6351753E-07  0.3298751E+04  0.7818609E-02  0.8163213E-01
       -2   -1    0    0    0  501  0.00000000000E+00  0.00000000000E+00  0.16968646115E+04  0.16968646115E+04  0.25500000920E-02 0.  1.
        2   -1    0    0  501    0  0.00000000000E+00  0.00000000000E+00 -0.16032151352E+04  0.16032151352E+04  0.25500000920E-02 0. -1.
    10030    2    1    2    0    0  0.00000000000E+00  0.00000000000E+00  0.93649476315E+02  0.33000797466E+04  0.32987506892E+04 0.  0.
        3    1    3    3  502    0  0.15455299705E+04  0.21720361990E+03 -0.48686814100E+03  0.16348947670E+04  0.10100000352E+00 0.  1.
       -3    1    3    3    0  502 -0.15455299705E+04 -0.21720361990E+03  0.58051761732E+03  0.16651849796E+04  0.10100000352E+00 0. -1.
</event>
<event>
 5   0  0.6424183E-07  0.3290610E+04  0.7818609E-02  0.8165289E-01
        2   -1    0    0  501    0  0.00000000000E+00  0.00000000000E+00  0.22113550068E+04  0.22113550068E+04  0.25500000920E-02 0.  1.
       -2   -1    0    0    0  501  0.00000000000E+00  0.00000000000E+00 -0.12241489942E+04  0.12241489942E+04  0.25500000920E-02 0. -1.
    10030    2    1    2    0    0  0.00000000000E+00  0.00000000000E+00  0.98720601261E+03  0.34355040010E+04  0.32906096744E+04 0.  0.
        2    1    3    3  502    0 -0.62195332525E+03 -0.99971833045E+03 -0.70624688990E+03  0.13729702650E+04  0.25500000920E-02 0. -1.
       -2    1    3    3    0  502  0.62195332525E+03  0.99971833045E+03  0.16934529025E+04  0.20625337360E+04  0.25500000920E-02 0.  1.
</event>
<event>
 5   0  0.2057130E-07  0.3295616E+04  0.7818609E-02  0.8164012E-01
        1   -1    0    0  501    0  0.00000000000E+00  0.00000000000E+00  0.29568413781E+04  0.29568413781E+04  0.50400001928E-02 0. -1.
       -1   -1    0    0    0  501  0.00000000000E+00  0.00000000000E+00 -0.91830154121E+03  0.91830154122E+03  0.50400001928E-02 0.  1.
    10030    2    1    2    0    0  0.00000000000E+00  0.00000000000E+00  0.20385398369E+04  0.38751429193E+04  0.32956164793E+04 0.  0.
        2    1    3    3  502    0  0.37577996011E+02 -0.31173265277E+03 -0.88280047349E+03  0.93697706940E+03  0.25500000920E-02 0.  1.
       -2    1    3    3    0  502 -0.37577996011E+02  0.31173265277E+03  0.29213403104E+04  0.29381658499E+04  0.25500000920E-02 0. -1.
</event>
<event>
 5   0  0.2057130E-07  0.3295071E+04  0.7818609E-02  0.8164151E-01
       -1   -1    0    0    0  501  0.00000000000E+00  0.00000000000E+00  0.27099559500E+04  0.27099559500E+04  0.50400001928E-02 0. -1.
        1   -1    0    0  501    0  0.00000000000E+00  0.00000000000E+00 -0.10016302703E+04  0.10016302703E+04  0.50400001928E-02 0.  1.
    10030    2    1    2    0    0  0.00000000000E+00  0.00000000000E+00  0.17083256797E+04  0.37115862203E+04  0.32950714169E+04 0.  0.
        2    1    3    3  502    0 -0.46689622388E+03  0.28835231946E+03 -0.89566172282E+03  0.10504042392E+04  0.25500000920E-02 0.  1.
       -2    1    3    3    0  502  0.46689622388E+03 -0.28835231946E+03  0.26039874025E+04  0.26611819811E+04  0.25500000920E-02 0. -1.
</event>
<event>
 5   0  0.6377741E-07  0.3270794E+04  0.7818609E-02  0.8170367E-01
        2   -1    0    0  501    0  0.00000000000E+00  0.00000000000E+00  0.27826648447E+04  0.27826648447E+04  0.25500000920E-02 0. -1.
       -2   -1    0    0    0  501  0.00000000000E+00  0.00000000000E+00 -0.96113772092E+03  0.96113772093E+03  0.25500000920E-02 0.  1.
    10030    2    1    2    0    0  0.00000000000E+00  0.00000000000E+00  0.18215271238E+04  0.37438025656E+04  0.32707944888E+04 0.  0.
        1    1    3    3  502    0 -0.85217095054E+03 -0.12792747386E+04  0.27163641879E+03  0.15609373881E+04  0.50400001928E-02 0. -1.
       -1    1    3    3    0  502  0.85217095054E+03  0.12792747386E+04  0.15498907050E+04  0.21828651775E+04  0.50400001928E-02 0.  1.
</event>
<event>
 5   0  0.2037333E-07  0.3320855E+04  0.7818609E-02  0.8157609E-01
        1   -1    0    0  501    0  0.00000000000E+00  0.00000000000E+00  0.24049860023E+04  0.24049860023E+04  0.50400001928E-02 0. -1.
       -1   -1    0    0    0  501  0.00000000000E+00  0.00000000000E+00 -0.11463763260E+04  0.11463763260E+04  0.50400001928E-02 0.  1.
    10030    2    1    2    0    0  0.00000000000E+00  0.00000000000E+00  0.12586096764E+04  0.35513623283E+04  0.33208547197E+04 0.  0.
        3    1    3    3  502    0  0.59056065675E+02  0.10975243647E+04 -0.70166079753E+03  0.13039843692E+04  0.10100000352E+00 0.  1.
       -3    1    3    3    0  502 -0.59056065675E+02 -0.10975243647E+04  0.19602704739E+04  0.22473779591E+04  0.10100000352E+00 0. -1.
</event>
<event>
 5   0  0.6377741E-07  0.3302878E+04  0.7818609E-02  0.8162163E-01
        2   -1    0    0  501    0  0.00000000000E+00  0.00000000000E+00  0.22973513981E+04  0.22973513981E+04  0.25500000920E-02 0. -1.
       -2   -1    0    0    0  501  0.00000000000E+00  0.00000000000E+00 -0.11871284824E+04  0.11871284824E+04  0.25500000920E-02 0.  1.
    10030    2    1    2    0    0  0.00000000000E+00  0.00000000000E+00  0.11102229157E+04  0.34844798805E+04  0.33028783077E+04 0.  0.
        1    1    3    3  502    0 -0.10433652067E+03  0.10229415030E+04 -0.80820878539E+03  0.13078596518E+04  0.50400001928E-02 0.  1.
       -1    1    3    3    0  502  0.10433652067E+03 -0.10229415030E+04  0.19184317011E+04  0.21766202287E+04  0.50400001928E-02 0. -1.
</event>
<event>
 5   0  0.2057130E-07  0.3304350E+04  0.7818609E-02  0.8161789E-01
        1   -1    0    0  501    0  0.00000000000E+00  0.00000000000E+00  0.16523543105E+04  0.16523543105E+04  0.50400001928E-02 0. -1.
       -1   -1    0    0    0  501  0.00000000000E+00  0.00000000000E+00 -0.16519959590E+04  0.16519959590E+04  0.50400001928E-02 0.  1.
    10030    2    1    2    0    0  0.00000000000E+00  0.00000000000E+00  0.35835147750E+00  0.33043502696E+04  0.33043502501E+04 0.  0.
        2    1    3    3  502    0 -0.65822366686E+03  0.12971203791E+03 -0.15096549417E+04  0.16520113957E+04  0.25500000920E-02 0.  1.
       -2    1    3    3    0  502  0.65822366686E+03 -0.12971203791E+03  0.15100132932E+04  0.16523388739E+04  0.25500000920E-02 0. -1.
</event>
<event>
 5   0  0.2080770E-07  0.3283859E+04  0.7818609E-02  0.8167015E-01
        1   -1    0    0  501    0  0.00000000000E+00  0.00000000000E+00  0.18885822276E+04  0.18885822277E+04  0.50400001928E-02 0. -1.
       -1   -1    0    0    0  501  0.00000000000E+00  0.00000000000E+00 -0.14274898249E+04  0.14274898249E+04  0.50400001928E-02 0.  1.
    10030    2    1    2    0    0  0.00000000000E+00  0.00000000000E+00  0.46109240278E+03  0.33160720525E+04  0.32838586531E+04 0.  0.
        4    1    3    3  502    0  0.98474973319E+03 -0.61303837045E+03  0.14040050345E+04  0.18212028527E+04  0.12699999809E+01 0. -1.
       -4    1    3    3    0  502 -0.98474973319E+03  0.61303837045E+03 -0.94291263175E+03  0.14948691999E+04  0.12699999809E+01 0.  1.
</event>
<event>
 5   0  0.6426079E-07  0.3345154E+04  0.7818609E-02  0.8151500E-01
        2   -1    0    0  501    0  0.00000000000E+00  0.00000000000E+00  0.23622663524E+04  0.23622663524E+04  0.25500000920E-02 0. -1.
       -2   -1    0    0    0  501  0.00000000000E+00  0.00000000000E+00 -0.11842501665E+04  0.11842501665E+04  0.25500000920E-02 0.  1.
    10030    2    1    2    0    0  0.00000000000E+00  0.00000000000E+00  0.11780161859E+04  0.35465165188E+04  0.33451542990E+04 0.  0.
        4    1    3    3  502    0  0.87700201030E+03  0.10409900694E+03 -0.91689593265E+03  0.12730549452E+04  0.12699999809E+01 0.  1.
       -4    1    3    3    0  502 -0.87700201030E+03 -0.10409900694E+03  0.20949121185E+04  0.22734615736E+04  0.12699999809E+01 0. -1.
</event>
<event>
 5   0  0.6424183E-07  0.3301960E+04  0.7818609E-02  0.8162397E-01
       -2   -1    0    0    0  501  0.00000000000E+00  0.00000000000E+00  0.19230235383E+04  0.19230235383E+04  0.25500000920E-02 0.  1.
        2   -1    0    0  501    0  0.00000000000E+00  0.00000000000E+00 -0.14174216606E+04  0.14174216606E+04  0.25500000920E-02 0. -1.
    10030    2    1    2    0    0  0.00000000000E+00  0.00000000000E+00  0.50560187763E+03  0.33404451989E+04  0.33019601555E+04 0.  0.
        2    1    3    3  502    0 -0.66122728067E+03  0.38484572404E+03  0.17328658135E+04  0.18942417152E+04  0.25500000920E-02 0.  1.
       -2    1    3    3    0  502  0.66122728067E+03 -0.38484572404E+03 -0.12272639359E+04  0.14462034837E+04  0.25500000920E-02 0. -1.
</event>
<event>
 5   0  0.2087665E-07  0.3301175E+04  0.7818609E-02  0.8162597E-01
        1   -1    0    0  501    0  0.00000000000E+00  0.00000000000E+00  0.17839556326E+04  0.17839556326E+04  0.50400001928E-02 0.  1.
       -1   -1    0    0    0  501  0.00000000000E+00  0.00000000000E+00 -0.15271897977E+04  0.15271897977E+04  0.50400001928E-02 0. -1.
    10030    2    1    2    0    0  0.00000000000E+00  0.00000000000E+00  0.25676583490E+03  0.33111454303E+04  0.33011748464E+04 0.  0.
        5    1    3    3  502    0  0.30640420865E+03 -0.13542687396E+04 -0.76677514402E+03  0.15861568553E+04  0.46999998093E+01 0. -1.
       -5    1    3    3    0  502 -0.30640420865E+03  0.13542687396E+04  0.10235409789E+04  0.17249885750E+04  0.46999998093E+01 0.  1.
</event>
<event>
 5   0  0.6258718E-07  0.3293704E+04  0.7818609E-02  0.8164499E-01
        2   -1    0    0  501    0  0.00000000000E+00  0.00000000000E+00  0.10344980999E+04  0.10344980999E+04  0.25500000920E-02 0.  1.
       -2   -1    0    0    0  501  0.00000000000E+00  0.00000000000E+00 -0.26216788494E+04  0.26216788494E+04  0.25500000920E-02 0. -1.
    10030    2    1    2    0    0  0.00000000000E+00  0.00000000000E+00 -0.15871807495E+04  0.36561769494E+04  0.32937041691E+04 0.  0.
        5    1    3    3  502    0 -0.12095591542E+03 -0.16905700956E+03 -0.26070499550E+04  0.26153283090E+04  0.46999998093E+01 0. -1.
       -5    1    3    3    0  502  0.12095591542E+03  0.16905700956E+03  0.10198692055E+04  0.10408486404E+04  0.46999998093E+01 0.  1.
</event>
<event>
 5   0  0.6424183E-07  0.3287204E+04  0.7818609E-02  0.8166159E-01
        2   -1    0    0  501    0  0.00000000000E+00  0.00000000000E+00  0.12269437824E+04  0.12269437824E+04  0.25500000920E-02 0.  1.
       -2   -1    0    0    0  501  0.00000000000E+00  0.00000000000E+00 -0.22017530659E+04  0.22017530659E+04  0.25500000920E-02 0. -1.
    10030    2    1    2    0    0  0.00000000000E+00  0.00000000000E+00 -0.97480928355E+03  0.34286968483E+04  0.32872038176E+04 0.  0.
        2    1    3    3  502    0  0.10195848379E+03  0.48290003118E+03  0.11478266694E+04  0.12494374876E+04  0.25500000920E-02 0.  1.
       -2    1    3    3    0  502 -0.10195848379E+03 -0.48290003118E+03 -0.21226359529E+04  0.21792593607E+04  0.25500000920E-02 0. -1.
</event>
<event>
 5   0  0.2057130E-07  0.3307980E+04  0.7818609E-02  0.8160868E-01
        1   -1    0    0  501    0  0.00000000000E+00  0.00000000000E+00  0.14157392271E+04  0.14157392271E+04  0.50400001928E-02 0.  1.
       -1   -1    0    0    0  501  0.00000000000E+00  0.00000000000E+00 -0.19323347432E+04  0.19323347432E+04  0.50400001928E-02 0. -1.
    10030    2    1    2    0    0  0.00000000000E+00  0.00000000000E+00 -0.51659551618E+03  0.33480739703E+04  0.33079795017E+04 0.  0.
        2    1    3    3  502    0 -0.56611421028E+03 -0.14303505404E+04 -0.87335910655E+03  0.17689386921E+04  0.25500000920E-02 0.  1.
       -2    1    3    3    0  502  0.56611421028E+03  0.14303505404E+04  0.35676359037E+03  0.15791352782E+04  0.25500000920E-02 0. -1.
</event>
<event>
 5   0  0.2037333E-07  0.3150584E+04  0.7818609E-02  0.8201991E-01
       -1   -1    0    0    0  501  0.00000000000E+00  0.00000000000E+00  0.92429881646E+03  0.92429881648E+03  0.50400001928E-02 0.  1.
        1   -1    0    0  501    0  0.00000000000E+00  0.00000000000E+00 -0.26847864770E+04  0.26847864770E+04  0.50400001928E-02 0. -1.
    10030    2    1    2    0    0  0.00000000000E+00  0.00000000000E+00 -0.17604876605E+04  0.36090852935E+04  0.31505840495E+04 0.  0.
        3    1    3    3  502    0 -0.14051191377E+04  0.16850962470E+03 -0.16728883495E+04  0.21911893403E+04  0.10100000352E+00 0.  1.
       -3    1    3    3    0  502  0.14051191377E+04 -0.16850962470E+03 -0.87599311020E+02  0.14178959532E+04  0.10100000352E+00 0. -1.
</event>
<event>
 5   0  0.6377741E-07  0.3303788E+04  0.7818609E-02  0.8161932E-01
       -2   -1    0    0    0  501  0.00000000000E+00  0.00000000000E+00  0.17952472116E+04  0.17952472116E+04  0.25500000920E-02 0. -1.
        2   -1    0    0  501    0  0.00000000000E+00  0.00000000000E+00 -0.15199881658E+04  0.15199881658E+04  0.25500000920E-02 0.  1.
    10030    2    1    2    0    0  0.00000000000E+00  0.00000000000E+00  0.27525904578E+03  0.33152353774E+04  0.33037884413E+04 0.  0.
        1    1    3    3  502    0  0.11900611968E+04  0.95476959463E+03 -0.49774983871E+03  0.16048630885E+04  0.50400001928E-02 0.  1.
       -1    1    3    3    0  502 -0.11900611968E+04 -0.95476959463E+03  0.77300888450E+03  0.17103722888E+04  0.50400001928E-02 0. -1.
</event>
<event>
 5   0  0.2037333E-07  0.3307502E+04  0.7818609E-02  0.8160989E-01
        1   -1    0    0  501    0  0.00000000000E+00  0.00000000000E+00  0.81426084120E+03  0.81426084122E+03  0.50400001928E-02 0.  1.
       -1   -1    0    0    0  501  0.00000000000E+00  0.00000000000E+00 -0.33587424142E+04  0.33587424142E+04  0.50400001928E-02 0. -1.
    10030    2    1    2    0    0  0.00000000000E+00  0.00000000000E+00 -0.25444815730E+04  0.41730032554E+04  0.33075020324E+04 0.  0.
        3    1    3    3  502    0  0.23177875198E+03  0.15097055239E+04 -0.47233256565E+03  0.15987589629E+04  0.10100000352E+00 0.  1.
       -3    1    3    3    0  502 -0.23177875198E+03 -0.15097055239E+04 -0.20721490073E+04  0.25742442925E+04  0.10100000352E+00 0. -1.
</event>
<event>
 5   0  0.6424183E-07  0.3306172E+04  0.7818609E-02  0.8161327E-01
        2   -1    0    0  501    0  0.00000000000E+00  0.00000000000E+00  0.19156181821E+04  0.19156181821E+04  0.25500000920E-02 0.  1.
       -2   -1    0    0    0  501  0.00000000000E+00  0.00000000000E+00 -0.14265333594E+04  0.14265333594E+04  0.25500000920E-02 0. -1.
    10030    2    1    2    0    0  0.00000000000E+00  0.00000000000E+00  0.48908482276E+03  0.33421515415E+04  0.33061719499E+04 0.  0.
        2    1    3    3  502    0  0.22187039937E+03  0.93207886160E+02  0.18978157343E+04  0.19130130019E+04  0.25500000920E-02 0.  1.
       -2    1    3    3    0  502 -0.22187039937E+03 -0.93207886160E+02 -0.14087309116E+04  0.14291385396E+04  0.25500000920E-02 0. -1.
</event>
<event>
 5   0  0.6351753E-07  0.3306363E+04  0.7818609E-02  0.8161278E-01
        2   -1    0    0  501    0  0.00000000000E+00  0.00000000000E+00  0.28010280071E+04  0.28010280071E+04  0.25500000920E-02 0.  1.
       -2   -1    0    0    0  501  0.00000000000E+00  0.00000000000E+00 -0.97571647921E+03  0.97571647922E+03  0.25500000920E-02 0. -1.
    10030    2    1    2    0    0  0.00000000000E+00  0.00000000000E+00  0.18253115279E+04  0.37767444863E+04  0.33063630685E+04 0.  0.
        3    1    3    3  502    0  0.15514085294E+04 -0.16744140885E+03  0.28899121943E+03  0.15869533659E+04  0.10100000352E+00 0. -1.
       -3    1    3    3    0  502 -0.15514085294E+04  0.16744140885E+03  0.15363203084E+04  0.21897911204E+04  0.10100000352E+00 0.  1.
</event>
<event>
 5   0  0.6377741E-07  0.3307653E+04  0.7818609E-02  0.8160951E-01
       -2   -1    0    0    0  501  0.00000000000E+00  0.00000000000E+00  0.16489665327E+04  0.16489665327E+04  0.25500000920E-02 0.  1.
        2   -1    0    0  501    0  0.00000000000E+00  0.00000000000E+00 -0.16587005687E+04  0.16587005687E+04  0.25500000920E-02 0. -1.
    10030    2    1    2    0    0  0.00000000000E+00  0.00000000000E+00 -0.97340359922E+01  0.33076671015E+04  0.33076527784E+04 0.  0.
        1    1    3    3  502    0  0.14743012583E+04 -0.60424833276E+02 -0.75181493921E+03  0.16560317217E+04  0.50400001928E-02 0.  1.
       -1    1    3    3    0  502 -0.14743012583E+04  0.60424833276E+02  0.74208090322E+03  0.16516353797E+04  0.50400001928E-02 0. -1.
</event>
<event>
 5   0  0.6258718E-07  0.3283470E+04  0.7818609E-02  0.8167114E-01
       -2   -1    0    0    0  501  0.00000000000E+00  0.00000000000E+00  0.20571559255E+04  0.20571559255E+04  0.25500000920E-02 0.  1.
        2   -1    0    0  501    0  0.00000000000E+00  0.00000000000E+00 -0.13102037942E+04  0.13102037942E+04  0.25500000920E-02 0. -1.
    10030    2    1    2    0    0  0.00000000000E+00  0.00000000000E+00  0.74695213124E+03  0.33673597197E+04  0.32834698103E+04 0.  0.
        5    1    3    3  502    0  0.29624189527E+03 -0.48805792809E+03 -0.12051074960E+04  0.13335163924E+04  0.46999998093E+01 0. -1.
       -5    1    3    3    0  502 -0.29624189527E+03  0.48805792809E+03  0.19520596273E+04  0.20338433273E+04  0.46999998093E+01 0.  1.
</event>
<event>
 5   0  0.2080770E-07  0.3326164E+04  0.7818609E-02  0.8156270E-01
        1   -1    0    0  501    0  0.00000000000E+00  0.00000000000E+00  0.16407061810E+04  0.16407061810E+04  0.50400001928E-02 0.  1.
       -1   -1    0    0    0  501  0.00000000000E+00  0.00000000000E+00 -0.16857632864E+04  0.16857632864E+04  0.50400001928E-02 0. -1.
    10030    2    1    2    0    0  0.00000000000E+00  0.00000000000E+00 -0.45057105405E+02  0.33264694674E+04  0.33261643036E+04 0.  0.
        4    1    3    3  502    0  0.22322493631E+03  0.15863428990E+04  0.42419740224E+03  0.16571838204E+04  0.12699999809E+01 0.  1.
       -4    1    3    3    0  502 -0.22322493631E+03 -0.15863428990E+04 -0.46925450765E+03  0.16692856470E+04  0.12699999809E+01 0. -1.
</event>
<event>
 5   0  0.2087665E-07  0.3309797E+04  0.7818609E-02  0.8160407E-01
       -1   -1    0    0    0  501  0.00000000000E+00  0.00000000000E+00  0.97427869022E+03  0.97427869024E+03  0.50400001928E-02 0.  1.
        1   -1    0    0  501    0  0.00000000000E+00  0.00000000000E+00 -0.28109917198E+04  0.28109917198E+04  0.50400001928E-02 0. -1.
    10030    2    1    2    0    0  0.00000000000E+00  0.00000000000E+00 -0.18367130296E+04  0.37852704100E+04  0.33097971727E+04 0.  0.
        5    1    3    3  502    0 -0.51264841778E+03  0.34593078974E+03 -0.26738561787E+04  0.27444499387E+04  0.46999998093E+01 0. -1.
       -5    1    3    3    0  502  0.51264841778E+03 -0.34593078974E+03  0.83714314911E+03  0.10408204714E+04  0.46999998093E+01 0.  1.
</event>
<event>
 5   0  0.6426079E-07  0.3154393E+04  0.7818609E-02  0.8200967E-01
       -2   -1    0    0    0  501  0.00000000000E+00  0.00000000000E+00  0.10778975306E+04  0.10778975306E+04  0.25500000920E-02 0. -1.
        2   -1    0    0  501    0  0.00000000000E+00  0.00000000000E+00 -0.23077783872E+04  0.23077783872E+04  0.25500000920E-02 0.  1.
    10030    2    1    2    0    0  0.00000000000E+00  0.00000000000E+00 -0.12298808566E+04  0.33856759177E+04  0.31543928890E+04 0.  0.
        4    1    3    3  502    0 -0.74527678920E+03 -0.21220818650E+03 -0.20893713613E+04  0.22284398366E+04  0.12699999809E+01 0.  1.
       -4    1    3    3    0  502  0.74527678920E+03  0.21220818650E+03  0.85949050469E+03  0.11572360811E+04  0.12699999809E+01 0. -1.
</event>
<event>
 5   0  0.2080770E-07  0.3291740E+04  0.7818609E-02  0.8165000E-01
       -1   -1    0    0    0  501  0.00000000000E+00  0.00000000000E+00  0.17052475737E+04  0.17052475737E+04  0.50400001928E-02 0.  1.
        1   -1    0    0  501    0  0.00000000000E+00  0.00000000000E+00 -0.15885599769E+04  0.15885599769E+04  0.50400001928E-02 0. -1.
    10030    2    1    2    0    0  0.00000000000E+00  0.00000000000E+00  0.11668759686E+03  0.32938075506E+04  0.32917399935E+04 0.  0.
        4    1    3    3  502    0 -0.13521089975E+04  0.34673833379E+03 -0.81424763935E+03  0.16159910409E+04  0.12699999809E+01 0. -1.
       -4    1    3    3    0  502  0.13521089975E+04 -0.34673833379E+03  0.93093523621E+03  0.16778165097E+04  0.12699999809E+01 0.  1.
</event>
<event>
 5   0  0.2037333E-07  0.3313264E+04  0.7818609E-02  0.8159529E-01
        1   -1    0    0  501    0  0.00000000000E+00  0.00000000000E+00  0.14096045831E+04  0.14096045832E+04  0.50400001928E-02 0.  1.
       -1   -1    0    0    0  501  0.00000000000E+00  0.00000000000E+00 -0.19469501280E+04  0.19469501280E+04  0.50400001928E-02 0. -1.
    10030    2    1    2    0    0  0.00000000000E+00  0.00000000000E+00 -0.53734554489E+03  0.33565547112E+04  0.33132641450E+04 0.  0.
        3    1    3    3  502    0  0.70728394553E+03  0.14821804590E+04 -0.48298186445E+02  0.16429979360E+04  0.10100000352E+00 0.  1.
       -3    1    3    3    0  502 -0.70728394553E+03 -0.14821804590E+04 -0.48904735845E+03  0.17135567752E+04  0.10100000352E+00 0. -1.
</event>
<event>
 5   0  0.6377741E-07  0.3304631E+04  0.7818609E-02  0.8161718E-01
       -2   -1    0    0    0  501  0.00000000000E+00  0.00000000000E+00  0.11872938060E+04  0.11872938060E+04  0.25500000920E-02 0.  1.
        2   -1    0    0  501    0  0.00000000000E+00  0.00000000000E+00 -0.22994694491E+04  0.22994694491E+04  0.25500000920E-02 0. -1.
    10030    2    1    2    0    0  0.00000000000E+00  0.00000000000E+00 -0.11121756431E+04  0.34867632551E+04  0.33046305900E+04 0.  0.
        1    1    3    3  502    0 -0.11740739549E+04 -0.11319016990E+04 -0.83622958389E+03  0.18327386679E+04  0.50400001928E-02 0.  1.
       -1    1    3    3    0  502  0.11740739549E+04  0.11319016990E+04 -0.27594605922E+03  0.16540245873E+04  0.50400001928E-02 0. -1.
</event>
<event>
 5   0  0.2087665E-07  0.3311595E+04  0.7818609E-02  0.8159951E-01
       -1   -1    0    0    0  501  0.00000000000E+00  0.00000000000E+00  0.14841156625E+04  0.14841156625E+04  0.50400001928E-02 0.  1.
        1   -1    0    0  501    0  0.00000000000E+00  0.00000000000E+00 -0.18473393305E+04  0.18473393305E+04  0.50400001928E-02 0. -1.
    10030    2    1    2    0    0  0.00000000000E+00  0.00000000000E+00 -0.36322366800E+03  0.33314549931E+04  0.33115949236E+04 0.  0.
        5    1    3    3  502    0  0.14763544671E+04 -0.74710885845E+03 -0.11919957810E+03  0.16589227795E+04  0.46999998093E+01 0. -1.
       -5    1    3    3    0  502 -0.14763544671E+04  0.74710885845E+03 -0.24402408990E+03  0.16725322136E+04  0.46999998093E+01 0.  1.
</event>
<event>
 5   0  0.6426079E-07  0.3291163E+04  0.7818609E-02  0.8165148E-01
       -2   -1    0    0    0  501  0.00000000000E+00  0.00000000000E+00  0.23287388299E+04  0.23287388299E+04  0.25500000920E-02 0. -1.
        2   -1    0    0  501    0  0.00000000000E+00  0.00000000000E+00 -0.11628345866E+04  0.11628345866E+04  0.25500000920E-02 0.  1.
    10030    2    1    2    0    0  0.00000000000E+00  0.00000000000E+00  0.11659042433E+04  0.34915734165E+04  0.32911627457E+04 0.  0.
        4    1    3    3  502    0  0.48337933607E+03 -0.58654287626E+02 -0.10846566795E+04  0.11889397097E+04  0.12699999809E+01 0.  1.
       -4    1    3    3    0  502 -0.48337933607E+03  0.58654287626E+02  0.22505609227E+04  0.23026337068E+04  0.12699999809E+01 0. -1.
</event>
<event>
 5   0  0.6377741E-07  0.3301431E+04  0.7818609E-02  0.8162531E-01
       -2   -1    0    0    0  501  0.00000000000E+00  0.00000000000E+00  0.12276803006E+04  0.12276803006E+04  0.25500000920E-02 0. -1.
        2   -1    0    0  501    0  0.00000000000E+00  0.00000000000E+00 -0.22195206281E+04  0.22195206281E+04  0.25500000920E-02 0.  1.
    10030    2    1    2    0    0  0.00000000000E+00  0.00000000000E+00 -0.99184032749E+03  0.34472009287E+04  0.33014310545E+04 0.  0.
        1    1    3    3  502    0  0.12611793694E+04 -0.10635177551E+04 -0.43668494698E+03  0.17065571072E+04  0.50400001928E-02 0.  1.
       -1    1    3    3    0  502 -0.12611793694E+04  0.10635177551E+04 -0.55515538051E+03  0.17406438216E+04  0.50400001928E-02 0. -1.
</event>
<event>
 5   0  0.6351753E-07  0.3282348E+04  0.7818609E-02  0.8167402E-01
       -2   -1    0    0    0  501  0.00000000000E+00  0.00000000000E+00  0.15053909524E+04  0.15053909524E+04  0.25500000920E-02 0.  1.
        2   -1    0    0  501    0  0.00000000000E+00  0.00000000000E+00 -0.17892043689E+04  0.17892043689E+04  0.25500000920E-02 0. -1.
    10030    2    1    2    0    0  0.00000000000E+00  0.00000000000E+00 -0.28381341646E+03  0.32945953212E+04  0.32823479821E+04 0.  0.
        3    1    3    3  502    0 -0.79827246890E+03 -0.13031420453E+04  0.45868530289E+03  0.15955595702E+04  0.10100000352E+00 0.  1.
       -3    1    3    3    0  502  0.79827246890E+03  0.13031420453E+04 -0.74249871935E+03  0.16990357510E+04  0.10100000352E+00 0. -1.
</event>
<event>
 5   0  0.6424183E-07  0.3299626E+04  0.7818609E-02  0.8162991E-01
        2   -1    0    0  501    0  0.00000000000E+00  0.00000000000E+00  0.16070307926E+04  0.16070307926E+04  0.25500000920E-02 0. -1.
       -2   -1    0    0    0  501  0.00000000000E+00  0.00000000000E+00 -0.16937340591E+04  0.16937340591E+04  0.25500000920E-02 0.  1.
    10030    2    1    2    0    0  0.00000000000E+00  0.00000000000E+00 -0.86703266432E+02  0.33007648517E+04  0.32996259106E+04 0.  0.
        2    1    3    3  502    0 -0.12651463467E+04  0.10203453726E+03 -0.10976966826E+04  0.16780775704E+04  0.25500000920E-02 0.  1.
       -2    1    3    3    0  502  0.12651463467E+04 -0.10203453726E+03  0.10109934162E+04  0.16226872813E+04  0.25500000920E-02 0. -1.
</event>
<event>
 5   0  0.6377741E-07  0.3295959E+04  0.7818609E-02  0.8163924E-01
       -2   -1    0    0    0  501  0.00000000000E+00  0.00000000000E+00  0.15307773806E+04  0.15307773806E+04  0.25500000920E-02 0.  1.
        2   -1    0    0  501    0  0.00000000000E+00  0.00000000000E+00 -0.17741552904E+04  0.17741552904E+04  0.25500000920E-02 0. -1.
    10030    2    1    2    0    0  0.00000000000E+00  0.00000000000E+00 -0.24337790982E+03  0.33049326709E+04  0.32959592158E+04 0.  0.
        1    1    3    3  502    0 -0.10672492387E+04 -0.53543426693E+03 -0.12606184771E+04  0.17363380249E+04  0.50400001928E-02 0. -1.
       -1    1    3    3    0  502  0.10672492387E+04  0.53543426693E+03  0.10172405673E+04  0.15685946460E+04  0.50400001928E-02 0.  1.
</event>
<event>
 5   0  0.6258718E-07  0.3298821E+04  0.7818609E-02  0.8163195E-01
        2   -1    0    0  501    0  0.00000000000E+00  0.00000000000E+00  0.21600495265E+04  0.21600495265E+04  0.25500000920E-02 0. -1.
       -2   -1    0    0    0  501  0.00000000000E+00  0.00000000000E+00 -0.12594874893E+04  0.12594874893E+04  0.25500000920E-02 0.  1.
    10030    2    1    2    0    0  0.00000000000E+00  0.00000000000E+00  0.90056203717E+03  0.34195370157E+04  0.32988212166E+04 0.  0.
        5    1    3    3  502    0 -0.58315964944E+03  0.88270826131E+03  0.17620058537E+04  0.20552215865E+04  0.46999998093E+01 0. -1.
       -5    1    3    3    0  502  0.58315964944E+03 -0.88270826131E+03 -0.86144381653E+03  0.13643154292E+04  0.46999998093E+01 0.  1.
</event>
<event>
 5   0  0.6424183E-07  0.3316678E+04  0.7818609E-02  0.8158665E-01
        2   -1    0    0  501    0  0.00000000000E+00  0.00000000000E+00  0.21450482595E+04  0.21450482595E+04  0.25500000920E-02 0.  1.
       -2   -1    0    0    0  501  0.00000000000E+00  0.00000000000E+00 -0.12820635604E+04  0.12820635604E+04  0.25500000920E-02 0. -1.
    10030    2    1    2    0    0  0.00000000000E+00  0.00000000000E+00  0.86298469915E+03  0.34271118199E+04  0.33166779818E+04 0.  0.
        2    1    3    3  502    0  0.13949235936E+04 -0.82540575688E+03  0.79385650969E+03  0.18048032173E+04  0.25500000920E-02 0.  1.
       -2    1    3    3    0  502 -0.13949235936E+04  0.82540575688E+03  0.69128189462E+02  0.16223086026E+04  0.25500000920E-02 0. -1.
</event>
<event>
 5   0  0.2037333E-07  0.3301593E+04  0.7818609E-02  0.8162490E-01
       -1   -1    0    0    0  501  0.00000000000E+00  0.00000000000E+00  0.22638759822E+04  0.22638759822E+04  0.50400001928E-02 0. -1.
        1   -1    0    0  501    0  0.00000000000E+00  0.00000000000E+00 -0.12037448240E+04  0.12037448240E+04  0.50400001928E-02 0.  1.
    10030    2    1    2    0    0  0.00000000000E+00  0.00000000000E+00  0.10601311582E+04  0.34676208062E+04  0.33015929463E+04 0.  0.
        3    1    3    3  502    0  0.10827357129E+04  0.78119153044E+02  0.18362740174E+04  0.21331482609E+04  0.10100000352E+00 0. -1.
       -3    1    3    3    0  502 -0.10827357129E+04 -0.78119153044E+02 -0.77614285913E+03  0.13344725453E+04  0.10100000352E+00 0.  1.
</event>
<event>
 5   0  0.2080828E-07  0.3302815E+04  0.7818609E-02  0.8162179E-01
        1   -1    0    0  501    0  0.00000000000E+00  0.00000000000E+00  0.17061082815E+04  0.17061082815E+04  0.50400001928E-02 0.  1.
       -1   -1    0    0    0  501  0.00000000000E+00  0.00000000000E+00 -0.15984609830E+04  0.15984609830E+04  0.50400001928E-02 0. -1.
    10030    2    1    2    0    0  0.00000000000E+00  0.00000000000E+00  0.10764729844E+03  0.33045692645E+04  0.33028154782E+04 0.  0.
        1    1    3    3  502    0 -0.46476241855E+03  0.73077227865E+03  0.14606696022E+04  0.16981130456E+04  0.50400001928E-02 0.  1.
       -1    1    3    3    0  502  0.46476241855E+03 -0.73077227865E+03 -0.13530223037E+04  0.16064562189E+04  0.50400001928E-02 0. -1.
</event>
<event>
 5   0  0.6426079E-07  0.3303203E+04  0.7818609E-02  0.8162081E-01
        2   -1    0    0  501    0  0.00000000000E+00  0.00000000000E+00  0.19421734432E+04  0.19421734432E+04  0.25500000920E-02 0. -1.
       -2   -1    0    0    0  501  0.00000000000E+00  0.00000000000E+00 -0.14045027897E+04  0.14045027898E+04  0.25500000920E-02 0.  1.
    10030    2    1    2    0    0  0.00000000000E+00  0.00000000000E+00  0.53767065347E+03  0.33466762330E+04  0.33032033054E+04 0.  0.
        4    1    3    3  502    0 -0.13487396431E+04 -0.36830582102E+03  0.11596328197E+04  0.18164519515E+04  0.12699999809E+01 0. -1.
       -4    1    3    3    0  502  0.13487396431E+04  0.36830582102E+03 -0.62196216621E+03  0.15302242815E+04  0.12699999809E+01 0.  1.
</event>
<event>
 5   0  0.6258718E-07  0.3311663E+04  0.7818609E-02  0.8159934E-01
        2   -1    0    0  501    0  0.00000000000E+00  0.00000000000E+00  0.12157981589E+04  0.12157981589E+04  0.25500000920E-02 0.  1.
       -2   -1    0    0    0  501  0.00000000000E+00  0.00000000000E+00 -0.22551253825E+04  0.22551253825E+04  0.25500000920E-02 0. -1.
    10030    2    1    2    0    0  0.00000000000E+00  0.00000000000E+00 -0.10393272235E+04  0.34709235414E+04  0.33116625965E+04 0.  0.
        5    1    3    3  502    0  0.44986136564E+03  0.55202574106E+03  0.10471000129E+04  0.12663128342E+04  0.46999998093E+01 0.  1.
       -5    1    3    3    0  502 -0.44986136564E+03 -0.55202574106E+03 -0.20864272365E+04  0.22046107072E+04  0.46999998093E+01 0. -1.
</event>
<event>
 5   0  0.6258718E-07  0.3292113E+04  0.7818609E-02  0.8164905E-01
       -2   -1    0    0    0  501  0.00000000000E+00  0.00000000000E+00  0.18398241613E+04  0.18398241613E+04  0.25500000920E-02 0. -1.
        2   -1    0    0  501    0  0.00000000000E+00  0.00000000000E+00 -0.14726960050E+04  0.14726960050E+04  0.25500000920E-02 0.  1.
    10030    2    1    2    0    0  0.00000000000E+00  0.00000000000E+00  0.36712815621E+03  0.33125201663E+04  0.32921128123E+04 0.  0.
        5    1    3    3  502    0 -0.14209887869E+04  0.30233483204E+03  0.96222426301E+03  0.17425593549E+04  0.46999998093E+01 0. -1.
       -5    1    3    3    0  502  0.14209887869E+04 -0.30233483204E+03 -0.59509610680E+03  0.15699608114E+04  0.46999998093E+01 0.  1.
</event>
<event>
 5   0  0.2080770E-07  0.3292888E+04  0.7818609E-02  0.8164707E-01
       -1   -1    0    0    0  501  0.00000000000E+00  0.00000000000E+00  0.21616079492E+04  0.21616079492E+04  0.50400001928E-02 0. -1.
        1   -1    0    0  501    0  0.00000000000E+00  0.00000000000E+00 -0.12540558783E+04  0.12540558783E+04  0.50400001928E-02 0.  1.
    10030    2    1    2    0    0  0.00000000000E+00  0.00000000000E+00  0.90755207098E+03  0.34156638275E+04  0.32928875810E+04 0.  0.
        4    1    3    3  502    0  0.10430831808E+03  0.12893197534E+03 -0.12453694057E+04  0.12563638999E+04  0.12699999809E+01 0.  1.
       -4    1    3    3    0  502 -0.10430831808E+03 -0.12893197534E+03  0.21529214767E+04  0.21592999276E+04  0.12699999809E+01 0. -1.
</event>
<event>
 5   0  0.1994250E-07  0.3310648E+04  0.7818609E-02  0.8160191E-01
       -3   -1    0    0    0  501  0.00000000000E+00  0.00000000000E+00  0.15379633815E+04  0.15379633848E+04  0.10100000352E+00 0.  1.
        3   -1    0    0  501    0  0.00000000000E+00  0.00000000000E+00 -0.17816404364E+04  0.17816404393E+04  0.10100000352E+00 0. -1.
    10030    2    1    2    0    0  0.00000000000E+00  0.00000000000E+00 -0.24367705494E+03  0.33196038241E+04  0.33106481302E+04 0.  0.
        2    1    3    3  502    0 -0.45618802720E+02  0.33165107061E+03 -0.17473420541E+04  0.17791227507E+04  0.25500000920E-02 0. -1.
       -2    1    3    3    0  502  0.45618802720E+02 -0.33165107061E+03  0.15036649992E+04  0.15404810734E+04  0.25500000920E-02 0.  1.
</event>
<event>
 5   0  0.6377741E-07  0.3277971E+04  0.7818609E-02  0.8168523E-01
        2   -1    0    0  501    0  0.00000000000E+00  0.00000000000E+00  0.14702671946E+04  0.14702671946E+04  0.25500000920E-02 0.  1.
       -2   -1    0    0    0  501  0.00000000000E+00  0.00000000000E+00 -0.18270650871E+04  0.18270650871E+04  0.25500000920E-02 0. -1.
    10030    2    1    2    0    0  0.00000000000E+00  0.00000000000E+00 -0.35679789245E+03  0.32973322817E+04  0.32779712384E+04 0.  0.
        1    1    3    3  502    0 -0.66516339882E+03  0.14965903779E+04 -0.11439330568E+03  0.16417402154E+04  0.50400001928E-02 0.  1.
       -1    1    3    3    0  502  0.66516339882E+03 -0.14965903779E+04 -0.24240458676E+03  0.16555920663E+04  0.50400001928E-02 0. -1.
</event>
<event>
 5   0  0.6426079E-07  0.3263189E+04  0.7818609E-02  0.8172326E-01
        2   -1    0    0  501    0  0.00000000000E+00  0.00000000000E+00  0.16043288789E+04  0.16043288789E+04  0.25500000920E-02 0. -1.
       -2   -1    0    0    0  501  0.00000000000E+00  0.00000000000E+00 -0.16593232062E+04  0.16593232062E+04  0.25500000920E-02 0.  1.
    10030    2    1    2    0    0  0.00000000000E+00  0.00000000000E+00 -0.54994327285E+02  0.32636520851E+04  0.32631887099E+04 0.  0.
        4    1    3    3  502    0 -0.13312442976E+04 -0.56302563618E+03 -0.78449913994E+03  0.16445819409E+04  0.12699999809E+01 0.  1.
       -4    1    3    3    0  502  0.13312442976E+04  0.56302563618E+03  0.72950481265E+03  0.16190701441E+04  0.12699999809E+01 0. -1.
</event>
<event>
 5   0  0.6424183E-07  0.3311197E+04  0.7818609E-02  0.8160052E-01
       -2   -1    0    0    0  501  0.00000000000E+00  0.00000000000E+00  0.99306433525E+03  0.99306433525E+03  0.25500000920E-02 0. -1.
        2   -1    0    0  501    0  0.00000000000E+00  0.00000000000E+00 -0.27601497944E+04  0.27601497944E+04  0.25500000920E-02 0.  1.
    10030    2    1    2    0    0  0.00000000000E+00  0.00000000000E+00 -0.17670854591E+04  0.37532141296E+04  0.33111969562E+04 0.  0.
        2    1    3    3  502    0 -0.14614755815E+04 -0.65889508723E+03 -0.41488441904E+03  0.16559537109E+04  0.25500000920E-02 0. -1.
       -2    1    3    3    0  502  0.14614755815E+04  0.65889508723E+03 -0.13522010401E+04  0.20972604188E+04  0.25500000920E-02 0.  1.
</event>
<event>
 5   0  0.6424183E-07  0.3309029E+04  0.7818609E-02  0.8160602E-01
       -2   -1    0    0    0  501  0.00000000000E+00  0.00000000000E+00  0.12289520095E+04  0.12289520095E+04  0.25500000920E-02 0.  1.
        2   -1    0    0  501    0  0.00000000000E+00  0.00000000000E+00 -0.22274416769E+04  0.22274416769E+04  0.25500000920E-02 0. -1.
    10030    2    1    2    0    0  0.00000000000E+00  0.00000000000E+00 -0.99848966741E+03  0.34563936865E+04  0.33090294196E+04 0.  0.
        2    1    3    3  502    0 -0.76458848780E+02 -0.16371388671E+04 -0.26254942429E+03  0.16598198173E+04  0.25500000920E-02 0. -1.
       -2    1    3    3    0  502  0.76458848780E+02  0.16371388671E+04 -0.73594024313E+03  0.17965738691E+04  0.25500000920E-02 0.  1.
</event>
<event>
 5   0  0.2057130E-07  0.3299345E+04  0.7818609E-02  0.8163062E-01
        1   -1    0    0  501    0  0.00000000000E+00  0.00000000000E+00  0.19223145037E+04  0.19223145037E+04  0.50400001928E-02 0.  1.
       -1   -1    0    0    0  501  0.00000000000E+00  0.00000000000E+00 -0.14156994862E+04  0.14156994862E+04  0.50400001928E-02 0. -1.
    10030    2    1    2    0    0  0.00000000000E+00  0.00000000000E+00  0.50661501751E+03  0.33380139899E+04  0.32993451806E+04 0.  0.
        2    1    3    3  502    0 -0.10055653197E+04 -0.84666131651E+03  0.12616949516E+04  0.18220513571E+04  0.25500000920E-02 0.  1.
       -2    1    3    3    0  502  0.10055653197E+04  0.84666131651E+03 -0.75507993414E+03  0.15159626328E+04  0.25500000920E-02 0. -1.
</event>
<event>
 5   0  0.2037333E-07  0.3306569E+04  0.7818609E-02  0.8161226E-01
       -1   -1    0    0    0  501  0.00000000000E+00  0.00000000000E+00  0.13641617568E+04  0.13641617568E+04  0.50400001928E-02 0. -1.
        1   -1    0    0  501    0  0.00000000000E+00  0.00000000000E+00 -0.20036842326E+04  0.20036842326E+04  0.50400001928E-02 0.  1.
    10030    2    1    2    0    0  0.00000000000E+00  0.00000000000E+00 -0.63952247581E+03  0.33678459894E+04  0.33065688577E+04 0.  0.
        3    1    3    3  502    0 -0.12774658708E+04 -0.58660118271E+03 -0.12061353404E+04  0.18522371523E+04  0.10100000352E+00 0.  1.
       -3    1    3    3    0  502  0.12774658708E+04  0.58660118271E+03  0.56661286463E+03  0.15156088371E+04  0.10100000352E+00 0. -1.
</event>
<event>
 5   0  0.6258718E-07  0.3304374E+04  0.7818609E-02  0.8161783E-01
        2   -1    0    0  501    0  0.00000000000E+00  0.00000000000E+00  0.24151318160E+04  0.24151318160E+04  0.25500000920E-02 0. -1.
       -2   -1    0    0    0  501  0.00000000000E+00  0.00000000000E+00 -0.11302581950E+04  0.11302581950E+04  0.25500000920E-02 0.  1.
    10030    2    1    2    0    0  0.00000000000E+00  0.00000000000E+00  0.12848736211E+04  0.35453900110E+04  0.33043743898E+04 0.  0.
        5    1    3    3  502    0  0.65381780188E+03 -0.14424958649E+04  0.11473206022E+04  0.19556683494E+04  0.46999998093E+01 0. -1.
       -5    1    3    3    0  502 -0.65381780188E+03  0.14424958649E+04  0.13755301883E+03  0.15897216616E+04  0.46999998093E+01 0.  1.
</event>
<event>
 5   0  0.6377741E-07  0.3298055E+04  0.7818609E-02  0.8163390E-01
        2   -1    0    0  501    0  0.00000000000E+00  0.00000000000E+00  0.22876092305E+04  0.22876092305E+04  0.25500000920E-02 0.  1.
       -2   -1    0    0    0  501  0.00000000000E+00  0.00000000000E+00 -0.11887046079E+04  0.11887046079E+04  0.25500000920E-02 0. -1.
    10030    2    1    2    0    0  0.00000000000E+00  0.00000000000E+00  0.10989046227E+04  0.34763138384E+04  0.32980549621E+04 0.  0.
        1    1    3    3  502    0  0.16340655962E+04  0.21947638056E+03  0.58196387778E+03  0.17484342164E+04  0.50400001928E-02 0. -1.
       -1    1    3    3    0  502 -0.16340655962E+04 -0.21947638056E+03  0.51694074489E+03  0.17278796219E+04  0.50400001928E-02 0.  1.
</event>
<event>
 5   0  0.2080770E-07  0.3294321E+04  0.7818609E-02  0.8164342E-01
       -1   -1    0    0    0  501  0.00000000000E+00  0.00000000000E+00  0.19640996849E+04  0.19640996849E+04  0.50400001928E-02 0.  1.
        1   -1    0    0  501    0  0.00000000000E+00  0.00000000000E+00 -0.13813644943E+04  0.13813644943E+04  0.50400001928E-02 0. -1.
    10030    2    1    2    0    0  0.00000000000E+00  0.00000000000E+00  0.58273519056E+03  0.33454641792E+04  0.32943209121E+04 0.  0.
        4    1    3    3  502    0 -0.14443401154E+04  0.65725634328E+03  0.73984758213E+03  0.17508513151E+04  0.12699999809E+01 0.  1.
       -4    1    3    3    0  502  0.14443401154E+04 -0.65725634328E+03 -0.15711239157E+03  0.15946128641E+04  0.12699999809E+01 0. -1.
</event>
<event>
 5   0  0.2037333E-07  0.3303145E+04  0.7818609E-02  0.8162096E-01
        1   -1    0    0  501    0  0.00000000000E+00  0.00000000000E+00  0.22102604877E+04  0.22102604877E+04  0.50400001928E-02 0.  1.
       -1   -1    0    0    0  501  0.00000000000E+00  0.00000000000E+00 -0.12341040626E+04  0.12341040627E+04  0.50400001928E-02 0. -1.
    10030    2    1    2    0    0  0.00000000000E+00  0.00000000000E+00  0.97615642503E+03  0.34443645503E+04  0.33031448333E+04 0.  0.
        3    1    3    3  502    0  0.22865710542E+02 -0.14761667625E+04  0.12600679169E+04  0.19409694270E+04  0.10100000352E+00 0.  1.
       -3    1    3    3    0  502 -0.22865710542E+02  0.14761667625E+04 -0.28391149187E+03  0.15033951233E+04  0.10100000352E+00 0. -1.
</event>
<event>
 5   0  0.6258718E-07  0.3306785E+04  0.7818609E-02  0.8161171E-01
        2   -1    0    0  501    0  0.00000000000E+00  0.00000000000E+00  0.14413141727E+04  0.14413141727E+04  0.25500000920E-02 0. -1.
       -2   -1    0    0    0  501  0.00000000000E+00  0.00000000000E+00 -0.18966762587E+04  0.18966762587E+04  0.25500000920E-02 0.  1.
    10030    2    1    2    0    0  0.00000000000E+00  0.00000000000E+00 -0.45536208607E+03  0.33379904314E+04  0.33067847663E+04 0.  0.
        5    1    3    3  502    0  0.44797222897E+03 -0.87270936415E+03 -0.15711742052E+04  0.18522719091E+04  0.46999998093E+01 0.  1.
       -5    1    3    3    0  502 -0.44797222897E+03  0.87270936415E+03  0.11158121192E+04  0.14857185223E+04  0.46999998093E+01 0. -1.
</event>
<event>
 5   0  0.2057130E-07  0.3128796E+04  0.7818609E-02  0.8207879E-01
       -1   -1    0    0    0  501  0.00000000000E+00  0.00000000000E+00  0.98775992170E+03  0.98775992171E+03  0.50400001928E-02 0.  1.
        1   -1    0    0  501    0  0.00000000000E+00  0.00000000000E+00 -0.24776677297E+04  0.24776677297E+04  0.50400001928E-02 0. -1.
    10030    2    1    2    0    0  0.00000000000E+00  0.00000000000E+00 -0.14899078080E+04  0.34654276514E+04  0.31287958595E+04 0.  0.
        2    1    3    3  502    0 -0.97567716496E+03  0.10851044653E+04 -0.13694854987E+04  0.20012216674E+04  0.25500000920E-02 0.  1.
       -2    1    3    3    0  502  0.97567716496E+03 -0.10851044653E+04 -0.12042230928E+03  0.14642059840E+04  0.25500000920E-02 0. -1.
</event>
<event>
 5   0  0.6424183E-07  0.3311221E+04  0.7818609E-02  0.8160046E-01
       -2   -1    0    0    0  501  0.00000000000E+00  0.00000000000E+00  0.16537411487E+04  0.16537411487E+04  0.25500000920E-02 0.  1.
        2   -1    0    0  501    0  0.00000000000E+00  0.00000000000E+00 -0.16574821116E+04  0.16574821116E+04  0.25500000920E-02 0. -1.
    10030    2    1    2    0    0  0.00000000000E+00  0.00000000000E+00 -0.37409629238E+01  0.33112232603E+04  0.33112211471E+04 0.  0.
        2    1    3    3  502    0 -0.16041654813E+04  0.40207849106E+03 -0.79538843078E+02  0.16556993785E+04  0.25500000920E-02 0. -1.
       -2    1    3    3    0  502  0.16041654813E+04 -0.40207849106E+03  0.75797880154E+02  0.16555238818E+04  0.25500000920E-02 0.  1.
</event>
<event>
 5   0  0.6426079E-07  0.3294930E+04  0.7818609E-02  0.8164187E-01
        2   -1    0    0  501    0  0.00000000000E+00  0.00000000000E+00  0.20768492470E+04  0.20768492470E+04  0.25500000920E-02 0.  1.
       -2   -1    0    0    0  501  0.00000000000E+00  0.00000000000E+00 -0.13068549152E+04  0.13068549152E+04  0.25500000920E-02 0. -1.
    10030    2    1    2    0    0  0.00000000000E+00  0.00000000000E+00  0.76999433186E+03  0.33837041622E+04  0.32949298303E+04 0.  0.
        4    1    3    3  502    0 -0.11144571423E+03 -0.14683221345E+04 -0.37365497553E+03  0.15192135109E+04  0.12699999809E+01 0.  1.
       -4    1    3    3    0  502  0.11144571423E+03  0.14683221345E+04  0.11436493074E+04  0.18644906514E+04  0.12699999809E+01 0. -1.
</event>
<event>
 5   0  0.2080828E-07  0.3300526E+04  0.7818609E-02  0.8162762E-01
       -1   -1    0    0    0  501  0.00000000000E+00  0.00000000000E+00  0.11616758419E+04  0.11616758419E+04  0.50400001928E-02 0.  1.
        1   -1    0    0  501    0  0.00000000000E+00  0.00000000000E+00 -0.23443444051E+04  0.23443444051E+04  0.50400001928E-02 0. -1.
    10030    2    1    2    0    0  0.00000000000E+00  0.00000000000E+00 -0.11826685632E+04  0.35060202470E+04  0.33005261765E+04 0.  0.
        1    1    3    3  502    0 -0.14072259378E+04  0.83523283660E+03 -0.36482215027E+03  0.16766019005E+04  0.50400001928E-02 0. -1.
       -1    1    3    3    0  502  0.14072259378E+04 -0.83523283660E+03 -0.81784641290E+03  0.18294183465E+04  0.50400001928E-02 0.  1.
</event>
<event>
 5   0  0.2080828E-07  0.3278188E+04  0.7818609E-02  0.8168468E-01
       -1   -1    0    0    0  501  0.00000000000E+00  0.00000000000E+00  0.12801795444E+04  0.12801795444E+04  0.50400001928E-02 0.  1.
        1   -1    0    0  501    0  0.00000000000E+00  0.00000000000E+00 -0.20986348830E+04  0.20986348830E+04  0.50400001928E-02 0. -1.
    10030    2    1    2    0    0  0.00000000000E+00  0.00000000000E+00 -0.81845533864E+03  0.33788144274E+04  0.32781881876E+04 0.  0.
        1    1    3    3  502    0  0.84292313111E+03  0.14048857242E+04 -0.35866949398E+03  0.16771604303E+04  0.50400001928E-02 0. -1.
       -1    1    3    3    0  502 -0.84292313111E+03 -0.14048857242E+04 -0.45978584466E+03  0.17016539971E+04  0.50400001928E-02 0.  1.
</event>
<event>
 5   0  0.2087665E-07  0.3321140E+04  0.7818609E-02  0.8157537E-01
       -1   -1    0    0    0  501  0.00000000000E+00  0.00000000000E+00  0.13328301739E+04  0.13328301739E+04  0.50400001928E-02 0. -1.
        1   -1    0    0  501    0  0.00000000000E+00  0.00000000000E+00 -0.20688998323E+04  0.20688998323E+04  0.50400001928E-02 0.  1.
    10030    2    1    2    0    0  0.00000000000E+00  0.00000000000E+00 -0.73606965841E+03  0.34017300061E+04  0.33211396376E+04 0.  0.
        5    1    3    3  502    0 -0.10981616609E+04  0.12126668323E+04 -0.65945629817E+03  0.17639230649E+04  0.46999998093E+01 0. -1.
       -5    1    3    3    0  502  0.10981616609E+04 -0.12126668323E+04 -0.76613360237E+02  0.16378069412E+04  0.46999998093E+01 0.  1.
</event>
<event>
 5   0  0.6377741E-07  0.3322690E+04  0.7818609E-02  0.8157146E-01
        2   -1    0    0  501    0  0.00000000000E+00  0.00000000000E+00  0.28092318409E+04  0.28092318409E+04  0.25500000920E-02 0.  1.
       -2   -1    0    0    0  501  0.00000000000E+00  0.00000000000E+00 -0.98249871170E+03  0.98249871170E+03  0.25500000920E-02 0. -1.
    10030    2    1    2    0    0  0.00000000000E+00  0.00000000000E+00  0.18267331292E+04  0.37917305526E+04  0.33226896723E+04 0.  0.
        1    1    3    3  502    0 -0.14146933705E+04 -0.85728806094E+03  0.73744040756E+03  0.18111097445E+04  0.50400001928E-02 0. -1.
       -1    1    3    3    0  502  0.14146933705E+04  0.85728806094E+03  0.10892927217E+04  0.19806208081E+04  0.50400001928E-02 0.  1.
</event>
<event>
 5   0  0.6426079E-07  0.3290252E+04  0.7818609E-02  0.8165380E-01
        2   -1    0    0  501    0  0.00000000000E+00  0.00000000000E+00  0.20947666489E+04  0.20947666489E+04  0.25500000920E-02 0. -1.
       -2   -1    0    0    0  501  0.00000000000E+00  0.00000000000E+00 -0.12920001207E+04  0.12920001207E+04  0.25500000920E-02 0.  1.
    10030    2    1    2    0    0  0.00000000000E+00  0.00000000000E+00  0.80276652822E+03  0.33867667696E+04  0.32902515182E+04 0.  0.
        4    1    3    3  502    0  0.99636540003E+03  0.14432088998E+03  0.17406506905E+04  0.20108304178E+04  0.12699999809E+01 0. -1.
       -4    1    3    3    0  502 -0.99636540003E+03 -0.14432088998E+03 -0.93788416230E+03  0.13759363519E+04  0.12699999809E+01 0.  1.
</event>
<event>
 5   0  0.2080770E-07  0.3315342E+04  0.7818609E-02  0.8159002E-01
        1   -1    0    0  501    0  0.00000000000E+00  0.00000000000E+00  0.17635210023E+04  0.17635210023E+04  0.50400001928E-02 0.  1.
       -1   -1    0    0    0  501  0.00000000000E+00  0.00000000000E+00 -0.15581746808E+04  0.15581746809E+04  0.50400001928E-02 0. -1.
    10030    2    1    2    0    0  0.00000000000E+00  0.00000000000E+00  0.20534632144E+03  0.33216956831E+04  0.33153423805E+04 0.  0.
        4    1    3    3  502    0  0.14284776135E+03 -0.16495720709E+04  0.22653582747E+02  0.16559010531E+04  0.12699999809E+01 0.  1.
       -4    1    3    3    0  502 -0.14284776135E+03  0.16495720709E+04  0.18269273870E+03  0.16657946301E+04  0.12699999809E+01 0. -1.
</event>
<event>
 5   0  0.2087665E-07  0.3284873E+04  0.7818609E-02  0.8166755E-01
        1   -1    0    0  501    0  0.00000000000E+00  0.00000000000E+00  0.27810121184E+04  0.27810121184E+04  0.50400001928E-02 0. -1.
       -1   -1    0    0    0  501  0.00000000000E+00  0.00000000000E+00 -0.97000584776E+03  0.97000584777E+03  0.50400001928E-02 0.  1.
    10030    2    1    2    0    0  0.00000000000E+00  0.00000000000E+00  0.18110062706E+04  0.37510179662E+04  0.32848732198E+04 0.  0.
        5    1    3    3  502    0  0.54996767435E+02  0.66970303123E+03 -0.80585206117E+03  0.10492599435E+04  0.46999998093E+01 0.  1.
       -5    1    3    3    0  502 -0.54996767435E+02 -0.66970303123E+03  0.26168583318E+04  0.27017580227E+04  0.46999998093E+01 0. -1.
</event>
<event>
 5   0  0.6377741E-07  0.3251233E+04  0.7818609E-02  0.8175416E-01
       -2   -1    0    0    0  501  0.00000000000E+00  0.00000000000E+00  0.14607731725E+04  0.14607731725E+04  0.25500000920E-02 0. -1.
        2   -1    0    0  501    0  0.00000000000E+00  0.00000000000E+00 -0.18090621638E+04  0.18090621638E+04  0.25500000920E-02 0.  1.
    10030    2    1    2    0    0  0.00000000000E+00  0.00000000000E+00 -0.34828899136E+03  0.32698353363E+04  0.32512332898E+04 0.  0.
        1    1    3    3  502    0 -0.47796970457E+03 -0.52315612364E+03 -0.16455539789E+04  0.17916459655E+04  0.50400001928E-02 0.  1.
       -1    1    3    3    0  502  0.47796970457E+03  0.52315612364E+03  0.12972649875E+04  0.14781893708E+04  0.50400001928E-02 0. -1.
</event>
<event>
 5   0  0.2037333E-07  0.3286746E+04  0.7818609E-02  0.8166276E-01
        1   -1    0    0  501    0  0.00000000000E+00  0.00000000000E+00  0.24442654887E+04  0.24442654887E+04  0.50400001928E-02 0. -1.
       -1   -1    0    0    0  501  0.00000000000E+00  0.00000000000E+00 -0.11049021653E+04  0.11049021653E+04  0.50400001928E-02 0.  1.
    10030    2    1    2    0    0  0.00000000000E+00  0.00000000000E+00  0.13393633233E+04  0.35491676540E+04  0.32867456434E+04 0.  0.
        3    1    3    3  502    0 -0.32278558040E+03 -0.11495718111E+04  0.18889803858E+04  0.22347153707E+04  0.10100000352E+00 0. -1.
       -3    1    3    3    0  502  0.32278558040E+03  0.11495718111E+04 -0.54961706245E+03  0.13144522834E+04  0.10100000352E+00 0.  1.
</event>
<event>
 5   0  0.6424183E-07  0.3301133E+04  0.7818609E-02  0.8162607E-01
        2   -1    0    0  501    0  0.00000000000E+00  0.00000000000E+00  0.27064938678E+04  0.27064938678E+04  0.25500000920E-02 0.  1.
       -2   -1    0    0    0  501  0.00000000000E+00  0.00000000000E+00 -0.10066049806E+04  0.10066049806E+04  0.25500000920E-02 0. -1.
    10030    2    1    2    0    0  0.00000000000E+00  0.00000000000E+00  0.16998888872E+04  0.37130988484E+04  0.33011332644E+04 0.  0.
        2    1    3    3  502    0  0.10227456943E+04  0.12963437584E+03  0.22998208923E+04  0.25203154492E+04  0.25500000920E-02 0.  1.
       -2    1    3    3    0  502 -0.10227456943E+04 -0.12963437584E+03 -0.59993200516E+03  0.11927833992E+04  0.25500000920E-02 0. -1.
</event>
<event>
 5   0  0.6424183E-07  0.3222136E+04  0.7818609E-02  0.8182995E-01
       -2   -1    0    0    0  501  0.00000000000E+00  0.00000000000E+00  0.14237425642E+04  0.14237425642E+04  0.25500000920E-02 0. -1.
        2   -1    0    0  501    0  0.00000000000E+00  0.00000000000E+00 -0.18230402874E+04  0.18230402874E+04  0.25500000920E-02 0.  1.
    10030    2    1    2    0    0  0.00000000000E+00  0.00000000000E+00 -0.39929772314E+03  0.32467828516E+04  0.32221359707E+04 0.  0.
        2    1    3    3  502    0  0.14245569576E+04 -0.61329921819E+03  0.23962333510E+03  0.15693685989E+04  0.25500000920E-02 0.  1.
       -2    1    3    3    0  502 -0.14245569576E+04  0.61329921819E+03 -0.63892105824E+03  0.16774142527E+04  0.25500000920E-02 0. -1.
</event>
<event>
 5   0  0.6426079E-07  0.3303276E+04  0.7818609E-02  0.8162062E-01
        2   -1    0    0  501    0  0.00000000000E+00  0.00000000000E+00  0.16570143054E+04  0.16570143054E+04  0.25500000920E-02 0.  1.
       -2   -1    0    0    0  501  0.00000000000E+00  0.00000000000E+00 -0.16462792003E+04  0.16462792004E+04  0.25500000920E-02 0. -1.
    10030    2    1    2    0    0  0.00000000000E+00  0.00000000000E+00  0.10735105070E+02  0.33032935058E+04  0.33032760622E+04 0.  0.
        4    1    3    3  502    0  0.90749217390E+03  0.35714890325E+02 -0.13741646410E+04  0.16471635233E+04  0.12699999809E+01 0. -1.
       -4    1    3    3    0  502 -0.90749217390E+03 -0.35714890325E+02  0.13848997461E+04  0.16561299824E+04  0.12699999809E+01 0.  1.
</event>
<event>
 5   0  0.6258718E-07  0.3289532E+04  0.7818609E-02  0.8165564E-01
       -2   -1    0    0    0  501  0.00000000000E+00  0.00000000000E+00  0.15188616855E+04  0.15188616855E+04  0.25500000920E-02 0. -1.
        2   -1    0    0  501    0  0.00000000000E+00  0.00000000000E+00 -0.17811068362E+04  0.17811068362E+04  0.25500000920E-02 0.  1.
    10030    2    1    2    0    0  0.00000000000E+00  0.00000000000E+00 -0.26224515067E+03  0.32999685217E+04  0.32895318398E+04 0.  0.
        5    1    3    3  502    0  0.11528787271E+04 -0.38690007748E+03 -0.12420709174E+04  0.17382701986E+04  0.46999998093E+01 0.  1.
       -5    1    3    3    0  502 -0.11528787271E+04  0.38690007748E+03  0.97982576671E+03  0.15616983232E+04  0.46999998093E+01 0. -1.
</event>
<event>
 5   0  0.6377741E-07  0.3288979E+04  0.7818609E-02  0.8165705E-01
        2   -1    0    0  501    0  0.00000000000E+00  0.00000000000E+00  0.22574981932E+04  0.22574981932E+04  0.25500000920E-02 0.  1.
       -2   -1    0    0    0  501  0.00000000000E+00  0.00000000000E+00 -0.11979391004E+04  0.11979391004E+04  0.25500000920E-02 0. -1.
    10030    2    1    2    0    0  0.00000000000E+00  0.00000000000E+00  0.10595590927E+04  0.34554372936E+04  0.32889787806E+04 0.  0.
        1    1    3    3  502    0 -0.15649805924E+04  0.40039649082E+03  0.20619178343E+03  0.16284952122E+04  0.50400001928E-02 0.  1.
       -1    1    3    3    0  502  0.15649805924E+04 -0.40039649082E+03  0.85336730932E+03  0.18269420815E+04  0.50400001928E-02 0. -1.
</event>
<event>
 5   0  0.6258718E-07  0.3423531E+04  0.7818609E-02  0.8132155E-01
        2   -1    0    0  501    0  0.00000000000E+00  0.00000000000E+00  0.21427394966E+04  0.21427394966E+04  0.25500000920E-02 0.  1.
       -2   -1    0    0    0  501  0.00000000000E+00  0.00000000000E+00 -0.13674744845E+04  0.13674744845E+04  0.25500000920E-02 0. -1.
    10030    2    1    2    0    0  0.00000000000E+00  0.00000000000E+00  0.77526501211E+03  0.35102139811E+04  0.34235312696E+04 0.  0.
        5    1    3    3  502    0  0.15976384974E+04  0.32825503231E+03  0.92032467679E+03  0.18727572547E+04  0.46999998093E+01 0.  1.
       -5    1    3    3    0  502 -0.15976384974E+04 -0.32825503231E+03 -0.14505966467E+03  0.16374567264E+04  0.46999998093E+01 0. -1.
</event>
<event>
 5   0  0.2080770E-07  0.3298464E+04  0.7818609E-02  0.8163286E-01
       -1   -1    0    0    0  501  0.00000000000E+00  0.00000000000E+00  0.13764427423E+04  0.13764427424E+04  0.50400001928E-02 0.  1.
        1   -1    0    0  501    0  0.00000000000E+00  0.00000000000E+00 -0.19760843210E+04  0.19760843210E+04  0.50400001928E-02 0. -1.
    10030    2    1    2    0    0  0.00000000000E+00  0.00000000000E+00 -0.59964157860E+03  0.33525270633E+04  0.32984644439E+04 0.  0.
        4    1    3    3  502    0 -0.68687426035E+03  0.63233149016E+03 -0.16816353524E+04  0.19234184242E+04  0.12699999809E+01 0. -1.
       -4    1    3    3    0  502  0.68687426035E+03 -0.63233149016E+03  0.10819937738E+04  0.14291086391E+04  0.12699999809E+01 0.  1.
</event>
<event>
 5   0  0.2087665E-07  0.3316450E+04  0.7818609E-02  0.8158722E-01
        1   -1    0    0  501    0  0.00000000000E+00  0.00000000000E+00  0.17646893645E+04  0.17646893645E+04  0.50400001928E-02 0.  1.
       -1   -1    0    0    0  501  0.00000000000E+00  0.00000000000E+00 -0.15581840910E+04  0.15581840910E+04  0.50400001928E-02 0. -1.
    10030    2    1    2    0    0  0.00000000000E+00  0.00000000000E+00  0.20650527349E+03  0.33228734556E+04  0.33164504480E+04 0.  0.
        5    1    3    3  502    0  0.85514919498E+02 -0.10416678250E+04 -0.11866038671E+04  0.15812765370E+04  0.46999998093E+01 0. -1.
       -5    1    3    3    0  502 -0.85514919498E+02  0.10416678250E+04  0.13931091406E+04  0.17415969186E+04  0.46999998093E+01 0.  1.
</event>
<event>
 5   0  0.6426079E-07  0.3302954E+04  0.7818609E-02  0.8162144E-01
       -2   -1    0    0    0  501  0.00000000000E+00  0.00000000000E+00  0.97880805404E+03  0.97880805405E+03  0.25500000920E-02 0.  1.
        2   -1    0    0  501    0  0.00000000000E+00  0.00000000000E+00 -0.27864268308E+04  0.27864268308E+04  0.25500000920E-02 0. -1.
    10030    2    1    2    0    0  0.00000000000E+00  0.00000000000E+00 -0.18076187768E+04  0.37652348849E+04  0.33029544496E+04 0.  0.
        4    1    3    3  502    0 -0.15001941419E+04 -0.38297841554E+03 -0.15587858972E+04  0.21970594020E+04  0.12699999809E+01 0. -1.
       -4    1    3    3    0  502  0.15001941419E+04  0.38297841554E+03 -0.24883287964E+03  0.15681754828E+04  0.12699999809E+01 0.  1.
</event>
<event>
 5   0  0.6424183E-07  0.3293029E+04  0.7818609E-02  0.8164672E-01
        2   -1    0    0  501    0  0.00000000000E+00  0.00000000000E+00  0.24424107744E+04  0.24424107744E+04  0.25500000920E-02 0.  1.
       -2   -1    0    0    0  501  0.00000000000E+00  0.00000000000E+00 -0.11099727069E+04  0.11099727069E+04  0.25500000920E-02 0. -1.
    10030    2    1    2    0    0  0.00000000000E+00  0.00000000000E+00  0.13324380675E+04  0.35523834812E+04  0.32930285748E+04 0.  0.
        2    1    3    3  502    0  0.15139415693E+04 -0.46152977679E+03  0.17662357086E+03  0.15925528864E+04  0.25500000920E-02 0. -1.
       -2    1    3    3    0  502 -0.15139415693E+04  0.46152977679E+03  0.11558144966E+04  0.19598305949E+04  0.25500000920E-02 0.  1.
</event>
<event>
 5   0  0.2087665E-07  0.3309073E+04  0.7818609E-02  0.8160591E-01
       -1   -1    0    0    0  501  0.00000000000E+00  0.00000000000E+00  0.17002105681E+04  0.17002105681E+04  0.50400001928E-02 0.  1.
        1   -1    0    0  501    0  0.00000000000E+00  0.00000000000E+00 -0.16100889562E+04  0.16100889562E+04  0.50400001928E-02 0. -1.
    10030    2    1    2    0    0  0.00000000000E+00  0.00000000000E+00  0.90121611935E+02  0.33102995243E+04  0.33090725341E+04 0.  0.
        5    1    3    3  502    0  0.53085412186E+02 -0.10147719909E+04  0.13512585244E+04  0.16907104850E+04  0.46999998093E+01 0.  1.
       -5    1    3    3    0  502 -0.53085412186E+02  0.10147719909E+04 -0.12611369124E+04  0.16195890393E+04  0.46999998093E+01 0. -1.
</event>
<event>
 5   0  0.2080770E-07  0.3304020E+04  0.7818609E-02  0.8161873E-01
        1   -1    0    0  501    0  0.00000000000E+00  0.00000000000E+00  0.26164262112E+04  0.26164262113E+04  0.50400001928E-02 0. -1.
       -1   -1    0    0    0  501  0.00000000000E+00  0.00000000000E+00 -0.10430784600E+04  0.10430784600E+04  0.50400001928E-02 0.  1.
    10030    2    1    2    0    0  0.00000000000E+00  0.00000000000E+00  0.15733477512E+04  0.36595046713E+04  0.33040204740E+04 0.  0.
        4    1    3    3  502    0 -0.74246212632E+03 -0.67892215907E+03 -0.66463053221E+03  0.12057863262E+04  0.12699999809E+01 0.  1.
       -4    1    3    3    0  502  0.74246212632E+03  0.67892215907E+03  0.22379782834E+04  0.24537183451E+04  0.12699999809E+01 0. -1.
</event>
<event>
 5   0  0.6258718E-07  0.3316454E+04  0.7818609E-02  0.8158721E-01
        2   -1    0    0  501    0  0.00000000000E+00  0.00000000000E+00  0.11709509758E+04  0.11709509758E+04  0.25500000920E-02 0. -1.
       -2   -1    0    0    0  501  0.00000000000E+00  0.00000000000E+00 -0.23482760624E+04  0.23482760624E+04  0.25500000920E-02 0.  1.
    10030    2    1    2    0    0  0.00000000000E+00  0.00000000000E+00 -0.11773250867E+04  0.35192270382E+04  0.33164536160E+04 0.  0.
        5    1    3    3  502    0 -0.71450486719E+03 -0.99750135993E+03  0.59495897514E+03  0.13636438099E+04  0.46999998093E+01 0. -1.
       -5    1    3    3    0  502  0.71450486719E+03  0.99750135993E+03 -0.17722840618E+04  0.21555832283E+04  0.46999998093E+01 0.  1.
</event>
<event>
 5   0  0.2057130E-07  0.3315028E+04  0.7818609E-02  0.8159082E-01
        1   -1    0    0  501    0  0.00000000000E+00  0.00000000000E+00  0.18134760167E+04  0.18134760167E+04  0.50400001928E-02 0.  1.
       -1   -1    0    0    0  501  0.00000000000E+00  0.00000000000E+00 -0.15149652634E+04  0.15149652634E+04  0.50400001928E-02 0. -1.
    10030    2    1    2    0    0  0.00000000000E+00  0.00000000000E+00  0.29851075334E+03  0.33284412801E+04  0.33150283083E+04 0.  0.
        2    1    3    3  502    0  0.11502519786E+04 -0.42579273918E+03  0.12686538182E+04  0.17646137201E+04  0.25500000920E-02 0.  1.
       -2    1    3    3    0  502 -0.11502519786E+04  0.42579273918E+03 -0.97014306483E+03  0.15638275599E+04  0.25500000920E-02 0. -1.
</event>
<event>
 5   0  0.2037333E-07  0.3271659E+04  0.7818609E-02  0.8170144E-01
       -1   -1    0    0    0  501  0.00000000000E+00  0.00000000000E+00  0.87784680511E+03  0.87784680512E+03  0.50400001928E-02 0. -1.
        1   -1    0    0  501    0  0.00000000000E+00  0.00000000000E+00 -0.30482980747E+04  0.30482980747E+04  0.50400001928E-02 0.  1.
    10030    2    1    2    0    0  0.00000000000E+00  0.00000000000E+00 -0.21704512696E+04  0.39261448799E+04  0.32716593502E+04 0.  0.
        3    1    3    3  502    0 -0.41458326220E+03 -0.10333682212E+03  0.80970170099E+03  0.91551877910E+03  0.10100000352E+00 0. -1.
       -3    1    3    3    0  502  0.41458326220E+03  0.10333682212E+03 -0.29801529706E+04  0.30106261008E+04  0.10100000352E+00 0.  1.
</event>
<event>
 5   0  0.2080828E-07  0.3298301E+04  0.7818609E-02  0.8163328E-01
       -1   -1    0    0    0  501  0.00000000000E+00  0.00000000000E+00  0.13414491457E+04  0.13414491457E+04  0.50400001928E-02 0.  1.
        1   -1    0    0  501    0  0.00000000000E+00  0.00000000000E+00 -0.20274320457E+04  0.20274320457E+04  0.50400001928E-02 0. -1.
    10030    2    1    2    0    0  0.00000000000E+00  0.00000000000E+00 -0.68598290004E+03  0.33688811914E+04  0.32983007659E+04 0.  0.
        1    1    3    3  502    0 -0.11516490982E+03  0.57799009169E+03 -0.19161984559E+04  0.20047822887E+04  0.50400001928E-02 0. -1.
       -1    1    3    3    0  502  0.11516490982E+03 -0.57799009169E+03  0.12302155558E+04  0.13640989027E+04  0.50400001928E-02 0.  1.
</event>
<event>
 5   0  0.6377741E-07  0.3299463E+04  0.7818609E-02  0.8163032E-01
       -2   -1    0    0    0  501  0.00000000000E+00  0.00000000000E+00  0.12646617147E+04  0.12646617147E+04  0.25500000920E-02 0. -1.
        2   -1    0    0  501    0  0.00000000000E+00  0.00000000000E+00 -0.21520485527E+04  0.21520485527E+04  0.25500000920E-02 0.  1.
    10030    2    1    2    0    0  0.00000000000E+00  0.00000000000E+00 -0.88738683800E+03  0.34167102674E+04  0.32994626307E+04 0.  0.
        1    1    3    3  502    0 -0.11733253703E+04 -0.63867034192E+03  0.55870331549E+03  0.14480129920E+04  0.50400001928E-02 0. -1.
       -1    1    3    3    0  502  0.11733253703E+04  0.63867034192E+03 -0.14460901535E+04  0.19686972754E+04  0.50400001928E-02 0.  1.
</event>
<event>
 5   0  0.6351753E-07  0.3299160E+04  0.7818609E-02  0.8163109E-01
        2   -1    0    0  501    0  0.00000000000E+00  0.00000000000E+00  0.19367583034E+04  0.19367583034E+04  0.25500000920E-02 0. -1.
       -2   -1    0    0    0  501  0.00000000000E+00  0.00000000000E+00 -0.14049841315E+04  0.14049841315E+04  0.25500000920E-02 0.  1.
    10030    2    1    2    0    0  0.00000000000E+00  0.00000000000E+00  0.53177417182E+03  0.33417424349E+04  0.32991603070E+04 0.  0.
        3    1    3    3  502    0 -0.42393895443E+03 -0.13522360444E+04 -0.58931363451E+03  0.15347824363E+04  0.10100000352E+00 0.  1.
       -3    1    3    3    0  502  0.42393895443E+03  0.13522360444E+04  0.11210878063E+04  0.18069599986E+04  0.10100000352E+00 0. -1.
</event>
<event>
 5   0  0.6258718E-07  0.3278643E+04  0.7818609E-02  0.8168351E-01
        2   -1    0    0  501    0  0.00000000000E+00  0.00000000000E+00  0.26794388212E+04  0.26794388212E+04  0.25500000920E-02 0. -1.
       -2   -1    0    0    0  501  0.00000000000E+00  0.00000000000E+00 -0.10029619966E+04  0.10029619966E+04  0.25500000920E-02 0.  1.
    10030    2    1    2    0    0  0.00000000000E+00  0.00000000000E+00  0.16764768246E+04  0.36824008178E+04  0.32786432010E+04 0.  0.
        5    1    3    3  502    0  0.14369202953E+04 -0.53232752090E+03  0.14924087888E+04  0.21390228160E+04  0.46999998093E+01 0. -1.
       -5    1    3    3    0  502 -0.14369202953E+04  0.53232752090E+03  0.18406803580E+03  0.15433780018E+04  0.46999998093E+01 0.  1.
</event>
<event>
 5   0  0.6426079E-07  0.3273019E+04  0.7818609E-02  0.8169795E-01
       -2   -1    0    0    0  501  0.00000000000E+00  0.00000000000E+00  0.19683942712E+04  0.19683942712E+04  0.25500000920E-02 0.  1.
        2   -1    0    0  501    0  0.00000000000E+00  0.00000000000E+00 -0.13605826756E+04  0.13605826756E+04  0.25500000920E-02 0. -1.
    10030    2    1    2    0    0  0.00000000000E+00  0.00000000000E+00  0.60781159562E+03  0.33289769468E+04  0.32730188781E+04 0.  0.
        4    1    3    3  502    0 -0.82432140676E+03 -0.39231152576E+03 -0.10775300856E+04  0.14122630113E+04  0.12699999809E+01 0. -1.
       -4    1    3    3    0  502  0.82432140676E+03  0.39231152576E+03  0.16853416813E+04  0.19167139354E+04  0.12699999809E+01 0.  1.
</event>
<event>
 5   0  0.6377741E-07  0.3210651E+04  0.7818609E-02  0.8186010E-01
       -2   -1    0    0    0  501  0.00000000000E+00  0.00000000000E+00  0.98548639686E+03  0.98548639686E+03  0.25500000920E-02 0.  1.
        2   -1    0    0  501    0  0.00000000000E+00  0.00000000000E+00 -0.26150241599E+04  0.26150241599E+04  0.25500000920E-02 0. -1.
    10030    2    1    2    0    0  0.00000000000E+00  0.00000000000E+00 -0.16295377631E+04  0.36005105568E+04  0.32106514835E+04 0.  0.
        1    1    3    3  502    0  0.53421207168E+03  0.93812412350E+03 -0.21471500649E+04  0.24032712726E+04  0.50400001928E-02 0. -1.
       -1    1    3    3    0  502 -0.53421207168E+03 -0.93812412350E+03  0.51761230180E+03  0.11972392842E+04  0.50400001928E-02 0.  1.
</event>
<event>
 5   0  0.2080770E-07  0.3308748E+04  0.7818609E-02  0.8160673E-01
        1   -1    0    0  501    0  0.00000000000E+00  0.00000000000E+00  0.21329410269E+04  0.21329410269E+04  0.50400001928E-02 0.  1.
       -1   -1    0    0    0  501  0.00000000000E+00  0.00000000000E+00 -0.12831831469E+04  0.12831831469E+04  0.50400001928E-02 0. -1.
    10030    2    1    2    0    0  0.00000000000E+00  0.00000000000E+00  0.84975787997E+03  0.34161241738E+04  0.33087483912E+04 0.  0.
        4    1    3    3  502    0 -0.68614463144E+03 -0.70251432980E+03  0.17994878040E+04  0.20499948313E+04  0.12699999809E+01 0.  1.
       -4    1    3    3    0  502  0.68614463144E+03  0.70251432980E+03 -0.94972992402E+03  0.13661293425E+04  0.12699999809E+01 0. -1.
</event>
<event>
 5   0  0.2037333E-07  0.3300111E+04  0.7818609E-02  0.8162867E-01
        1   -1    0    0  501    0  0.00000000000E+00  0.00000000000E+00  0.19188117301E+04  0.19188117301E+04  0.50400001928E-02 0. -1.
       -1   -1    0    0    0  501  0.00000000000E+00  0.00000000000E+00 -0.14189422252E+04  0.14189422252E+04  0.50400001928E-02 0.  1.
    10030    2    1    2    0    0  0.00000000000E+00  0.00000000000E+00  0.49986950488E+03  0.33377539553E+04  0.33001108988E+04 0.  0.
        3    1    3    3  502    0 -0.12390377397E+04  0.66616126144E+03  0.11221506203E+04  0.17995019787E+04  0.10100000352E+00 0.  1.
       -3    1    3    3    0  502  0.12390377397E+04 -0.66616126144E+03 -0.62228111546E+03  0.15382519766E+04  0.10100000352E+00 0. -1.
</event>
<event>
 5   0  0.6258718E-07  0.3292469E+04  0.7818609E-02  0.8164814E-01
        2   -1    0    0  501    0  0.00000000000E+00  0.00000000000E+00  0.23030287352E+04  0.23030287352E+04  0.25500000920E-02 0. -1.
       -2   -1    0    0    0  501  0.00000000000E+00  0.00000000000E+00 -0.11767492025E+04  0.11767492025E+04  0.25500000920E-02 0.  1.
    10030    2    1    2    0    0  0.00000000000E+00  0.00000000000E+00  0.11262795327E+04  0.34797779377E+04  0.32924685131E+04 0.  0.
        5    1    3    3  502    0 -0.95142893675E+03 -0.53120325364E+03 -0.74102652066E+03  0.13177770345E+04  0.46999998093E+01 0.  1.
       -5    1    3    3    0  502  0.95142893675E+03  0.53120325364E+03  0.18673060534E+04  0.21620009032E+04  0.46999998093E+01 0. -1.
</event>
<event>
 5   0  0.6351753E-07  0.3232349E+04  0.7818609E-02  0.8180326E-01
       -2   -1    0    0    0  501  0.00000000000E+00  0.00000000000E+00  0.22501150194E+04  0.22501150194E+04  0.25500000920E-02 0. -1.
        2   -1    0    0  501    0  0.00000000000E+00  0.00000000000E+00 -0.11608386904E+04  0.11608386904E+04  0.25500000920E-02 0.  1.
    10030    2    1    2    0    0  0.00000000000E+00  0.00000000000E+00  0.10892763290E+04  0.34109537098E+04  0.32323493452E+04 0.  0.
        3    1    3    3  502    0  0.58752262227E+03 -0.12840593961E+04  0.13742253404E+04  0.19704026646E+04  0.10100000352E+00 0. -1.
       -3    1    3    3    0  502 -0.58752262227E+03  0.12840593961E+04 -0.28494901138E+03  0.14405510451E+04  0.10100000352E+00 0.  1.
</event>
<event>
 5   0  0.2080770E-07  0.3330142E+04  0.7818609E-02  0.8155268E-01
        1   -1    0    0  501    0  0.00000000000E+00  0.00000000000E+00  0.17160974886E+04  0.17160974886E+04  0.50400001928E-02 0. -1.
       -1   -1    0    0    0  501  0.00000000000E+00  0.00000000000E+00 -0.16155616796E+04  0.16155616796E+04  0.50400001928E-02 0.  1.
    10030    2    1    2    0    0  0.00000000000E+00  0.00000000000E+00  0.10053580898E+03  0.33316591682E+04  0.33301419435E+04 0.  0.
        4    1    3    3  502    0  0.56441966416E+03  0.32060604834E+03  0.15842968356E+04  0.17121202855E+04  0.12699999809E+01 0. -1.
       -4    1    3    3    0  502 -0.56441966416E+03 -0.32060604834E+03 -0.14837610267E+04  0.16195388827E+04  0.12699999809E+01 0.  1.
</event>
<event>
 5   0  0.2080828E-07  0.3351265E+04  0.7818609E-02  0.8149972E-01
       -1   -1    0    0    0  501  0.00000000000E+00  0.00000000000E+00  0.15906299592E+04  0.15906299593E+04  0.50400001928E-02 0. -1.
        1   -1    0    0  501    0  0.00000000000E+00  0.00000000000E+00 -0.17651776779E+04  0.17651776780E+04  0.50400001928E-02 0.  1.
    10030    2    1    2    0    0  0.00000000000E+00  0.00000000000E+00 -0.17454771870E+03  0.33558076372E+04  0.33512651330E+04 0.  0.
        1    1    3    3  502    0  0.74389914207E+03  0.32142092279E+03  0.13813589816E+04  0.16015149013E+04  0.50400001928E-02 0. -1.
       -1    1    3    3    0  502 -0.74389914207E+03 -0.32142092279E+03 -0.15559067003E+04  0.17542927359E+04  0.50400001928E-02 0.  1.
</event>
<event>
 5   0  0.6258718E-07  0.3331041E+04  0.7818609E-02  0.8155042E-01
        2   -1    0    0  501    0  0.00000000000E+00  0.00000000000E+00  0.12933860177E+04  0.12933860177E+04  0.25500000920E-02 0. -1.
       -2   -1    0    0    0  501  0.00000000000E+00  0.00000000000E+00 -0.21447257714E+04  0.21447257714E+04  0.25500000920E-02 0.  1.
    10030    2    1    2    0    0  0.00000000000E+00  0.00000000000E+00 -0.85133975368E+03  0.34381117891E+04  0.33310408731E+04 0.  0.
        5    1    3    3  502    0  0.15208869041E+04  0.27911439023E+03 -0.10643776951E+04  0.18772117051E+04  0.46999998093E+01 0.  1.
       -5    1    3    3    0  502 -0.15208869041E+04 -0.27911439023E+03  0.21303794142E+03  0.15609000840E+04  0.46999998093E+01 0. -1.
</event>
<event>
 5   0  0.2080828E-07  0.3141980E+04  0.7818609E-02  0.8204310E-01
        1   -1    0    0  501    0  0.00000000000E+00  0.00000000000E+00  0.17732732303E+04  0.17732732303E+04  0.50400001928E-02 0. -1.
       -1   -1    0    0    0  501  0.00000000000E+00  0.00000000000E+00 -0.13917815740E+04  0.13917815740E+04  0.50400001928E-02 0.  1.
    10030    2    1    2    0    0  0.00000000000E+00  0.00000000000E+00  0.38149165629E+03  0.31650548044E+04  0.31419796357E+04 0.  0.
        1    1    3    3  502    0 -0.51718784395E+03 -0.93993229933E+03 -0.96531183506E+03  0.14431849958E+04  0.50400001928E-02 0.  1.
       -1    1    3    3    0  502  0.51718784395E+03  0.93993229933E+03  0.13468034913E+04  0.17218698085E+04  0.50400001928E-02 0. -1.
</event>
<event>
 5   0  0.2080828E-07  0.3311021E+04  0.7818609E-02  0.8160097E-01
       -1   -1    0    0    0  501  0.00000000000E+00  0.00000000000E+00  0.16135372717E+04  0.16135372717E+04  0.50400001928E-02 0.  1.
        1   -1    0    0  501    0  0.00000000000E+00  0.00000000000E+00 -0.16985760168E+04  0.16985760168E+04  0.50400001928E-02 0. -1.
    10030    2    1    2    0    0  0.00000000000E+00  0.00000000000E+00 -0.85038745017E+02  0.33121132885E+04  0.33110214206E+04 0.  0.
        1    1    3    3  502    0 -0.11666390959E+04 -0.47425096834E+03 -0.11174689891E+04  0.16836560524E+04  0.50400001928E-02 0. -1.
       -1    1    3    3    0  502  0.11666390959E+04  0.47425096834E+03  0.10324302440E+04  0.16284572361E+04  0.50400001928E-02 0.  1.
</event>
<event>
 5   0  0.6426079E-07  0.3301858E+04  0.7818609E-02  0.8162423E-01
       -2   -1    0    0    0  501  0.00000000000E+00  0.00000000000E+00  0.15532996314E+04  0.15532996314E+04  0.25500000920E-02 0.  1.
        2   -1    0    0  501    0  0.00000000000E+00  0.00000000000E+00 -0.17546941263E+04  0.17546941263E+04  0.25500000920E-02 0. -1.
    10030    2    1    2    0    0  0.00000000000E+00  0.00000000000E+00 -0.20139449491E+03  0.33079937578E+04  0.33018575013E+04 0.  0.
        4    1    3    3  502    0 -0.10337711315E+04  0.12360567172E+04  0.25919892354E+03  0.16320859828E+04  0.12699999809E+01 0.  1.
       -4    1    3    3    0  502  0.10337711315E+04 -0.12360567172E+04 -0.46059341845E+03  0.16759077750E+04  0.12699999809E+01 0. -1.
</event>
<event>
 5   0  0.2037333E-07  0.3297206E+04  0.7818609E-02  0.8163607E-01
        1   -1    0    0  501    0  0.00000000000E+00  0.00000000000E+00  0.20051356842E+04  0.20051356842E+04  0.50400001928E-02 0.  1.
       -1   -1    0    0    0  501  0.00000000000E+00  0.00000000000E+00 -0.13554650488E+04  0.13554650488E+04  0.50400001928E-02 0. -1.
    10030    2    1    2    0    0  0.00000000000E+00  0.00000000000E+00  0.64967063539E+03  0.33606007330E+04  0.32972056885E+04 0.  0.
        3    1    3    3  502    0 -0.53430947175E+03  0.10990050269E+04 -0.80305457436E+03  0.14622569269E+04  0.10100000352E+00 0. -1.
       -3    1    3    3    0  502  0.53430947175E+03 -0.10990050269E+04  0.14527252097E+04  0.18983438061E+04  0.10100000352E+00 0.  1.
</event>
<event>
 5   0  0.2037333E-07  0.3298547E+04  0.7818609E-02  0.8163265E-01
       -1   -1    0    0    0  501  0.00000000000E+00  0.00000000000E+00  0.27431495714E+04  0.27431495714E+04  0.50400001928E-02 0.  1.
        1   -1    0    0  501    0  0.00000000000E+00  0.00000000000E+00 -0.99159853993E+03  0.99159853995E+03  0.50400001928E-02 0. -1.
    10030    2    1    2    0    0  0.00000000000E+00  0.00000000000E+00  0.17515510314E+04  0.37347481113E+04  0.32985470194E+04 0.  0.
        3    1    3    3  502    0 -0.10332482443E+04 -0.58243912673E+03  0.21732981999E+04  0.24758962714E+04  0.10100000352E+00 0.  1.
       -3    1    3    3    0  502  0.10332482443E+04  0.58243912673E+03 -0.42174716846E+03  0.12588518400E+04  0.10100000352E+00 0. -1.
</event>
<event>
 5   0  0.2080828E-07  0.3292657E+04  0.7818609E-02  0.8164766E-01
       -1   -1    0    0    0  501  0.00000000000E+00  0.00000000000E+00  0.14822789451E+04  0.14822789451E+04  0.50400001928E-02 0.  1.
        1   -1    0    0  501    0  0.00000000000E+00  0.00000000000E+00 -0.18285341332E+04  0.18285341332E+04  0.50400001928E-02 0. -1.
    10030    2    1    2    0    0  0.00000000000E+00  0.00000000000E+00 -0.34625518815E+03  0.33108130783E+04  0.32926570706E+04 0.  0.
        1    1    3    3  502    0 -0.12987825821E+04  0.92463240489E+03 -0.58602107281E+03  0.16985882307E+04  0.50400001928E-02 0. -1.
       -1    1    3    3    0  502  0.12987825821E+04 -0.92463240489E+03  0.23976588466E+03  0.16122248476E+04  0.50400001928E-02 0.  1.
</event>
<event>
 5   0  0.2087665E-07  0.3387459E+04  0.7818609E-02  0.8140991E-01
       -1   -1    0    0    0  501  0.00000000000E+00  0.00000000000E+00  0.13378689084E+04  0.13378689084E+04  0.50400001928E-02 0.  1.
        1   -1    0    0  501    0  0.00000000000E+00  0.00000000000E+00 -0.21442456568E+04  0.21442456568E+04  0.50400001928E-02 0. -1.
    10030    2    1    2    0    0  0.00000000000E+00  0.00000000000E+00 -0.80637674836E+03  0.34821145653E+04  0.33874589865E+04 0.  0.
        5    1    3    3  502    0 -0.10083475354E+04  0.10465122656E+04  0.49103031409E+03  0.15339770316E+04  0.46999998093E+01 0. -1.
       -5    1    3    3    0  502  0.10083475354E+04 -0.10465122656E+04 -0.12974070625E+04  0.19481375336E+04  0.46999998093E+01 0.  1.
</event>
<event>
 5   0  0.2087665E-07  0.3296077E+04  0.7818609E-02  0.8163894E-01
        1   -1    0    0  501    0  0.00000000000E+00  0.00000000000E+00  0.20507664870E+04  0.20507664871E+04  0.50400001928E-02 0. -1.
       -1   -1    0    0    0  501  0.00000000000E+00  0.00000000000E+00 -0.13243981140E+04  0.13243981141E+04  0.50400001928E-02 0.  1.
    10030    2    1    2    0    0  0.00000000000E+00  0.00000000000E+00  0.72636837300E+03  0.33751646011E+04  0.32960772247E+04 0.  0.
        5    1    3    3  502    0  0.50149160719E+03  0.71765761254E+03  0.17929249312E+04  0.19952764670E+04  0.46999998093E+01 0. -1.
       -5    1    3    3    0  502 -0.50149160719E+03 -0.71765761254E+03 -0.10665565582E+04  0.13798881341E+04  0.46999998093E+01 0.  1.
</event>
<event>
 5   0  0.2057130E-07  0.3259532E+04  0.7818609E-02  0.8173269E-01
       -1   -1    0    0    0  501  0.00000000000E+00  0.00000000000E+00  0.16336252600E+04  0.16336252600E+04  0.50400001928E-02 0.  1.
        1   -1    0    0  501    0  0.00000000000E+00  0.00000000000E+00 -0.16259159353E+04  0.16259159353E+04  0.50400001928E-02 0. -1.
    10030    2    1    2    0    0  0.00000000000E+00  0.00000000000E+00  0.77093246750E+01  0.32595411953E+04  0.32595320784E+04 0.  0.
        2    1    3    3  502    0  0.48672385421E+03 -0.13544203868E+04 -0.76085830295E+03  0.16279619319E+04  0.25500000920E-02 0.  1.
       -2    1    3    3    0  502 -0.48672385421E+03  0.13544203868E+04  0.76856762762E+03  0.16315792634E+04  0.25500000920E-02 0. -1.
</event>
<event>
 5   0  0.2057130E-07  0.3302313E+04  0.7818609E-02  0.8162307E-01
        1   -1    0    0  501    0  0.00000000000E+00  0.00000000000E+00  0.18237034262E+04  0.18237034262E+04  0.50400001928E-02 0.  1.
       -1   -1    0    0    0  501  0.00000000000E+00  0.00000000000E+00 -0.14949345140E+04  0.14949345140E+04  0.50400001928E-02 0. -1.
    10030    2    1    2    0    0  0.00000000000E+00  0.00000000000E+00  0.32876891219E+03  0.33186379402E+04  0.33023126413E+04 0.  0.
        2    1    3    3  502    0 -0.10803261432E+04  0.61760533901E+03  0.12550035226E+04  0.17673637917E+04  0.25500000920E-02 0.  1.
       -2    1    3    3    0  502  0.10803261432E+04 -0.61760533901E+03 -0.92623461042E+03  0.15512741485E+04  0.25500000920E-02 0. -1.
</event>
<event>
 5   0  0.2057130E-07  0.3318579E+04  0.7818609E-02  0.8158184E-01
       -1   -1    0    0    0  501  0.00000000000E+00  0.00000000000E+00  0.12369272941E+04  0.12369272941E+04  0.50400001928E-02 0.  1.
        1   -1    0    0  501    0  0.00000000000E+00  0.00000000000E+00 -0.22258724310E+04  0.22258724310E+04  0.50400001928E-02 0. -1.
    10030    2    1    2    0    0  0.00000000000E+00  0.00000000000E+00 -0.98894513685E+03  0.34627997251E+04  0.33185794329E+04 0.  0.
        2    1    3    3  502    0  0.56290510733E+03  0.13572633606E+04  0.30988187305E+03  0.15016833105E+04  0.25500000920E-02 0.  1.
       -2    1    3    3    0  502 -0.56290510733E+03 -0.13572633606E+04 -0.12988270099E+04  0.19611164146E+04  0.25500000920E-02 0. -1.
</event>
<event>
 5   0  0.6258718E-07  0.3299815E+04  0.7818609E-02  0.8162943E-01
        2   -1    0    0  501    0  0.00000000000E+00  0.00000000000E+00  0.16480505868E+04  0.16480505868E+04  0.25500000920E-02 0. -1.
       -2   -1    0    0    0  501  0.00000000000E+00  0.00000000000E+00 -0.16517663222E+04  0.16517663222E+04  0.25500000920E-02 0.  1.
    10030    2    1    2    0    0  0.00000000000E+00  0.00000000000E+00 -0.37157353946E+01  0.32998169090E+04  0.32998148170E+04 0.  0.
        5    1    3    3  502    0 -0.71365174572E+03  0.14716303983E+04 -0.21906187990E+03  0.16501530356E+04  0.46999998093E+01 0. -1.
       -5    1    3    3    0  502  0.71365174572E+03 -0.14716303983E+04  0.21534614450E+03  0.16496638735E+04  0.46999998093E+01 0.  1.
</event>
<event>
 5   0  0.2037333E-07  0.3355709E+04  0.7818609E-02  0.8148863E-01
        1   -1    0    0  501    0  0.00000000000E+00  0.00000000000E+00  0.23660158383E+04  0.23660158383E+04  0.50400001928E-02 0. -1.
       -1   -1    0    0    0  501  0.00000000000E+00  0.00000000000E+00 -0.11898467141E+04  0.11898467141E+04  0.50400001928E-02 0.  1.
    10030    2    1    2    0    0  0.00000000000E+00  0.00000000000E+00  0.11761691242E+04  0.35558625524E+04  0.33557092667E+04 0.  0.
        3    1    3    3  502    0  0.14972756987E+04  0.40550174208E+03  0.12657028427E+04  0.20020664017E+04  0.10100000352E+00 0. -1.
       -3    1    3    3    0  502 -0.14972756987E+04 -0.40550174208E+03 -0.89533718444E+02  0.15537961506E+04  0.10100000352E+00 0.  1.
</event>
<event>
 5   0  0.6258718E-07  0.3299512E+04  0.7818609E-02  0.8163020E-01
       -2   -1    0    0    0  501  0.00000000000E+00  0.00000000000E+00  0.22612727424E+04  0.22612727424E+04  0.25500000920E-02 0. -1.
        2   -1    0    0  501    0  0.00000000000E+00  0.00000000000E+00 -0.12036119537E+04  0.12036119537E+04  0.25500000920E-02 0.  1.
    10030    2    1    2    0    0  0.00000000000E+00  0.00000000000E+00  0.10576607888E+04  0.34648846961E+04  0.32995120265E+04 0.  0.
        5    1    3    3  502    0  0.10883256589E+04 -0.35625770668E+03 -0.71825129930E+03  0.13517689567E+04  0.46999998093E+01 0.  1.
       -5    1    3    3    0  502 -0.10883256589E+04  0.35625770668E+03  0.17759120881E+04  0.21131157394E+04  0.46999998093E+01 0. -1.
</event>
<event>
 5   0  0.2080770E-07  0.3308383E+04  0.7818609E-02  0.8160766E-01
       -1   -1    0    0    0  501  0.00000000000E+00  0.00000000000E+00  0.11124592503E+04  0.11124592504E+04  0.50400001928E-02 0. -1.
        1   -1    0    0  501    0  0.00000000000E+00  0.00000000000E+00 -0.24597294785E+04  0.24597294785E+04  0.50400001928E-02 0.  1.
    10030    2    1    2    0    0  0.00000000000E+00  0.00000000000E+00 -0.13472702281E+04  0.35721887288E+04  0.33083825726E+04 0.  0.
        4    1    3    3  502    0 -0.13177658989E+04 -0.17522317091E+03 -0.17365812938E+04  0.21869902439E+04  0.12699999809E+01 0.  1.
       -4    1    3    3    0  502  0.13177658989E+04  0.17522317091E+03  0.38931106567E+03  0.13851984850E+04  0.12699999809E+01 0. -1.
</event>
<event>
 5   0  0.6426079E-07  0.3297338E+04  0.7818609E-02  0.8163573E-01
        2   -1    0    0  501    0  0.00000000000E+00  0.00000000000E+00  0.15708444342E+04  0.15708444342E+04  0.25500000920E-02 0.  1.
       -2   -1    0    0    0  501  0.00000000000E+00  0.00000000000E+00 -0.17303488312E+04  0.17303488312E+04  0.25500000920E-02 0. -1.
    10030    2    1    2    0    0  0.00000000000E+00  0.00000000000E+00 -0.15950439697E+03  0.33011932654E+04  0.32973376113E+04 0.  0.
        4    1    3    3  502    0 -0.37621931497E+01 -0.62923806690E+03 -0.16053951412E+04  0.17243114195E+04  0.12699999809E+01 0. -1.
       -4    1    3    3    0  502  0.37621931497E+01  0.62923806690E+03  0.14458907442E+04  0.15768818460E+04  0.12699999809E+01 0.  1.
</event>
<event>
 5   0  0.6377741E-07  0.3341047E+04  0.7818609E-02  0.8152529E-01
       -2   -1    0    0    0  501  0.00000000000E+00  0.00000000000E+00  0.10639229196E+04  0.10639229196E+04  0.25500000920E-02 0.  1.
        2   -1    0    0  501    0  0.00000000000E+00  0.00000000000E+00 -0.26229807219E+04  0.26229807219E+04  0.25500000920E-02 0. -1.
    10030    2    1    2    0    0  0.00000000000E+00  0.00000000000E+00 -0.15590578023E+04  0.36869036415E+04  0.33410473254E+04 0.  0.
        1    1    3    3  502    0 -0.73648093937E+03  0.13444913536E+04 -0.15120085419E+04  0.21531908891E+04  0.50400001928E-02 0.  1.
       -1    1    3    3    0  502  0.73648093937E+03 -0.13444913536E+04 -0.47049260443E+02  0.15337127524E+04  0.50400001928E-02 0. -1.
</event>
<event>
 5   0  0.2037333E-07  0.3297933E+04  0.7818609E-02  0.8163422E-01
       -1   -1    0    0    0  501  0.00000000000E+00  0.00000000000E+00  0.15330299925E+04  0.15330299925E+04  0.50400001928E-02 0. -1.
        1   -1    0    0  501    0  0.00000000000E+00  0.00000000000E+00 -0.17736702653E+04  0.17736702653E+04  0.50400001928E-02 0.  1.
    10030    2    1    2    0    0  0.00000000000E+00  0.00000000000E+00 -0.24064027276E+03  0.33067002578E+04  0.32979325120E+04 0.  0.
        3    1    3    3  502    0 -0.10704118004E+04  0.25282138894E+03  0.11115182844E+04  0.15637048903E+04  0.10100000352E+00 0. -1.
       -3    1    3    3    0  502  0.10704118004E+04 -0.25282138894E+03 -0.13521585572E+04  0.17429953675E+04  0.10100000352E+00 0.  1.
</event>
<event>
 5   0  0.6351753E-07  0.3292919E+04  0.7818609E-02  0.8164699E-01
        2   -1    0    0  501    0  0.00000000000E+00  0.00000000000E+00  0.14499676041E+04  0.14499676041E+04  0.25500000920E-02 0. -1.
       -2   -1    0    0    0  501  0.00000000000E+00  0.00000000000E+00 -0.18695794719E+04  0.18695794719E+04  0.25500000920E-02 0.  1.
    10030    2    1    2    0    0  0.00000000000E+00  0.00000000000E+00 -0.41961186775E+03  0.33195470760E+04  0.32929194752E+04 0.  0.
        3    1    3    3  502    0 -0.15524330668E+04  0.26877936107E+03  0.27211719958E+03  0.15988553882E+04  0.10100000352E+00 0. -1.
       -3    1    3    3    0  502  0.15524330668E+04 -0.26877936107E+03 -0.69172906733E+03  0.17206916878E+04  0.10100000352E+00 0.  1.
</event>
<event>
 5   0  0.2080828E-07  0.3298483E+04  0.7818609E-02  0.8163281E-01
        1   -1    0    0  501    0  0.00000000000E+00  0.00000000000E+00  0.18804999745E+04  0.18804999745E+04  0.50400001928E-02 0.  1.
       -1   -1    0    0    0  501  0.00000000000E+00  0.00000000000E+00 -0.14464227576E+04  0.14464227576E+04  0.50400001928E-02 0. -1.
    10030    2    1    2    0    0  0.00000000000E+00  0.00000000000E+00  0.43407721692E+03  0.33269227321E+04  0.32984832629E+04 0.  0.
        1    1    3    3  502    0 -0.14656714038E+03 -0.52480541759E+03  0.17870893122E+04  0.18683123033E+04  0.50400001928E-02 0.  1.
       -1    1    3    3    0  502  0.14656714038E+03  0.52480541759E+03 -0.13530120953E+04  0.14586104288E+04  0.50400001928E-02 0. -1.
</event>
<event>
 5   0  0.6424183E-07  0.3296231E+04  0.7818609E-02  0.8163855E-01
       -2   -1    0    0    0  501  0.00000000000E+00  0.00000000000E+00  0.11617229201E+04  0.11617229201E+04  0.25500000920E-02 0. -1.
        2   -1    0    0  501    0  0.00000000000E+00  0.00000000000E+00 -0.23381519160E+04  0.23381519160E+04  0.25500000920E-02 0.  1.
    10030    2    1    2    0    0  0.00000000000E+00  0.00000000000E+00 -0.11764289959E+04  0.34998748361E+04  0.32962309819E+04 0.  0.
        2    1    3    3  502    0  0.74362148489E+02 -0.11446126265E+04  0.66837826391E+03  0.13275531242E+04  0.25500000920E-02 0. -1.
       -2    1    3    3    0  502 -0.74362148489E+02  0.11446126265E+04 -0.18448072599E+04  0.21723217119E+04  0.25500000920E-02 0.  1.
</event>
<event>
 5   0  0.2080770E-07  0.3270662E+04  0.7818609E-02  0.8170401E-01
        1   -1    0    0  501    0  0.00000000000E+00  0.00000000000E+00  0.17072388145E+04  0.17072388145E+04  0.50400001928E-02 0. -1.
       -1   -1    0    0    0  501  0.00000000000E+00  0.00000000000E+00 -0.15664523355E+04  0.15664523355E+04  0.50400001928E-02 0.  1.
    10030    2    1    2    0    0  0.00000000000E+00  0.00000000000E+00  0.14078647898E+03  0.32736911499E+04  0.32706624577E+04 0.  0.
        4    1    3    3  502    0 -0.11904185962E+04 -0.28925068037E+03 -0.10139123804E+04  0.15902145510E+04  0.12699999809E+01 0.  1.
       -4    1    3    3    0  502  0.11904185962E+04  0.28925068037E+03  0.11546988594E+04  0.16834765989E+04  0.12699999809E+01 0. -1.
</event>
<event>
 5   0  0.2080828E-07  0.3280998E+04  0.7818609E-02  0.8167747E-01
        1   -1    0    0  501    0  0.00000000000E+00  0.00000000000E+00  0.17837655198E+04  0.17837655198E+04  0.50400001928E-02 0. -1.
       -1   -1    0    0    0  501  0.00000000000E+00  0.00000000000E+00 -0.15087389969E+04  0.15087389969E+04  0.50400001928E-02 0.  1.
    10030    2    1    2    0    0  0.00000000000E+00  0.00000000000E+00  0.27502652293E+03  0.32925045167E+04  0.32809977757E+04 0.  0.
        1    1    3    3  502    0 -0.37719729035E+03 -0.48428949513E+03 -0.13891447597E+04  0.15187288350E+04  0.50400001928E-02 0.  1.
       -1    1    3    3    0  502  0.37719729035E+03  0.48428949513E+03  0.16641712826E+04  0.17737756817E+04  0.50400001928E-02 0. -1.
</event>
<event>
 5   0  0.2057130E-07  0.3295838E+04  0.7818609E-02  0.8163955E-01
        1   -1    0    0  501    0  0.00000000000E+00  0.00000000000E+00  0.13392706419E+04  0.13392706419E+04  0.50400001928E-02 0.  1.
       -1   -1    0    0    0  501  0.00000000000E+00  0.00000000000E+00 -0.20276988695E+04  0.20276988695E+04  0.50400001928E-02 0. -1.
    10030    2    1    2    0    0  0.00000000000E+00  0.00000000000E+00 -0.68842822761E+03  0.33669695114E+04  0.32958383252E+04 0.  0.
        2    1    3    3  502    0 -0.14052920961E+04 -0.78408250495E+03 -0.70684888362E+03  0.17576309608E+04  0.25500000920E-02 0.  1.
       -2    1    3    3    0  502  0.14052920961E+04  0.78408250495E+03  0.18420656014E+02  0.16093385506E+04  0.25500000920E-02 0. -1.
</event>
<event>
 5   0  0.6424183E-07  0.3280347E+04  0.7818609E-02  0.8167914E-01
        2   -1    0    0  501    0  0.00000000000E+00  0.00000000000E+00  0.12811273865E+04  0.12811273865E+04  0.25500000920E-02 0.  1.
       -2   -1    0    0    0  501  0.00000000000E+00  0.00000000000E+00 -0.20998450867E+04  0.20998450867E+04  0.25500000920E-02 0. -1.
    10030    2    1    2    0    0  0.00000000000E+00  0.00000000000E+00 -0.81871770018E+03  0.33809724732E+04  0.32803469621E+04 0.  0.
        2    1    3    3  502    0 -0.36913852964E+03  0.16362697290E+03  0.12291010529E+04  0.12937257973E+04  0.25500000920E-02 0.  1.
       -2    1    3    3    0  502  0.36913852964E+03 -0.16362697290E+03 -0.20478187531E+04  0.20872466759E+04  0.25500000920E-02 0. -1.
</event>
<event>
 5   0  0.6377741E-07  0.3283435E+04  0.7818609E-02  0.8167123E-01
        2   -1    0    0  501    0  0.00000000000E+00  0.00000000000E+00  0.14212530353E+04  0.14212530353E+04  0.25500000920E-02 0. -1.
       -2   -1    0    0    0  501  0.00000000000E+00  0.00000000000E+00 -0.18963803453E+04  0.18963803453E+04  0.25500000920E-02 0.  1.
    10030    2    1    2    0    0  0.00000000000E+00  0.00000000000E+00 -0.47512730997E+03  0.33176333806E+04  0.32834349830E+04 0.  0.
        1    1    3    3  502    0 -0.43129305366E+03  0.64557186397E+03 -0.16991635766E+04  0.18681363948E+04  0.50400001928E-02 0.  1.
       -1    1    3    3    0  502  0.43129305366E+03 -0.64557186397E+03  0.12240362666E+04  0.14494969858E+04  0.50400001928E-02 0. -1.
</event>
<event>
 5   0  0.2057130E-07  0.3305046E+04  0.7818609E-02  0.8161613E-01
        1   -1    0    0  501    0  0.00000000000E+00  0.00000000000E+00  0.26904633168E+04  0.26904633168E+04  0.50400001928E-02 0. -1.
       -1   -1    0    0    0  501  0.00000000000E+00  0.00000000000E+00 -0.10150044751E+04  0.10150044751E+04  0.50400001928E-02 0.  1.
    10030    2    1    2    0    0  0.00000000000E+00  0.00000000000E+00  0.16754588418E+04  0.37054677919E+04  0.33050460248E+04 0.  0.
        2    1    3    3  502    0  0.30254993821E+03 -0.15213142138E+04  0.19867233524E+03  0.15637787883E+04  0.25500000920E-02 0. -1.
       -2    1    3    3    0  502 -0.30254993821E+03  0.15213142138E+04  0.14767865065E+04  0.21416890036E+04  0.25500000920E-02 0.  1.
</event>
<event>
 5   0  0.6377741E-07  0.3298434E+04  0.7818609E-02  0.8163294E-01
       -2   -1    0    0    0  501  0.00000000000E+00  0.00000000000E+00  0.12769552345E+04  0.12769552345E+04  0.25500000920E-02 0.  1.
        2   -1    0    0  501    0  0.00000000000E+00  0.00000000000E+00 -0.21300011539E+04  0.21300011539E+04  0.25500000920E-02 0. -1.
    10030    2    1    2    0    0  0.00000000000E+00  0.00000000000E+00 -0.85304591938E+03  0.34069563884E+04  0.32984336422E+04 0.  0.
        1    1    3    3  502    0 -0.74269195772E+03  0.69033582436E+03  0.91694822751E+03  0.13670950759E+04  0.50400001928E-02 0.  1.
       -1    1    3    3    0  502  0.74269195772E+03 -0.69033582436E+03 -0.17699941469E+04  0.20398613126E+04  0.50400001928E-02 0. -1.
</event>
<event>
 5   0  0.2080828E-07  0.3303256E+04  0.7818609E-02  0.8162067E-01
       -1   -1    0    0    0  501  0.00000000000E+00  0.00000000000E+00  0.11122985972E+04  0.11122985972E+04  0.50400001928E-02 0. -1.
        1   -1    0    0  501    0  0.00000000000E+00  0.00000000000E+00 -0.24524667219E+04  0.24524667219E+04  0.50400001928E-02 0.  1.
    10030    2    1    2    0    0  0.00000000000E+00  0.00000000000E+00 -0.13401681246E+04  0.35647653191E+04  0.33032561478E+04 0.  0.
        1    1    3    3  502    0 -0.10248936799E+04 -0.55749935720E+02  0.72632653525E+03  0.12574042096E+04  0.50400001928E-02 0. -1.
       -1    1    3    3    0  502  0.10248936799E+04  0.55749935720E+02 -0.20664946599E+04  0.23073611095E+04  0.50400001928E-02 0.  1.
</event>
<event>
 5   0  0.6258718E-07  0.3245538E+04  0.7818609E-02  0.8176893E-01
       -2   -1    0    0    0  501  0.00000000000E+00  0.00000000000E+00  0.97414880157E+03  0.97414880157E+03  0.25500000920E-02 0.  1.
        2   -1    0    0  501    0  0.00000000000E+00  0.00000000000E+00 -0.27032610361E+04  0.27032610361E+04  0.25500000920E-02 0. -1.
    10030    2    1    2    0    0  0.00000000000E+00  0.00000000000E+00 -0.17291122345E+04  0.36774098377E+04  0.32455375509E+04 0.  0.
        5    1    3    3  502    0  0.45864072906E+03 -0.95316284614E+03 -0.22589580650E+04  0.24943504885E+04  0.46999998093E+01 0. -1.
       -5    1    3    3    0  502 -0.45864072906E+03  0.95316284614E+03  0.52984583053E+03  0.11830593492E+04  0.46999998093E+01 0.  1.
</event>
<event>
 5   0  0.6426079E-07  0.3299683E+04  0.7818609E-02  0.8162976E-01
       -2   -1    0    0    0  501  0.00000000000E+00  0.00000000000E+00  0.12582817334E+04  0.12582817334E+04  0.25500000920E-02 0.  1.
        2   -1    0    0  501    0  0.00000000000E+00  0.00000000000E+00 -0.21632487809E+04  0.21632487809E+04  0.25500000920E-02 0. -1.
    10030    2    1    2    0    0  0.00000000000E+00  0.00000000000E+00 -0.90496704751E+03  0.34215305143E+04  0.32996826671E+04 0.  0.
        4    1    3    3  502    0  0.59625705262E+03 -0.11157609514E+04 -0.15506132766E+04  0.20012116630E+04  0.12699999809E+01 0. -1.
       -4    1    3    3    0  502 -0.59625705262E+03  0.11157609514E+04  0.64564622911E+03  0.14203188514E+04  0.12699999809E+01 0.  1.
</event>
<event>
 5   0  0.6426079E-07  0.3285214E+04  0.7818609E-02  0.8166668E-01
        2   -1    0    0  501    0  0.00000000000E+00  0.00000000000E+00  0.24092354737E+04  0.24092354737E+04  0.25500000920E-02 0. -1.
       -2   -1    0    0    0  501  0.00000000000E+00  0.00000000000E+00 -0.11199228720E+04  0.11199228720E+04  0.25500000920E-02 0.  1.
    10030    2    1    2    0    0  0.00000000000E+00  0.00000000000E+00  0.12893126017E+04  0.35291583457E+04  0.32852140941E+04 0.  0.
        4    1    3    3  502    0  0.93578905792E+03 -0.23641617239E+03 -0.78315881250E+03  0.12429533805E+04  0.12699999809E+01 0.  1.
       -4    1    3    3    0  502 -0.93578905792E+03  0.23641617239E+03  0.20724714142E+04  0.22862049652E+04  0.12699999809E+01 0. -1.
</event>
<event>
 5   0  0.2057130E-07  0.3302619E+04  0.7818609E-02  0.8162229E-01
        1   -1    0    0  501    0  0.00000000000E+00  0.00000000000E+00  0.21087541353E+04  0.21087541353E+04  0.50400001928E-02 0.  1.
       -1   -1    0    0    0  501  0.00000000000E+00  0.00000000000E+00 -0.12930967377E+04  0.12930967377E+04  0.50400001928E-02 0. -1.
    10030    2    1    2    0    0  0.00000000000E+00  0.00000000000E+00  0.81565739758E+03  0.34018508730E+04  0.33026190170E+04 0.  0.
        2    1    3    3  502    0 -0.36418804913E+03  0.78274461829E+02  0.20649116096E+04  0.20982420694E+04  0.25500000920E-02 0.  1.
       -2    1    3    3    0  502  0.36418804913E+03 -0.78274461829E+02 -0.12492542120E+04  0.13036088036E+04  0.25500000920E-02 0. -1.
</event>
<event>
 5   0  0.2037333E-07  0.3269495E+04  0.7818609E-02  0.8170701E-01
        1   -1    0    0  501    0  0.00000000000E+00  0.00000000000E+00  0.12474360769E+04  0.12474360769E+04  0.50400001928E-02 0.  1.
       -1   -1    0    0    0  501  0.00000000000E+00  0.00000000000E+00 -0.21423139572E+04  0.21423139572E+04  0.50400001928E-02 0. -1.
    10030    2    1    2    0    0  0.00000000000E+00  0.00000000000E+00 -0.89487788028E+03  0.33897500341E+04  0.32694952016E+04 0.  0.
        3    1    3    3  502    0 -0.14348354533E+04  0.77247248579E+03 -0.31252514990E+03  0.16592584184E+04  0.10100000352E+00 0.  1.
       -3    1    3    3    0  502  0.14348354533E+04 -0.77247248579E+03 -0.58235273038E+03  0.17304916158E+04  0.10100000352E+00 0. -1.
</event>
<event>
 5   0  0.2087665E-07  0.3303888E+04  0.7818609E-02  0.8161907E-01
       -1   -1    0    0    0  501  0.00000000000E+00  0.00000000000E+00  0.12522499376E+04  0.12522499376E+04  0.50400001928E-02 0. -1.
        1   -1    0    0  501    0  0.00000000000E+00  0.00000000000E+00 -0.21792120982E+04  0.21792120982E+04  0.50400001928E-02 0.  1.
    10030    2    1    2    0    0  0.00000000000E+00  0.00000000000E+00 -0.92696216056E+03  0.34314620358E+04  0.33038875368E+04 0.  0.
        5    1    3    3  502    0  0.12833911110E+04  0.30333037868E+03  0.56981876579E+03  0.14365993102E+04  0.46999998093E+01 0.  1.
       -5    1    3    3    0  502 -0.12833911110E+04 -0.30333037868E+03 -0.14967809263E+04  0.19948627255E+04  0.46999998093E+01 0. -1.
</event>
<event>
 5   0  0.6426079E-07  0.3295220E+04  0.7818609E-02  0.8164113E-01
       -2   -1    0    0    0  501  0.00000000000E+00  0.00000000000E+00  0.16296509315E+04  0.16296509315E+04  0.25500000920E-02 0. -1.
        2   -1    0    0  501    0  0.00000000000E+00  0.00000000000E+00 -0.16657669627E+04  0.16657669627E+04  0.25500000920E-02 0.  1.
    10030    2    1    2    0    0  0.00000000000E+00  0.00000000000E+00 -0.36116031177E+02  0.32954178943E+04  0.32952199821E+04 0.  0.
        4    1    3    3  502    0  0.14468933684E+04 -0.10876375055E+03 -0.79867334135E+03  0.16562640768E+04  0.12699999809E+01 0.  1.
       -4    1    3    3    0  502 -0.14468933684E+04  0.10876375055E+03  0.76255731017E+03  0.16391538175E+04  0.12699999809E+01 0. -1.
</event>
<event>
 5   0  0.6258718E-07  0.3311245E+04  0.7818609E-02  0.8160040E-01
        2   -1    0    0  501    0  0.00000000000E+00  0.00000000000E+00  0.13941730843E+04  0.13941730843E+04  0.25500000920E-02 0. -1.
       -2   -1    0    0    0  501  0.00000000000E+00  0.00000000000E+00 -0.19661017022E+04  0.19661017022E+04  0.25500000920E-02 0.  1.
    10030    2    1    2    0    0  0.00000000000E+00  0.00000000000E+00 -0.57192861789E+03  0.33602747866E+04  0.33112451279E+04 0.  0.
        5    1    3    3  502    0 -0.13177355607E+04 -0.91066176498E+03 -0.71089119491E+03  0.17524611948E+04  0.46999998093E+01 0. -1.
       -5    1    3    3    0  502  0.13177355607E+04  0.91066176498E+03  0.13896257702E+03  0.16078135918E+04  0.46999998093E+01 0.  1.
</event>
<event>
 5   0  0.6377741E-07  0.3317843E+04  0.7818609E-02  0.8158370E-01
        2   -1    0    0  501    0  0.00000000000E+00  0.00000000000E+00  0.27271540078E+04  0.27271540078E+04  0.25500000920E-02 0.  1.
       -2   -1    0    0    0  501  0.00000000000E+00  0.00000000000E+00 -0.10091183678E+04  0.10091183678E+04  0.25500000920E-02 0. -1.
    10030    2    1    2    0    0  0.00000000000E+00  0.00000000000E+00  0.17180356400E+04  0.37362723756E+04  0.33178433966E+04 0.  0.
        1    1    3    3  502    0  0.23918473408E+02 -0.88754882344E+03  0.24370683324E+04  0.25937650364E+04  0.50400001928E-02 0.  1.
       -1    1    3    3    0  502 -0.23918473408E+02  0.88754882344E+03 -0.71903269236E+03  0.11425073392E+04  0.50400001928E-02 0. -1.
</event>
<event>
 5   0  0.6377741E-07  0.3296197E+04  0.7818609E-02  0.8163864E-01
        2   -1    0    0  501    0  0.00000000000E+00  0.00000000000E+00  0.23307612155E+04  0.23307612155E+04  0.25500000920E-02 0.  1.
       -2   -1    0    0    0  501  0.00000000000E+00  0.00000000000E+00 -0.11653829325E+04  0.11653829325E+04  0.25500000920E-02 0. -1.
    10030    2    1    2    0    0  0.00000000000E+00  0.00000000000E+00  0.11653782830E+04  0.34961441481E+04  0.32961974094E+04 0.  0.
        1    1    3    3  502    0 -0.10123555097E+04  0.36548974370E+03 -0.74113282841E+03  0.13067992578E+04  0.50400001928E-02 0. -1.
       -1    1    3    3    0  502  0.10123555097E+04 -0.36548974370E+03  0.19065111114E+04  0.21893448903E+04  0.50400001928E-02 0.  1.
</event>
<event>
 5   0  0.1994250E-07  0.3303521E+04  0.7818609E-02  0.8162000E-01
        3   -1    0    0  501    0  0.00000000000E+00  0.00000000000E+00  0.30315957364E+04  0.30315957381E+04  0.10100000352E+00 0.  1.
       -3   -1    0    0    0  501  0.00000000000E+00  0.00000000000E+00 -0.89995909439E+03  0.89995910005E+03  0.10100000352E+00 0. -1.
    10030    2    1    2    0    0  0.00000000000E+00  0.00000000000E+00  0.21316366420E+04  0.39315548381E+04  0.33035206480E+04 0.  0.
        3    1    3    3  502    0  0.95408544703E+03  0.58590692923E+03  0.25110782216E+04  0.27493780779E+04  0.10100000352E+00 0.  1.
       -3    1    3    3    0  502 -0.95408544703E+03 -0.58590692923E+03 -0.37944157959E+03  0.11821767603E+04  0.10100000352E+00 0. -1.
</event>
<event>
 5   0  0.1994250E-07  0.3291205E+04  0.7818609E-02  0.8165137E-01
        3   -1    0    0  501    0  0.00000000000E+00  0.00000000000E+00  0.19190715128E+04  0.19190715154E+04  0.10100000352E+00 0.  1.
       -3   -1    0    0    0  501  0.00000000000E+00  0.00000000000E+00 -0.14111028726E+04  0.14111028762E+04  0.10100000352E+00 0. -1.
    10030    2    1    2    0    0  0.00000000000E+00  0.00000000000E+00  0.50796864018E+03  0.33301743917E+04  0.32912048462E+04 0.  0.
        5    1    3    3  502    0  0.47082090083E+03 -0.62855842960E+03 -0.12092459440E+04  0.14418931525E+04  0.46999998093E+01 0. -1.
       -5    1    3    3    0  502 -0.47082090083E+03  0.62855842960E+03  0.17172145842E+04  0.18882812392E+04  0.46999998093E+01 0.  1.
</event>
<event>
 5   0  0.6426079E-07  0.3283277E+04  0.7818609E-02  0.8167164E-01
        2   -1    0    0  501    0  0.00000000000E+00  0.00000000000E+00  0.17711787985E+04  0.17711787985E+04  0.25500000920E-02 0. -1.
       -2   -1    0    0    0  501  0.00000000000E+00  0.00000000000E+00 -0.15215720553E+04  0.15215720553E+04  0.25500000920E-02 0.  1.
    10030    2    1    2    0    0  0.00000000000E+00  0.00000000000E+00  0.24960674327E+03  0.32927508538E+04  0.32832765127E+04 0.  0.
        4    1    3    3  502    0 -0.14886723879E+04 -0.66308915280E+03 -0.73610521320E+02  0.16313346759E+04  0.12699999809E+01 0.  1.
       -4    1    3    3    0  502  0.14886723879E+04  0.66308915280E+03  0.32321726459E+03  0.16614161779E+04  0.12699999809E+01 0. -1.
</event>
<event>
 5   0  0.2080770E-07  0.3306230E+04  0.7818609E-02  0.8161312E-01
       -1   -1    0    0    0  501  0.00000000000E+00  0.00000000000E+00  0.13336113775E+04  0.13336113775E+04  0.50400001928E-02 0.  1.
        1   -1    0    0  501    0  0.00000000000E+00  0.00000000000E+00 -0.20491641655E+04  0.20491641655E+04  0.50400001928E-02 0. -1.
    10030    2    1    2    0    0  0.00000000000E+00  0.00000000000E+00 -0.71555278800E+03  0.33827755431E+04  0.33062296627E+04 0.  0.
        4    1    3    3  502    0 -0.40274989381E+03 -0.12473514503E+04  0.67286526328E+03  0.14733778853E+04  0.12699999809E+01 0.  1.
       -4    1    3    3    0  502  0.40274989381E+03  0.12473514503E+04 -0.13884180513E+04  0.19093976578E+04  0.12699999809E+01 0. -1.
</event>
<event>
 5   0  0.6426079E-07  0.3266964E+04  0.7818609E-02  0.8171353E-01
       -2   -1    0    0    0  501  0.00000000000E+00  0.00000000000E+00  0.11090646225E+04  0.11090646225E+04  0.25500000920E-02 0. -1.
        2   -1    0    0  501    0  0.00000000000E+00  0.00000000000E+00 -0.24058689639E+04  0.24058689639E+04  0.25500000920E-02 0.  1.
    10030    2    1    2    0    0  0.00000000000E+00  0.00000000000E+00 -0.12968043414E+04  0.35149335864E+04  0.32669644346E+04 0.  0.
        4    1    3    3  502    0  0.14900834495E+04  0.65582822916E+03 -0.50484608238E+03  0.17045030162E+04  0.12699999809E+01 0. -1.
       -4    1    3    3    0  502 -0.14900834495E+04 -0.65582822916E+03 -0.79195825901E+03  0.18104305702E+04  0.12699999809E+01 0.  1.
</event>
<event>
 5   0  0.2037333E-07  0.3308358E+04  0.7818609E-02  0.8160772E-01
       -1   -1    0    0    0  501  0.00000000000E+00  0.00000000000E+00  0.13988112674E+04  0.13988112674E+04  0.50400001928E-02 0. -1.
        1   -1    0    0  501    0  0.00000000000E+00  0.00000000000E+00 -0.19561663698E+04  0.19561663699E+04  0.50400001928E-02 0.  1.
    10030    2    1    2    0    0  0.00000000000E+00  0.00000000000E+00 -0.55735510244E+03  0.33549776373E+04  0.33083576343E+04 0.  0.
        3    1    3    3  502    0  0.23955035902E+03 -0.68299177640E+03 -0.17870669122E+04  0.19280742465E+04  0.10100000352E+00 0.  1.
       -3    1    3    3    0  502 -0.23955035902E+03  0.68299177640E+03  0.12297118098E+04  0.14269033907E+04  0.10100000352E+00 0. -1.
</event>
<event>
 5   0  0.2080770E-07  0.3278794E+04  0.7818609E-02  0.8168312E-01
        1   -1    0    0  501    0  0.00000000000E+00  0.00000000000E+00  0.11129114748E+04  0.11129114748E+04  0.50400001928E-02 0. -1.
       -1   -1    0    0    0  501  0.00000000000E+00  0.00000000000E+00 -0.24149479911E+04  0.24149479911E+04  0.50400001928E-02 0.  1.
    10030    2    1    2    0    0  0.00000000000E+00  0.00000000000E+00 -0.13020365164E+04  0.35278594659E+04  0.32787944921E+04 0.  0.
        4    1    3    3  502    0  0.96008080107E+03  0.63591680405E+03 -0.19064761095E+04  0.22272849156E+04  0.12699999809E+01 0.  1.
       -4    1    3    3    0  502 -0.96008080107E+03 -0.63591680405E+03  0.60443959313E+03  0.13005745503E+04  0.12699999809E+01 0. -1.
</event>
<event>
 5   0  0.2057130E-07  0.3302702E+04  0.7818609E-02  0.8162208E-01
        1   -1    0    0  501    0  0.00000000000E+00  0.00000000000E+00  0.24453912565E+04  0.24453912565E+04  0.50400001928E-02 0. -1.
       -1   -1    0    0    0  501  0.00000000000E+00  0.00000000000E+00 -0.11151425410E+04  0.11151425410E+04  0.50400001928E-02 0.  1.
    10030    2    1    2    0    0  0.00000000000E+00  0.00000000000E+00  0.13302487155E+04  0.35605337975E+04  0.33027018149E+04 0.  0.
        2    1    3    3  502    0  0.11961565554E+04  0.98855658513E+03  0.12739461100E+04  0.20077283975E+04  0.25500000920E-02 0. -1.
       -2    1    3    3    0  502 -0.11961565554E+04 -0.98855658513E+03  0.56302605516E+02  0.15528054000E+04  0.25500000920E-02 0.  1.
</event>
<event>
 5   0  0.6377741E-07  0.3295537E+04  0.7818609E-02  0.8164032E-01
        2   -1    0    0  501    0  0.00000000000E+00  0.00000000000E+00  0.69671384445E+03  0.69671384445E+03  0.25500000920E-02 0.  1.
       -2   -1    0    0    0  501  0.00000000000E+00  0.00000000000E+00 -0.38970667879E+04  0.38970667879E+04  0.25500000920E-02 0. -1.
    10030    2    1    2    0    0  0.00000000000E+00  0.00000000000E+00 -0.32003529434E+04  0.45937806324E+04  0.32955366081E+04 0.  0.
        1    1    3    3  502    0 -0.19273255930E+03  0.15457245890E+04 -0.23491907510E+04  0.28187067121E+04  0.50400001928E-02 0. -1.
       -1    1    3    3    0  502  0.19273255930E+03 -0.15457245890E+04 -0.85116219246E+03  0.17750739202E+04  0.50400001928E-02 0.  1.
</event>
<event>
 5   0  0.2037333E-07  0.3293530E+04  0.7818609E-02  0.8164544E-01
        1   -1    0    0  501    0  0.00000000000E+00  0.00000000000E+00  0.10233141271E+04  0.10233141271E+04  0.50400001928E-02 0.  1.
       -1   -1    0    0    0  501  0.00000000000E+00  0.00000000000E+00 -0.26500513974E+04  0.26500513974E+04  0.50400001928E-02 0. -1.
    10030    2    1    2    0    0  0.00000000000E+00  0.00000000000E+00 -0.16267372703E+04  0.36733655245E+04  0.32935300408E+04 0.  0.
        3    1    3    3  502    0 -0.11472006398E+04  0.11071422180E+04 -0.35350474746E+03  0.16330336235E+04  0.10100000352E+00 0.  1.
       -3    1    3    3    0  502  0.11472006398E+04 -0.11071422180E+04 -0.12732325228E+04  0.20403319010E+04  0.10100000352E+00 0. -1.
</event>
<event>
 5   0  0.6351753E-07  0.3292925E+04  0.7818609E-02  0.8164698E-01
       -2   -1    0    0    0  501  0.00000000000E+00  0.00000000000E+00  0.18389689112E+04  0.18389689112E+04  0.25500000920E-02 0.  1.
        2   -1    0    0  501    0  0.00000000000E+00  0.00000000000E+00 -0.14741079692E+04  0.14741079692E+04  0.25500000920E-02 0. -1.
    10030    2    1    2    0    0  0.00000000000E+00  0.00000000000E+00  0.36486094195E+03  0.33130768804E+04  0.32929249776E+04 0.  0.
        3    1    3    3  502    0  0.11078874873E+03  0.89409859140E+03  0.15689614328E+04  0.18092336571E+04  0.10100000352E+00 0.  1.
       -3    1    3    3    0  502 -0.11078874873E+03 -0.89409859140E+03 -0.12041004909E+04  0.15038432233E+04  0.10100000352E+00 0. -1.
</event>
<event>
 5   0  0.6424183E-07  0.3277651E+04  0.7818609E-02  0.8168605E-01
       -2   -1    0    0    0  501  0.00000000000E+00  0.00000000000E+00  0.18228878386E+04  0.18228878386E+04  0.25500000920E-02 0. -1.
        2   -1    0    0  501    0  0.00000000000E+00  0.00000000000E+00 -0.14733485799E+04  0.14733485799E+04  0.25500000920E-02 0.  1.
    10030    2    1    2    0    0  0.00000000000E+00  0.00000000000E+00  0.34953925867E+03  0.32962364185E+04  0.32776511152E+04 0.  0.
        2    1    3    3  502    0 -0.15643581557E+04  0.30848113862E+03  0.55556182415E+03  0.16884981470E+04  0.25500000920E-02 0. -1.
       -2    1    3    3    0  502  0.15643581557E+04 -0.30848113862E+03 -0.20602256548E+03  0.16077382715E+04  0.25500000920E-02 0.  1.
</event>
<event>
 5   0  0.6426079E-07  0.3297727E+04  0.7818609E-02  0.8163474E-01
        2   -1    0    0  501    0  0.00000000000E+00  0.00000000000E+00  0.20227053524E+04  0.20227053524E+04  0.25500000920E-02 0.  1.
       -2   -1    0    0    0  501  0.00000000000E+00  0.00000000000E+00 -0.13441163325E+04  0.13441163325E+04  0.25500000920E-02 0. -1.
    10030    2    1    2    0    0  0.00000000000E+00  0.00000000000E+00  0.67858901992E+03  0.33668216849E+04  0.32977272779E+04 0.  0.
        4    1    3    3  502    0 -0.54771269775E+03  0.75656305188E+03 -0.10479885404E+04  0.14038014263E+04  0.12699999809E+01 0. -1.
       -4    1    3    3    0  502  0.54771269775E+03 -0.75656305188E+03  0.17265775603E+04  0.19630202586E+04  0.12699999809E+01 0.  1.
</event>
<event>
 5   0  0.2080770E-07  0.3301084E+04  0.7818609E-02  0.8162620E-01
       -1   -1    0    0    0  501  0.00000000000E+00  0.00000000000E+00  0.17407711893E+04  0.17407711893E+04  0.50400001928E-02 0.  1.
        1   -1    0    0  501    0  0.00000000000E+00  0.00000000000E+00 -0.15649893208E+04  0.15649893209E+04  0.50400001928E-02 0. -1.
    10030    2    1    2    0    0  0.00000000000E+00  0.00000000000E+00  0.17578186844E+03  0.33057605102E+04  0.33010836532E+04 0.  0.
        4    1    3    3  502    0  0.58411622645E+03  0.90357965198E+03 -0.11655367720E+04  0.15862299749E+04  0.12699999809E+01 0. -1.
       -4    1    3    3    0  502 -0.58411622645E+03 -0.90357965198E+03  0.13413186405E+04  0.17195305352E+04  0.12699999809E+01 0.  1.
</event>
<event>
 5   0  0.2080828E-07  0.3277541E+04  0.7818609E-02  0.8168634E-01
        1   -1    0    0  501    0  0.00000000000E+00  0.00000000000E+00  0.15538016943E+04  0.15538016943E+04  0.50400001928E-02 0.  1.
       -1   -1    0    0    0  501  0.00000000000E+00  0.00000000000E+00 -0.17283855524E+04  0.17283855524E+04  0.50400001928E-02 0. -1.
    10030    2    1    2    0    0  0.00000000000E+00  0.00000000000E+00 -0.17458385809E+03  0.32821872468E+04  0.32775407853E+04 0.  0.
        1    1    3    3  502    0 -0.42237920895E+03  0.13735555893E+04 -0.87613275248E+03  0.16830531047E+04  0.50400001928E-02 0. -1.
       -1    1    3    3    0  502  0.42237920895E+03 -0.13735555893E+04  0.70154889439E+03  0.15991341421E+04  0.50400001928E-02 0.  1.
</event>
<event>
 5   0  0.6426079E-07  0.3289593E+04  0.7818609E-02  0.8165549E-01
       -2   -1    0    0    0  501  0.00000000000E+00  0.00000000000E+00  0.12295514389E+04  0.12295514389E+04  0.25500000920E-02 0. -1.
        2   -1    0    0  501    0  0.00000000000E+00  0.00000000000E+00 -0.22002783207E+04  0.22002783207E+04  0.25500000920E-02 0.  1.
    10030    2    1    2    0    0  0.00000000000E+00  0.00000000000E+00 -0.97072688185E+03  0.34298297596E+04  0.32895929080E+04 0.  0.
        4    1    3    3  502    0  0.66947958243E+03  0.39211237323E+03 -0.19975006913E+04  0.21428872227E+04  0.12699999809E+01 0.  1.
       -4    1    3    3    0  502 -0.66947958243E+03 -0.39211237323E+03  0.10267738094E+04  0.12869425369E+04  0.12699999809E+01 0. -1.
</event>
<event>
 5   0  0.6258718E-07  0.3280533E+04  0.7818609E-02  0.8167867E-01
        2   -1    0    0  501    0  0.00000000000E+00  0.00000000000E+00  0.25925361271E+04  0.25925361271E+04  0.25500000920E-02 0.  1.
       -2   -1    0    0    0  501  0.00000000000E+00  0.00000000000E+00 -0.10377767297E+04  0.10377767297E+04  0.25500000920E-02 0. -1.
    10030    2    1    2    0    0  0.00000000000E+00  0.00000000000E+00  0.15547593975E+04  0.36303128568E+04  0.32805326784E+04 0.  0.
        5    1    3    3  502    0  0.12698830008E+04 -0.51733227712E+03 -0.21871380400E+03  0.13885580069E+04  0.46999998093E+01 0. -1.
       -5    1    3    3    0  502 -0.12698830008E+04  0.51733227712E+03  0.17734732015E+04  0.22417548499E+04  0.46999998093E+01 0.  1.
</event>
<event>
 5   0  0.2057130E-07  0.3285741E+04  0.7818609E-02  0.8166533E-01
        1   -1    0    0  501    0  0.00000000000E+00  0.00000000000E+00  0.19272974586E+04  0.19272974586E+04  0.50400001928E-02 0.  1.
       -1   -1    0    0    0  501  0.00000000000E+00  0.00000000000E+00 -0.14004190005E+04  0.14004190005E+04  0.50400001928E-02 0. -1.
    10030    2    1    2    0    0  0.00000000000E+00  0.00000000000E+00  0.52687845814E+03  0.33277164591E+04  0.32857413049E+04 0.  0.
        2    1    3    3  502    0 -0.39838365920E+03  0.15655133114E+04  0.56639695501E+03  0.17118256275E+04  0.25500000920E-02 0. -1.
       -2    1    3    3    0  502  0.39838365920E+03 -0.15655133114E+04 -0.39518496880E+02  0.16158908316E+04  0.25500000920E-02 0.  1.
</event>
<event>
 5   0  0.2037333E-07  0.3301239E+04  0.7818609E-02  0.8162580E-01
        1   -1    0    0  501    0  0.00000000000E+00  0.00000000000E+00  0.18863010466E+04  0.18863010467E+04  0.50400001928E-02 0. -1.
       -1   -1    0    0    0  501  0.00000000000E+00  0.00000000000E+00 -0.14443844588E+04  0.14443844588E+04  0.50400001928E-02 0.  1.
    10030    2    1    2    0    0  0.00000000000E+00  0.00000000000E+00  0.44191658788E+03  0.33306855054E+04  0.33012385048E+04 0.  0.
        3    1    3    3  502    0  0.31740634616E+03  0.41833694107E+03 -0.13578616863E+04  0.14558643323E+04  0.10100000352E+00 0.  1.
       -3    1    3    3    0  502 -0.31740634616E+03 -0.41833694107E+03  0.17997782742E+04  0.18748211731E+04  0.10100000352E+00 0. -1.
</event>
<event>
 5   0  0.6424183E-07  0.3293904E+04  0.7818609E-02  0.8164448E-01
       -2   -1    0    0    0  501  0.00000000000E+00  0.00000000000E+00  0.91919169314E+03  0.91919169314E+03  0.25500000920E-02 0. -1.
        2   -1    0    0  501    0  0.00000000000E+00  0.00000000000E+00 -0.29509085101E+04  0.29509085101E+04  0.25500000920E-02 0.  1.
    10030    2    1    2    0    0  0.00000000000E+00  0.00000000000E+00 -0.20317168170E+04  0.38701002033E+04  0.32939038175E+04 0.  0.
        2    1    3    3  502    0 -0.13540022832E+04  0.13931812970E+03 -0.21052638110E+04  0.25069637888E+04  0.25500000920E-02 0.  1.
       -2    1    3    3    0  502  0.13540022832E+04 -0.13931812970E+03  0.73546994042E+02  0.13631364145E+04  0.25500000920E-02 0. -1.
</event>
<event>
 5   0  0.6426079E-07  0.3302639E+04  0.7818609E-02  0.8162224E-01
        2   -1    0    0  501    0  0.00000000000E+00  0.00000000000E+00  0.12431923347E+04  0.12431923347E+04  0.25500000920E-02 0. -1.
       -2   -1    0    0    0  501  0.00000000000E+00  0.00000000000E+00 -0.21934308532E+04  0.21934308532E+04  0.25500000920E-02 0.  1.
    10030    2    1    2    0    0  0.00000000000E+00  0.00000000000E+00 -0.95023851846E+03  0.34366231879E+04  0.33026392013E+04 0.  0.
        4    1    3    3  502    0  0.61121127770E+03  0.13282973814E+04  0.32341245766E+03  0.14975147378E+04  0.12699999809E+01 0. -1.
       -4    1    3    3    0  502 -0.61121127770E+03 -0.13282973814E+04 -0.12736509761E+04  0.19391084501E+04  0.12699999809E+01 0.  1.
</event>
<event>
 5   0  0.2080828E-07  0.3304311E+04  0.7818609E-02  0.8161799E-01
       -1   -1    0    0    0  501  0.00000000000E+00  0.00000000000E+00  0.14978598669E+04  0.14978598669E+04  0.50400001928E-02 0. -1.
        1   -1    0    0  501    0  0.00000000000E+00  0.00000000000E+00 -0.18223451342E+04  0.18223451343E+04  0.50400001928E-02 0.  1.
    10030    2    1    2    0    0  0.00000000000E+00  0.00000000000E+00 -0.32448526736E+03  0.33202050011E+04  0.33043109056E+04 0.  0.
        1    1    3    3  502    0  0.28851129752E+02 -0.39484404853E+02 -0.18216177707E+04  0.18222740487E+04  0.50400001928E-02 0.  1.
       -1    1    3    3    0  502 -0.28851129752E+02  0.39484404853E+02  0.14971325033E+04  0.14979309525E+04  0.50400001928E-02 0. -1.
</event>
<event>
 5   0  0.2080828E-07  0.3288152E+04  0.7818609E-02  0.8165917E-01
        1   -1    0    0  501    0  0.00000000000E+00  0.00000000000E+00  0.24562018325E+04  0.24562018325E+04  0.50400001928E-02 0. -1.
       -1   -1    0    0    0  501  0.00000000000E+00  0.00000000000E+00 -0.11004736303E+04  0.11004736304E+04  0.50400001928E-02 0.  1.
    10030    2    1    2    0    0  0.00000000000E+00  0.00000000000E+00  0.13557282021E+04  0.35566754628E+04  0.32881516677E+04 0.  0.
        1    1    3    3  502    0 -0.10886898231E+04  0.38363637502E+03 -0.58845130590E+03  0.12956455297E+04  0.50400001928E-02 0.  1.
       -1    1    3    3    0  502  0.10886898231E+04 -0.38363637502E+03  0.19441795080E+04  0.22610299332E+04  0.50400001928E-02 0. -1.
</event>
<event>
 5   0  0.6351753E-07  0.3410355E+04  0.7818609E-02  0.8135369E-01
       -2   -1    0    0    0  501  0.00000000000E+00  0.00000000000E+00  0.15211559017E+04  0.15211559017E+04  0.25500000920E-02 0. -1.
        2   -1    0    0  501    0  0.00000000000E+00  0.00000000000E+00 -0.19114612485E+04  0.19114612485E+04  0.25500000920E-02 0.  1.
    10030    2    1    2    0    0  0.00000000000E+00  0.00000000000E+00 -0.39030534684E+03  0.34326171502E+04  0.34103551481E+04 0.  0.
        3    1    3    3  502    0 -0.96908529189E+03 -0.60646583976E+03  0.10782952746E+04  0.15715113195E+04  0.10100000352E+00 0. -1.
       -3    1    3    3    0  502  0.96908529189E+03  0.60646583976E+03 -0.14686006215E+04  0.18611058308E+04  0.10100000352E+00 0.  1.
</event>
<event>
 5   0  0.2080828E-07  0.3307106E+04  0.7818609E-02  0.8161090E-01
       -1   -1    0    0    0  501  0.00000000000E+00  0.00000000000E+00  0.14822300601E+04  0.14822300601E+04  0.50400001928E-02 0. -1.
        1   -1    0    0  501    0  0.00000000000E+00  0.00000000000E+00 -0.18446778468E+04  0.18446778468E+04  0.50400001928E-02 0.  1.
    10030    2    1    2    0    0  0.00000000000E+00  0.00000000000E+00 -0.36244778672E+03  0.33269079069E+04  0.33071056564E+04 0.  0.
        1    1    3    3  502    0 -0.58013999464E+03 -0.16080598638E+03  0.13680678422E+04  0.14946673876E+04  0.50400001928E-02 0. -1.
       -1    1    3    3    0  502  0.58013999464E+03  0.16080598638E+03 -0.17305156289E+04  0.18322405193E+04  0.50400001928E-02 0.  1.
</event>
<event>
 5   0  0.2037333E-07  0.3283643E+04  0.7818609E-02  0.8167070E-01
       -1   -1    0    0    0  501  0.00000000000E+00  0.00000000000E+00  0.11054853495E+04  0.11054853495E+04  0.50400001928E-02 0.  1.
        1   -1    0    0  501    0  0.00000000000E+00  0.00000000000E+00 -0.24383665276E+04  0.24383665276E+04  0.50400001928E-02 0. -1.
    10030    2    1    2    0    0  0.00000000000E+00  0.00000000000E+00 -0.13328811781E+04  0.35438518771E+04  0.32836433869E+04 0.  0.
        3    1    3    3  502    0  0.58772145959E+03 -0.10959281738E+04  0.49046822086E+03  0.13367999708E+04  0.10100000352E+00 0. -1.
       -3    1    3    3    0  502 -0.58772145959E+03  0.10959281738E+04 -0.18233493990E+04  0.22070519063E+04  0.10100000352E+00 0.  1.
</event>
<event>
 5   0  0.2080828E-07  0.3302331E+04  0.7818609E-02  0.8162303E-01
        1   -1    0    0  501    0  0.00000000000E+00  0.00000000000E+00  0.22671290293E+04  0.22671290293E+04  0.50400001928E-02 0.  1.
       -1   -1    0    0    0  501  0.00000000000E+00  0.00000000000E+00 -0.12025548649E+04  0.12025548649E+04  0.50400001928E-02 0. -1.
    10030    2    1    2    0    0  0.00000000000E+00  0.00000000000E+00  0.10645741644E+04  0.34696838942E+04  0.33023307184E+04 0.  0.
        1    1    3    3  502    0  0.33260242891E+03  0.14504478263E+03 -0.11601465203E+04  0.12155666635E+04  0.50400001928E-02 0. -1.
       -1    1    3    3    0  502 -0.33260242891E+03 -0.14504478263E+03  0.22247206847E+04  0.22541172307E+04  0.50400001928E-02 0.  1.
</event>
<event>
 5   0  0.2037333E-07  0.3282743E+04  0.7818609E-02  0.8167300E-01
        1   -1    0    0  501    0  0.00000000000E+00  0.00000000000E+00  0.12777287184E+04  0.12777287185E+04  0.50400001928E-02 0.  1.
       -1   -1    0    0    0  501  0.00000000000E+00  0.00000000000E+00 -0.21085067969E+04  0.21085067969E+04  0.50400001928E-02 0. -1.
    10030    2    1    2    0    0  0.00000000000E+00  0.00000000000E+00 -0.83077807849E+03  0.33862355154E+04  0.32827425653E+04 0.  0.
        3    1    3    3  502    0 -0.15145704258E+04  0.59751318471E+03 -0.20110424784E+03  0.16405451866E+04  0.10100000352E+00 0.  1.
       -3    1    3    3    0  502  0.15145704258E+04 -0.59751318471E+03 -0.62967383064E+03  0.17456903288E+04  0.10100000352E+00 0. -1.
</event>
<event>
 5   0  0.2057130E-07  0.3298423E+04  0.7818609E-02  0.8163297E-01
       -1   -1    0    0    0  501  0.00000000000E+00  0.00000000000E+00  0.11690976620E+04  0.11690976620E+04  0.50400001928E-02 0. -1.
        1   -1    0    0  501    0  0.00000000000E+00  0.00000000000E+00 -0.23264942696E+04  0.23264942696E+04  0.50400001928E-02 0.  1.
    10030    2    1    2    0    0  0.00000000000E+00  0.00000000000E+00 -0.11573966076E+04  0.34955919316E+04  0.32984232665E+04 0.  0.
        2    1    3    3  502    0  0.13715232553E+04  0.31295261279E+03  0.33350017481E+03  0.14457654528E+04  0.25500000920E-02 0. -1.
       -2    1    3    3    0  502 -0.13715232553E+04 -0.31295261279E+03 -0.14908967824E+04  0.20498264789E+04  0.25500000920E-02 0.  1.
</event>
<event>
 5   0  0.2080770E-07  0.3272701E+04  0.7818609E-02  0.8169877E-01
       -1   -1    0    0    0  501  0.00000000000E+00  0.00000000000E+00  0.14848085638E+04  0.14848085638E+04  0.50400001928E-02 0. -1.
        1   -1    0    0  501    0  0.00000000000E+00  0.00000000000E+00 -0.18033587566E+04  0.18033587566E+04  0.50400001928E-02 0.  1.
    10030    2    1    2    0    0  0.00000000000E+00  0.00000000000E+00 -0.31855019286E+03  0.32881673204E+04  0.32727007351E+04 0.  0.
        4    1    3    3  502    0 -0.46489890215E+03  0.14786018392E+04  0.36784374102E+03  0.15930175827E+04  0.12699999809E+01 0. -1.
       -4    1    3    3    0  502  0.46489890215E+03 -0.14786018392E+04 -0.68639393388E+03  0.16951497377E+04  0.12699999809E+01 0.  1.
</event>
<event>
 5   0  0.2080828E-07  0.3288489E+04  0.7818609E-02  0.8165831E-01
       -1   -1    0    0    0  501  0.00000000000E+00  0.00000000000E+00  0.90652410318E+03  0.90652410320E+03  0.50400001928E-02 0.  1.
        1   -1    0    0  501    0  0.00000000000E+00  0.00000000000E+00 -0.29823136709E+04  0.29823136709E+04  0.50400001928E-02 0. -1.
    10030    2    1    2    0    0  0.00000000000E+00  0.00000000000E+00 -0.20757895677E+04  0.38888377741E+04  0.32884885440E+04 0.  0.
        1    1    3    3  502    0  0.54263244876E+02  0.60668545163E+03 -0.28439743482E+04  0.29084707030E+04  0.50400001928E-02 0. -1.
       -1    1    3    3    0  502 -0.54263244876E+02 -0.60668545163E+03  0.76818478052E+03  0.98036707106E+03  0.50400001928E-02 0.  1.
</event>
<event>
 5   0  0.2037333E-07  0.3258493E+04  0.7818609E-02  0.8173538E-01
        1   -1    0    0  501    0  0.00000000000E+00  0.00000000000E+00  0.24114318418E+04  0.24114318418E+04  0.50400001928E-02 0.  1.
       -1   -1    0    0    0  501  0.00000000000E+00  0.00000000000E+00 -0.11007754064E+04  0.11007754064E+04  0.50400001928E-02 0. -1.
    10030    2    1    2    0    0  0.00000000000E+00  0.00000000000E+00  0.13106564354E+04  0.35122072481E+04  0.32584934344E+04 0.  0.
        3    1    3    3  502    0 -0.13249554131E+04  0.64097550260E+03 -0.97702225089E+02  0.14750939552E+04  0.10100000352E+00 0.  1.
       -3    1    3    3    0  502  0.13249554131E+04 -0.64097550260E+03  0.14083586605E+04  0.20371132930E+04  0.10100000352E+00 0. -1.
</event>
<event>
 5   0  0.6258718E-07  0.3219703E+04  0.7818609E-02  0.8183633E-01
       -2   -1    0    0    0  501  0.00000000000E+00  0.00000000000E+00  0.16065149666E+04  0.16065149666E+04  0.25500000920E-02 0. -1.
        2   -1    0    0  501    0  0.00000000000E+00  0.00000000000E+00 -0.16131948662E+04  0.16131948662E+04  0.25500000920E-02 0.  1.
    10030    2    1    2    0    0  0.00000000000E+00  0.00000000000E+00 -0.66798995195E+01  0.32197098328E+04  0.32197029034E+04 0.  0.
        5    1    3    3  502    0 -0.33846091494E+03 -0.15610777665E+04 -0.20354033745E+03  0.16102702701E+04  0.46999998093E+01 0.  1.
       -5    1    3    3    0  502  0.33846091494E+03  0.15610777665E+04  0.19686043793E+03  0.16094395627E+04  0.46999998093E+01 0. -1.
</event>
<event>
 5   0  0.6426079E-07  0.3292562E+04  0.7818609E-02  0.8164791E-01
        2   -1    0    0  501    0  0.00000000000E+00  0.00000000000E+00  0.22096457480E+04  0.22096457480E+04  0.25500000920E-02 0. -1.
       -2   -1    0    0    0  501  0.00000000000E+00  0.00000000000E+00 -0.12265502034E+04  0.12265502034E+04  0.25500000920E-02 0.  1.
    10030    2    1    2    0    0  0.00000000000E+00  0.00000000000E+00  0.98309554462E+03  0.34361959514E+04  0.32925621888E+04 0.  0.
        4    1    3    3  502    0 -0.36794598177E+03 -0.60943394850E+01  0.21661715017E+04  0.21972077676E+04  0.12699999809E+01 0. -1.
       -4    1    3    3    0  502  0.36794598177E+03  0.60943394850E+01 -0.11830759571E+04  0.12389881838E+04  0.12699999809E+01 0.  1.
</event>
<event>
 5   0  0.2087665E-07  0.3305850E+04  0.7818609E-02  0.8161409E-01
        1   -1    0    0  501    0  0.00000000000E+00  0.00000000000E+00  0.31657363953E+04  0.31657363953E+04  0.50400001928E-02 0.  1.
       -1   -1    0    0    0  501  0.00000000000E+00  0.00000000000E+00 -0.86304111220E+03  0.86304111222E+03  0.50400001928E-02 0. -1.
    10030    2    1    2    0    0  0.00000000000E+00  0.00000000000E+00  0.23026952831E+04  0.40287775075E+04  0.33058497604E+04 0.  0.
        5    1    3    3  502    0  0.11709032894E+03 -0.11888761191E+04  0.25435288250E+04  0.28101063227E+04  0.46999998093E+01 0.  1.
       -5    1    3    3    0  502 -0.11709032894E+03  0.11888761191E+04 -0.24083354190E+03  0.12186711848E+04  0.46999998093E+01 0. -1.
</event>
<event>
 5   0  0.6426079E-07  0.3288093E+04  0.7818609E-02  0.8165932E-01
       -2   -1    0    0    0  501  0.00000000000E+00  0.00000000000E+00  0.14947327579E+04  0.14947327579E+04  0.25500000920E-02 0. -1.
        2   -1    0    0  501    0  0.00000000000E+00  0.00000000000E+00 -0.18082762180E+04  0.18082762180E+04  0.25500000920E-02 0.  1.
    10030    2    1    2    0    0  0.00000000000E+00  0.00000000000E+00 -0.31354346007E+03  0.33030089760E+04  0.32880934892E+04 0.  0.
        4    1    3    3  502    0  0.74981170835E+03 -0.99327717367E+03 -0.12359218172E+04  0.17539445524E+04  0.12699999809E+01 0.  1.
       -4    1    3    3    0  502 -0.74981170835E+03  0.99327717367E+03  0.92237835715E+03  0.15490644236E+04  0.12699999809E+01 0. -1.
</event>
<event>
 5   0  0.2087665E-07  0.3287094E+04  0.7818609E-02  0.8166187E-01
       -1   -1    0    0    0  501  0.00000000000E+00  0.00000000000E+00  0.13851158189E+04  0.13851158189E+04  0.50400001928E-02 0.  1.
        1   -1    0    0  501    0  0.00000000000E+00  0.00000000000E+00 -0.19501959340E+04  0.19501959340E+04  0.50400001928E-02 0. -1.
    10030    2    1    2    0    0  0.00000000000E+00  0.00000000000E+00 -0.56508011505E+03  0.33353117529E+04  0.32870943024E+04 0.  0.
        5    1    3    3  502    0  0.52515083451E+03 -0.40654444351E+03  0.12428966251E+04  0.14092110893E+04  0.46999998093E+01 0.  1.
       -5    1    3    3    0  502 -0.52515083451E+03  0.40654444351E+03 -0.18079767402E+04  0.19261006636E+04  0.46999998093E+01 0. -1.
</event>
<event>
 5   0  0.6424183E-07  0.3321202E+04  0.7818609E-02  0.8157522E-01
        2   -1    0    0  501    0  0.00000000000E+00  0.00000000000E+00  0.21880887890E+04  0.21880887890E+04  0.25500000920E-02 0.  1.
       -2   -1    0    0    0  501  0.00000000000E+00  0.00000000000E+00 -0.12602756305E+04  0.12602756305E+04  0.25500000920E-02 0. -1.
    10030    2    1    2    0    0  0.00000000000E+00  0.00000000000E+00  0.92781315854E+03  0.34483644195E+04  0.33212015766E+04 0.  0.
        2    1    3    3  502    0  0.33715269047E+00  0.10405400298E+04 -0.87981298890E+03  0.13626424926E+04  0.25500000920E-02 0. -1.
       -2    1    3    3    0  502 -0.33715269047E+00 -0.10405400298E+04  0.18076261474E+04  0.20857219269E+04  0.25500000920E-02 0.  1.
</event>
<event>
 5   0  0.6377741E-07  0.3302926E+04  0.7818609E-02  0.8162151E-01
       -2   -1    0    0    0  501  0.00000000000E+00  0.00000000000E+00  0.12145168546E+04  0.12145168546E+04  0.25500000920E-02 0. -1.
        2   -1    0    0  501    0  0.00000000000E+00  0.00000000000E+00 -0.22456094058E+04  0.22456094058E+04  0.25500000920E-02 0.  1.
    10030    2    1    2    0    0  0.00000000000E+00  0.00000000000E+00 -0.10310925512E+04  0.34601262604E+04  0.33029262615E+04 0.  0.
        1    1    3    3  502    0 -0.85307194895E+03  0.10059090567E+04 -0.15567018783E+04  0.20403199549E+04  0.50400001928E-02 0.  1.
       -1    1    3    3    0  502  0.85307194895E+03 -0.10059090567E+04  0.52560932712E+03  0.14198063055E+04  0.50400001928E-02 0. -1.
</event>
<event>
 5   0  0.2080770E-07  0.3301356E+04  0.7818609E-02  0.8162550E-01
       -1   -1    0    0    0  501  0.00000000000E+00  0.00000000000E+00  0.29554293051E+04  0.29554293052E+04  0.50400001928E-02 0. -1.
        1   -1    0    0  501    0  0.00000000000E+00  0.00000000000E+00 -0.92194327378E+03  0.92194327379E+03  0.50400001928E-02 0.  1.
    10030    2    1    2    0    0  0.00000000000E+00  0.00000000000E+00  0.20334860314E+04  0.38773725789E+04  0.33013561874E+04 0.  0.
        4    1    3    3  502    0 -0.92586663908E+03  0.12780210596E+04  0.44840004181E+03  0.16406191126E+04  0.12699999809E+01 0. -1.
       -4    1    3    3    0  502  0.92586663908E+03 -0.12780210596E+04  0.15850859896E+04  0.22367534664E+04  0.12699999809E+01 0.  1.
</event>
<event>
 5   0  0.6377741E-07  0.3298360E+04  0.7818609E-02  0.8163313E-01
       -2   -1    0    0    0  501  0.00000000000E+00  0.00000000000E+00  0.12039894301E+04  0.12039894301E+04  0.25500000920E-02 0.  1.
        2   -1    0    0  501    0  0.00000000000E+00  0.00000000000E+00 -0.22589852138E+04  0.22589852138E+04  0.25500000920E-02 0. -1.
    10030    2    1    2    0    0  0.00000000000E+00  0.00000000000E+00 -0.10549957837E+04  0.34629746439E+04  0.32983597865E+04 0.  0.
        1    1    3    3  502    0 -0.16015927195E+04  0.37653273245E+03 -0.64682853783E+03  0.17678414225E+04  0.50400001928E-02 0. -1.
       -1    1    3    3    0  502  0.16015927195E+04 -0.37653273245E+03 -0.40816724582E+03  0.16951332214E+04  0.50400001928E-02 0.  1.
</event>
<event>
 5   0  0.2057130E-07  0.3298605E+04  0.7818609E-02  0.8163250E-01
       -1   -1    0    0    0  501  0.00000000000E+00  0.00000000000E+00  0.11122505612E+04  0.11122505612E+04  0.50400001928E-02 0. -1.
        1   -1    0    0  501    0  0.00000000000E+00  0.00000000000E+00 -0.24456710246E+04  0.24456710246E+04  0.50400001928E-02 0.  1.
    10030    2    1    2    0    0  0.00000000000E+00  0.00000000000E+00 -0.13334204633E+04  0.35579215858E+04  0.32986051414E+04 0.  0.
        2    1    3    3  502    0 -0.74624197631E+02 -0.15785377883E+03  0.11022536349E+04  0.11159971604E+04  0.25500000920E-02 0. -1.
       -2    1    3    3    0  502  0.74624197631E+02  0.15785377883E+03 -0.24356740982E+04  0.24419244254E+04  0.25500000920E-02 0.  1.
</event>
<event>
 5   0  0.6426079E-07  0.3188789E+04  0.7818609E-02  0.8191784E-01
       -2   -1    0    0    0  501  0.00000000000E+00  0.00000000000E+00  0.13851519623E+04  0.13851519623E+04  0.25500000920E-02 0. -1.
        2   -1    0    0  501    0  0.00000000000E+00  0.00000000000E+00 -0.18352456584E+04  0.18352456584E+04  0.25500000920E-02 0.  1.
    10030    2    1    2    0    0  0.00000000000E+00  0.00000000000E+00 -0.45009369615E+03  0.32203976207E+04  0.31887891903E+04 0.  0.
        4    1    3    3  502    0 -0.12298703817E+04 -0.16485690147E+03  0.78604317133E+03  0.14688854393E+04  0.12699999809E+01 0.  1.
       -4    1    3    3    0  502  0.12298703817E+04  0.16485690147E+03 -0.12361368675E+04  0.17515121814E+04  0.12699999809E+01 0. -1.
</event>
<event>
 5   0  0.6351753E-07  0.3292132E+04  0.7818609E-02  0.8164900E-01
       -2   -1    0    0    0  501  0.00000000000E+00  0.00000000000E+00  0.25579260465E+04  0.25579260465E+04  0.25500000920E-02 0. -1.
        2   -1    0    0  501    0  0.00000000000E+00  0.00000000000E+00 -0.10592699081E+04  0.10592699082E+04  0.25500000920E-02 0.  1.
    10030    2    1    2    0    0  0.00000000000E+00  0.00000000000E+00  0.14986561383E+04  0.36171959546E+04  0.32921324933E+04 0.  0.
        3    1    3    3  502    0 -0.11663995494E+03  0.22958183561E+03 -0.10370011432E+04  0.10684961767E+04  0.10100000352E+00 0.  1.
       -3    1    3    3    0  502  0.11663995494E+03 -0.22958183561E+03  0.25356572816E+04  0.25486997780E+04  0.10100000352E+00 0. -1.
</event>
<event>
 5   0  0.2057130E-07  0.3287918E+04  0.7818609E-02  0.8165976E-01
        1   -1    0    0  501    0  0.00000000000E+00  0.00000000000E+00  0.94791957556E+03  0.94791957558E+03  0.50400001928E-02 0. -1.
       -1   -1    0    0    0  501  0.00000000000E+00  0.00000000000E+00 -0.28510876487E+04  0.28510876487E+04  0.50400001928E-02 0.  1.
    10030    2    1    2    0    0  0.00000000000E+00  0.00000000000E+00 -0.19031680731E+04  0.37990072243E+04  0.32879183651E+04 0.  0.
        2    1    3    3  502    0 -0.62876446331E+03  0.31741461237E+03 -0.26679170339E+04  0.27593256579E+04  0.25500000920E-02 0.  1.
       -2    1    3    3    0  502  0.62876446331E+03 -0.31741461237E+03  0.76474896078E+03  0.10396815664E+04  0.25500000920E-02 0. -1.
</event>
<event>
 5   0  0.2080828E-07  0.3303785E+04  0.7818609E-02  0.8161933E-01
       -1   -1    0    0    0  501  0.00000000000E+00  0.00000000000E+00  0.31897643816E+04  0.31897643816E+04  0.50400001928E-02 0. -1.
        1   -1    0    0  501    0  0.00000000000E+00  0.00000000000E+00 -0.85547042675E+03  0.85547042676E+03  0.50400001928E-02 0.  1.
    10030    2    1    2    0    0  0.00000000000E+00  0.00000000000E+00  0.23342939548E+04  0.40452348083E+04  0.33037851605E+04 0.  0.
        1    1    3    3  502    0  0.13344719236E+04  0.52047667646E+03  0.21746315378E+04  0.26039841802E+04  0.50400001928E-02 0. -1.
       -1    1    3    3    0  502 -0.13344719236E+04 -0.52047667646E+03  0.15966241700E+03  0.14412506281E+04  0.50400001928E-02 0.  1.
</event>
<event>
 5   0  0.2037333E-07  0.3287690E+04  0.7818609E-02  0.8166035E-01
        1   -1    0    0  501    0  0.00000000000E+00  0.00000000000E+00  0.20778873031E+04  0.20778873031E+04  0.50400001928E-02 0. -1.
       -1   -1    0    0    0  501  0.00000000000E+00  0.00000000000E+00 -0.13004684510E+04  0.13004684510E+04  0.50400001928E-02 0.  1.
    10030    2    1    2    0    0  0.00000000000E+00  0.00000000000E+00  0.77741885211E+03  0.33783557541E+04  0.32876903032E+04 0.  0.
        3    1    3    3  502    0  0.20601434806E+03 -0.15775258551E+04  0.81387953921E+03  0.17870169696E+04  0.10100000352E+00 0. -1.
       -3    1    3    3    0  502 -0.20601434806E+03  0.15775258551E+04 -0.36460687099E+02  0.15913387845E+04  0.10100000352E+00 0.  1.
</event>
<event>
 5   0  0.2037333E-07  0.3253713E+04  0.7818609E-02  0.8174774E-01
        1   -1    0    0  501    0  0.00000000000E+00  0.00000000000E+00  0.25251232301E+04  0.25251232301E+04  0.50400001928E-02 0.  1.
       -1   -1    0    0    0  501  0.00000000000E+00  0.00000000000E+00 -0.10481317321E+04  0.10481317321E+04  0.50400001928E-02 0. -1.
    10030    2    1    2    0    0  0.00000000000E+00  0.00000000000E+00  0.14769914980E+04  0.35732549622E+04  0.32537128238E+04 0.  0.
        3    1    3    3  502    0  0.57146039767E+03  0.10002383433E+03 -0.93066913165E+03  0.10966844561E+04  0.10100000352E+00 0. -1.
       -3    1    3    3    0  502 -0.57146039767E+03 -0.10002383433E+03  0.24076606297E+04  0.24765705060E+04  0.10100000352E+00 0.  1.
</event>
<event>
 5   0  0.6351753E-07  0.3291971E+04  0.7818609E-02  0.8164941E-01
       -2   -1    0    0    0  501  0.00000000000E+00  0.00000000000E+00  0.15526161454E+04  0.15526161454E+04  0.25500000920E-02 0. -1.
        2   -1    0    0  501    0  0.00000000000E+00  0.00000000000E+00 -0.17449696769E+04  0.17449696769E+04  0.25500000920E-02 0.  1.
    10030    2    1    2    0    0  0.00000000000E+00  0.00000000000E+00 -0.19235353147E+03  0.32975858222E+04  0.32919708951E+04 0.  0.
        3    1    3    3  502    0 -0.13415148879E+04  0.87969007848E+03 -0.46524957155E+03  0.16703215267E+04  0.10100000352E+00 0.  1.
       -3    1    3    3    0  502  0.13415148879E+04 -0.87969007848E+03  0.27289604009E+03  0.16272642955E+04  0.10100000352E+00 0. -1.
</event>
<event>
 5   0  0.6258718E-07  0.3305765E+04  0.7818609E-02  0.8161430E-01
        2   -1    0    0  501    0  0.00000000000E+00  0.00000000000E+00  0.15033376514E+04  0.15033376514E+04  0.25500000920E-02 0.  1.
       -2   -1    0    0    0  501  0.00000000000E+00  0.00000000000E+00 -0.18173032663E+04  0.18173032663E+04  0.25500000920E-02 0. -1.
    10030    2    1    2    0    0  0.00000000000E+00  0.00000000000E+00 -0.31396561487E+03  0.33206409176E+04  0.33057649185E+04 0.  0.
        5    1    3    3  502    0 -0.44875056817E+03  0.14013588725E+03 -0.17487217866E+04  0.18108189077E+04  0.46999998093E+01 0. -1.
       -5    1    3    3    0  502  0.44875056817E+03 -0.14013588725E+03  0.14347561718E+04  0.15098220100E+04  0.46999998093E+01 0.  1.
</event>
<event>
 5   0  0.6424183E-07  0.3302372E+04  0.7818609E-02  0.8162292E-01
       -2   -1    0    0    0  501  0.00000000000E+00  0.00000000000E+00  0.14498120995E+04  0.14498120995E+04  0.25500000920E-02 0. -1.
        2   -1    0    0  501    0  0.00000000000E+00  0.00000000000E+00 -0.18805304169E+04  0.18805304169E+04  0.25500000920E-02 0.  1.
    10030    2    1    2    0    0  0.00000000000E+00  0.00000000000E+00 -0.43071831732E+03  0.33303425164E+04  0.33023723303E+04 0.  0.
        2    1    3    3  502    0  0.26778501020E+03 -0.99193575883E+03  0.10881714998E+04  0.14965836342E+04  0.25500000920E-02 0. -1.
       -2    1    3    3    0  502 -0.26778501020E+03  0.99193575883E+03 -0.15188898171E+04  0.18337588821E+04  0.25500000920E-02 0.  1.
</event>
<event>
 5   0  0.2037333E-07  0.3287494E+04  0.7818609E-02  0.8166085E-01
       -1   -1    0    0    0  501  0.00000000000E+00  0.00000000000E+00  0.10547146397E+04  0.10547146397E+04  0.50400001928E-02 0.  1.
        1   -1    0    0  501    0  0.00000000000E+00  0.00000000000E+00 -0.25617388414E+04  0.25617388414E+04  0.50400001928E-02 0. -1.
    10030    2    1    2    0    0  0.00000000000E+00  0.00000000000E+00 -0.15070242017E+04  0.36164534812E+04  0.32874935493E+04 0.  0.
        3    1    3    3  502    0  0.83434262124E+03 -0.89420475799E+03  0.45464357719E+03  0.13047722220E+04  0.10100000352E+00 0.  1.
       -3    1    3    3    0  502 -0.83434262124E+03  0.89420475799E+03 -0.19616677789E+04  0.23116812591E+04  0.10100000352E+00 0. -1.
</event>
<event>
 5   0  0.6424183E-07  0.3296816E+04  0.7818609E-02  0.8163706E-01
       -2   -1    0    0    0  501  0.00000000000E+00  0.00000000000E+00  0.18022807889E+04  0.18022807889E+04  0.25500000920E-02 0.  1.
        2   -1    0    0  501    0  0.00000000000E+00  0.00000000000E+00 -0.15076725902E+04  0.15076725902E+04  0.25500000920E-02 0. -1.
    10030    2    1    2    0    0  0.00000000000E+00  0.00000000000E+00  0.29460819874E+03  0.33099533791E+04  0.32968162492E+04 0.  0.
        2    1    3    3  502    0 -0.51559913587E+03 -0.13008456479E+04 -0.72749307757E+03  0.15771138344E+04  0.25500000920E-02 0. -1.
       -2    1    3    3    0  502  0.51559913587E+03  0.13008456479E+04  0.10221012763E+04  0.17328395447E+04  0.25500000920E-02 0.  1.
</event>
<event>
 5   0  0.2080828E-07  0.3300105E+04  0.7818609E-02  0.8162869E-01
        1   -1    0    0  501    0  0.00000000000E+00  0.00000000000E+00  0.18593168782E+04  0.18593168782E+04  0.50400001928E-02 0. -1.
       -1   -1    0    0    0  501  0.00000000000E+00  0.00000000000E+00 -0.14643410012E+04  0.14643410013E+04  0.50400001928E-02 0.  1.
    10030    2    1    2    0    0  0.00000000000E+00  0.00000000000E+00  0.39497587699E+03  0.33236578795E+04  0.33001054160E+04 0.  0.
        1    1    3    3  502    0 -0.41551791576E+03 -0.55470461726E+03  0.17056133216E+04  0.18410511002E+04  0.50400001928E-02 0. -1.
       -1    1    3    3    0  502  0.41551791576E+03  0.55470461726E+03 -0.13106374446E+04  0.14826067793E+04  0.50400001928E-02 0.  1.
</event>
<event>
 5   0  0.2087665E-07  0.3324636E+04  0.7818609E-02  0.8156655E-01
        1   -1    0    0  501    0  0.00000000000E+00  0.00000000000E+00  0.13675456140E+04  0.13675456140E+04  0.50400001928E-02 0. -1.
       -1   -1    0    0    0  501  0.00000000000E+00  0.00000000000E+00 -0.20206283973E+04  0.20206283973E+04  0.50400001928E-02 0.  1.
    10030    2    1    2    0    0  0.00000000000E+00  0.00000000000E+00 -0.65308278329E+03  0.33881740113E+04  0.33246362221E+04 0.  0.
        5    1    3    3  502    0 -0.87890331895E+02  0.15698513917E+04 -0.87640955212E+03  0.18000760805E+04  0.46999998093E+01 0.  1.
       -5    1    3    3    0  502  0.87890331895E+02 -0.15698513917E+04  0.22332676883E+03  0.15880979309E+04  0.46999998093E+01 0. -1.
</event>
<event>
 5   0  0.6426079E-07  0.3269189E+04  0.7818609E-02  0.8170780E-01
        2   -1    0    0  501    0  0.00000000000E+00  0.00000000000E+00  0.22352920511E+04  0.22352920511E+04  0.25500000920E-02 0.  1.
       -2   -1    0    0    0  501  0.00000000000E+00  0.00000000000E+00 -0.11953241200E+04  0.11953241200E+04  0.25500000920E-02 0. -1.
    10030    2    1    2    0    0  0.00000000000E+00  0.00000000000E+00  0.10399679311E+04  0.34306161710E+04  0.32691885867E+04 0.  0.
        4    1    3    3  502    0 -0.85329641910E+02 -0.48237252515E+03  0.21564534593E+04  0.22113926688E+04  0.12699999809E+01 0.  1.
       -4    1    3    3    0  502  0.85329641910E+02  0.48237252515E+03 -0.11164855282E+04  0.12192235022E+04  0.12699999809E+01 0. -1.
</event>
<event>
 5   0  0.2037333E-07  0.3293728E+04  0.7818609E-02  0.8164493E-01
        1   -1    0    0  501    0  0.00000000000E+00  0.00000000000E+00  0.27780252261E+04  0.27780252261E+04  0.50400001928E-02 0.  1.
       -1   -1    0    0    0  501  0.00000000000E+00  0.00000000000E+00 -0.97629081639E+03  0.97629081640E+03  0.50400001928E-02 0. -1.
    10030    2    1    2    0    0  0.00000000000E+00  0.00000000000E+00  0.18017344097E+04  0.37543160425E+04  0.32937276852E+04 0.  0.
        3    1    3    3  502    0  0.39926332928E+03  0.50957548031E+02  0.27210970291E+04  0.27507048060E+04  0.10100000352E+00 0.  1.
       -3    1    3    3    0  502 -0.39926332928E+03 -0.50957548031E+02 -0.91936261941E+03  0.10036112365E+04  0.10100000352E+00 0. -1.
</event>
<event>
 5   0  0.2080828E-07  0.3307093E+04  0.7818609E-02  0.8161093E-01
       -1   -1    0    0    0  501  0.00000000000E+00  0.00000000000E+00  0.13880303220E+04  0.13880303220E+04  0.50400001928E-02 0. -1.
        1   -1    0    0  501    0  0.00000000000E+00  0.00000000000E+00 -0.19698530119E+04  0.19698530119E+04  0.50400001928E-02 0.  1.
    10030    2    1    2    0    0  0.00000000000E+00  0.00000000000E+00 -0.58182268996E+03  0.33578833339E+04  0.33070928081E+04 0.  0.
        1    1    3    3  502    0 -0.13108209898E+04  0.30048562544E+02  0.73206435671E+03  0.15016899833E+04  0.50400001928E-02 0. -1.
       -1    1    3    3    0  502  0.13108209898E+04 -0.30048562544E+02 -0.13138870467E+04  0.18561933506E+04  0.50400001928E-02 0.  1.
</event>
<event>
 5   0  0.2057130E-07  0.3299933E+04  0.7818609E-02  0.8162913E-01
        1   -1    0    0  501    0  0.00000000000E+00  0.00000000000E+00  0.26495879112E+04  0.26495879112E+04  0.50400001928E-02 0.  1.
       -1   -1    0    0    0  501  0.00000000000E+00  0.00000000000E+00 -0.10274763375E+04  0.10274763375E+04  0.50400001928E-02 0. -1.
    10030    2    1    2    0    0  0.00000000000E+00  0.00000000000E+00  0.16221115737E+04  0.36770642487E+04  0.32999326557E+04 0.  0.
        2    1    3    3  502    0  0.12088802829E+04  0.90775813168E+03  0.15476413523E+04  0.21634717746E+04  0.25500000920E-02 0. -1.
       -2    1    3    3    0  502 -0.12088802829E+04 -0.90775813168E+03  0.74470221419E+02  0.15135924742E+04  0.25500000920E-02 0.  1.
</event>
<event>
 5   0  0.2080770E-07  0.3296898E+04  0.7818609E-02  0.8163685E-01
        1   -1    0    0  501    0  0.00000000000E+00  0.00000000000E+00  0.13252425230E+04  0.13252425230E+04  0.50400001928E-02 0. -1.
       -1   -1    0    0    0  501  0.00000000000E+00  0.00000000000E+00 -0.20504809465E+04  0.20504809465E+04  0.50400001928E-02 0.  1.
    10030    2    1    2    0    0  0.00000000000E+00  0.00000000000E+00 -0.72523842350E+03  0.33757234695E+04  0.32968982653E+04 0.  0.
        4    1    3    3  502    0 -0.40158675867E+03 -0.14936342879E+04 -0.94648760060E+03  0.18132996723E+04  0.12699999809E+01 0.  1.
       -4    1    3    3    0  502  0.40158675867E+03  0.14936342879E+04  0.22124917711E+03  0.15624237972E+04  0.12699999809E+01 0. -1.
</event>
<event>
 5   0  0.1994250E-07  0.3292464E+04  0.7818609E-02  0.8164816E-01
       -3   -1    0    0    0  501  0.00000000000E+00  0.00000000000E+00  0.13546313539E+04  0.13546313576E+04  0.10100000352E+00 0.  1.
        3   -1    0    0  501    0  0.00000000000E+00  0.00000000000E+00 -0.20006032567E+04  0.20006032593E+04  0.10100000352E+00 0. -1.
    10030    2    1    2    0    0  0.00000000000E+00  0.00000000000E+00 -0.64597190284E+03  0.33552346169E+04  0.32924640674E+04 0.  0.
        3    1    3    3  502    0  0.14955429983E+04  0.20725040186E+03 -0.99160306257E+03  0.18063438855E+04  0.10100000352E+00 0. -1.
       -3    1    3    3    0  502 -0.14955429983E+04 -0.20725040186E+03  0.34563115973E+03  0.15488907314E+04  0.10100000352E+00 0.  1.
</event>
<event>
 5   0  0.6377741E-07  0.3272631E+04  0.7818609E-02  0.8169895E-01
        2   -1    0    0  501    0  0.00000000000E+00  0.00000000000E+00  0.26980538051E+04  0.26980538051E+04  0.25500000920E-02 0.  1.
       -2   -1    0    0    0  501  0.00000000000E+00  0.00000000000E+00 -0.99239228796E+03  0.99239228796E+03  0.25500000920E-02 0. -1.
    10030    2    1    2    0    0  0.00000000000E+00  0.00000000000E+00  0.17056615171E+04  0.36904460930E+04  0.32726306169E+04 0.  0.
        1    1    3    3  502    0  0.12050279044E+04  0.46887961073E+03 -0.27798486169E+03  0.13225792691E+04  0.50400001928E-02 0. -1.
       -1    1    3    3    0  502 -0.12050279044E+04 -0.46887961073E+03  0.19836463788E+04  0.23678668239E+04  0.50400001928E-02 0.  1.
</event>
<event>
 5   0  0.2057130E-07  0.3307214E+04  0.7818609E-02  0.8161062E-01
       -1   -1    0    0    0  501  0.00000000000E+00  0.00000000000E+00  0.12686122811E+04  0.12686122811E+04  0.50400001928E-02 0.  1.
        1   -1    0    0  501    0  0.00000000000E+00  0.00000000000E+00 -0.21554389941E+04  0.21554389941E+04  0.50400001928E-02 0. -1.
    10030    2    1    2    0    0  0.00000000000E+00  0.00000000000E+00 -0.88682671298E+03  0.34240512753E+04  0.33072141625E+04 0.  0.
        2    1    3    3  502    0 -0.10475687817E+04  0.19059430897E+03 -0.17532934261E+04  0.20512835935E+04  0.25500000920E-02 0. -1.
       -2    1    3    3    0  502  0.10475687817E+04 -0.19059430897E+03  0.86646671312E+03  0.13727676817E+04  0.25500000920E-02 0.  1.
</event>
<event>
 5   0  0.6351753E-07  0.3305637E+04  0.7818609E-02  0.8161462E-01
        2   -1    0    0  501    0  0.00000000000E+00  0.00000000000E+00  0.23723937731E+04  0.23723937731E+04  0.25500000920E-02 0.  1.
       -2   -1    0    0    0  501  0.00000000000E+00  0.00000000000E+00 -0.11514992035E+04  0.11514992035E+04  0.25500000920E-02 0. -1.
    10030    2    1    2    0    0  0.00000000000E+00  0.00000000000E+00  0.12208945696E+04  0.35238929766E+04  0.33056373304E+04 0.  0.
        3    1    3    3  502    0 -0.61016498324E+03 -0.32375031116E+03 -0.99025773304E+03  0.12073632257E+04  0.10100000352E+00 0. -1.
       -3    1    3    3    0  502  0.61016498324E+03  0.32375031116E+03  0.22111523027E+04  0.23165297509E+04  0.10100000352E+00 0.  1.
</event>
<event>
 5   0  0.2080828E-07  0.3332674E+04  0.7818609E-02  0.8154631E-01
        1   -1    0    0  501    0  0.00000000000E+00  0.00000000000E+00  0.21387294395E+04  0.21387294395E+04  0.50400001928E-02 0.  1.
       -1   -1    0    0    0  501  0.00000000000E+00  0.00000000000E+00 -0.12982844052E+04  0.12982844052E+04  0.50400001928E-02 0. -1.
    10030    2    1    2    0    0  0.00000000000E+00  0.00000000000E+00  0.84044503424E+03  0.34370138447E+04  0.33326740484E+04 0.  0.
        1    1    3    3  502    0  0.27360815907E+03  0.72387742051E+03 -0.11017238433E+04  0.13463489041E+04  0.50400001928E-02 0. -1.
       -1    1    3    3    0  502 -0.27360815907E+03 -0.72387742051E+03  0.19421688776E+04  0.20906649406E+04  0.50400001928E-02 0.  1.
</event>
<event>
 5   0  0.6377741E-07  0.3298487E+04  0.7818609E-02  0.8163280E-01
        2   -1    0    0  501    0  0.00000000000E+00  0.00000000000E+00  0.12944661571E+04  0.12944661571E+04  0.25500000920E-02 0. -1.
       -2   -1    0    0    0  501  0.00000000000E+00  0.00000000000E+00 -0.21012559085E+04  0.21012559085E+04  0.25500000920E-02 0.  1.
    10030    2    1    2    0    0  0.00000000000E+00  0.00000000000E+00 -0.80678975135E+03  0.33957220656E+04  0.32984873266E+04 0.  0.
        1    1    3    3  502    0 -0.10679326922E+04  0.15923673922E+03 -0.16868075103E+04  0.20027870958E+04  0.50400001928E-02 0.  1.
       -1    1    3    3    0  502  0.10679326922E+04 -0.15923673922E+03  0.88001775897E+03  0.13929349698E+04  0.50400001928E-02 0. -1.
</event>
<event>
 5   0  0.2037333E-07  0.3298309E+04  0.7818609E-02  0.8163326E-01
        1   -1    0    0  501    0  0.00000000000E+00  0.00000000000E+00  0.28943169622E+04  0.28943169622E+04  0.50400001928E-02 0.  1.
       -1   -1    0    0    0  501  0.00000000000E+00  0.00000000000E+00 -0.93967242694E+03  0.93967242695E+03  0.50400001928E-02 0. -1.
    10030    2    1    2    0    0  0.00000000000E+00  0.00000000000E+00  0.19546445353E+04  0.38339893892E+04  0.32983085631E+04 0.  0.
        3    1    3    3  502    0  0.12447142816E+04 -0.10757581727E+04  0.11105719906E+04  0.19849280706E+04  0.10100000352E+00 0. -1.
       -3    1    3    3    0  502 -0.12447142816E+04  0.10757581727E+04  0.84407254467E+03  0.18490613186E+04  0.10100000352E+00 0.  1.
</event>
<event>
 5   0  0.6426079E-07  0.3304238E+04  0.7818609E-02  0.8161818E-01
        2   -1    0    0  501    0  0.00000000000E+00  0.00000000000E+00  0.25100290477E+04  0.25100290477E+04  0.25500000920E-02 0. -1.
       -2   -1    0    0    0  501  0.00000000000E+00  0.00000000000E+00 -0.10874363124E+04  0.10874363124E+04  0.25500000920E-02 0.  1.
    10030    2    1    2    0    0  0.00000000000E+00  0.00000000000E+00  0.14225927353E+04  0.35974653601E+04  0.33042377225E+04 0.  0.
        4    1    3    3  502    0  0.16464454447E+04 -0.68896930449E+02  0.58263233904E+03  0.17478533820E+04  0.12699999809E+01 0.  1.
       -4    1    3    3    0  502 -0.16464454447E+04  0.68896930449E+02  0.83996039623E+03  0.18496119781E+04  0.12699999809E+01 0. -1.
</event>
<event>
 5   0  0.6426079E-07  0.3275602E+04  0.7818609E-02  0.8169131E-01
       -2   -1    0    0    0  501  0.00000000000E+00  0.00000000000E+00  0.17385683715E+04  0.17385683715E+04  0.25500000920E-02 0. -1.
        2   -1    0    0  501    0  0.00000000000E+00  0.00000000000E+00 -0.15428741564E+04  0.15428741564E+04  0.25500000920E-02 0.  1.
    10030    2    1    2    0    0  0.00000000000E+00  0.00000000000E+00  0.19569421513E+03  0.32814425279E+04  0.32756020574E+04 0.  0.
        4    1    3    3  502    0 -0.96154481434E+03  0.55391652135E+03  0.13045689447E+04  0.17126861028E+04  0.12699999809E+01 0. -1.
       -4    1    3    3    0  502  0.96154481434E+03 -0.55391652135E+03 -0.11088747295E+04  0.15687564251E+04  0.12699999809E+01 0.  1.
</event>
<event>
 5   0  0.6258718E-07  0.3301430E+04  0.7818609E-02  0.8162532E-01
        2   -1    0    0  501    0  0.00000000000E+00  0.00000000000E+00  0.25855819783E+04  0.25855819783E+04  0.25500000920E-02 0.  1.
       -2   -1    0    0    0  501  0.00000000000E+00  0.00000000000E+00 -0.10538669688E+04  0.10538669688E+04  0.25500000920E-02 0. -1.
    10030    2    1    2    0    0  0.00000000000E+00  0.00000000000E+00  0.15317150095E+04  0.36394489471E+04  0.33014296552E+04 0.  0.
        5    1    3    3  502    0  0.42975931659E+01 -0.28464734103E+03 -0.10265941607E+04  0.10653451266E+04  0.46999998093E+01 0. -1.
       -5    1    3    3    0  502 -0.42975931659E+01  0.28464734103E+03  0.25583091702E+04  0.25741038204E+04  0.46999998093E+01 0.  1.
</event>
<event>
 5   0  0.6424183E-07  0.3304259E+04  0.7818609E-02  0.8161812E-01
       -2   -1    0    0    0  501  0.00000000000E+00  0.00000000000E+00  0.13519389999E+04  0.13519389999E+04  0.25500000920E-02 0.  1.
        2   -1    0    0  501    0  0.00000000000E+00  0.00000000000E+00 -0.20189759490E+04  0.20189759490E+04  0.25500000920E-02 0. -1.
    10030    2    1    2    0    0  0.00000000000E+00  0.00000000000E+00 -0.66703694911E+03  0.33709149489E+04  0.33042592666E+04 0.  0.
        2    1    3    3  502    0 -0.39015173496E+03 -0.65855981839E+03 -0.18271616567E+04  0.19810197198E+04  0.25500000920E-02 0. -1.
       -2    1    3    3    0  502  0.39015173496E+03  0.65855981839E+03  0.11601247076E+04  0.13898952291E+04  0.25500000920E-02 0.  1.
</event>
<event>
 5   0  0.6351753E-07  0.3289449E+04  0.7818609E-02  0.8165585E-01
       -2   -1    0    0    0  501  0.00000000000E+00  0.00000000000E+00  0.21400180940E+04  0.21400180940E+04  0.25500000920E-02 0.  1.
        2   -1    0    0  501    0  0.00000000000E+00  0.00000000000E+00 -0.12640631679E+04  0.12640631679E+04  0.25500000920E-02 0. -1.
    10030    2    1    2    0    0  0.00000000000E+00  0.00000000000E+00  0.87595492610E+03  0.34040812619E+04  0.32894486172E+04 0.  0.
        3    1    3    3  502    0  0.49370639102E+03  0.65755944786E+03  0.19120420403E+04  0.20813541750E+04  0.10100000352E+00 0.  1.
       -3    1    3    3    0  502 -0.49370639102E+03 -0.65755944786E+03 -0.10360871142E+04  0.13227270869E+04  0.10100000352E+00 0. -1.
</event>
<event>
 5   0  0.6351753E-07  0.3292917E+04  0.7818609E-02  0.8164700E-01
       -2   -1    0    0    0  501  0.00000000000E+00  0.00000000000E+00  0.14264464246E+04  0.14264464246E+04  0.25500000920E-02 0. -1.
        2   -1    0    0  501    0  0.00000000000E+00  0.00000000000E+00 -0.19004050834E+04  0.19004050834E+04  0.25500000920E-02 0.  1.
    10030    2    1    2    0    0  0.00000000000E+00  0.00000000000E+00 -0.47395865884E+03  0.33268515080E+04  0.32929172698E+04 0.  0.
        3    1    3    3  502    0  0.91238620831E+03  0.85235717961E+03  0.84733032898E+03  0.15089499831E+04  0.10100000352E+00 0. -1.
       -3    1    3    3    0  502 -0.91238620831E+03 -0.85235717961E+03 -0.13212889878E+04  0.18179015249E+04  0.10100000352E+00 0.  1.
</event>
<event>
 5   0  0.6424183E-07  0.3259706E+04  0.7818609E-02  0.8173224E-01
        2   -1    0    0  501    0  0.00000000000E+00  0.00000000000E+00  0.22269865925E+04  0.22269865925E+04  0.25500000920E-02 0. -1.
       -2   -1    0    0    0  501  0.00000000000E+00  0.00000000000E+00 -0.11928322208E+04  0.11928322208E+04  0.25500000920E-02 0.  1.
    10030    2    1    2    0    0  0.00000000000E+00  0.00000000000E+00  0.10341543716E+04  0.34198188133E+04  0.32597063444E+04 0.  0.
        2    1    3    3  502    0  0.49330295798E+03  0.14624322996E+04 -0.32450060078E+02  0.15437321807E+04  0.25500000920E-02 0.  1.
       -2    1    3    3    0  502 -0.49330295798E+03 -0.14624322996E+04  0.10666044317E+04  0.18760866326E+04  0.25500000920E-02 0. -1.
</event>
<event>
 5   0  0.2057130E-07  0.3085850E+04  0.7818609E-02  0.8219632E-01
       -1   -1    0    0    0  501  0.00000000000E+00  0.00000000000E+00  0.97406546335E+03  0.97406546337E+03  0.50400001928E-02 0.  1.
        1   -1    0    0  501    0  0.00000000000E+00  0.00000000000E+00 -0.24440013707E+04  0.24440013707E+04  0.50400001928E-02 0. -1.
    10030    2    1    2    0    0  0.00000000000E+00  0.00000000000E+00 -0.14699359073E+04  0.34180668341E+04  0.30858498522E+04 0.  0.
        2    1    3    3  502    0  0.13017857661E+03 -0.89873885148E+03  0.64669492853E+03  0.11148508042E+04  0.25500000920E-02 0. -1.
       -2    1    3    3    0  502 -0.13017857661E+03  0.89873885148E+03 -0.21166308359E+04  0.23032160299E+04  0.25500000920E-02 0.  1.
</event>
<event>
 5   0  0.6351753E-07  0.3301425E+04  0.7818609E-02  0.8162533E-01
        2   -1    0    0  501    0  0.00000000000E+00  0.00000000000E+00  0.17207410215E+04  0.17207410215E+04  0.25500000920E-02 0.  1.
       -2   -1    0    0    0  501  0.00000000000E+00  0.00000000000E+00 -0.15835334620E+04  0.15835334620E+04  0.25500000920E-02 0. -1.
    10030    2    1    2    0    0  0.00000000000E+00  0.00000000000E+00  0.13720755947E+03  0.33042744835E+04  0.33014245331E+04 0.  0.
        3    1    3    3  502    0  0.21411141858E+02  0.11514401874E+04 -0.11150320249E+04  0.16029876384E+04  0.10100000352E+00 0. -1.
       -3    1    3    3    0  502 -0.21411141858E+02 -0.11514401874E+04  0.12522395844E+04  0.17012868450E+04  0.10100000352E+00 0.  1.
</event>
<event>
 5   0  0.2080828E-07  0.3317076E+04  0.7818609E-02  0.8158564E-01
        1   -1    0    0  501    0  0.00000000000E+00  0.00000000000E+00  0.16652868416E+04  0.16652868416E+04  0.50400001928E-02 0.  1.
       -1   -1    0    0    0  501  0.00000000000E+00  0.00000000000E+00 -0.16518168682E+04  0.16518168682E+04  0.50400001928E-02 0. -1.
    10030    2    1    2    0    0  0.00000000000E+00  0.00000000000E+00  0.13469973408E+02  0.33171037099E+04  0.33170763606E+04 0.  0.
        1    1    3    3  502    0  0.12177359681E+04 -0.59677872707E+03  0.96158481398E+03  0.16624292742E+04  0.50400001928E-02 0.  1.
       -1    1    3    3    0  502 -0.12177359681E+04  0.59677872707E+03 -0.94811484057E+03  0.16546744357E+04  0.50400001928E-02 0. -1.
</event>
<event>
 5   0  0.6377741E-07  0.3332490E+04  0.7818609E-02  0.8154677E-01
       -2   -1    0    0    0  501  0.00000000000E+00  0.00000000000E+00  0.15281587977E+04  0.15281587977E+04  0.25500000920E-02 0.  1.
        2   -1    0    0  501    0  0.00000000000E+00  0.00000000000E+00 -0.18168083258E+04  0.18168083258E+04  0.25500000920E-02 0. -1.
    10030    2    1    2    0    0  0.00000000000E+00  0.00000000000E+00 -0.28864952810E+03  0.33449671235E+04  0.33324895359E+04 0.  0.
        1    1    3    3  502    0 -0.13616443931E+04  0.65126418763E+03  0.56411612550E+03  0.16113495891E+04  0.50400001928E-02 0.  1.
       -1    1    3    3    0  502  0.13616443931E+04 -0.65126418763E+03 -0.85276565360E+03  0.17336175343E+04  0.50400001928E-02 0. -1.
</event>
<event>
 5   0  0.6424183E-07  0.3301673E+04  0.7818609E-02  0.8162470E-01
        2   -1    0    0  501    0  0.00000000000E+00  0.00000000000E+00  0.22276067898E+04  0.22276067898E+04  0.25500000920E-02 0. -1.
       -2   -1    0    0    0  501  0.00000000000E+00  0.00000000000E+00 -0.12234032975E+04  0.12234032975E+04  0.25500000920E-02 0.  1.
    10030    2    1    2    0    0  0.00000000000E+00  0.00000000000E+00  0.10042034923E+04  0.34510100873E+04  0.33016732074E+04 0.  0.
        2    1    3    3  502    0  0.50707165836E+03  0.15621241055E+04  0.32748844852E+03  0.16746946204E+04  0.25500000920E-02 0.  1.
       -2    1    3    3    0  502 -0.50707165836E+03 -0.15621241055E+04  0.67671504375E+03  0.17763154669E+04  0.25500000920E-02 0. -1.
</event>
<event>
 5   0  0.2080770E-07  0.3302669E+04  0.7818609E-02  0.8162217E-01
       -1   -1    0    0    0  501  0.00000000000E+00  0.00000000000E+00  0.18199273329E+04  0.18199273329E+04  0.50400001928E-02 0. -1.
        1   -1    0    0  501    0  0.00000000000E+00  0.00000000000E+00 -0.14983592264E+04  0.14983592264E+04  0.50400001928E-02 0.  1.
    10030    2    1    2    0    0  0.00000000000E+00  0.00000000000E+00  0.32156810644E+03  0.33182865593E+04  0.33026685639E+04 0.  0.
        4    1    3    3  502    0 -0.14937464499E+04  0.22172428313E+03 -0.51055470520E+03  0.15940852657E+04  0.12699999809E+01 0.  1.
       -4    1    3    3    0  502  0.14937464499E+04 -0.22172428313E+03  0.83212281163E+03  0.17242012936E+04  0.12699999809E+01 0. -1.
</event>
<event>
 5   0  0.6258718E-07  0.3294182E+04  0.7818609E-02  0.8164377E-01
       -2   -1    0    0    0  501  0.00000000000E+00  0.00000000000E+00  0.12430541338E+04  0.12430541338E+04  0.25500000920E-02 0. -1.
        2   -1    0    0  501    0  0.00000000000E+00  0.00000000000E+00 -0.21824537530E+04  0.21824537530E+04  0.25500000920E-02 0.  1.
    10030    2    1    2    0    0  0.00000000000E+00  0.00000000000E+00 -0.93939961924E+03  0.34255078869E+04  0.32941816341E+04 0.  0.
        5    1    3    3  502    0 -0.30174511185E+03 -0.63546429054E+03 -0.20183747328E+04  0.21374572812E+04  0.46999998093E+01 0.  1.
       -5    1    3    3    0  502  0.30174511185E+03  0.63546429054E+03  0.10789751135E+04  0.12880506056E+04  0.46999998093E+01 0. -1.
</event>
<event>
 5   0  0.2037333E-07  0.3304930E+04  0.7818609E-02  0.8161642E-01
       -1   -1    0    0    0  501  0.00000000000E+00  0.00000000000E+00  0.21608490781E+04  0.21608490781E+04  0.50400001928E-02 0.  1.
        1   -1    0    0  501    0  0.00000000000E+00  0.00000000000E+00 -0.12636886379E+04  0.12636886380E+04  0.50400001928E-02 0. -1.
    10030    2    1    2    0    0  0.00000000000E+00  0.00000000000E+00  0.89716044014E+03  0.34245377160E+04  0.33049299105E+04 0.  0.
        3    1    3    3  502    0 -0.52814167133E+03  0.12325716712E+04 -0.55201410428E+03  0.14501331425E+04  0.10100000352E+00 0. -1.
       -3    1    3    3    0  502  0.52814167133E+03 -0.12325716712E+04  0.14491745444E+04  0.19744045735E+04  0.10100000352E+00 0.  1.
</event>
<event>
 5   0  0.2037333E-07  0.3308940E+04  0.7818609E-02  0.8160624E-01
       -1   -1    0    0    0  501  0.00000000000E+00  0.00000000000E+00  0.16630093362E+04  0.16630093362E+04  0.50400001928E-02 0.  1.
        1   -1    0    0  501    0  0.00000000000E+00  0.00000000000E+00 -0.16459742726E+04  0.16459742726E+04  0.50400001928E-02 0. -1.
    10030    2    1    2    0    0  0.00000000000E+00  0.00000000000E+00  0.17035063634E+02  0.33089836088E+04  0.33089397592E+04 0.  0.
        3    1    3    3  502    0 -0.25167278443E+03 -0.16311124740E+04  0.12429246086E+03  0.16550878283E+04  0.10100000352E+00 0.  1.
       -3    1    3    3    0  502  0.25167278443E+03  0.16311124740E+04 -0.10725739722E+03  0.16538957805E+04  0.10100000352E+00 0. -1.
</event>
<event>
 5   0  0.2080770E-07  0.3293251E+04  0.7818609E-02  0.8164615E-01
        1   -1    0    0  501    0  0.00000000000E+00  0.00000000000E+00  0.23771333233E+04  0.23771333233E+04  0.50400001928E-02 0.  1.
       -1   -1    0    0    0  501  0.00000000000E+00  0.00000000000E+00 -0.11406072366E+04  0.11406072366E+04  0.50400001928E-02 0. -1.
    10030    2    1    2    0    0  0.00000000000E+00  0.00000000000E+00  0.12365260868E+04  0.35177405599E+04  0.32932509597E+04 0.  0.
        4    1    3    3  502    0  0.69510108651E+03 -0.14422978202E+03  0.22052746359E+04  0.23167230268E+04  0.12699999809E+01 0.  1.
       -4    1    3    3    0  502 -0.69510108651E+03  0.14422978202E+03 -0.96874854914E+03  0.12010175331E+04  0.12699999809E+01 0. -1.
</event>
<event>
 5   0  0.6426079E-07  0.3313498E+04  0.7818609E-02  0.8159469E-01
       -2   -1    0    0    0  501  0.00000000000E+00  0.00000000000E+00  0.88465576481E+03  0.88465576481E+03  0.25500000920E-02 0. -1.
        2   -1    0    0  501    0  0.00000000000E+00  0.00000000000E+00 -0.31026946335E+04  0.31026946335E+04  0.25500000920E-02 0.  1.
    10030    2    1    2    0    0  0.00000000000E+00  0.00000000000E+00 -0.22180388687E+04  0.39873503984E+04  0.33134976650E+04 0.  0.
        4    1    3    3  502    0 -0.14398928043E+04  0.55206770519E+03 -0.38026726769E+03  0.15882930607E+04  0.12699999809E+01 0. -1.
       -4    1    3    3    0  502  0.14398928043E+04 -0.55206770519E+03 -0.18377716010E+04  0.23990573377E+04  0.12699999809E+01 0.  1.
</event>
<event>
 5   0  0.6424183E-07  0.3289001E+04  0.7818609E-02  0.8165700E-01
        2   -1    0    0  501    0  0.00000000000E+00  0.00000000000E+00  0.21699846815E+04  0.21699846815E+04  0.25500000920E-02 0. -1.
       -2   -1    0    0    0  501  0.00000000000E+00  0.00000000000E+00 -0.12462680933E+04  0.12462680933E+04  0.25500000920E-02 0.  1.
    10030    2    1    2    0    0  0.00000000000E+00  0.00000000000E+00  0.92371658821E+03  0.34162527748E+04  0.32890014725E+04 0.  0.
        2    1    3    3  502    0 -0.12819405868E+04  0.98948218118E+03  0.75917776624E+03  0.17885182514E+04  0.25500000920E-02 0. -1.
       -2    1    3    3    0  502  0.12819405868E+04 -0.98948218118E+03  0.16453882197E+03  0.16277345234E+04  0.25500000920E-02 0.  1.
</event>
<event>
 5   0  0.6426079E-07  0.3301290E+04  0.7818609E-02  0.8162567E-01
       -2   -1    0    0    0  501  0.00000000000E+00  0.00000000000E+00  0.14616488406E+04  0.14616488406E+04  0.25500000920E-02 0.  1.
        2   -1    0    0  501    0  0.00000000000E+00  0.00000000000E+00 -0.18640786952E+04  0.18640786952E+04  0.25500000920E-02 0. -1.
    10030    2    1    2    0    0  0.00000000000E+00  0.00000000000E+00 -0.40242985464E+03  0.33257275359E+04  0.33012897260E+04 0.  0.
        4    1    3    3  502    0  0.27309702762E+03  0.90911345582E+03 -0.15616028494E+04  0.18274775879E+04  0.12699999809E+01 0. -1.
       -4    1    3    3    0  502 -0.27309702762E+03 -0.90911345582E+03  0.11591729947E+04  0.14982499480E+04  0.12699999809E+01 0.  1.
</event>
<event>
 5   0  0.6377741E-07  0.3314362E+04  0.7818609E-02  0.8159250E-01
       -2   -1    0    0    0  501  0.00000000000E+00  0.00000000000E+00  0.12542273562E+04  0.12542273562E+04  0.25500000920E-02 0.  1.
        2   -1    0    0  501    0  0.00000000000E+00  0.00000000000E+00 -0.21895946409E+04  0.21895946409E+04  0.25500000920E-02 0. -1.
    10030    2    1    2    0    0  0.00000000000E+00  0.00000000000E+00 -0.93536728470E+03  0.34438219971E+04  0.33143623806E+04 0.  0.
        1    1    3    3  502    0  0.69844579348E+03 -0.76282125866E+03  0.87769937636E+03  0.13564951140E+04  0.50400001928E-02 0.  1.
       -1    1    3    3    0  502 -0.69844579348E+03  0.76282125866E+03 -0.18130666611E+04  0.20873268830E+04  0.50400001928E-02 0. -1.
</event>
<event>
 5   0  0.6351753E-07  0.3311967E+04  0.7818609E-02  0.8159857E-01
       -2   -1    0    0    0  501  0.00000000000E+00  0.00000000000E+00  0.15634269626E+04  0.15634269626E+04  0.25500000920E-02 0. -1.
        2   -1    0    0  501    0  0.00000000000E+00  0.00000000000E+00 -0.17540193691E+04  0.17540193691E+04  0.25500000920E-02 0.  1.
    10030    2    1    2    0    0  0.00000000000E+00  0.00000000000E+00 -0.19059240654E+03  0.33174463317E+04  0.33119668927E+04 0.  0.
        3    1    3    3  502    0  0.77094079016E+03  0.67731602104E+03  0.12065364885E+04  0.15839308705E+04  0.10100000352E+00 0. -1.
       -3    1    3    3    0  502 -0.77094079016E+03 -0.67731602104E+03 -0.13971288951E+04  0.17335154611E+04  0.10100000352E+00 0.  1.
</event>
<event>
 5   0  0.2080828E-07  0.3288948E+04  0.7818609E-02  0.8165713E-01
        1   -1    0    0  501    0  0.00000000000E+00  0.00000000000E+00  0.17109215916E+04  0.17109215916E+04  0.50400001928E-02 0. -1.
       -1   -1    0    0    0  501  0.00000000000E+00  0.00000000000E+00 -0.15806067529E+04  0.15806067529E+04  0.50400001928E-02 0.  1.
    10030    2    1    2    0    0  0.00000000000E+00  0.00000000000E+00  0.13031483872E+03  0.32915283445E+04  0.32889476866E+04 0.  0.
        1    1    3    3  502    0  0.54500193857E+03 -0.46350038218E+03  0.15470064067E+04  0.17044320285E+04  0.50400001928E-02 0. -1.
       -1    1    3    3    0  502 -0.54500193857E+03  0.46350038218E+03 -0.14166915680E+04  0.15870963160E+04  0.50400001928E-02 0.  1.
</event>
<event>
 5   0  0.6424183E-07  0.3309760E+04  0.7818609E-02  0.8160416E-01
        2   -1    0    0  501    0  0.00000000000E+00  0.00000000000E+00  0.29888027080E+04  0.29888027080E+04  0.25500000920E-02 0.  1.
       -2   -1    0    0    0  501  0.00000000000E+00  0.00000000000E+00 -0.91629584391E+03  0.91629584392E+03  0.25500000920E-02 0. -1.
    10030    2    1    2    0    0  0.00000000000E+00  0.00000000000E+00  0.20725068641E+04  0.39050985519E+04  0.33097598098E+04 0.  0.
        2    1    3    3  502    0 -0.34981106182E+03 -0.20270731964E+03 -0.85712936715E+03  0.94769656981E+03  0.25500000920E-02 0. -1.
       -2    1    3    3    0  502  0.34981106182E+03  0.20270731964E+03  0.29296362312E+04  0.29574019821E+04  0.25500000920E-02 0.  1.
</event>
<event>
 5   0  0.2080770E-07  0.3377928E+04  0.7818609E-02  0.8143345E-01
        1   -1    0    0  501    0  0.00000000000E+00  0.00000000000E+00  0.13913126124E+04  0.13913126124E+04  0.50400001928E-02 0. -1.
       -1   -1    0    0    0  501  0.00000000000E+00  0.00000000000E+00 -0.20502937437E+04  0.20502937437E+04  0.50400001928E-02 0.  1.
    10030    2    1    2    0    0  0.00000000000E+00  0.00000000000E+00 -0.65898113130E+03  0.34416063561E+04  0.33779280897E+04 0.  0.
        4    1    3    3  502    0 -0.10773133835E+04 -0.10004391461E+04  0.51751459300E+03  0.15586229750E+04  0.12699999809E+01 0. -1.
       -4    1    3    3    0  502  0.10773133835E+04  0.10004391461E+04 -0.11764957243E+04  0.18829833811E+04  0.12699999809E+01 0.  1.
</event>
<event>
 5   0  0.6426079E-07  0.3309338E+04  0.7818609E-02  0.8160523E-01
        2   -1    0    0  501    0  0.00000000000E+00  0.00000000000E+00  0.15944421539E+04  0.15944421539E+04  0.25500000920E-02 0. -1.
       -2   -1    0    0    0  501  0.00000000000E+00  0.00000000000E+00 -0.17171707269E+04  0.17171707269E+04  0.25500000920E-02 0.  1.
    10030    2    1    2    0    0  0.00000000000E+00  0.00000000000E+00 -0.12272857300E+03  0.33116128807E+04  0.33093379352E+04 0.  0.
        4    1    3    3  502    0 -0.12008557468E+02 -0.43175942826E+03 -0.16597623471E+04  0.17150431689E+04  0.12699999809E+01 0.  1.
       -4    1    3    3    0  502  0.12008557468E+02  0.43175942826E+03  0.15370337741E+04  0.15965697119E+04  0.12699999809E+01 0. -1.
</event>
<event>
 5   0  0.6426079E-07  0.3291334E+04  0.7818609E-02  0.8165104E-01
       -2   -1    0    0    0  501  0.00000000000E+00  0.00000000000E+00  0.25718488746E+04  0.25718488746E+04  0.25500000920E-02 0.  1.
        2   -1    0    0  501    0  0.00000000000E+00  0.00000000000E+00 -0.10530244540E+04  0.10530244540E+04  0.25500000920E-02 0. -1.
    10030    2    1    2    0    0  0.00000000000E+00  0.00000000000E+00  0.15188244206E+04  0.36248733287E+04  0.32913339284E+04 0.  0.
        4    1    3    3  502    0  0.20208333314E+03 -0.10358585534E+04 -0.63123340346E+03  0.12297551947E+04  0.12699999809E+01 0. -1.
       -4    1    3    3    0  502 -0.20208333314E+03  0.10358585534E+04  0.21500578241E+04  0.23951181340E+04  0.12699999809E+01 0.  1.
</event>
<event>
 5   0  0.2080828E-07  0.3301744E+04  0.7818609E-02  0.8162452E-01
        1   -1    0    0  501    0  0.00000000000E+00  0.00000000000E+00  0.11034683308E+04  0.11034683308E+04  0.50400001928E-02 0.  1.
       -1   -1    0    0    0  501  0.00000000000E+00  0.00000000000E+00 -0.24698286232E+04  0.24698286232E+04  0.50400001928E-02 0. -1.
    10030    2    1    2    0    0  0.00000000000E+00  0.00000000000E+00 -0.13663602923E+04  0.35732969540E+04  0.33017435807E+04 0.  0.
        1    1    3    3  502    0  0.18384613460E+03  0.51681418950E+03  0.10019567663E+04  0.11422844082E+04  0.50400001928E-02 0.  1.
       -1    1    3    3    0  502 -0.18384613460E+03 -0.51681418950E+03 -0.23683170586E+04  0.24310125458E+04  0.50400001928E-02 0. -1.
</event>
<event>
 5   0  0.2087665E-07  0.3285261E+04  0.7818609E-02  0.8166656E-01
       -1   -1    0    0    0  501  0.00000000000E+00  0.00000000000E+00  0.11611456356E+04  0.11611456356E+04  0.50400001928E-02 0. -1.
        1   -1    0    0  501    0  0.00000000000E+00  0.00000000000E+00 -0.23237700948E+04  0.23237700948E+04  0.50400001928E-02 0.  1.
    10030    2    1    2    0    0  0.00000000000E+00  0.00000000000E+00 -0.11626244592E+04  0.34849157304E+04  0.32852613312E+04 0.  0.
        5    1    3    3  502    0 -0.10792976109E+04  0.10720131848E+04  0.76125436584E+02  0.15231259874E+04  0.46999998093E+01 0. -1.
       -5    1    3    3    0  502  0.10792976109E+04 -0.10720131848E+04 -0.12387498958E+04  0.19617897430E+04  0.46999998093E+01 0.  1.
</event>
<event>
 5   0  0.6351753E-07  0.3294838E+04  0.7818609E-02  0.8164210E-01
        2   -1    0    0  501    0  0.00000000000E+00  0.00000000000E+00  0.22897824928E+04  0.22897824928E+04  0.25500000920E-02 0.  1.
       -2   -1    0    0    0  501  0.00000000000E+00  0.00000000000E+00 -0.11852607639E+04  0.11852607639E+04  0.25500000920E-02 0. -1.
    10030    2    1    2    0    0  0.00000000000E+00  0.00000000000E+00  0.11045217290E+04  0.34750432567E+04  0.32948379909E+04 0.  0.
        3    1    3    3  502    0 -0.16990159030E+03  0.13986248516E+04 -0.34823426526E+03  0.14513046336E+04  0.10100000352E+00 0. -1.
       -3    1    3    3    0  502  0.16990159030E+03 -0.13986248516E+04  0.14527559942E+04  0.20237386231E+04  0.10100000352E+00 0.  1.
</event>
<event>
 5   0  0.2087665E-07  0.3315512E+04  0.7818609E-02  0.8158960E-01
       -1   -1    0    0    0  501  0.00000000000E+00  0.00000000000E+00  0.18376950753E+04  0.18376950753E+04  0.50400001928E-02 0. -1.
        1   -1    0    0  501    0  0.00000000000E+00  0.00000000000E+00 -0.14954355364E+04  0.14954355364E+04  0.50400001928E-02 0.  1.
    10030    2    1    2    0    0  0.00000000000E+00  0.00000000000E+00  0.34225953884E+03  0.33331306117E+04  0.33155117377E+04 0.  0.
        5    1    3    3  502    0  0.27563881069E+03 -0.15935017812E+04 -0.19537270846E+03  0.16289313264E+04  0.46999998093E+01 0. -1.
       -5    1    3    3    0  502 -0.27563881069E+03  0.15935017812E+04  0.53763224730E+03  0.17041992853E+04  0.46999998093E+01 0.  1.
</event>
<event>
 5   0  0.2080770E-07  0.3301304E+04  0.7818609E-02  0.8162564E-01
       -1   -1    0    0    0  501  0.00000000000E+00  0.00000000000E+00  0.11950776786E+04  0.11950776786E+04  0.50400001928E-02 0. -1.
        1   -1    0    0  501    0  0.00000000000E+00  0.00000000000E+00 -0.22798955314E+04  0.22798955315E+04  0.50400001928E-02 0.  1.
    10030    2    1    2    0    0  0.00000000000E+00  0.00000000000E+00 -0.10848178528E+04  0.34749732101E+04  0.33013041418E+04 0.  0.
        4    1    3    3  502    0  0.78573375199E+03 -0.82624141264E+03  0.71394536221E+03  0.13452776643E+04  0.12699999809E+01 0. -1.
       -4    1    3    3    0  502 -0.78573375199E+03  0.82624141264E+03 -0.17987632150E+04  0.21296955458E+04  0.12699999809E+01 0.  1.
</event>
<event>
 5   0  0.6426079E-07  0.3304478E+04  0.7818609E-02  0.8161757E-01
       -2   -1    0    0    0  501  0.00000000000E+00  0.00000000000E+00  0.15861221947E+04  0.15861221947E+04  0.25500000920E-02 0. -1.
        2   -1    0    0  501    0  0.00000000000E+00  0.00000000000E+00 -0.17211120332E+04  0.17211120332E+04  0.25500000920E-02 0.  1.
    10030    2    1    2    0    0  0.00000000000E+00  0.00000000000E+00 -0.13498983844E+03  0.33072342279E+04  0.33044781708E+04 0.  0.
        4    1    3    3  502    0 -0.12507208476E+04 -0.10084996481E+03  0.10083057857E+04  0.16097066578E+04  0.12699999809E+01 0. -1.
       -4    1    3    3    0  502  0.12507208476E+04  0.10084996481E+03 -0.11432956241E+04  0.16975275700E+04  0.12699999809E+01 0.  1.
</event>
<event>
 5   0  0.6377741E-07  0.3316163E+04  0.7818609E-02  0.8158795E-01
       -2   -1    0    0    0  501  0.00000000000E+00  0.00000000000E+00  0.19975186494E+04  0.19975186494E+04  0.25500000920E-02 0. -1.
        2   -1    0    0  501    0  0.00000000000E+00  0.00000000000E+00 -0.13763247296E+04  0.13763247296E+04  0.25500000920E-02 0.  1.
    10030    2    1    2    0    0  0.00000000000E+00  0.00000000000E+00  0.62119391979E+03  0.33738433790E+04  0.33161630328E+04 0.  0.
        1    1    3    3  502    0  0.54462466375E+03  0.45214177780E+03 -0.12148783177E+04  0.14060503328E+04  0.50400001928E-02 0.  1.
       -1    1    3    3    0  502 -0.54462466375E+03 -0.45214177780E+03  0.18360722374E+04  0.19677930462E+04  0.50400001928E-02 0. -1.
</event>
<event>
 5   0  0.2057130E-07  0.3297782E+04  0.7818609E-02  0.8163460E-01
        1   -1    0    0  501    0  0.00000000000E+00  0.00000000000E+00  0.14931487939E+04  0.14931487939E+04  0.50400001928E-02 0.  1.
       -1   -1    0    0    0  501  0.00000000000E+00  0.00000000000E+00 -0.18208776490E+04  0.18208776490E+04  0.50400001928E-02 0. -1.
    10030    2    1    2    0    0  0.00000000000E+00  0.00000000000E+00 -0.32772885511E+03  0.33140264429E+04  0.32977818397E+04 0.  0.
        2    1    3    3  502    0 -0.51868255456E+03 -0.10978489745E+04 -0.12849480454E+04  0.17678787975E+04  0.25500000920E-02 0. -1.
       -2    1    3    3    0  502  0.51868255456E+03  0.10978489745E+04  0.95721919028E+03  0.15461476454E+04  0.25500000920E-02 0.  1.
</event>
<event>
 5   0  0.6424183E-07  0.3312148E+04  0.7818609E-02  0.8159811E-01
       -2   -1    0    0    0  501  0.00000000000E+00  0.00000000000E+00  0.13383594749E+04  0.13383594749E+04  0.25500000920E-02 0. -1.
        2   -1    0    0  501    0  0.00000000000E+00  0.00000000000E+00 -0.20492116825E+04  0.20492116825E+04  0.25500000920E-02 0.  1.
    10030    2    1    2    0    0  0.00000000000E+00  0.00000000000E+00 -0.71085220757E+03  0.33875711574E+04  0.33121484697E+04 0.  0.
        2    1    3    3  502    0 -0.84837870078E+03 -0.10325938945E+04  0.64489741996E+03  0.14838764278E+04  0.25500000920E-02 0.  1.
       -2    1    3    3    0  502  0.84837870078E+03  0.10325938945E+04 -0.13557496275E+04  0.19036947296E+04  0.25500000920E-02 0. -1.
</event>
<event>
 5   0  0.6377741E-07  0.3294408E+04  0.7818609E-02  0.8164320E-01
        2   -1    0    0  501    0  0.00000000000E+00  0.00000000000E+00  0.17391226433E+04  0.17391226433E+04  0.25500000920E-02 0. -1.
       -2   -1    0    0    0  501  0.00000000000E+00  0.00000000000E+00 -0.15601434888E+04  0.15601434888E+04  0.25500000920E-02 0.  1.
    10030    2    1    2    0    0  0.00000000000E+00  0.00000000000E+00  0.17897915452E+03  0.32992661321E+04  0.32944079093E+04 0.  0.
        1    1    3    3  502    0  0.83877631010E+03 -0.14172208875E+04  0.12447138859E+03  0.16515307654E+04  0.50400001928E-02 0. -1.
       -1    1    3    3    0  502 -0.83877631010E+03  0.14172208875E+04  0.54507765926E+02  0.16477353668E+04  0.50400001928E-02 0.  1.
</event>
<event>
 5   0  0.6351753E-07  0.3111443E+04  0.7818609E-02  0.8212604E-01
        2   -1    0    0  501    0  0.00000000000E+00  0.00000000000E+00  0.17417054880E+04  0.17417054880E+04  0.25500000920E-02 0.  1.
       -2   -1    0    0    0  501  0.00000000000E+00  0.00000000000E+00 -0.13895978063E+04  0.13895978063E+04  0.25500000920E-02 0. -1.
    10030    2    1    2    0    0  0.00000000000E+00  0.00000000000E+00  0.35210768173E+03  0.31313032943E+04  0.31114434755E+04 0.  0.
        3    1    3    3  502    0 -0.78338519258E+02  0.15532496985E+04  0.21565683640E+03  0.15701049107E+04  0.10100000352E+00 0. -1.
       -3    1    3    3    0  502  0.78338519258E+02 -0.15532496985E+04  0.13645084533E+03  0.15611983835E+04  0.10100000352E+00 0.  1.
</event>
<event>
 5   0  0.6424183E-07  0.3097764E+04  0.7818609E-02  0.8216352E-01
       -2   -1    0    0    0  501  0.00000000000E+00  0.00000000000E+00  0.13418590915E+04  0.13418590915E+04  0.25500000920E-02 0. -1.
        2   -1    0    0  501    0  0.00000000000E+00  0.00000000000E+00 -0.17878446405E+04  0.17878446405E+04  0.25500000920E-02 0.  1.
    10030    2    1    2    0    0  0.00000000000E+00  0.00000000000E+00 -0.44598554902E+03  0.31297037320E+04  0.30977640872E+04 0.  0.
        2    1    3    3  502    0  0.14918247139E+04  0.38534208921E+03 -0.38275632940E+03  0.15876183138E+04  0.25500000920E-02 0.  1.
       -2    1    3    3    0  502 -0.14918247139E+04 -0.38534208921E+03 -0.63229219613E+02  0.15420854182E+04  0.25500000920E-02 0. -1.
</event>
<event>
 5   0  0.2087665E-07  0.3192432E+04  0.7818609E-02  0.8190819E-01
       -1   -1    0    0    0  501  0.00000000000E+00  0.00000000000E+00  0.14705273259E+04  0.14705273259E+04  0.50400001928E-02 0. -1.
        1   -1    0    0  501    0  0.00000000000E+00  0.00000000000E+00 -0.17326473305E+04  0.17326473305E+04  0.50400001928E-02 0.  1.
    10030    2    1    2    0    0  0.00000000000E+00  0.00000000000E+00 -0.26212000464E+03  0.32031746565E+04  0.31924318290E+04 0.  0.
        5    1    3    3  502    0 -0.15621862889E+04  0.32586300344E+03 -0.16682342355E+03  0.16045138961E+04  0.46999998093E+01 0. -1.
       -5    1    3    3    0  502  0.15621862889E+04 -0.32586300344E+03 -0.95296581089E+02  0.15986607603E+04  0.46999998093E+01 0.  1.
</event>
<event>
 5   0  0.6426079E-07  0.3294420E+04  0.7818609E-02  0.8164317E-01
        2   -1    0    0  501    0  0.00000000000E+00  0.00000000000E+00  0.23819692337E+04  0.23819692337E+04  0.25500000920E-02 0. -1.
       -2   -1    0    0    0  501  0.00000000000E+00  0.00000000000E+00 -0.11390998957E+04  0.11390998957E+04  0.25500000920E-02 0.  1.
    10030    2    1    2    0    0  0.00000000000E+00  0.00000000000E+00  0.12428693380E+04  0.35210691294E+04  0.32944200738E+04 0.  0.
        4    1    3    3  502    0  0.13607094961E+04 -0.91139228063E+03  0.43284992585E+03  0.16939677958E+04  0.12699999809E+01 0.  1.
       -4    1    3    3    0  502 -0.13607094961E+04  0.91139228063E+03  0.81001941213E+03  0.18271013335E+04  0.12699999809E+01 0. -1.
</event>
<event>
 5   0  0.2037333E-07  0.3280868E+04  0.7818609E-02  0.8167781E-01
       -1   -1    0    0    0  501  0.00000000000E+00  0.00000000000E+00  0.15374412118E+04  0.15374412118E+04  0.50400001928E-02 0.  1.
        1   -1    0    0  501    0  0.00000000000E+00  0.00000000000E+00 -0.17503264434E+04  0.17503264434E+04  0.50400001928E-02 0. -1.
    10030    2    1    2    0    0  0.00000000000E+00  0.00000000000E+00 -0.21288523159E+03  0.32877676553E+04  0.32808681829E+04 0.  0.
        3    1    3    3  502    0  0.10797078850E+04 -0.22215116743E+03  0.11109799666E+04  0.15650548727E+04  0.10100000352E+00 0.  1.
       -3    1    3    3    0  502 -0.10797078850E+04  0.22215116743E+03 -0.13238651982E+04  0.17227127826E+04  0.10100000352E+00 0. -1.
</event>
<event>
 5   0  0.2037333E-07  0.3295877E+04  0.7818609E-02  0.8163945E-01
        1   -1    0    0  501    0  0.00000000000E+00  0.00000000000E+00  0.28498527880E+04  0.28498527880E+04  0.50400001928E-02 0. -1.
       -1   -1    0    0    0  501  0.00000000000E+00  0.00000000000E+00 -0.95292670105E+03  0.95292670106E+03  0.50400001928E-02 0.  1.
    10030    2    1    2    0    0  0.00000000000E+00  0.00000000000E+00  0.18969260869E+04  0.38027794890E+04  0.32958767063E+04 0.  0.
        3    1    3    3  502    0 -0.11268866393E+04  0.48385945561E+03 -0.32161104026E+03  0.12678435006E+04  0.10100000352E+00 0.  1.
       -3    1    3    3    0  502  0.11268866393E+04 -0.48385945561E+03  0.22185371272E+04  0.25349359884E+04  0.10100000352E+00 0. -1.
</event>
<event>
 5   0  0.6351753E-07  0.3264507E+04  0.7818609E-02  0.8171986E-01
       -2   -1    0    0    0  501  0.00000000000E+00  0.00000000000E+00  0.15669761065E+04  0.15669761065E+04  0.25500000920E-02 0. -1.
        2   -1    0    0  501    0  0.00000000000E+00  0.00000000000E+00 -0.17002504842E+04  0.17002504842E+04  0.25500000920E-02 0.  1.
    10030    2    1    2    0    0  0.00000000000E+00  0.00000000000E+00 -0.13327437775E+03  0.32672265907E+04  0.32645072423E+04 0.  0.
        3    1    3    3  502    0 -0.36213919925E+03 -0.11771927832E+02 -0.16594931774E+04  0.16985879412E+04  0.10100000352E+00 0.  1.
       -3    1    3    3    0  502  0.36213919925E+03  0.11771927832E+02  0.15262187997E+04  0.15686386495E+04  0.10100000352E+00 0. -1.
</event>
<event>
 5   0  0.2037333E-07  0.3301857E+04  0.7818609E-02  0.8162423E-01
       -1   -1    0    0    0  501  0.00000000000E+00  0.00000000000E+00  0.14106196405E+04  0.14106196405E+04  0.50400001928E-02 0.  1.
        1   -1    0    0  501    0  0.00000000000E+00  0.00000000000E+00 -0.19321755101E+04  0.19321755101E+04  0.50400001928E-02 0. -1.
    10030    2    1    2    0    0  0.00000000000E+00  0.00000000000E+00 -0.52155586959E+03  0.33427951507E+04  0.33018568858E+04 0.  0.
        3    1    3    3  502    0  0.43958648398E+03 -0.69700230218E+03  0.11875240115E+04  0.14454278862E+04  0.10100000352E+00 0.  1.
       -3    1    3    3    0  502 -0.43958648398E+03  0.69700230218E+03 -0.17090798811E+04  0.18973672645E+04  0.10100000352E+00 0. -1.
</event>
<event>
 5   0  0.2080770E-07  0.3305474E+04  0.7818609E-02  0.8161504E-01
       -1   -1    0    0    0  501  0.00000000000E+00  0.00000000000E+00  0.21655940115E+04  0.21655940115E+04  0.50400001928E-02 0.  1.
        1   -1    0    0  501    0  0.00000000000E+00  0.00000000000E+00 -0.12613353975E+04  0.12613353975E+04  0.50400001928E-02 0. -1.
    10030    2    1    2    0    0  0.00000000000E+00  0.00000000000E+00  0.90425861402E+03  0.34269294090E+04  0.33054744793E+04 0.  0.
        4    1    3    3  502    0  0.11561757573E+04 -0.90721802621E+03  0.12360554288E+04  0.19203180895E+04  0.12699999809E+01 0.  1.
       -4    1    3    3    0  502 -0.11561757573E+04  0.90721802621E+03 -0.33179681479E+03  0.15066113195E+04  0.12699999809E+01 0. -1.
</event>
<event>
 5   0  0.2087665E-07  0.3152574E+04  0.7818609E-02  0.8201456E-01
       -1   -1    0    0    0  501  0.00000000000E+00  0.00000000000E+00  0.21697654737E+04  0.21697654738E+04  0.50400001928E-02 0. -1.
        1   -1    0    0  501    0  0.00000000000E+00  0.00000000000E+00 -0.11451378568E+04  0.11451378568E+04  0.50400001928E-02 0.  1.
    10030    2    1    2    0    0  0.00000000000E+00  0.00000000000E+00  0.10246276170E+04  0.33149033305E+04  0.31525739226E+04 0.  0.
        5    1    3    3  502    0 -0.14340395223E+04  0.26166096065E+03  0.11429654086E+04  0.18523843622E+04  0.46999998093E+01 0.  1.
       -5    1    3    3    0  502  0.14340395223E+04 -0.26166096065E+03 -0.11833779162E+03  0.14625189684E+04  0.46999998093E+01 0. -1.
</event>
<event>
 5   0  0.2080770E-07  0.3324474E+04  0.7818609E-02  0.8156696E-01
       -1   -1    0    0    0  501  0.00000000000E+00  0.00000000000E+00  0.14451235151E+04  0.14451235151E+04  0.50400001928E-02 0.  1.
        1   -1    0    0  501    0  0.00000000000E+00  0.00000000000E+00 -0.19119689669E+04  0.19119689669E+04  0.50400001928E-02 0. -1.
    10030    2    1    2    0    0  0.00000000000E+00  0.00000000000E+00 -0.46684545182E+03  0.33570924821E+04  0.33244736812E+04 0.  0.
        4    1    3    3  502    0 -0.34759873613E+03 -0.59165111266E+03 -0.17622635884E+04  0.18911505726E+04  0.12699999809E+01 0. -1.
       -4    1    3    3    0  502  0.34759873613E+03  0.59165111266E+03  0.12954181365E+04  0.14659419094E+04  0.12699999809E+01 0.  1.
</event>
<event>
 5   0  0.6351753E-07  0.3292360E+04  0.7818609E-02  0.8164842E-01
        2   -1    0    0  501    0  0.00000000000E+00  0.00000000000E+00  0.27333252820E+04  0.27333252820E+04  0.25500000920E-02 0. -1.
       -2   -1    0    0    0  501  0.00000000000E+00  0.00000000000E+00 -0.99143297362E+03  0.99143297362E+03  0.25500000920E-02 0.  1.
    10030    2    1    2    0    0  0.00000000000E+00  0.00000000000E+00  0.17418923084E+04  0.37247582557E+04  0.32923601335E+04 0.  0.
        3    1    3    3  502    0 -0.63450641062E+03  0.84226493683E+03  0.23010434379E+04  0.25311676203E+04  0.10100000352E+00 0. -1.
       -3    1    3    3    0  502  0.63450641062E+03 -0.84226493683E+03 -0.55915112948E+03  0.11935906353E+04  0.10100000352E+00 0.  1.
</event>
<event>
 5   0  0.2080828E-07  0.3295002E+04  0.7818609E-02  0.8164168E-01
       -1   -1    0    0    0  501  0.00000000000E+00  0.00000000000E+00  0.11612685195E+04  0.11612685195E+04  0.50400001928E-02 0. -1.
        1   -1    0    0  501    0  0.00000000000E+00  0.00000000000E+00 -0.23373226880E+04  0.23373226880E+04  0.50400001928E-02 0.  1.
    10030    2    1    2    0    0  0.00000000000E+00  0.00000000000E+00 -0.11760541685E+04  0.34985912075E+04  0.32950018254E+04 0.  0.
        1    1    3    3  502    0  0.86061368635E+03  0.14020758373E+04 -0.49433262873E+03  0.17178001393E+04  0.50400001928E-02 0.  1.
       -1    1    3    3    0  502 -0.86061368635E+03 -0.14020758373E+04 -0.68172153981E+03  0.17807910682E+04  0.50400001928E-02 0. -1.
</event>
<event>
 5   0  0.6351753E-07  0.3298328E+04  0.7818609E-02  0.8163321E-01
       -2   -1    0    0    0  501  0.00000000000E+00  0.00000000000E+00  0.11057907969E+04  0.11057907969E+04  0.25500000920E-02 0. -1.
        2   -1    0    0  501    0  0.00000000000E+00  0.00000000000E+00 -0.24595440155E+04  0.24595440155E+04  0.25500000920E-02 0.  1.
    10030    2    1    2    0    0  0.00000000000E+00  0.00000000000E+00 -0.13537532187E+04  0.35653348124E+04  0.32983275379E+04 0.  0.
        3    1    3    3  502    0  0.10221428837E+04  0.12295130312E+04 -0.11136438967E+04  0.19485074050E+04  0.10100000352E+00 0.  1.
       -3    1    3    3    0  502 -0.10221428837E+04 -0.12295130312E+04 -0.24010932201E+03  0.16168274074E+04  0.10100000352E+00 0. -1.
</event>
<event>
 5   0  0.6426079E-07  0.3296649E+04  0.7818609E-02  0.8163749E-01
        2   -1    0    0  501    0  0.00000000000E+00  0.00000000000E+00  0.23092798524E+04  0.23092798524E+04  0.25500000920E-02 0. -1.
       -2   -1    0    0    0  501  0.00000000000E+00  0.00000000000E+00 -0.11765456702E+04  0.11765456702E+04  0.25500000920E-02 0.  1.
    10030    2    1    2    0    0  0.00000000000E+00  0.00000000000E+00  0.11327341822E+04  0.34858255226E+04  0.32966487296E+04 0.  0.
        4    1    3    3  502    0  0.63704401563E+03  0.99936331502E+03  0.17777161504E+04  0.21365459128E+04  0.12699999809E+01 0. -1.
       -4    1    3    3    0  502 -0.63704401563E+03 -0.99936331502E+03 -0.64498196819E+03  0.13492796098E+04  0.12699999809E+01 0.  1.
</event>
<event>
 5   0  0.2080828E-07  0.3227209E+04  0.7818609E-02  0.8181668E-01
       -1   -1    0    0    0  501  0.00000000000E+00  0.00000000000E+00  0.12259163293E+04  0.12259163293E+04  0.50400001928E-02 0.  1.
        1   -1    0    0  501    0  0.00000000000E+00  0.00000000000E+00 -0.21238961649E+04  0.21238961649E+04  0.50400001928E-02 0. -1.
    10030    2    1    2    0    0  0.00000000000E+00  0.00000000000E+00 -0.89797983560E+03  0.33498124941E+04  0.32272086949E+04 0.  0.
        1    1    3    3  502    0 -0.64381579140E+03 -0.14772978818E+04 -0.36332464574E+03  0.16519420701E+04  0.50400001928E-02 0.  1.
       -1    1    3    3    0  502  0.64381579140E+03  0.14772978818E+04 -0.53465518986E+03  0.16978704240E+04  0.50400001928E-02 0. -1.
</event>
<event>
 5   0  0.2080828E-07  0.3323451E+04  0.7818609E-02  0.8156954E-01
       -1   -1    0    0    0  501  0.00000000000E+00  0.00000000000E+00  0.18201987688E+04  0.18201987688E+04  0.50400001928E-02 0. -1.
        1   -1    0    0  501    0  0.00000000000E+00  0.00000000000E+00 -0.15170494755E+04  0.15170494755E+04  0.50400001928E-02 0.  1.
    10030    2    1    2    0    0  0.00000000000E+00  0.00000000000E+00  0.30314929323E+03  0.33372482443E+04  0.33234509700E+04 0.  0.
        1    1    3    3  502    0  0.10914866438E+04  0.38858195347E+03 -0.10445854109E+04  0.15599672140E+04  0.50400001928E-02 0.  1.
       -1    1    3    3    0  502 -0.10914866438E+04 -0.38858195347E+03  0.13477347041E+04  0.17772810303E+04  0.50400001928E-02 0. -1.
</event>
<event>
 5   0  0.6424183E-07  0.3299197E+04  0.7818609E-02  0.8163100E-01
        2   -1    0    0  501    0  0.00000000000E+00  0.00000000000E+00  0.24113770044E+04  0.24113770044E+04  0.25500000920E-02 0. -1.
       -2   -1    0    0    0  501  0.00000000000E+00  0.00000000000E+00 -0.11284736652E+04  0.11284736652E+04  0.25500000920E-02 0.  1.
    10030    2    1    2    0    0  0.00000000000E+00  0.00000000000E+00  0.12829033392E+04  0.35398506696E+04  0.32991971425E+04 0.  0.
        2    1    3    3  502    0  0.83902189892E+03  0.13232467359E+04  0.11950692600E+04  0.19705659611E+04  0.25500000920E-02 0. -1.
       -2    1    3    3    0  502 -0.83902189892E+03 -0.13232467359E+04  0.87834079223E+02  0.15692847085E+04  0.25500000920E-02 0.  1.
</event>
<event>
 5   0  0.6351753E-07  0.3295182E+04  0.7818609E-02  0.8164122E-01
        2   -1    0    0  501    0  0.00000000000E+00  0.00000000000E+00  0.19620094675E+04  0.19620094675E+04  0.25500000920E-02 0. -1.
       -2   -1    0    0    0  501  0.00000000000E+00  0.00000000000E+00 -0.13835593055E+04  0.13835593055E+04  0.25500000920E-02 0.  1.
    10030    2    1    2    0    0  0.00000000000E+00  0.00000000000E+00  0.57845016202E+03  0.33455687730E+04  0.32951822142E+04 0.  0.
        3    1    3    3  502    0  0.10820098858E+04 -0.10291104461E+04  0.99610587970E+03  0.17950043557E+04  0.10100000352E+00 0.  1.
       -3    1    3    3    0  502 -0.10820098858E+04  0.10291104461E+04 -0.41765571768E+03  0.15505644172E+04  0.10100000352E+00 0. -1.
</event>
<event>
 5   0  0.2080770E-07  0.3291748E+04  0.7818609E-02  0.8164998E-01
        1   -1    0    0  501    0  0.00000000000E+00  0.00000000000E+00  0.19735533156E+04  0.19735533156E+04  0.50400001928E-02 0. -1.
       -1   -1    0    0    0  501  0.00000000000E+00  0.00000000000E+00 -0.13726012367E+04  0.13726012367E+04  0.50400001928E-02 0.  1.
    10030    2    1    2    0    0  0.00000000000E+00  0.00000000000E+00  0.60095207893E+03  0.33461545523E+04  0.32917483024E+04 0.  0.
        4    1    3    3  502    0  0.12522742899E+04 -0.11307403762E+03 -0.77911480675E+03  0.14791883349E+04  0.12699999809E+01 0.  1.
       -4    1    3    3    0  502 -0.12522742899E+04  0.11307403762E+03  0.13800668857E+04  0.18669662174E+04  0.12699999809E+01 0. -1.
</event>
<event>
 5   0  0.2057130E-07  0.3298504E+04  0.7818609E-02  0.8163276E-01
       -1   -1    0    0    0  501  0.00000000000E+00  0.00000000000E+00  0.14013345134E+04  0.14013345135E+04  0.50400001928E-02 0. -1.
        1   -1    0    0  501    0  0.00000000000E+00  0.00000000000E+00 -0.19410296946E+04  0.19410296946E+04  0.50400001928E-02 0.  1.
    10030    2    1    2    0    0  0.00000000000E+00  0.00000000000E+00 -0.53969518118E+03  0.33423642081E+04  0.32985038443E+04 0.  0.
        2    1    3    3  502    0  0.15394826830E+04  0.52217200323E+03  0.11989959611E+02  0.16256734885E+04  0.25500000920E-02 0.  1.
       -2    1    3    3    0  502 -0.15394826830E+04 -0.52217200323E+03 -0.55168514079E+03  0.17166907196E+04  0.25500000920E-02 0. -1.
</event>
<event>
 5   0  0.2080828E-07  0.3259355E+04  0.7818609E-02  0.8173315E-01
        1   -1    0    0  501    0  0.00000000000E+00  0.00000000000E+00  0.14468070752E+04  0.14468070752E+04  0.50400001928E-02 0. -1.
       -1   -1    0    0    0  501  0.00000000000E+00  0.00000000000E+00 -0.18356620493E+04  0.18356620493E+04  0.50400001928E-02 0.  1.
    10030    2    1    2    0    0  0.00000000000E+00  0.00000000000E+00 -0.38885497410E+03  0.32824691245E+04  0.32593550531E+04 0.  0.
        1    1    3    3  502    0  0.53273536391E+03  0.15163289892E+04  0.77278791219E+02  0.16090471040E+04  0.50400001928E-02 0. -1.
       -1    1    3    3    0  502 -0.53273536391E+03 -0.15163289892E+04 -0.46613376532E+03  0.16734220205E+04  0.50400001928E-02 0.  1.
</event>
<event>
 5   0  0.6424183E-07  0.3324903E+04  0.7818609E-02  0.8156587E-01
       -2   -1    0    0    0  501  0.00000000000E+00  0.00000000000E+00  0.13215909875E+04  0.13215909875E+04  0.25500000920E-02 0.  1.
        2   -1    0    0  501    0  0.00000000000E+00  0.00000000000E+00 -0.20912261195E+04  0.20912261195E+04  0.25500000920E-02 0. -1.
    10030    2    1    2    0    0  0.00000000000E+00  0.00000000000E+00 -0.76963513201E+03  0.34128171070E+04  0.33249033624E+04 0.  0.
        2    1    3    3  502    0  0.59012366525E+03  0.15479994386E+04 -0.24259939714E+03  0.16743364864E+04  0.25500000920E-02 0. -1.
       -2    1    3    3    0  502 -0.59012366525E+03 -0.15479994386E+04 -0.52703573487E+03  0.17384806206E+04  0.25500000920E-02 0.  1.
</event>
<event>
 5   0  0.2087665E-07  0.3307774E+04  0.7818609E-02  0.8160920E-01
        1   -1    0    0  501    0  0.00000000000E+00  0.00000000000E+00  0.30065125792E+04  0.30065125792E+04  0.50400001928E-02 0. -1.
       -1   -1    0    0    0  501  0.00000000000E+00  0.00000000000E+00 -0.90980573784E+03  0.90980573785E+03  0.50400001928E-02 0.  1.
    10030    2    1    2    0    0  0.00000000000E+00  0.00000000000E+00  0.20967068414E+04  0.39163183171E+04  0.33077741129E+04 0.  0.
        5    1    3    3  502    0 -0.13604248030E+04 -0.33841897706E+03  0.20873114624E+04  0.25143934218E+04  0.46999998093E+01 0. -1.
       -5    1    3    3    0  502  0.13604248030E+04  0.33841897706E+03  0.93953789632E+01  0.14019248952E+04  0.46999998093E+01 0.  1.
</event>
<event>
 5   0  0.2037333E-07  0.3175611E+04  0.7818609E-02  0.8195288E-01
       -1   -1    0    0    0  501  0.00000000000E+00  0.00000000000E+00  0.13013597539E+04  0.13013597539E+04  0.50400001928E-02 0. -1.
        1   -1    0    0  501    0  0.00000000000E+00  0.00000000000E+00 -0.19373012545E+04  0.19373012545E+04  0.50400001928E-02 0.  1.
    10030    2    1    2    0    0  0.00000000000E+00  0.00000000000E+00 -0.63594150064E+03  0.32386610084E+04  0.31756107342E+04 0.  0.
        3    1    3    3  502    0 -0.42715814492E+03  0.81605717178E+03  0.10010416566E+04  0.13603300323E+04  0.10100000352E+00 0. -1.
       -3    1    3    3    0  502  0.42715814492E+03 -0.81605717178E+03 -0.16369831573E+04  0.18783309761E+04  0.10100000352E+00 0.  1.
</event>
<event>
 5   0  0.6351753E-07  0.3302742E+04  0.7818609E-02  0.8162198E-01
        2   -1    0    0  501    0  0.00000000000E+00  0.00000000000E+00  0.21946019622E+04  0.21946019622E+04  0.25500000920E-02 0. -1.
       -2   -1    0    0    0  501  0.00000000000E+00  0.00000000000E+00 -0.12426062560E+04  0.12426062560E+04  0.25500000920E-02 0.  1.
    10030    2    1    2    0    0  0.00000000000E+00  0.00000000000E+00  0.95199570611E+03  0.34372082182E+04  0.33027419686E+04 0.  0.
        3    1    3    3  502    0  0.42876636143E+03 -0.15644258754E+04  0.15395258140E+03  0.16294079661E+04  0.10100000352E+00 0. -1.
       -3    1    3    3    0  502 -0.42876636143E+03  0.15644258754E+04  0.79804312471E+03  0.18078002521E+04  0.10100000352E+00 0.  1.
</event>
<event>
 5   0  0.6351753E-07  0.3295847E+04  0.7818609E-02  0.8163953E-01
       -2   -1    0    0    0  501  0.00000000000E+00  0.00000000000E+00  0.10189478025E+04  0.10189478025E+04  0.25500000920E-02 0. -1.
        2   -1    0    0  501    0  0.00000000000E+00  0.00000000000E+00 -0.26651522836E+04  0.26651522836E+04  0.25500000920E-02 0.  1.
    10030    2    1    2    0    0  0.00000000000E+00  0.00000000000E+00 -0.16462044812E+04  0.36841000861E+04  0.32958465150E+04 0.  0.
        3    1    3    3  502    0  0.10141559435E+04  0.23167673138E+03  0.60552627293E+03  0.12036812132E+04  0.10100000352E+00 0. -1.
       -3    1    3    3    0  502 -0.10141559435E+04 -0.23167673138E+03 -0.22517307541E+04  0.24804188729E+04  0.10100000352E+00 0.  1.
</event>
<event>
 5   0  0.2080828E-07  0.3285436E+04  0.7818609E-02  0.8166611E-01
        1   -1    0    0  501    0  0.00000000000E+00  0.00000000000E+00  0.23722015093E+04  0.23722015093E+04  0.50400001928E-02 0. -1.
       -1   -1    0    0    0  501  0.00000000000E+00  0.00000000000E+00 -0.11375602228E+04  0.11375602228E+04  0.50400001928E-02 0.  1.
    10030    2    1    2    0    0  0.00000000000E+00  0.00000000000E+00  0.12346412865E+04  0.35097617321E+04  0.32854357868E+04 0.  0.
        1    1    3    3  502    0  0.10089657623E+04  0.34989703428E+03 -0.71613888410E+03  0.12858050962E+04  0.50400001928E-02 0.  1.
       -1    1    3    3    0  502 -0.10089657623E+04 -0.34989703428E+03  0.19507801706E+04  0.22239566358E+04  0.50400001928E-02 0. -1.
</event>
<event>
 5   0  0.6377741E-07  0.3321406E+04  0.7818609E-02  0.8157470E-01
       -2   -1    0    0    0  501  0.00000000000E+00  0.00000000000E+00  0.15321778409E+04  0.15321778409E+04  0.25500000920E-02 0. -1.
        2   -1    0    0  501    0  0.00000000000E+00  0.00000000000E+00 -0.18000089829E+04  0.18000089829E+04  0.25500000920E-02 0.  1.
    10030    2    1    2    0    0  0.00000000000E+00  0.00000000000E+00 -0.26783114208E+03  0.33321868238E+04  0.33214056524E+04 0.  0.
        1    1    3    3  502    0 -0.86693641814E+02 -0.14551664003E+04 -0.93205359622E+03  0.17302453428E+04  0.50400001928E-02 0.  1.
       -1    1    3    3    0  502  0.86693641814E+02  0.14551664003E+04  0.66422245414E+03  0.16019414810E+04  0.50400001928E-02 0. -1.
</event>
<event>
 5   0  0.2080770E-07  0.3312816E+04  0.7818609E-02  0.8159642E-01
       -1   -1    0    0    0  501  0.00000000000E+00  0.00000000000E+00  0.11895936709E+04  0.11895936709E+04  0.50400001928E-02 0. -1.
        1   -1    0    0  501    0  0.00000000000E+00  0.00000000000E+00 -0.23064068874E+04  0.23064068874E+04  0.50400001928E-02 0.  1.
    10030    2    1    2    0    0  0.00000000000E+00  0.00000000000E+00 -0.11168132165E+04  0.34960005583E+04  0.33128157425E+04 0.  0.
        4    1    3    3  502    0  0.64907705571E+03 -0.15238989118E+04 -0.56979722976E+03  0.17516390648E+04  0.12699999809E+01 0.  1.
       -4    1    3    3    0  502 -0.64907705571E+03  0.15238989118E+04 -0.54701598670E+03  0.17443614935E+04  0.12699999809E+01 0. -1.
</event>
<event>
 5   0  0.2080828E-07  0.3316465E+04  0.7818609E-02  0.8158719E-01
        1   -1    0    0  501    0  0.00000000000E+00  0.00000000000E+00  0.12535227462E+04  0.12535227463E+04  0.50400001928E-02 0. -1.
       -1   -1    0    0    0  501  0.00000000000E+00  0.00000000000E+00 -0.21936057383E+04  0.21936057384E+04  0.50400001928E-02 0.  1.
    10030    2    1    2    0    0  0.00000000000E+00  0.00000000000E+00 -0.94008299210E+03  0.34471284846E+04  0.33164647981E+04 0.  0.
        1    1    3    3  502    0 -0.29150729877E+03 -0.28965104573E+03 -0.21398410507E+04  0.21789433117E+04  0.50400001928E-02 0.  1.
       -1    1    3    3    0  502  0.29150729877E+03  0.28965104573E+03  0.11997580586E+04  0.12681851729E+04  0.50400001928E-02 0. -1.
</event>
<event>
 5   0  0.2057130E-07  0.3310556E+04  0.7818609E-02  0.8160215E-01
        1   -1    0    0  501    0  0.00000000000E+00  0.00000000000E+00  0.17904188758E+04  0.17904188758E+04  0.50400001928E-02 0.  1.
       -1   -1    0    0    0  501  0.00000000000E+00  0.00000000000E+00 -0.15303375529E+04  0.15303375529E+04  0.50400001928E-02 0. -1.
    10030    2    1    2    0    0  0.00000000000E+00  0.00000000000E+00  0.26008132297E+03  0.33207564287E+04  0.33105559902E+04 0.  0.
        2    1    3    3  502    0  0.12104784153E+04  0.16968129365E+03 -0.98959544245E+03  0.15726884228E+04  0.25500000920E-02 0. -1.
       -2    1    3    3    0  502 -0.12104784153E+04 -0.16968129365E+03  0.12496767654E+04  0.17480680060E+04  0.25500000920E-02 0.  1.
</event>
<event>
 5   0  0.6351753E-07  0.3281892E+04  0.7818609E-02  0.8167518E-01
       -2   -1    0    0    0  501  0.00000000000E+00  0.00000000000E+00  0.16751062526E+04  0.16751062526E+04  0.25500000920E-02 0. -1.
        2   -1    0    0  501    0  0.00000000000E+00  0.00000000000E+00 -0.16074822894E+04  0.16074822894E+04  0.25500000920E-02 0.  1.
    10030    2    1    2    0    0  0.00000000000E+00  0.00000000000E+00  0.67623963229E+02  0.32825885420E+04  0.32818919140E+04 0.  0.
        3    1    3    3  502    0 -0.70804711912E+02  0.84306147826E+03 -0.13725226213E+04  0.16123226474E+04  0.10100000352E+00 0.  1.
       -3    1    3    3    0  502  0.70804711912E+02 -0.84306147826E+03  0.14401465845E+04  0.16702658945E+04  0.10100000352E+00 0. -1.
</event>
<event>
 5   0  0.2080770E-07  0.3303038E+04  0.7818609E-02  0.8162123E-01
       -1   -1    0    0    0  501  0.00000000000E+00  0.00000000000E+00  0.12495782784E+04  0.12495782784E+04  0.50400001928E-02 0. -1.
        1   -1    0    0  501    0  0.00000000000E+00  0.00000000000E+00 -0.21827481515E+04  0.21827481515E+04  0.50400001928E-02 0.  1.
    10030    2    1    2    0    0  0.00000000000E+00  0.00000000000E+00 -0.93316987308E+03  0.34323264299E+04  0.33030378002E+04 0.  0.
        4    1    3    3  502    0 -0.43419831227E+03 -0.51117117750E+03  0.11016901561E+04  0.12897856256E+04  0.12699999809E+01 0. -1.
       -4    1    3    3    0  502  0.43419831227E+03  0.51117117750E+03 -0.20348600291E+04  0.21425408043E+04  0.12699999809E+01 0.  1.
</event>
<event>
 5   0  0.2057130E-07  0.3295075E+04  0.7818609E-02  0.8164150E-01
       -1   -1    0    0    0  501  0.00000000000E+00  0.00000000000E+00  0.17638447296E+04  0.17638447296E+04  0.50400001928E-02 0. -1.
        1   -1    0    0  501    0  0.00000000000E+00  0.00000000000E+00 -0.15388995046E+04  0.15388995046E+04  0.50400001928E-02 0.  1.
    10030    2    1    2    0    0  0.00000000000E+00  0.00000000000E+00  0.22494522500E+03  0.33027442342E+04  0.32950749798E+04 0.  0.
        2    1    3    3  502    0 -0.12492751383E+04  0.61708935423E+03  0.99366165173E+03  0.17113886526E+04  0.25500000920E-02 0. -1.
       -2    1    3    3    0  502  0.12492751383E+04 -0.61708935423E+03 -0.76871642673E+03  0.15913555816E+04  0.25500000920E-02 0.  1.
</event>
<event>
 5   0  0.6424183E-07  0.3254778E+04  0.7818609E-02  0.8174499E-01
        2   -1    0    0  501    0  0.00000000000E+00  0.00000000000E+00  0.14970344062E+04  0.14970344062E+04  0.25500000920E-02 0.  1.
       -2   -1    0    0    0  501  0.00000000000E+00  0.00000000000E+00 -0.17690937104E+04  0.17690937104E+04  0.25500000920E-02 0. -1.
    10030    2    1    2    0    0  0.00000000000E+00  0.00000000000E+00 -0.27205930423E+03  0.32661281166E+04  0.32547775053E+04 0.  0.
        2    1    3    3  502    0  0.11791402459E+04  0.32316260680E+03  0.94176827389E+03  0.15432865164E+04  0.25500000920E-02 0.  1.
       -2    1    3    3    0  502 -0.11791402459E+04 -0.32316260680E+03 -0.12138275781E+04  0.17228416002E+04  0.25500000920E-02 0. -1.
</event>
<event>
 5   0  0.2037333E-07  0.3307201E+04  0.7818609E-02  0.8161066E-01
        1   -1    0    0  501    0  0.00000000000E+00  0.00000000000E+00  0.29409529657E+04  0.29409529657E+04  0.50400001928E-02 0. -1.
       -1   -1    0    0    0  501  0.00000000000E+00  0.00000000000E+00 -0.92976478972E+03  0.92976478973E+03  0.50400001928E-02 0.  1.
    10030    2    1    2    0    0  0.00000000000E+00  0.00000000000E+00  0.20111881759E+04  0.38707177554E+04  0.33072009408E+04 0.  0.
        3    1    3    3  502    0  0.47006302430E+03  0.10196226222E+04  0.24264529152E+04  0.26736236269E+04  0.10100000352E+00 0. -1.
       -3    1    3    3    0  502 -0.47006302430E+03 -0.10196226222E+04 -0.41526473930E+03  0.11970941285E+04  0.10100000352E+00 0.  1.
</event>
<event>
 5   0  0.6258718E-07  0.3291902E+04  0.7818609E-02  0.8164959E-01
       -2   -1    0    0    0  501  0.00000000000E+00  0.00000000000E+00  0.14524841810E+04  0.14524841810E+04  0.25500000920E-02 0. -1.
        2   -1    0    0  501    0  0.00000000000E+00  0.00000000000E+00 -0.18651869008E+04  0.18651869008E+04  0.25500000920E-02 0.  1.
    10030    2    1    2    0    0  0.00000000000E+00  0.00000000000E+00 -0.41270271985E+03  0.33176710818E+04  0.32919018625E+04 0.  0.
        5    1    3    3  502    0  0.84582472822E+03  0.13207390499E+04  0.29691852962E+03  0.15962311274E+04  0.46999998093E+01 0. -1.
       -5    1    3    3    0  502 -0.84582472822E+03 -0.13207390499E+04 -0.70962124947E+03  0.17214399544E+04  0.46999998093E+01 0.  1.
</event>
<event>
 5   0  0.2037333E-07  0.3304509E+04  0.7818609E-02  0.8161749E-01
       -1   -1    0    0    0  501  0.00000000000E+00  0.00000000000E+00  0.17078797195E+04  0.17078797195E+04  0.50400001928E-02 0. -1.
        1   -1    0    0  501    0  0.00000000000E+00  0.00000000000E+00 -0.15984405254E+04  0.15984405254E+04  0.50400001928E-02 0.  1.
    10030    2    1    2    0    0  0.00000000000E+00  0.00000000000E+00  0.10943919418E+03  0.33063202449E+04  0.33045085300E+04 0.  0.
        3    1    3    3  502    0 -0.23021111325E+03  0.15837708347E+04 -0.35613545440E+03  0.16395608210E+04  0.10100000352E+00 0.  1.
       -3    1    3    3    0  502  0.23021111325E+03 -0.15837708347E+04  0.46557464858E+03  0.16667594239E+04  0.10100000352E+00 0. -1.
</event>
<event>
 5   0  0.6424183E-07  0.3300096E+04  0.7818609E-02  0.8162871E-01
        2   -1    0    0  501    0  0.00000000000E+00  0.00000000000E+00  0.23609519843E+04  0.23609519843E+04  0.25500000920E-02 0. -1.
       -2   -1    0    0    0  501  0.00000000000E+00  0.00000000000E+00 -0.11532033192E+04  0.11532033192E+04  0.25500000920E-02 0.  1.
    10030    2    1    2    0    0  0.00000000000E+00  0.00000000000E+00  0.12077486650E+04  0.35141553035E+04  0.33000955531E+04 0.  0.
        2    1    3    3  502    0  0.70932280249E+03 -0.12075292425E+04 -0.32530293822E+03  0.14377370104E+04  0.25500000920E-02 0.  1.
       -2    1    3    3    0  502 -0.70932280249E+03  0.12075292425E+04  0.15330516032E+04  0.20764182931E+04  0.25500000920E-02 0. -1.
</event>
<event>
 5   0  0.6424183E-07  0.3257843E+04  0.7818609E-02  0.8173706E-01
        2   -1    0    0  501    0  0.00000000000E+00  0.00000000000E+00  0.21134074153E+04  0.21134074153E+04  0.25500000920E-02 0.  1.
       -2   -1    0    0    0  501  0.00000000000E+00  0.00000000000E+00 -0.12555006883E+04  0.12555006883E+04  0.25500000920E-02 0. -1.
    10030    2    1    2    0    0  0.00000000000E+00  0.00000000000E+00  0.85790672697E+03  0.33689081035E+04  0.32578425158E+04 0.  0.
        2    1    3    3  502    0  0.32809184946E+03 -0.80477110310E+03 -0.99572475728E+03  0.13216537301E+04  0.25500000920E-02 0. -1.
       -2    1    3    3    0  502 -0.32809184946E+03  0.80477110310E+03  0.18536314843E+04  0.20472543734E+04  0.25500000920E-02 0.  1.
</event>
<event>
 5   0  0.2080828E-07  0.3298393E+04  0.7818609E-02  0.8163304E-01
       -1   -1    0    0    0  501  0.00000000000E+00  0.00000000000E+00  0.83592788521E+03  0.83592788523E+03  0.50400001928E-02 0. -1.
        1   -1    0    0  501    0  0.00000000000E+00  0.00000000000E+00 -0.32536890693E+04  0.32536890693E+04  0.50400001928E-02 0.  1.
    10030    2    1    2    0    0  0.00000000000E+00  0.00000000000E+00 -0.24177611841E+04  0.40896169545E+04  0.32983931984E+04 0.  0.
        1    1    3    3  502    0  0.77108365092E+03 -0.14269802618E+04 -0.15787868673E+04  0.22634952257E+04  0.50400001928E-02 0. -1.
       -1    1    3    3    0  502 -0.77108365092E+03  0.14269802618E+04 -0.83897431674E+03  0.18261217288E+04  0.50400001928E-02 0.  1.
</event>
<event>
 5   0  0.6351753E-07  0.3264409E+04  0.7818609E-02  0.8172011E-01
       -2   -1    0    0    0  501  0.00000000000E+00  0.00000000000E+00  0.12085580316E+04  0.12085580316E+04  0.25500000920E-02 0. -1.
        2   -1    0    0  501    0  0.00000000000E+00  0.00000000000E+00 -0.22043551953E+04  0.22043551953E+04  0.25500000920E-02 0.  1.
    10030    2    1    2    0    0  0.00000000000E+00  0.00000000000E+00 -0.99579716371E+03  0.34129132269E+04  0.32644087831E+04 0.  0.
        3    1    3    3  502    0 -0.14545794774E+04  0.10175268855E+02  0.27617945899E+03  0.14806012616E+04  0.10100000352E+00 0. -1.
       -3    1    3    3    0  502  0.14545794774E+04 -0.10175268855E+02 -0.12719766227E+04  0.19323119653E+04  0.10100000352E+00 0.  1.
</event>
<event>
 5   0  0.6424183E-07  0.3083536E+04  0.7818609E-02  0.8220271E-01
       -2   -1    0    0    0  501  0.00000000000E+00  0.00000000000E+00  0.15555600438E+04  0.15555600438E+04  0.25500000920E-02 0.  1.
        2   -1    0    0  501    0  0.00000000000E+00  0.00000000000E+00 -0.15280984669E+04  0.15280984669E+04  0.25500000920E-02 0. -1.
    10030    2    1    2    0    0  0.00000000000E+00  0.00000000000E+00  0.27461576873E+02  0.30836585107E+04  0.30835362285E+04 0.  0.
        2    1    3    3  502    0  0.11567516489E+04  0.91664679564E+03  0.45954347941E+03  0.15457994484E+04  0.25500000920E-02 0.  1.
       -2    1    3    3    0  502 -0.11567516489E+04 -0.91664679564E+03 -0.43208190253E+03  0.15378590623E+04  0.25500000920E-02 0. -1.
</event>
<event>
 5   0  0.2037333E-07  0.3310339E+04  0.7818609E-02  0.8160269E-01
       -1   -1    0    0    0  501  0.00000000000E+00  0.00000000000E+00  0.15888462350E+04  0.15888462350E+04  0.50400001928E-02 0. -1.
        1   -1    0    0  501    0  0.00000000000E+00  0.00000000000E+00 -0.17242617432E+04  0.17242617432E+04  0.50400001928E-02 0.  1.
    10030    2    1    2    0    0  0.00000000000E+00  0.00000000000E+00 -0.13541550822E+03  0.33131079782E+04  0.33103394260E+04 0.  0.
        3    1    3    3  502    0  0.14284842722E+04  0.75786661527E+03  0.28565642679E+03  0.16421110580E+04  0.10100000352E+00 0.  1.
       -3    1    3    3    0  502 -0.14284842722E+04 -0.75786661527E+03 -0.42107193501E+03  0.16709969202E+04  0.10100000352E+00 0. -1.
</event>
<event>
 5   0  0.2087665E-07  0.3281024E+04  0.7818609E-02  0.8167741E-01
        1   -1    0    0  501    0  0.00000000000E+00  0.00000000000E+00  0.21512830244E+04  0.21512830244E+04  0.50400001928E-02 0. -1.
       -1   -1    0    0    0  501  0.00000000000E+00  0.00000000000E+00 -0.12510114127E+04  0.12510114128E+04  0.50400001928E-02 0.  1.
    10030    2    1    2    0    0  0.00000000000E+00  0.00000000000E+00  0.90027161164E+03  0.34022944371E+04  0.32810239960E+04 0.  0.
        5    1    3    3  502    0  0.10279187907E+04  0.11998628955E+03 -0.86979957203E+03  0.13518828113E+04  0.46999998093E+01 0.  1.
       -5    1    3    3    0  502 -0.10279187907E+04 -0.11998628955E+03  0.17700711837E+04  0.20504116258E+04  0.46999998093E+01 0. -1.
</event>
<event>
 5   0  0.2080770E-07  0.3299468E+04  0.7818609E-02  0.8163031E-01
        1   -1    0    0  501    0  0.00000000000E+00  0.00000000000E+00  0.11025878978E+04  0.11025878979E+04  0.50400001928E-02 0.  1.
       -1   -1    0    0    0  501  0.00000000000E+00  0.00000000000E+00 -0.24683949998E+04  0.24683949998E+04  0.50400001928E-02 0. -1.
    10030    2    1    2    0    0  0.00000000000E+00  0.00000000000E+00 -0.13658071019E+04  0.35709828977E+04  0.32994681110E+04 0.  0.
        4    1    3    3  502    0 -0.79646882370E+03 -0.25459779206E+03  0.85624829213E+03  0.11968063225E+04  0.12699999809E+01 0.  1.
       -4    1    3    3    0  502  0.79646882370E+03  0.25459779206E+03 -0.22220553941E+04  0.23741765752E+04  0.12699999809E+01 0. -1.
</event>
<event>
 5   0  0.6351753E-07  0.3287420E+04  0.7818609E-02  0.8166104E-01
        2   -1    0    0  501    0  0.00000000000E+00  0.00000000000E+00  0.11770652801E+04  0.11770652801E+04  0.25500000920E-02 0. -1.
       -2   -1    0    0    0  501  0.00000000000E+00  0.00000000000E+00 -0.22953552770E+04  0.22953552770E+04  0.25500000920E-02 0.  1.
    10030    2    1    2    0    0  0.00000000000E+00  0.00000000000E+00 -0.11182899969E+04  0.34724205571E+04  0.32874202665E+04 0.  0.
        3    1    3    3  502    0 -0.11306508641E+04  0.16275972187E+03 -0.18075715486E+04  0.21382649548E+04  0.10100000352E+00 0.  1.
       -3    1    3    3    0  502  0.11306508641E+04 -0.16275972187E+03  0.68928155173E+03  0.13341556023E+04  0.10100000352E+00 0. -1.
</event>
<event>
 5   0  0.6424183E-07  0.3301231E+04  0.7818609E-02  0.8162582E-01
        2   -1    0    0  501    0  0.00000000000E+00  0.00000000000E+00  0.18142059535E+04  0.18142059535E+04  0.25500000920E-02 0.  1.
       -2   -1    0    0    0  501  0.00000000000E+00  0.00000000000E+00 -0.15017763023E+04  0.15017763023E+04  0.25500000920E-02 0. -1.
    10030    2    1    2    0    0  0.00000000000E+00  0.00000000000E+00  0.31242965117E+03  0.33159822558E+04  0.33012309877E+04 0.  0.
        2    1    3    3  502    0 -0.18903751563E+03  0.15198490756E+04  0.77447726282E+03  0.17162434051E+04  0.25500000920E-02 0.  1.
       -2    1    3    3    0  502  0.18903751563E+03 -0.15198490756E+04 -0.46204761165E+03  0.15997388507E+04  0.25500000920E-02 0. -1.
</event>
<event>
 5   0  0.6426079E-07  0.3447370E+04  0.7818609E-02  0.8126377E-01
        2   -1    0    0  501    0  0.00000000000E+00  0.00000000000E+00  0.27070339839E+04  0.27070339839E+04  0.25500000920E-02 0.  1.
       -2   -1    0    0    0  501  0.00000000000E+00  0.00000000000E+00 -0.10975444720E+04  0.10975444720E+04  0.25500000920E-02 0. -1.
    10030    2    1    2    0    0  0.00000000000E+00  0.00000000000E+00  0.16094895119E+04  0.38045784559E+04  0.34473701191E+04 0.  0.
        4    1    3    3  502    0  0.59030983788E+03  0.90851926612E+03 -0.67476802898E+03  0.12763958898E+04  0.12699999809E+01 0. -1.
       -4    1    3    3    0  502 -0.59030983788E+03 -0.90851926612E+03  0.22842575409E+04  0.25281825661E+04  0.12699999809E+01 0.  1.
</event>
<event>
 5   0  0.2057130E-07  0.3298707E+04  0.7818609E-02  0.8163225E-01
        1   -1    0    0  501    0  0.00000000000E+00  0.00000000000E+00  0.11211059397E+04  0.11211059397E+04  0.50400001928E-02 0. -1.
       -1   -1    0    0    0  501  0.00000000000E+00  0.00000000000E+00 -0.24265025405E+04  0.24265025405E+04  0.50400001928E-02 0.  1.
    10030    2    1    2    0    0  0.00000000000E+00  0.00000000000E+00 -0.13053966008E+04  0.35476084802E+04  0.32987066622E+04 0.  0.
        2    1    3    3  502    0  0.33762674721E+03  0.29225752693E+03  0.10548577773E+04  0.11454829605E+04  0.25500000920E-02 0. -1.
       -2    1    3    3    0  502 -0.33762674721E+03 -0.29225752693E+03 -0.23602543781E+04  0.24021255196E+04  0.25500000920E-02 0.  1.
</event>
<event>
 5   0  0.6351753E-07  0.3158876E+04  0.7818609E-02  0.8199763E-01
       -2   -1    0    0    0  501  0.00000000000E+00  0.00000000000E+00  0.15953875513E+04  0.15953875513E+04  0.25500000920E-02 0. -1.
        2   -1    0    0  501    0  0.00000000000E+00  0.00000000000E+00 -0.15636482242E+04  0.15636482242E+04  0.25500000920E-02 0.  1.
    10030    2    1    2    0    0  0.00000000000E+00  0.00000000000E+00  0.31739327096E+02  0.31590357755E+04  0.31588763265E+04 0.  0.
        3    1    3    3  502    0 -0.68141110991E+03 -0.10069198934E+02 -0.14090539737E+04  0.15652014569E+04  0.10100000352E+00 0.  1.
       -3    1    3    3    0  502  0.68141110991E+03  0.10069198934E+02  0.14407933008E+04  0.15938343187E+04  0.10100000352E+00 0. -1.
</event>
<event>
 5   0  0.6424183E-07  0.3294040E+04  0.7818609E-02  0.8164414E-01
       -2   -1    0    0    0  501  0.00000000000E+00  0.00000000000E+00  0.19418452176E+04  0.19418452176E+04  0.25500000920E-02 0. -1.
        2   -1    0    0  501    0  0.00000000000E+00  0.00000000000E+00 -0.13969571895E+04  0.13969571895E+04  0.25500000920E-02 0.  1.
    10030    2    1    2    0    0  0.00000000000E+00  0.00000000000E+00  0.54488802809E+03  0.33388024071E+04  0.32940398526E+04 0.  0.
        2    1    3    3  502    0 -0.10303422245E+04  0.58572629019E+03 -0.88677310583E+03  0.14802185406E+04  0.25500000920E-02 0.  1.
       -2    1    3    3    0  502  0.10303422245E+04 -0.58572629019E+03  0.14316611339E+04  0.18585838665E+04  0.25500000920E-02 0. -1.
</event>
<event>
 5   0  0.2080828E-07  0.3281376E+04  0.7818609E-02  0.8167650E-01
        1   -1    0    0  501    0  0.00000000000E+00  0.00000000000E+00  0.18064043699E+04  0.18064043700E+04  0.50400001928E-02 0.  1.
       -1   -1    0    0    0  501  0.00000000000E+00  0.00000000000E+00 -0.14901742772E+04  0.14901742772E+04  0.50400001928E-02 0. -1.
    10030    2    1    2    0    0  0.00000000000E+00  0.00000000000E+00  0.31623009274E+03  0.32965786472E+04  0.32813761298E+04 0.  0.
        1    1    3    3  502    0 -0.38879256677E+03  0.14274788017E+04  0.87062716514E+03  0.17166382991E+04  0.50400001928E-02 0.  1.
       -1    1    3    3    0  502  0.38879256677E+03 -0.14274788017E+04 -0.55439707240E+03  0.15799403480E+04  0.50400001928E-02 0. -1.
</event>
<event>
 5   0  0.2087665E-07  0.3297492E+04  0.7818609E-02  0.8163534E-01
       -1   -1    0    0    0  501  0.00000000000E+00  0.00000000000E+00  0.12727731217E+04  0.12727731217E+04  0.50400001928E-02 0. -1.
        1   -1    0    0  501    0  0.00000000000E+00  0.00000000000E+00 -0.21357794470E+04  0.21357794470E+04  0.50400001928E-02 0.  1.
    10030    2    1    2    0    0  0.00000000000E+00  0.00000000000E+00 -0.86300632529E+03  0.34085525687E+04  0.32974915764E+04 0.  0.
        5    1    3    3  502    0 -0.18315624937E+03 -0.29644272466E+03 -0.20972740190E+04  0.21260303153E+04  0.46999998093E+01 0.  1.
       -5    1    3    3    0  502  0.18315624937E+03  0.29644272466E+03  0.12342676937E+04  0.12825222534E+04  0.46999998093E+01 0. -1.
</event>
<event>
 5   0  0.2080770E-07  0.3298440E+04  0.7818609E-02  0.8163292E-01
        1   -1    0    0  501    0  0.00000000000E+00  0.00000000000E+00  0.20772261924E+04  0.20772261924E+04  0.50400001928E-02 0.  1.
       -1   -1    0    0    0  501  0.00000000000E+00  0.00000000000E+00 -0.13094035847E+04  0.13094035847E+04  0.50400001928E-02 0. -1.
    10030    2    1    2    0    0  0.00000000000E+00  0.00000000000E+00  0.76782260773E+03  0.33866297771E+04  0.32984404936E+04 0.  0.
        4    1    3    3  502    0  0.45464740257E+02 -0.92660866844E+02  0.20739063517E+04  0.20764735123E+04  0.12699999809E+01 0.  1.
       -4    1    3    3    0  502 -0.45464740257E+02  0.92660866844E+02 -0.13060837440E+04  0.13101562647E+04  0.12699999809E+01 0. -1.
</event>
<event>
 5   0  0.2037333E-07  0.3307343E+04  0.7818609E-02  0.8161030E-01
        1   -1    0    0  501    0  0.00000000000E+00  0.00000000000E+00  0.14737071927E+04  0.14737071927E+04  0.50400001928E-02 0.  1.
       -1   -1    0    0    0  501  0.00000000000E+00  0.00000000000E+00 -0.18556121244E+04  0.18556121244E+04  0.50400001928E-02 0. -1.
    10030    2    1    2    0    0  0.00000000000E+00  0.00000000000E+00 -0.38190493167E+03  0.33293193171E+04  0.33073427005E+04 0.  0.
        3    1    3    3  502    0 -0.59828874126E+03 -0.10637140595E+04 -0.13142489437E+04  0.17935125632E+04  0.10100000352E+00 0. -1.
       -3    1    3    3    0  502  0.59828874126E+03  0.10637140595E+04  0.93234401201E+03  0.15358067539E+04  0.10100000352E+00 0.  1.
</event>
<event>
 5   0  0.6351753E-07  0.3273865E+04  0.7818609E-02  0.8169577E-01
        2   -1    0    0  501    0  0.00000000000E+00  0.00000000000E+00  0.19653574878E+04  0.19653574878E+04  0.25500000920E-02 0. -1.
       -2   -1    0    0    0  501  0.00000000000E+00  0.00000000000E+00 -0.13633894435E+04  0.13633894435E+04  0.25500000920E-02 0.  1.
    10030    2    1    2    0    0  0.00000000000E+00  0.00000000000E+00  0.60196804426E+03  0.33287469314E+04  0.32738647814E+04 0.  0.
        3    1    3    3  502    0  0.48439610563E+03 -0.93938542497E+03 -0.96995561030E+03  0.14345377165E+04  0.10100000352E+00 0.  1.
       -3    1    3    3    0  502 -0.48439610563E+03  0.93938542497E+03  0.15719236546E+04  0.18942092149E+04  0.10100000352E+00 0. -1.
</event>
<event>
 5   0  0.2080770E-07  0.3211557E+04  0.7818609E-02  0.8185772E-01
        1   -1    0    0  501    0  0.00000000000E+00  0.00000000000E+00  0.15967134439E+04  0.15967134439E+04  0.50400001928E-02 0. -1.
       -1   -1    0    0    0  501  0.00000000000E+00  0.00000000000E+00 -0.16148952202E+04  0.16148952202E+04  0.50400001928E-02 0.  1.
    10030    2    1    2    0    0  0.00000000000E+00  0.00000000000E+00 -0.18181776269E+02  0.32116086641E+04  0.32115571977E+04 0.  0.
        4    1    3    3  502    0 -0.97884940697E+03  0.60232873542E+03  0.11123445916E+04  0.15994555856E+04  0.12699999809E+01 0. -1.
       -4    1    3    3    0  502  0.97884940697E+03 -0.60232873542E+03 -0.11305263678E+04  0.16121530784E+04  0.12699999809E+01 0.  1.
</event>
<event>
 5   0  0.6377741E-07  0.3296763E+04  0.7818609E-02  0.8163720E-01
       -2   -1    0    0    0  501  0.00000000000E+00  0.00000000000E+00  0.11688315661E+04  0.11688315661E+04  0.25500000920E-02 0.  1.
        2   -1    0    0  501    0  0.00000000000E+00  0.00000000000E+00 -0.23246818878E+04  0.23246818878E+04  0.25500000920E-02 0. -1.
    10030    2    1    2    0    0  0.00000000000E+00  0.00000000000E+00 -0.11558503217E+04  0.34935134539E+04  0.32967630013E+04 0.  0.
        1    1    3    3  502    0  0.93617422767E+03 -0.14687116726E+03  0.85133446580E+03  0.12738774262E+04  0.50400001928E-02 0.  1.
       -1    1    3    3    0  502 -0.93617422767E+03  0.14687116726E+03 -0.20071847875E+04  0.22196360277E+04  0.50400001928E-02 0. -1.
</event>
<event>
 5   0  0.2057130E-07  0.3280270E+04  0.7818609E-02  0.8167934E-01
       -1   -1    0    0    0  501  0.00000000000E+00  0.00000000000E+00  0.92010653336E+03  0.92010653337E+03  0.50400001928E-02 0. -1.
        1   -1    0    0  501    0  0.00000000000E+00  0.00000000000E+00 -0.29236218554E+04  0.29236218554E+04  0.50400001928E-02 0.  1.
    10030    2    1    2    0    0  0.00000000000E+00  0.00000000000E+00 -0.20035153220E+04  0.38437283888E+04  0.32802704585E+04 0.  0.
        2    1    3    3  502    0 -0.88740584851E+03  0.13043852859E+04 -0.15272727576E+04  0.21957850966E+04  0.25500000920E-02 0.  1.
       -2    1    3    3    0  502  0.88740584851E+03 -0.13043852859E+04 -0.47624256439E+03  0.16479432922E+04  0.25500000920E-02 0. -1.
</event>
<event>
 5   0  0.2037333E-07  0.3298957E+04  0.7818609E-02  0.8163161E-01
       -1   -1    0    0    0  501  0.00000000000E+00  0.00000000000E+00  0.11097363528E+04  0.11097363528E+04  0.50400001928E-02 0. -1.
        1   -1    0    0  501    0  0.00000000000E+00  0.00000000000E+00 -0.24517349363E+04  0.24517349363E+04  0.50400001928E-02 0.  1.
    10030    2    1    2    0    0  0.00000000000E+00  0.00000000000E+00 -0.13419985834E+04  0.35614712891E+04  0.32989570390E+04 0.  0.
        3    1    3    3  502    0  0.11351822978E+04  0.10763189701E+03  0.61571448824E+03  0.12958888131E+04  0.10100000352E+00 0. -1.
       -3    1    3    3    0  502 -0.11351822978E+04 -0.10763189701E+03 -0.19577130717E+04  0.22655824760E+04  0.10100000352E+00 0.  1.
</event>
<event>
 5   0  0.6377741E-07  0.3303299E+04  0.7818609E-02  0.8162056E-01
        2   -1    0    0  501    0  0.00000000000E+00  0.00000000000E+00  0.26118157425E+04  0.26118157425E+04  0.25500000920E-02 0. -1.
       -2   -1    0    0    0  501  0.00000000000E+00  0.00000000000E+00 -0.10444635288E+04  0.10444635288E+04  0.25500000920E-02 0.  1.
    10030    2    1    2    0    0  0.00000000000E+00  0.00000000000E+00  0.15673522138E+04  0.36562792713E+04  0.33032991309E+04 0.  0.
        1    1    3    3  502    0 -0.63960890257E+03  0.14559470984E+04  0.12775188509E+04  0.20398372278E+04  0.50400001928E-02 0. -1.
       -1    1    3    3    0  502  0.63960890257E+03 -0.14559470984E+04  0.28983336290E+03  0.16164420435E+04  0.50400001928E-02 0.  1.
</event>
<event>
 5   0  0.2080770E-07  0.3304634E+04  0.7818609E-02  0.8161717E-01
        1   -1    0    0  501    0  0.00000000000E+00  0.00000000000E+00  0.20171813755E+04  0.20171813755E+04  0.50400001928E-02 0.  1.
       -1   -1    0    0    0  501  0.00000000000E+00  0.00000000000E+00 -0.13534483177E+04  0.13534483178E+04  0.50400001928E-02 0. -1.
    10030    2    1    2    0    0  0.00000000000E+00  0.00000000000E+00  0.66373305771E+03  0.33706296932E+04  0.33046335586E+04 0.  0.
        4    1    3    3  502    0 -0.15278167238E+03  0.13551524342E+04  0.12834335510E+04  0.18726942228E+04  0.12699999809E+01 0.  1.
       -4    1    3    3    0  502  0.15278167238E+03 -0.13551524342E+04 -0.61970049333E+03  0.14979354704E+04  0.12699999809E+01 0. -1.
</event>
<event>
 5   0  0.6424183E-07  0.3284907E+04  0.7818609E-02  0.8166746E-01
       -2   -1    0    0    0  501  0.00000000000E+00  0.00000000000E+00  0.10229592739E+04  0.10229592739E+04  0.25500000920E-02 0. -1.
        2   -1    0    0  501    0  0.00000000000E+00  0.00000000000E+00 -0.26371077214E+04  0.26371077214E+04  0.25500000920E-02 0.  1.
    10030    2    1    2    0    0  0.00000000000E+00  0.00000000000E+00 -0.16141484474E+04  0.36600669953E+04  0.32849071828E+04 0.  0.
        2    1    3    3  502    0 -0.78947209430E+03 -0.13534012726E+04 -0.25817299099E+03  0.15879592204E+04  0.25500000920E-02 0.  1.
       -2    1    3    3    0  502  0.78947209430E+03  0.13534012726E+04 -0.13559754565E+04  0.20721077749E+04  0.25500000920E-02 0. -1.
</event>
<event>
 5   0  0.2087665E-07  0.3304811E+04  0.7818609E-02  0.8161672E-01
       -1   -1    0    0    0  501  0.00000000000E+00  0.00000000000E+00  0.13872092687E+04  0.13872092688E+04  0.50400001928E-02 0.  1.
        1   -1    0    0  501    0  0.00000000000E+00  0.00000000000E+00 -0.19682994771E+04  0.19682994771E+04  0.50400001928E-02 0. -1.
    10030    2    1    2    0    0  0.00000000000E+00  0.00000000000E+00 -0.58109020838E+03  0.33555087459E+04  0.33048106018E+04 0.  0.
        5    1    3    3  502    0  0.40679645050E+03  0.15493401596E+04  0.12124147237E+03  0.16064432348E+04  0.46999998093E+01 0.  1.
       -5    1    3    3    0  502 -0.40679645050E+03 -0.15493401596E+04 -0.70233168075E+03  0.17490655111E+04  0.46999998093E+01 0. -1.
</event>
<event>
 5   0  0.6351753E-07  0.3319780E+04  0.7818609E-02  0.8157881E-01
        2   -1    0    0  501    0  0.00000000000E+00  0.00000000000E+00  0.25433095838E+04  0.25433095838E+04  0.25500000920E-02 0. -1.
       -2   -1    0    0    0  501  0.00000000000E+00  0.00000000000E+00 -0.10833263149E+04  0.10833263149E+04  0.25500000920E-02 0.  1.
    10030    2    1    2    0    0  0.00000000000E+00  0.00000000000E+00  0.14599832690E+04  0.36266358987E+04  0.33197796306E+04 0.  0.
        3    1    3    3  502    0 -0.17017562753E+03  0.30238668856E+03 -0.10432648439E+04  0.10994539546E+04  0.10100000352E+00 0.  1.
       -3    1    3    3    0  502  0.17017562753E+03 -0.30238668856E+03  0.25032481129E+04  0.25271819441E+04  0.10100000352E+00 0. -1.
</event>
<event>
 5   0  0.2057130E-07  0.3144760E+04  0.7818609E-02  0.8203560E-01
       -1   -1    0    0    0  501  0.00000000000E+00  0.00000000000E+00  0.15563217619E+04  0.15563217619E+04  0.50400001928E-02 0.  1.
        1   -1    0    0  501    0  0.00000000000E+00  0.00000000000E+00 -0.15886035869E+04  0.15886035869E+04  0.50400001928E-02 0. -1.
    10030    2    1    2    0    0  0.00000000000E+00  0.00000000000E+00 -0.32281825010E+02  0.31449253489E+04  0.31447596623E+04 0.  0.
        2    1    3    3  502    0 -0.15142341760E+04  0.13775781681E+03  0.38449968685E+03  0.15683502049E+04  0.25500000920E-02 0.  1.
       -2    1    3    3    0  502  0.15142341760E+04 -0.13775781681E+03 -0.41678151186E+03  0.15765751440E+04  0.25500000920E-02 0. -1.
</event>
<event>
 5   0  0.6424183E-07  0.3320897E+04  0.7818609E-02  0.8157599E-01
        2   -1    0    0  501    0  0.00000000000E+00  0.00000000000E+00  0.24138113053E+04  0.24138113053E+04  0.25500000920E-02 0. -1.
       -2   -1    0    0    0  501  0.00000000000E+00  0.00000000000E+00 -0.11422137372E+04  0.11422137372E+04  0.25500000920E-02 0.  1.
    10030    2    1    2    0    0  0.00000000000E+00  0.00000000000E+00  0.12715975681E+04  0.35560250425E+04  0.33208965247E+04 0.  0.
        2    1    3    3  502    0  0.11623272259E+04  0.73699967000E+03 -0.35890452184E+03  0.14223169652E+04  0.25500000920E-02 0.  1.
       -2    1    3    3    0  502 -0.11623272259E+04 -0.73699967000E+03  0.16305020900E+04  0.21337080773E+04  0.25500000920E-02 0. -1.
</event>
<event>
 5   0  0.6351753E-07  0.3279090E+04  0.7818609E-02  0.8168236E-01
        2   -1    0    0  501    0  0.00000000000E+00  0.00000000000E+00  0.11048003045E+04  0.11048003045E+04  0.25500000920E-02 0. -1.
       -2   -1    0    0    0  501  0.00000000000E+00  0.00000000000E+00 -0.24331170047E+04  0.24331170047E+04  0.25500000920E-02 0.  1.
    10030    2    1    2    0    0  0.00000000000E+00  0.00000000000E+00 -0.13283167002E+04  0.35379173092E+04  0.32790903663E+04 0.  0.
        3    1    3    3  502    0 -0.17498305986E+03  0.60193897410E+02  0.10934972804E+04  0.11090440429E+04  0.10100000352E+00 0. -1.
       -3    1    3    3    0  502  0.17498305986E+03 -0.60193897410E+02 -0.24218139807E+04  0.24288732663E+04  0.10100000352E+00 0.  1.
</event>
<event>
 5   0  0.2037333E-07  0.3288381E+04  0.7818609E-02  0.8165858E-01
        1   -1    0    0  501    0  0.00000000000E+00  0.00000000000E+00  0.14226546911E+04  0.14226546911E+04  0.50400001928E-02 0.  1.
       -1   -1    0    0    0  501  0.00000000000E+00  0.00000000000E+00 -0.19002234091E+04  0.19002234091E+04  0.50400001928E-02 0. -1.
    10030    2    1    2    0    0  0.00000000000E+00  0.00000000000E+00 -0.47756871793E+03  0.33228781002E+04  0.32883806027E+04 0.  0.
        3    1    3    3  502    0  0.77164464686E+03  0.44686787768E+03 -0.16346650607E+04  0.18620569894E+04  0.10100000352E+00 0. -1.
       -3    1    3    3    0  502 -0.77164464686E+03 -0.44686787768E+03  0.11570963427E+04  0.14608211108E+04  0.10100000352E+00 0.  1.
</event>
<event>
 5   0  0.2080770E-07  0.3295248E+04  0.7818609E-02  0.8164106E-01
        1   -1    0    0  501    0  0.00000000000E+00  0.00000000000E+00  0.27308890437E+04  0.27308890437E+04  0.50400001928E-02 0. -1.
       -1   -1    0    0    0  501  0.00000000000E+00  0.00000000000E+00 -0.99405871762E+03  0.99405871764E+03  0.50400001928E-02 0.  1.
    10030    2    1    2    0    0  0.00000000000E+00  0.00000000000E+00  0.17368303261E+04  0.37249477614E+04  0.32952475238E+04 0.  0.
        4    1    3    3  502    0  0.63475484169E+02  0.68858304581E+03 -0.82208533921E+03  0.10742446955E+04  0.12699999809E+01 0.  1.
       -4    1    3    3    0  502 -0.63475484169E+02 -0.68858304581E+03  0.25589156653E+04  0.26507030658E+04  0.12699999809E+01 0. -1.
</event>
<event>
 5   0  0.6424183E-07  0.3296591E+04  0.7818609E-02  0.8163763E-01
        2   -1    0    0  501    0  0.00000000000E+00  0.00000000000E+00  0.18143237662E+04  0.18143237662E+04  0.25500000920E-02 0. -1.
       -2   -1    0    0    0  501  0.00000000000E+00  0.00000000000E+00 -0.14974605159E+04  0.14974605159E+04  0.25500000920E-02 0.  1.
    10030    2    1    2    0    0  0.00000000000E+00  0.00000000000E+00  0.31686325032E+03  0.33117842822E+04  0.32965910896E+04 0.  0.
        2    1    3    3  502    0 -0.13430319146E+04  0.88484832333E+03 -0.20404553228E+03  0.16212112318E+04  0.25500000920E-02 0.  1.
       -2    1    3    3    0  502  0.13430319146E+04 -0.88484832333E+03  0.52090878260E+03  0.16905730504E+04  0.25500000920E-02 0. -1.
</event>
<event>
 5   0  0.6426079E-07  0.3269545E+04  0.7818609E-02  0.8170688E-01
        2   -1    0    0  501    0  0.00000000000E+00  0.00000000000E+00  0.21574755085E+04  0.21574755085E+04  0.25500000920E-02 0. -1.
       -2   -1    0    0    0  501  0.00000000000E+00  0.00000000000E+00 -0.12387072514E+04  0.12387072514E+04  0.25500000920E-02 0.  1.
    10030    2    1    2    0    0  0.00000000000E+00  0.00000000000E+00  0.91876825706E+03  0.33961827600E+04  0.32695446516E+04 0.  0.
        4    1    3    3  502    0  0.97437134688E+03  0.12591650467E+04  0.84467246697E+03  0.18023233134E+04  0.12699999809E+01 0. -1.
       -4    1    3    3    0  502 -0.97437134688E+03 -0.12591650467E+04  0.74095790090E+02  0.15938594466E+04  0.12699999809E+01 0.  1.
</event>
<event>
 5   0  0.6351753E-07  0.3299842E+04  0.7818609E-02  0.8162936E-01
        2   -1    0    0  501    0  0.00000000000E+00  0.00000000000E+00  0.29324490102E+04  0.29324490102E+04  0.25500000920E-02 0. -1.
       -2   -1    0    0    0  501  0.00000000000E+00  0.00000000000E+00 -0.92831586429E+03  0.92831586429E+03  0.25500000920E-02 0.  1.
    10030    2    1    2    0    0  0.00000000000E+00  0.00000000000E+00  0.20041331459E+04  0.38607648745E+04  0.32998417764E+04 0.  0.
        3    1    3    3  502    0 -0.83399856632E+03  0.88356925493E+03  0.23080499092E+04  0.26083218035E+04  0.10100000352E+00 0. -1.
       -3    1    3    3    0  502  0.83399856632E+03 -0.88356925493E+03 -0.30391676332E+03  0.12524430710E+04  0.10100000352E+00 0.  1.
</event>
<event>
 5   0  0.6258718E-07  0.3300466E+04  0.7818609E-02  0.8162777E-01
        2   -1    0    0  501    0  0.00000000000E+00  0.00000000000E+00  0.19970416718E+04  0.19970416718E+04  0.25500000920E-02 0. -1.
       -2   -1    0    0    0  501  0.00000000000E+00  0.00000000000E+00 -0.13636511392E+04  0.13636511392E+04  0.25500000920E-02 0.  1.
    10030    2    1    2    0    0  0.00000000000E+00  0.00000000000E+00  0.63339053251E+03  0.33606928110E+04  0.33004655131E+04 0.  0.
        5    1    3    3  502    0 -0.80198595170E+02  0.53310355480E+03  0.19048407879E+04  0.19796645504E+04  0.46999998093E+01 0. -1.
       -5    1    3    3    0  502  0.80198595170E+02 -0.53310355480E+03 -0.12714502554E+04  0.13810282606E+04  0.46999998093E+01 0.  1.
</event>
<event>
 5   0  0.2080770E-07  0.3299760E+04  0.7818609E-02  0.8162956E-01
        1   -1    0    0  501    0  0.00000000000E+00  0.00000000000E+00  0.24084476315E+04  0.24084476315E+04  0.50400001928E-02 0.  1.
       -1   -1    0    0    0  501  0.00000000000E+00  0.00000000000E+00 -0.11302317136E+04  0.11302317137E+04  0.50400001928E-02 0. -1.
    10030    2    1    2    0    0  0.00000000000E+00  0.00000000000E+00  0.12782159179E+04  0.35386793452E+04  0.32997599269E+04 0.  0.
        4    1    3    3  502    0 -0.13647663107E+04  0.81205454352E+03  0.15941477669E+03  0.15960684034E+04  0.12699999809E+01 0. -1.
       -4    1    3    3    0  502  0.13647663107E+04 -0.81205454352E+03  0.11188011412E+04  0.19426109417E+04  0.12699999809E+01 0.  1.
</event>
<event>
 5   0  0.2087665E-07  0.3251372E+04  0.7818609E-02  0.8175380E-01
       -1   -1    0    0    0  501  0.00000000000E+00  0.00000000000E+00  0.10683155728E+04  0.10683155728E+04  0.50400001928E-02 0. -1.
        1   -1    0    0  501    0  0.00000000000E+00  0.00000000000E+00 -0.24738522843E+04  0.24738522843E+04  0.50400001928E-02 0.  1.
    10030    2    1    2    0    0  0.00000000000E+00  0.00000000000E+00 -0.14055367115E+04  0.35421678571E+04  0.32513719690E+04 0.  0.
        5    1    3    3  502    0 -0.11842423269E+04 -0.10868890616E+04 -0.43797642476E+03  0.16660141535E+04  0.46999998093E+01 0. -1.
       -5    1    3    3    0  502  0.11842423269E+04  0.10868890616E+04 -0.96756028672E+03  0.18761537036E+04  0.46999998093E+01 0.  1.
</event>
<event>
 5   0  0.2080828E-07  0.3304654E+04  0.7818609E-02  0.8161712E-01
       -1   -1    0    0    0  501  0.00000000000E+00  0.00000000000E+00  0.12585578187E+04  0.12585578187E+04  0.50400001928E-02 0.  1.
        1   -1    0    0  501    0  0.00000000000E+00  0.00000000000E+00 -0.21692962713E+04  0.21692962713E+04  0.50400001928E-02 0. -1.
    10030    2    1    2    0    0  0.00000000000E+00  0.00000000000E+00 -0.91073845255E+03  0.34278540900E+04  0.33046541624E+04 0.  0.
        1    1    3    3  502    0 -0.14139728492E+03  0.16398704811E+04 -0.60574415583E+03  0.17538798047E+04  0.50400001928E-02 0. -1.
       -1    1    3    3    0  502  0.14139728492E+03 -0.16398704811E+04 -0.30499429672E+03  0.16739742853E+04  0.50400001928E-02 0.  1.
</event>
<event>
 5   0  0.6426079E-07  0.3165603E+04  0.7818609E-02  0.8197961E-01
       -2   -1    0    0    0  501  0.00000000000E+00  0.00000000000E+00  0.14623499704E+04  0.14623499704E+04  0.25500000920E-02 0. -1.
        2   -1    0    0  501    0  0.00000000000E+00  0.00000000000E+00 -0.17131741210E+04  0.17131741210E+04  0.25500000920E-02 0.  1.
    10030    2    1    2    0    0  0.00000000000E+00  0.00000000000E+00 -0.25082415054E+03  0.31755240914E+04  0.31656027073E+04 0.  0.
        4    1    3    3  502    0 -0.11783509700E+04  0.24936729764E+03 -0.11555499659E+04  0.16691292323E+04  0.12699999809E+01 0.  1.
       -4    1    3    3    0  502  0.11783509700E+04 -0.24936729764E+03  0.90472581532E+03  0.15063948591E+04  0.12699999809E+01 0. -1.
</event>
<event>
 5   0  0.6426079E-07  0.3301996E+04  0.7818609E-02  0.8162388E-01
        2   -1    0    0  501    0  0.00000000000E+00  0.00000000000E+00  0.19798425207E+04  0.19798425207E+04  0.25500000920E-02 0.  1.
       -2   -1    0    0    0  501  0.00000000000E+00  0.00000000000E+00 -0.13767736614E+04  0.13767736614E+04  0.25500000920E-02 0. -1.
    10030    2    1    2    0    0  0.00000000000E+00  0.00000000000E+00  0.60306885936E+03  0.33566161821E+04  0.33019963878E+04 0.  0.
        4    1    3    3  502    0 -0.39723533941E+03 -0.14929222715E+04 -0.29049131388E+03  0.15719413603E+04  0.12699999809E+01 0.  1.
       -4    1    3    3    0  502  0.39723533941E+03  0.14929222715E+04  0.89356017324E+03  0.17846748219E+04  0.12699999809E+01 0. -1.
</event>
<event>
 5   0  0.1994250E-07  0.3303891E+04  0.7818609E-02  0.8161906E-01
        3   -1    0    0  501    0  0.00000000000E+00  0.00000000000E+00  0.11119893861E+04  0.11119893907E+04  0.10100000352E+00 0.  1.
       -3   -1    0    0    0  501  0.00000000000E+00  0.00000000000E+00 -0.24540909664E+04  0.24540909685E+04  0.10100000352E+00 0. -1.
    10030    2    1    2    0    0  0.00000000000E+00  0.00000000000E+00 -0.13421015803E+04  0.35660803592E+04  0.33038905061E+04 0.  0.
        5    1    3    3  502    0 -0.14157313701E+04 -0.84948019711E+03 -0.61203930607E+03  0.17608310878E+04  0.46999998093E+01 0.  1.
       -5    1    3    3    0  502  0.14157313701E+04  0.84948019711E+03 -0.73006227420E+03  0.18052492714E+04  0.46999998093E+01 0. -1.
</event>
<event>
 5   0  0.6424183E-07  0.3332507E+04  0.7818609E-02  0.8154673E-01
        2   -1    0    0  501    0  0.00000000000E+00  0.00000000000E+00  0.19052451057E+04  0.19052451057E+04  0.25500000920E-02 0.  1.
       -2   -1    0    0    0  501  0.00000000000E+00  0.00000000000E+00 -0.14572409338E+04  0.14572409338E+04  0.25500000920E-02 0. -1.
    10030    2    1    2    0    0  0.00000000000E+00  0.00000000000E+00  0.44800417195E+03  0.33624860395E+04  0.33325072585E+04 0.  0.
        2    1    3    3  502    0 -0.11232465221E+04 -0.87258883534E+03 -0.65173839522E+03  0.15645628657E+04  0.25500000920E-02 0. -1.
       -2    1    3    3    0  502  0.11232465221E+04  0.87258883534E+03  0.10997425672E+04  0.17979231738E+04  0.25500000920E-02 0.  1.
</event>
<event>
 5   0  0.2057130E-07  0.3315042E+04  0.7818609E-02  0.8159079E-01
        1   -1    0    0  501    0  0.00000000000E+00  0.00000000000E+00  0.26396966557E+04  0.26396966557E+04  0.50400001928E-02 0. -1.
       -1   -1    0    0    0  501  0.00000000000E+00  0.00000000000E+00 -0.10407921764E+04  0.10407921764E+04  0.50400001928E-02 0.  1.
    10030    2    1    2    0    0  0.00000000000E+00  0.00000000000E+00  0.15989044793E+04  0.36804888321E+04  0.33150418563E+04 0.  0.
        2    1    3    3  502    0  0.14482364098E+02  0.14426451837E+04  0.17054649440E+04  0.22338409836E+04  0.25500000920E-02 0. -1.
       -2    1    3    3    0  502 -0.14482364098E+02 -0.14426451837E+04 -0.10656046473E+03  0.14466478485E+04  0.25500000920E-02 0.  1.
</event>
<event>
 5   0  0.2037333E-07  0.3304160E+04  0.7818609E-02  0.8161838E-01
       -1   -1    0    0    0  501  0.00000000000E+00  0.00000000000E+00  0.13183531376E+04  0.13183531376E+04  0.50400001928E-02 0.  1.
        1   -1    0    0  501    0  0.00000000000E+00  0.00000000000E+00 -0.20702866485E+04  0.20702866485E+04  0.50400001928E-02 0. -1.
    10030    2    1    2    0    0  0.00000000000E+00  0.00000000000E+00 -0.75193351099E+03  0.33886397861E+04  0.33041603464E+04 0.  0.
        3    1    3    3  502    0 -0.13464611054E+04 -0.80609883027E+03  0.15358381532E+03  0.15768135055E+04  0.10100000352E+00 0.  1.
       -3    1    3    3    0  502  0.13464611054E+04  0.80609883027E+03 -0.90551732631E+03  0.18118262806E+04  0.10100000352E+00 0. -1.
</event>
<event>
 5   0  0.6258718E-07  0.3099084E+04  0.7818609E-02  0.8215989E-01
       -2   -1    0    0    0  501  0.00000000000E+00  0.00000000000E+00  0.20229847664E+04  0.20229847664E+04  0.25500000920E-02 0. -1.
        2   -1    0    0  501    0  0.00000000000E+00  0.00000000000E+00 -0.11868998553E+04  0.11868998553E+04  0.25500000920E-02 0.  1.
    10030    2    1    2    0    0  0.00000000000E+00  0.00000000000E+00  0.83608491111E+03  0.32098846218E+04  0.30990839463E+04 0.  0.
        5    1    3    3  502    0  0.75619557638E+03  0.63727767225E+02 -0.98124576615E+03  0.12404669772E+04  0.46999998093E+01 0.  1.
       -5    1    3    3    0  502 -0.75619557638E+03 -0.63727767225E+02  0.18173306773E+04  0.19694176445E+04  0.46999998093E+01 0. -1.
</event>
<event>
 5   0  0.6377741E-07  0.3291766E+04  0.7818609E-02  0.8164994E-01
        2   -1    0    0  501    0  0.00000000000E+00  0.00000000000E+00  0.18316962847E+04  0.18316962847E+04  0.25500000920E-02 0.  1.
       -2   -1    0    0    0  501  0.00000000000E+00  0.00000000000E+00 -0.14789188703E+04  0.14789188703E+04  0.25500000920E-02 0. -1.
    10030    2    1    2    0    0  0.00000000000E+00  0.00000000000E+00  0.35277741434E+03  0.33106151550E+04  0.32917656053E+04 0.  0.
        1    1    3    3  502    0  0.89574010216E+03 -0.10711858838E+04 -0.69988730997E+03  0.15619320647E+04  0.50400001928E-02 0. -1.
       -1    1    3    3    0  502 -0.89574010216E+03  0.10711858838E+04  0.10526647243E+04  0.17486830902E+04  0.50400001928E-02 0.  1.
</event>
<event>
 5   0  0.2080770E-07  0.3301431E+04  0.7818609E-02  0.8162531E-01
       -1   -1    0    0    0  501  0.00000000000E+00  0.00000000000E+00  0.10343288944E+04  0.10343288944E+04  0.50400001928E-02 0. -1.
        1   -1    0    0  501    0  0.00000000000E+00  0.00000000000E+00 -0.26344245153E+04  0.26344245153E+04  0.50400001928E-02 0.  1.
    10030    2    1    2    0    0  0.00000000000E+00  0.00000000000E+00 -0.16000956209E+04  0.36687534098E+04  0.33014308391E+04 0.  0.
        4    1    3    3  502    0  0.13319572692E+03  0.53625483522E+03 -0.25286042654E+04  0.25882719126E+04  0.12699999809E+01 0.  1.
       -4    1    3    3    0  502 -0.13319572692E+03 -0.53625483522E+03  0.92850864444E+03  0.10804814971E+04  0.12699999809E+01 0. -1.
</event>
<event>
 5   0  0.2080770E-07  0.3304358E+04  0.7818609E-02  0.8161787E-01
        1   -1    0    0  501    0  0.00000000000E+00  0.00000000000E+00  0.30150986238E+04  0.30150986238E+04  0.50400001928E-02 0.  1.
       -1   -1    0    0    0  501  0.00000000000E+00  0.00000000000E+00 -0.90534211376E+03  0.90534211378E+03  0.50400001928E-02 0. -1.
    10030    2    1    2    0    0  0.00000000000E+00  0.00000000000E+00  0.21097565100E+04  0.39204407376E+04  0.33043581896E+04 0.  0.
        4    1    3    3  502    0  0.99196400845E+03  0.93630606834E+03 -0.51148886151E+02  0.13650199519E+04  0.12699999809E+01 0. -1.
       -4    1    3    3    0  502 -0.99196400845E+03 -0.93630606834E+03  0.21609053962E+04  0.25554207857E+04  0.12699999809E+01 0.  1.
</event>
<event>
 5   0  0.2087665E-07  0.3243497E+04  0.7818609E-02  0.8177423E-01
       -1   -1    0    0    0  501  0.00000000000E+00  0.00000000000E+00  0.20947411154E+04  0.20947411154E+04  0.50400001928E-02 0. -1.
        1   -1    0    0  501    0  0.00000000000E+00  0.00000000000E+00 -0.12555574703E+04  0.12555574703E+04  0.50400001928E-02 0.  1.
    10030    2    1    2    0    0  0.00000000000E+00  0.00000000000E+00  0.83918364506E+03  0.33502985858E+04  0.32434967895E+04 0.  0.
        5    1    3    3  502    0  0.12224632656E+04 -0.10463496738E+04  0.21099741865E+03  0.16229005133E+04  0.46999998093E+01 0. -1.
       -5    1    3    3    0  502 -0.12224632656E+04  0.10463496738E+04  0.62818622642E+03  0.17273980724E+04  0.46999998093E+01 0.  1.
</event>
<event>
 5   0  0.6426079E-07  0.3310240E+04  0.7818609E-02  0.8160295E-01
        2   -1    0    0  501    0  0.00000000000E+00  0.00000000000E+00  0.19235976294E+04  0.19235976294E+04  0.25500000920E-02 0.  1.
       -2   -1    0    0    0  501  0.00000000000E+00  0.00000000000E+00 -0.14241138961E+04  0.14241138961E+04  0.25500000920E-02 0. -1.
    10030    2    1    2    0    0  0.00000000000E+00  0.00000000000E+00  0.49948373329E+03  0.33477115255E+04  0.33102399396E+04 0.  0.
        4    1    3    3  502    0  0.16109468994E+04 -0.10826380483E+03  0.61793667552E+03  0.17287909972E+04  0.12699999809E+01 0.  1.
       -4    1    3    3    0  502 -0.16109468994E+04  0.10826380483E+03 -0.11845294223E+03  0.16189205282E+04  0.12699999809E+01 0. -1.
</event>
<event>
 5   0  0.2087665E-07  0.3308868E+04  0.7818609E-02  0.8160643E-01
       -1   -1    0    0    0  501  0.00000000000E+00  0.00000000000E+00  0.11742854325E+04  0.11742854325E+04  0.50400001928E-02 0. -1.
        1   -1    0    0  501    0  0.00000000000E+00  0.00000000000E+00 -0.23309081327E+04  0.23309081327E+04  0.50400001928E-02 0.  1.
    10030    2    1    2    0    0  0.00000000000E+00  0.00000000000E+00 -0.11566227002E+04  0.35051935653E+04  0.33088677609E+04 0.  0.
        5    1    3    3  502    0  0.87939278457E+03  0.79212986639E+03 -0.18028968867E+04  0.21566781560E+04  0.46999998093E+01 0.  1.
       -5    1    3    3    0  502 -0.87939278457E+03 -0.79212986639E+03  0.64627418649E+03  0.13485154092E+04  0.46999998093E+01 0. -1.
</event>
<event>
 5   0  0.6351753E-07  0.3296823E+04  0.7818609E-02  0.8163704E-01
       -2   -1    0    0    0  501  0.00000000000E+00  0.00000000000E+00  0.13832604807E+04  0.13832604807E+04  0.25500000920E-02 0. -1.
        2   -1    0    0  501    0  0.00000000000E+00  0.00000000000E+00 -0.19643883795E+04  0.19643883795E+04  0.25500000920E-02 0.  1.
    10030    2    1    2    0    0  0.00000000000E+00  0.00000000000E+00 -0.58112789882E+03  0.33476488601E+04  0.32968232067E+04 0.  0.
        3    1    3    3  502    0 -0.83459741592E+03  0.48592172371E+03  0.10659155289E+04  0.14383492945E+04  0.10100000352E+00 0. -1.
       -3    1    3    3    0  502  0.83459741592E+03 -0.48592172371E+03 -0.16470434277E+04  0.19092995656E+04  0.10100000352E+00 0.  1.
</event>
<event>
 5   0  0.6351753E-07  0.3303438E+04  0.7818609E-02  0.8162021E-01
        2   -1    0    0  501    0  0.00000000000E+00  0.00000000000E+00  0.22248052962E+04  0.22248052962E+04  0.25500000920E-02 0.  1.
       -2   -1    0    0    0  501  0.00000000000E+00  0.00000000000E+00 -0.12262539287E+04  0.12262539287E+04  0.25500000920E-02 0. -1.
    10030    2    1    2    0    0  0.00000000000E+00  0.00000000000E+00  0.99855136748E+03  0.34510592249E+04  0.33034383512E+04 0.  0.
        3    1    3    3  502    0 -0.52521708151E+02  0.70963308906E+03  0.20564687356E+04  0.21760977279E+04  0.10100000352E+00 0.  1.
       -3    1    3    3    0  502  0.52521708151E+02 -0.70963308906E+03 -0.10579173681E+04  0.12749614970E+04  0.10100000352E+00 0. -1.
</event>
<event>
 5   0  0.2087665E-07  0.3294072E+04  0.7818609E-02  0.8164405E-01
        1   -1    0    0  501    0  0.00000000000E+00  0.00000000000E+00  0.12271547121E+04  0.12271547121E+04  0.50400001928E-02 0.  1.
       -1   -1    0    0    0  501  0.00000000000E+00  0.00000000000E+00 -0.22105833467E+04  0.22105833468E+04  0.50400001928E-02 0. -1.
    10030    2    1    2    0    0  0.00000000000E+00  0.00000000000E+00 -0.98342863469E+03  0.34377380588E+04  0.32940721124E+04 0.  0.
        5    1    3    3  502    0 -0.11621057099E+04  0.11436410725E+04 -0.73490334732E+03  0.17884377550E+04  0.46999998093E+01 0.  1.
       -5    1    3    3    0  502  0.11621057099E+04 -0.11436410725E+04 -0.24852528737E+03  0.16493003038E+04  0.46999998093E+01 0. -1.
</event>
<event>
 5   0  0.6351753E-07  0.3295279E+04  0.7818609E-02  0.8164098E-01
       -2   -1    0    0    0  501  0.00000000000E+00  0.00000000000E+00  0.11680494999E+04  0.11680494999E+04  0.25500000920E-02 0. -1.
        2   -1    0    0  501    0  0.00000000000E+00  0.00000000000E+00 -0.23241447850E+04  0.23241447850E+04  0.25500000920E-02 0.  1.
    10030    2    1    2    0    0  0.00000000000E+00  0.00000000000E+00 -0.11560952852E+04  0.34921942849E+04  0.32952791407E+04 0.  0.
        3    1    3    3  502    0 -0.89063312192E+03 -0.10244499989E+04 -0.15676533369E+04  0.20737073451E+04  0.10100000352E+00 0.  1.
       -3    1    3    3    0  502  0.89063312192E+03  0.10244499989E+04  0.41155805177E+03  0.14184869398E+04  0.10100000352E+00 0. -1.
</event>
<event>
 5   0  0.6424183E-07  0.3282843E+04  0.7818609E-02  0.8167275E-01
       -2   -1    0    0    0  501  0.00000000000E+00  0.00000000000E+00  0.11878850055E+04  0.11878850055E+04  0.25500000920E-02 0. -1.
        2   -1    0    0  501    0  0.00000000000E+00  0.00000000000E+00 -0.22681194213E+04  0.22681194213E+04  0.25500000920E-02 0.  1.
    10030    2    1    2    0    0  0.00000000000E+00  0.00000000000E+00 -0.10802344159E+04  0.34560044268E+04  0.32828433110E+04 0.  0.
        2    1    3    3  502    0 -0.57230680674E+03  0.88858455665E+03  0.78197055490E+03  0.13147606414E+04  0.25500000920E-02 0. -1.
       -2    1    3    3    0  502  0.57230680674E+03 -0.88858455665E+03 -0.18622049708E+04  0.21412437854E+04  0.25500000920E-02 0.  1.
</event>
<event>
 5   0  0.6377741E-07  0.3310634E+04  0.7818609E-02  0.8160195E-01
       -2   -1    0    0    0  501  0.00000000000E+00  0.00000000000E+00  0.13875663526E+04  0.13875663526E+04  0.25500000920E-02 0. -1.
        2   -1    0    0  501    0  0.00000000000E+00  0.00000000000E+00 -0.19747335438E+04  0.19747335438E+04  0.25500000920E-02 0.  1.
    10030    2    1    2    0    0  0.00000000000E+00  0.00000000000E+00 -0.58716719128E+03  0.33622998964E+04  0.33106336679E+04 0.  0.
        1    1    3    3  502    0  0.15232143316E+04  0.33289382215E+03 -0.85820364039E+03  0.17797510177E+04  0.50400001928E-02 0. -1.
       -1    1    3    3    0  502 -0.15232143316E+04 -0.33289382215E+03  0.27103644911E+03  0.15825488787E+04  0.50400001928E-02 0.  1.
</event>
<event>
 5   0  0.2037333E-07  0.3304533E+04  0.7818609E-02  0.8161743E-01
       -1   -1    0    0    0  501  0.00000000000E+00  0.00000000000E+00  0.16816599454E+04  0.16816599454E+04  0.50400001928E-02 0.  1.
        1   -1    0    0  501    0  0.00000000000E+00  0.00000000000E+00 -0.16233872646E+04  0.16233872646E+04  0.50400001928E-02 0. -1.
    10030    2    1    2    0    0  0.00000000000E+00  0.00000000000E+00  0.58272680771E+02  0.33050472100E+04  0.33045334549E+04 0.  0.
        3    1    3    3  502    0 -0.15684136776E+04 -0.89172410827E+02 -0.48291214657E+03  0.16434954622E+04  0.10100000352E+00 0. -1.
       -3    1    3    3    0  502  0.15684136776E+04  0.89172410827E+02  0.54118482734E+03  0.16615517477E+04  0.10100000352E+00 0.  1.
</event>
<event>
 5   0  0.6426079E-07  0.3301131E+04  0.7818609E-02  0.8162608E-01
       -2   -1    0    0    0  501  0.00000000000E+00  0.00000000000E+00  0.15564182299E+04  0.15564182299E+04  0.25500000920E-02 0.  1.
        2   -1    0    0  501    0  0.00000000000E+00  0.00000000000E+00 -0.17504081869E+04  0.17504081869E+04  0.25500000920E-02 0. -1.
    10030    2    1    2    0    0  0.00000000000E+00  0.00000000000E+00 -0.19398995692E+03  0.33068264168E+04  0.33011314496E+04 0.  0.
        4    1    3    3  502    0  0.14517115775E+04 -0.12771285928E+03  0.67931844139E+03  0.16078719589E+04  0.12699999809E+01 0.  1.
       -4    1    3    3    0  502 -0.14517115775E+04  0.12771285928E+03 -0.87330839831E+03  0.16989544579E+04  0.12699999809E+01 0. -1.
</event>
<event>
 5   0  0.6426079E-07  0.3271814E+04  0.7818609E-02  0.8170105E-01
       -2   -1    0    0    0  501  0.00000000000E+00  0.00000000000E+00  0.12970476436E+04  0.12970476436E+04  0.25500000920E-02 0. -1.
        2   -1    0    0  501    0  0.00000000000E+00  0.00000000000E+00 -0.20632946020E+04  0.20632946020E+04  0.25500000920E-02 0.  1.
    10030    2    1    2    0    0  0.00000000000E+00  0.00000000000E+00 -0.76624695838E+03  0.33603422456E+04  0.32718138098E+04 0.  0.
        4    1    3    3  502    0 -0.16319135731E+04 -0.12644681837E+02 -0.49972052164E+03  0.17067583340E+04  0.12699999809E+01 0. -1.
       -4    1    3    3    0  502  0.16319135731E+04  0.12644681837E+02 -0.26652643674E+03  0.16535839115E+04  0.12699999809E+01 0.  1.
</event>
<event>
 5   0  0.6258718E-07  0.3295356E+04  0.7818609E-02  0.8164078E-01
       -2   -1    0    0    0  501  0.00000000000E+00  0.00000000000E+00  0.15245397805E+04  0.15245397805E+04  0.25500000920E-02 0.  1.
        2   -1    0    0  501    0  0.00000000000E+00  0.00000000000E+00 -0.17807625361E+04  0.17807625361E+04  0.25500000920E-02 0. -1.
    10030    2    1    2    0    0  0.00000000000E+00  0.00000000000E+00 -0.25622275555E+03  0.33053023166E+04  0.32953563243E+04 0.  0.
        5    1    3    3  502    0 -0.11960926339E+04 -0.69316351139E+03  0.77109204329E+03  0.15829460735E+04  0.46999998093E+01 0.  1.
       -5    1    3    3    0  502  0.11960926339E+04  0.69316351139E+03 -0.10273147988E+04  0.17223562431E+04  0.46999998093E+01 0. -1.
</event>
<event>
 5   0  0.2080770E-07  0.3312610E+04  0.7818609E-02  0.8159694E-01
        1   -1    0    0  501    0  0.00000000000E+00  0.00000000000E+00  0.22222594548E+04  0.22222594548E+04  0.50400001928E-02 0.  1.
       -1   -1    0    0    0  501  0.00000000000E+00  0.00000000000E+00 -0.12344854988E+04  0.12344854988E+04  0.50400001928E-02 0. -1.
    10030    2    1    2    0    0  0.00000000000E+00  0.00000000000E+00  0.98777395605E+03  0.34567449536E+04  0.33126104941E+04 0.  0.
        4    1    3    3  502    0  0.14555081081E+04 -0.66125818860E+03  0.94583586370E+03  0.18575180587E+04  0.12699999809E+01 0.  1.
       -4    1    3    3    0  502 -0.14555081081E+04  0.66125818860E+03  0.41938092349E+02  0.15992268948E+04  0.12699999809E+01 0. -1.
</event>
<event>
 5   0  0.2057130E-07  0.3312736E+04  0.7818609E-02  0.8159662E-01
       -1   -1    0    0    0  501  0.00000000000E+00  0.00000000000E+00  0.15943916454E+04  0.15943916454E+04  0.50400001928E-02 0. -1.
        1   -1    0    0  501    0  0.00000000000E+00  0.00000000000E+00 -0.17207538618E+04  0.17207538618E+04  0.50400001928E-02 0.  1.
    10030    2    1    2    0    0  0.00000000000E+00  0.00000000000E+00 -0.12636221644E+03  0.33151455072E+04  0.33127363801E+04 0.  0.
        2    1    3    3  502    0  0.12577986644E+04  0.69382794714E+03 -0.88846313399E+03  0.16890297336E+04  0.25500000920E-02 0.  1.
       -2    1    3    3    0  502 -0.12577986644E+04 -0.69382794714E+03  0.76210091755E+03  0.16261157736E+04  0.25500000920E-02 0. -1.
</event>
<event>
 5   0  0.6351753E-07  0.3305420E+04  0.7818609E-02  0.8161518E-01
       -2   -1    0    0    0  501  0.00000000000E+00  0.00000000000E+00  0.11744611817E+04  0.11744611817E+04  0.25500000920E-02 0. -1.
        2   -1    0    0  501    0  0.00000000000E+00  0.00000000000E+00 -0.23257051606E+04  0.23257051606E+04  0.25500000920E-02 0.  1.
    10030    2    1    2    0    0  0.00000000000E+00  0.00000000000E+00 -0.11512439789E+04  0.35001663424E+04  0.33054200528E+04 0.  0.
        3    1    3    3  502    0 -0.57176810071E+03 -0.53547788263E+03 -0.21166268059E+04  0.22569369441E+04  0.10100000352E+00 0.  1.
       -3    1    3    3    0  502  0.57176810071E+03  0.53547788263E+03  0.96538282706E+03  0.12432293983E+04  0.10100000352E+00 0. -1.
</event>
<event>
 5   0  0.6377741E-07  0.3190758E+04  0.7818609E-02  0.8191262E-01
       -2   -1    0    0    0  501  0.00000000000E+00  0.00000000000E+00  0.13891926876E+04  0.13891926876E+04  0.25500000920E-02 0. -1.
        2   -1    0    0  501    0  0.00000000000E+00  0.00000000000E+00 -0.18321675645E+04  0.18321675645E+04  0.25500000920E-02 0.  1.
    10030    2    1    2    0    0  0.00000000000E+00  0.00000000000E+00 -0.44297487692E+03  0.32213602521E+04  0.31907577678E+04 0.  0.
        1    1    3    3  502    0 -0.12699553840E+04  0.63184195263E+03 -0.95871207067E+03  0.17120571734E+04  0.50400001928E-02 0.  1.
       -1    1    3    3    0  502  0.12699553840E+04 -0.63184195263E+03  0.51573719375E+03  0.15093030788E+04  0.50400001928E-02 0. -1.
</event>
<event>
 5   0  0.6426079E-07  0.3292999E+04  0.7818609E-02  0.8164679E-01
        2   -1    0    0  501    0  0.00000000000E+00  0.00000000000E+00  0.25896080899E+04  0.25896080899E+04  0.25500000920E-02 0. -1.
       -2   -1    0    0    0  501  0.00000000000E+00  0.00000000000E+00 -0.10468612698E+04  0.10468612698E+04  0.25500000920E-02 0.  1.
    10030    2    1    2    0    0  0.00000000000E+00  0.00000000000E+00  0.15427468201E+04  0.36364693597E+04  0.32929988844E+04 0.  0.
        4    1    3    3  502    0  0.12259261554E+04  0.95027218902E+03  0.16145539141E+03  0.15594812048E+04  0.12699999809E+01 0.  1.
       -4    1    3    3    0  502 -0.12259261554E+04 -0.95027218902E+03  0.13812914287E+04  0.20769881549E+04  0.12699999809E+01 0. -1.
</event>
<event>
 5   0  0.2037333E-07  0.3248564E+04  0.7818609E-02  0.8176108E-01
        1   -1    0    0  501    0  0.00000000000E+00  0.00000000000E+00  0.24296752960E+04  0.24296752960E+04  0.50400001928E-02 0. -1.
       -1   -1    0    0    0  501  0.00000000000E+00  0.00000000000E+00 -0.10858622651E+04  0.10858622651E+04  0.50400001928E-02 0.  1.
    10030    2    1    2    0    0  0.00000000000E+00  0.00000000000E+00  0.13438130309E+04  0.35155375611E+04  0.32485644339E+04 0.  0.
        3    1    3    3  502    0  0.60732161494E+03 -0.12591954607E+04 -0.22302581005E+03  0.14156812051E+04  0.10100000352E+00 0. -1.
       -3    1    3    3    0  502 -0.60732161494E+03  0.12591954607E+04  0.15668388409E+04  0.20998563560E+04  0.10100000352E+00 0.  1.
</event>
<event>
 5   0  0.2080828E-07  0.3297275E+04  0.7818609E-02  0.8163589E-01
       -1   -1    0    0    0  501  0.00000000000E+00  0.00000000000E+00  0.11913505259E+04  0.11913505259E+04  0.50400001928E-02 0.  1.
        1   -1    0    0  501    0  0.00000000000E+00  0.00000000000E+00 -0.22814495368E+04  0.22814495368E+04  0.50400001928E-02 0. -1.
    10030    2    1    2    0    0  0.00000000000E+00  0.00000000000E+00 -0.10900990109E+04  0.34728000628E+04  0.32972753028E+04 0.  0.
        1    1    3    3  502    0 -0.47256891571E+02 -0.20534025031E+03  0.11771103417E+04  0.11958204668E+04  0.50400001928E-02 0.  1.
       -1    1    3    3    0  502  0.47256891571E+02  0.20534025031E+03 -0.22672093526E+04  0.22769795960E+04  0.50400001928E-02 0. -1.
</event>
<event>
 5   0  0.2080770E-07  0.3313487E+04  0.7818609E-02  0.8159472E-01
        1   -1    0    0  501    0  0.00000000000E+00  0.00000000000E+00  0.17202750168E+04  0.17202750168E+04  0.50400001928E-02 0. -1.
       -1   -1    0    0    0  501  0.00000000000E+00  0.00000000000E+00 -0.15955583200E+04  0.15955583200E+04  0.50400001928E-02 0.  1.
    10030    2    1    2    0    0  0.00000000000E+00  0.00000000000E+00  0.12471669683E+03  0.33158333369E+04  0.33134870550E+04 0.  0.
        4    1    3    3  502    0  0.12473295986E+04 -0.53993227696E+03 -0.88564529947E+03  0.16222599054E+04  0.12699999809E+01 0.  1.
       -4    1    3    3    0  502 -0.12473295986E+04  0.53993227696E+03  0.10103619963E+04  0.16935734315E+04  0.12699999809E+01 0. -1.
</event>
<event>
 5   0  0.6377741E-07  0.3304961E+04  0.7818609E-02  0.8161634E-01
       -2   -1    0    0    0  501  0.00000000000E+00  0.00000000000E+00  0.91590177462E+03  0.91590177462E+03  0.25500000920E-02 0.  1.
        2   -1    0    0  501    0  0.00000000000E+00  0.00000000000E+00 -0.29814240823E+04  0.29814240823E+04  0.25500000920E-02 0. -1.
    10030    2    1    2    0    0  0.00000000000E+00  0.00000000000E+00 -0.20655223077E+04  0.38973258570E+04  0.33049608820E+04 0.  0.
        1    1    3    3  502    0 -0.55884685274E+03 -0.67275929666E+03 -0.26861213975E+04  0.28249182356E+04  0.50400001928E-02 0. -1.
       -1    1    3    3    0  502  0.55884685274E+03  0.67275929666E+03  0.62059908976E+03  0.10724076213E+04  0.50400001928E-02 0.  1.
</event>
<event>
 5   0  0.6426079E-07  0.3308867E+04  0.7818609E-02  0.8160643E-01
       -2   -1    0    0    0  501  0.00000000000E+00  0.00000000000E+00  0.16374883239E+04  0.16374883239E+04  0.25500000920E-02 0. -1.
        2   -1    0    0  501    0  0.00000000000E+00  0.00000000000E+00 -0.16715542393E+04  0.16715542393E+04  0.25500000920E-02 0.  1.
    10030    2    1    2    0    0  0.00000000000E+00  0.00000000000E+00 -0.34065915410E+02  0.33090425632E+04  0.33088672077E+04 0.  0.
        4    1    3    3  502    0  0.80647067506E+03 -0.41947956486E+02  0.14269945188E+04  0.16396553145E+04  0.12699999809E+01 0. -1.
       -4    1    3    3    0  502 -0.80647067506E+03  0.41947956486E+02 -0.14610604342E+04  0.16693872487E+04  0.12699999809E+01 0.  1.
</event>
<event>
 5   0  0.2087665E-07  0.3297106E+04  0.7818609E-02  0.8163632E-01
       -1   -1    0    0    0  501  0.00000000000E+00  0.00000000000E+00  0.16966166958E+04  0.16966166959E+04  0.50400001928E-02 0.  1.
        1   -1    0    0  501    0  0.00000000000E+00  0.00000000000E+00 -0.16018507787E+04  0.16018507787E+04  0.50400001928E-02 0. -1.
    10030    2    1    2    0    0  0.00000000000E+00  0.00000000000E+00  0.94765917165E+02  0.32984674745E+04  0.32971058675E+04 0.  0.
        5    1    3    3  502    0 -0.81003436067E+03  0.52727512457E+03 -0.12886572194E+04  0.16108489195E+04  0.46999998093E+01 0. -1.
       -5    1    3    3    0  502  0.81003436067E+03 -0.52727512457E+03  0.13834231366E+04  0.16876185550E+04  0.46999998093E+01 0.  1.
</event>
<event>
 5   0  0.6377741E-07  0.3285875E+04  0.7818609E-02  0.8166499E-01
        2   -1    0    0  501    0  0.00000000000E+00  0.00000000000E+00  0.18449189288E+04  0.18449189288E+04  0.25500000920E-02 0.  1.
       -2   -1    0    0    0  501  0.00000000000E+00  0.00000000000E+00 -0.14630688287E+04  0.14630688287E+04  0.25500000920E-02 0. -1.
    10030    2    1    2    0    0  0.00000000000E+00  0.00000000000E+00  0.38185010010E+03  0.33079877574E+04  0.32858748461E+04 0.  0.
        1    1    3    3  502    0  0.53147116867E+03  0.23058478937E+03  0.17386757468E+04  0.18326549869E+04  0.50400001928E-02 0.  1.
       -1    1    3    3    0  502 -0.53147116867E+03 -0.23058478937E+03 -0.13568256467E+04  0.14753327706E+04  0.50400001928E-02 0. -1.
</event>
<event>
 5   0  0.2037333E-07  0.3291867E+04  0.7818609E-02  0.8164968E-01
        1   -1    0    0  501    0  0.00000000000E+00  0.00000000000E+00  0.16672804042E+04  0.16672804042E+04  0.50400001928E-02 0. -1.
       -1   -1    0    0    0  501  0.00000000000E+00  0.00000000000E+00 -0.16248597261E+04  0.16248597261E+04  0.50400001928E-02 0.  1.
    10030    2    1    2    0    0  0.00000000000E+00  0.00000000000E+00  0.42420678080E+02  0.32921401303E+04  0.32918668144E+04 0.  0.
        3    1    3    3  502    0 -0.85135162354E+03  0.11051086897E+04  0.89479987566E+03  0.16573266518E+04  0.10100000352E+00 0.  1.
       -3    1    3    3    0  502  0.85135162354E+03 -0.11051086897E+04 -0.85237919758E+03  0.16348134785E+04  0.10100000352E+00 0. -1.
</event>
<event>
 5   0  0.1994250E-07  0.3304123E+04  0.7818609E-02  0.8161847E-01
       -3   -1    0    0    0  501  0.00000000000E+00  0.00000000000E+00  0.19166761514E+04  0.19166761541E+04  0.10100000352E+00 0.  1.
        3   -1    0    0  501    0  0.00000000000E+00  0.00000000000E+00 -0.14239791310E+04  0.14239791346E+04  0.10100000352E+00 0. -1.
    10030    2    1    2    0    0  0.00000000000E+00  0.00000000000E+00  0.49269702042E+03  0.33406552887E+04  0.33041227889E+04 0.  0.
        3    1    3    3  502    0 -0.13635570255E+04  0.93078689446E+03  0.18522483673E+03  0.16613128107E+04  0.10100000352E+00 0. -1.
       -3    1    3    3    0  502  0.13635570255E+04 -0.93078689446E+03  0.30747218369E+03  0.16793424780E+04  0.10100000352E+00 0.  1.
</event>
<event>
 5   0  0.2087665E-07  0.3299341E+04  0.7818609E-02  0.8163063E-01
       -1   -1    0    0    0  501  0.00000000000E+00  0.00000000000E+00  0.12175270974E+04  0.12175270974E+04  0.50400001928E-02 0. -1.
        1   -1    0    0  501    0  0.00000000000E+00  0.00000000000E+00 -0.22351974505E+04  0.22351974505E+04  0.50400001928E-02 0.  1.
    10030    2    1    2    0    0  0.00000000000E+00  0.00000000000E+00 -0.10176703531E+04  0.34527245480E+04  0.32993414277E+04 0.  0.
        5    1    3    3  502    0 -0.20039412844E+03 -0.22850140930E+03 -0.22056391515E+04  0.22264853149E+04  0.46999998093E+01 0.  1.
       -5    1    3    3    0  502  0.20039412844E+03  0.22850140930E+03  0.11879687984E+04  0.12262392331E+04  0.46999998093E+01 0. -1.
</event>
<event>
 5   0  0.2057130E-07  0.3296742E+04  0.7818609E-02  0.8163725E-01
        1   -1    0    0  501    0  0.00000000000E+00  0.00000000000E+00  0.19148657194E+04  0.19148657194E+04  0.50400001928E-02 0. -1.
       -1   -1    0    0    0  501  0.00000000000E+00  0.00000000000E+00 -0.14189648731E+04  0.14189648731E+04  0.50400001928E-02 0.  1.
    10030    2    1    2    0    0  0.00000000000E+00  0.00000000000E+00  0.49590084628E+03  0.33338305926E+04  0.32967421450E+04 0.  0.
        2    1    3    3  502    0  0.26427137799E+03  0.94773981346E+03  0.15853556665E+04  0.18658517370E+04  0.25500000920E-02 0. -1.
       -2    1    3    3    0  502 -0.26427137799E+03 -0.94773981346E+03 -0.10894548202E+04  0.14679788556E+04  0.25500000920E-02 0.  1.
</event>
<event>
 5   0  0.6258718E-07  0.3301148E+04  0.7818609E-02  0.8162603E-01
       -2   -1    0    0    0  501  0.00000000000E+00  0.00000000000E+00  0.13122190434E+04  0.13122190434E+04  0.25500000920E-02 0.  1.
        2   -1    0    0  501    0  0.00000000000E+00  0.00000000000E+00 -0.20761740397E+04  0.20761740397E+04  0.25500000920E-02 0. -1.
    10030    2    1    2    0    0  0.00000000000E+00  0.00000000000E+00 -0.76395499627E+03  0.33883930832E+04  0.33011483532E+04 0.  0.
        5    1    3    3  502    0 -0.39984108048E+03  0.14057876175E+04 -0.11692297046E+04  0.18716922576E+04  0.46999998093E+01 0. -1.
       -5    1    3    3    0  502  0.39984108048E+03 -0.14057876175E+04  0.40527470829E+03  0.15167008256E+04  0.46999998093E+01 0.  1.
</event>
<event>
 5   0  0.6426079E-07  0.3299786E+04  0.7818609E-02  0.8162950E-01
       -2   -1    0    0    0  501  0.00000000000E+00  0.00000000000E+00  0.17042993985E+04  0.17042993985E+04  0.25500000920E-02 0.  1.
        2   -1    0    0  501    0  0.00000000000E+00  0.00000000000E+00 -0.15972230470E+04  0.15972230470E+04  0.25500000920E-02 0. -1.
    10030    2    1    2    0    0  0.00000000000E+00  0.00000000000E+00  0.10707635149E+03  0.33015224455E+04  0.32997856163E+04 0.  0.
        4    1    3    3  502    0 -0.11888200743E+04  0.84230503133E+03  0.82813797731E+03  0.16758833663E+04  0.12699999809E+01 0.  1.
       -4    1    3    3    0  502  0.11888200743E+04 -0.84230503133E+03 -0.72106162582E+03  0.16256390793E+04  0.12699999809E+01 0. -1.
</event>
<event>
 5   0  0.2080828E-07  0.3289655E+04  0.7818609E-02  0.8165533E-01
       -1   -1    0    0    0  501  0.00000000000E+00  0.00000000000E+00  0.11590649755E+04  0.11590649755E+04  0.50400001928E-02 0.  1.
        1   -1    0    0  501    0  0.00000000000E+00  0.00000000000E+00 -0.23341721320E+04  0.23341721320E+04  0.50400001928E-02 0. -1.
    10030    2    1    2    0    0  0.00000000000E+00  0.00000000000E+00 -0.11751071565E+04  0.34932371075E+04  0.32896547934E+04 0.  0.
        1    1    3    3  502    0  0.15778473294E+04 -0.19130004750E+03 -0.13796161434E+03  0.15953781088E+04  0.50400001928E-02 0.  1.
       -1    1    3    3    0  502 -0.15778473294E+04  0.19130004750E+03 -0.10371455422E+04  0.18978589986E+04  0.50400001928E-02 0. -1.
</event>
<event>
 5   0  0.6258718E-07  0.3307621E+04  0.7818609E-02  0.8160959E-01
       -2   -1    0    0    0  501  0.00000000000E+00  0.00000000000E+00  0.11691778855E+04  0.11691778856E+04  0.25500000920E-02 0. -1.
        2   -1    0    0  501    0  0.00000000000E+00  0.00000000000E+00 -0.23393261658E+04  0.23393261658E+04  0.25500000920E-02 0.  1.
    10030    2    1    2    0    0  0.00000000000E+00  0.00000000000E+00 -0.11701482803E+04  0.35085040514E+04  0.33076205466E+04 0.  0.
        5    1    3    3  502    0 -0.95032261021E+03 -0.16393473310E+03  0.84005548600E+03  0.12789460386E+04  0.46999998093E+01 0. -1.
       -5    1    3    3    0  502  0.95032261021E+03  0.16393473310E+03 -0.20102037663E+04  0.22295580127E+04  0.46999998093E+01 0.  1.
</event>
<event>
 5   0  0.2087665E-07  0.3318597E+04  0.7818609E-02  0.8158179E-01
        1   -1    0    0  501    0  0.00000000000E+00  0.00000000000E+00  0.25164508833E+04  0.25164508833E+04  0.50400001928E-02 0. -1.
       -1   -1    0    0    0  501  0.00000000000E+00  0.00000000000E+00 -0.10941091790E+04  0.10941091791E+04  0.50400001928E-02 0.  1.
    10030    2    1    2    0    0  0.00000000000E+00  0.00000000000E+00  0.14223417042E+04  0.36105600623E+04  0.33185973001E+04 0.  0.
        5    1    3    3  502    0 -0.44520551433E+03  0.80669311638E+03 -0.79019438181E+03  0.12138331784E+04  0.46999998093E+01 0.  1.
       -5    1    3    3    0  502  0.44520551433E+03 -0.80669311638E+03  0.22125360860E+04  0.23967268839E+04  0.46999998093E+01 0. -1.
</event>
<event>
 5   0  0.6351753E-07  0.3296436E+04  0.7818609E-02  0.8163803E-01
        2   -1    0    0  501    0  0.00000000000E+00  0.00000000000E+00  0.15403957332E+04  0.15403957332E+04  0.25500000920E-02 0. -1.
       -2   -1    0    0    0  501  0.00000000000E+00  0.00000000000E+00 -0.17635872351E+04  0.17635872351E+04  0.25500000920E-02 0.  1.
    10030    2    1    2    0    0  0.00000000000E+00  0.00000000000E+00 -0.22319150186E+03  0.33039829683E+04  0.32964358037E+04 0.  0.
        3    1    3    3  502    0 -0.53832309408E+03 -0.15567300890E+04 -0.52964656565E+02  0.16480308215E+04  0.10100000352E+00 0.  1.
       -3    1    3    3    0  502  0.53832309408E+03  0.15567300890E+04 -0.17022684530E+03  0.16559521468E+04  0.10100000352E+00 0. -1.
</event>
<event>
 5   0  0.6258718E-07  0.3296526E+04  0.7818609E-02  0.8163780E-01
       -2   -1    0    0    0  501  0.00000000000E+00  0.00000000000E+00  0.11768936820E+04  0.11768936820E+04  0.25500000920E-02 0. -1.
        2   -1    0    0  501    0  0.00000000000E+00  0.00000000000E+00 -0.23084250822E+04  0.23084250822E+04  0.25500000920E-02 0.  1.
    10030    2    1    2    0    0  0.00000000000E+00  0.00000000000E+00 -0.11315314002E+04  0.34853187641E+04  0.32965259862E+04 0.  0.
        5    1    3    3  502    0  0.29545760760E+03 -0.13420608438E+04 -0.15280130546E+04  0.20550592427E+04  0.46999998093E+01 0.  1.
       -5    1    3    3    0  502 -0.29545760760E+03  0.13420608438E+04  0.39648165436E+03  0.14302595214E+04  0.46999998093E+01 0. -1.
</event>
<event>
 5   0  0.2080770E-07  0.3290592E+04  0.7818609E-02  0.8165293E-01
       -1   -1    0    0    0  501  0.00000000000E+00  0.00000000000E+00  0.14648206664E+04  0.14648206664E+04  0.50400001928E-02 0. -1.
        1   -1    0    0  501    0  0.00000000000E+00  0.00000000000E+00 -0.18480075369E+04  0.18480075369E+04  0.50400001928E-02 0.  1.
    10030    2    1    2    0    0  0.00000000000E+00  0.00000000000E+00 -0.38318687049E+03  0.33128282033E+04  0.32905924280E+04 0.  0.
        4    1    3    3  502    0 -0.84655716417E+03  0.25339879709E+03 -0.15888218117E+04  0.18180281475E+04  0.12699999809E+01 0.  1.
       -4    1    3    3    0  502  0.84655716417E+03 -0.25339879709E+03  0.12056349412E+04  0.14948000559E+04  0.12699999809E+01 0. -1.
</event>
<event>
 5   0  0.6351753E-07  0.3288741E+04  0.7818609E-02  0.8165766E-01
        2   -1    0    0  501    0  0.00000000000E+00  0.00000000000E+00  0.20931478989E+04  0.20931478989E+04  0.25500000920E-02 0.  1.
       -2   -1    0    0    0  501  0.00000000000E+00  0.00000000000E+00 -0.12918123848E+04  0.12918123848E+04  0.25500000920E-02 0. -1.
    10030    2    1    2    0    0  0.00000000000E+00  0.00000000000E+00  0.80133551408E+03  0.33849602838E+04  0.32887410230E+04 0.  0.
        3    1    3    3  502    0 -0.77031762233E+03 -0.12588518203E+03  0.18903261551E+04  0.20451330767E+04  0.10100000352E+00 0.  1.
       -3    1    3    3    0  502  0.77031762233E+03  0.12588518203E+03 -0.10889906411E+04  0.13398272071E+04  0.10100000352E+00 0. -1.
</event>
<event>
 5   0  0.6424183E-07  0.3292529E+04  0.7818609E-02  0.8164799E-01
       -2   -1    0    0    0  501  0.00000000000E+00  0.00000000000E+00  0.23246946115E+04  0.23246946115E+04  0.25500000920E-02 0.  1.
        2   -1    0    0  501    0  0.00000000000E+00  0.00000000000E+00 -0.11658248110E+04  0.11658248110E+04  0.25500000920E-02 0. -1.
    10030    2    1    2    0    0  0.00000000000E+00  0.00000000000E+00  0.11588698005E+04  0.34905194225E+04  0.32925289101E+04 0.  0.
        2    1    3    3  502    0  0.16335627238E+04  0.20121881233E+02  0.79476097215E+03  0.18167490375E+04  0.25500000920E-02 0.  1.
       -2    1    3    3    0  502 -0.16335627238E+04 -0.20121881233E+02  0.36410882837E+03  0.16737703849E+04  0.25500000920E-02 0. -1.
</event>
<event>
 5   0  0.6426079E-07  0.3300326E+04  0.7818609E-02  0.8162812E-01
        2   -1    0    0  501    0  0.00000000000E+00  0.00000000000E+00  0.25927870305E+04  0.25927870305E+04  0.25500000920E-02 0.  1.
       -2   -1    0    0    0  501  0.00000000000E+00  0.00000000000E+00 -0.10502360599E+04  0.10502360599E+04  0.25500000920E-02 0. -1.
    10030    2    1    2    0    0  0.00000000000E+00  0.00000000000E+00  0.15425509706E+04  0.36430230904E+04  0.33003263082E+04 0.  0.
        4    1    3    3  502    0 -0.64603813552E+03 -0.15115691654E+04  0.93058871597E+03  0.18889689213E+04  0.12699999809E+01 0.  1.
       -4    1    3    3    0  502  0.64603813552E+03  0.15115691654E+04  0.61196225462E+03  0.17540541691E+04  0.12699999809E+01 0. -1.
</event>
<event>
 5   0  0.6258718E-07  0.3294009E+04  0.7818609E-02  0.8164422E-01
        2   -1    0    0  501    0  0.00000000000E+00  0.00000000000E+00  0.23122710581E+04  0.23122710581E+04  0.25500000920E-02 0.  1.
       -2   -1    0    0    0  501  0.00000000000E+00  0.00000000000E+00 -0.11731424992E+04  0.11731424992E+04  0.25500000920E-02 0. -1.
    10030    2    1    2    0    0  0.00000000000E+00  0.00000000000E+00  0.11391285589E+04  0.34854135574E+04  0.32940087723E+04 0.  0.
        5    1    3    3  502    0 -0.49724404249E+03 -0.71480666727E+03  0.20487967089E+04  0.22261604285E+04  0.46999998093E+01 0.  1.
       -5    1    3    3    0  502  0.49724404249E+03  0.71480666727E+03 -0.90966814996E+03  0.12592531288E+04  0.46999998093E+01 0. -1.
</event>
<event>
 5   0  0.6377741E-07  0.3311054E+04  0.7818609E-02  0.8160088E-01
       -2   -1    0    0    0  501  0.00000000000E+00  0.00000000000E+00  0.14138751546E+04  0.14138751546E+04  0.25500000920E-02 0. -1.
        2   -1    0    0  501    0  0.00000000000E+00  0.00000000000E+00 -0.19384804714E+04  0.19384804714E+04  0.25500000920E-02 0.  1.
    10030    2    1    2    0    0  0.00000000000E+00  0.00000000000E+00 -0.52460531681E+03  0.33523556259E+04  0.33110538359E+04 0.  0.
        1    1    3    3  502    0  0.14649893962E+04  0.74613284230E+03 -0.65295874182E+02  0.16453485043E+04  0.50400001928E-02 0. -1.
       -1    1    3    3    0  502 -0.14649893962E+04 -0.74613284230E+03 -0.45930944263E+03  0.17070071217E+04  0.50400001928E-02 0.  1.
</event>
<event>
 5   0  0.6377741E-07  0.3114364E+04  0.7818609E-02  0.8211807E-01
        2   -1    0    0  501    0  0.00000000000E+00  0.00000000000E+00  0.24352062007E+04  0.24352062007E+04  0.25500000920E-02 0.  1.
       -2   -1    0    0    0  501  0.00000000000E+00  0.00000000000E+00 -0.99573312479E+03  0.99573312479E+03  0.25500000920E-02 0. -1.
    10030    2    1    2    0    0  0.00000000000E+00  0.00000000000E+00  0.14394730759E+04  0.34309393255E+04  0.31143638064E+04 0.  0.
        1    1    3    3  502    0  0.65658445995E+03 -0.46038829737E+03  0.21902455157E+04  0.23324313402E+04  0.50400001928E-02 0.  1.
       -1    1    3    3    0  502 -0.65658445995E+03  0.46038829737E+03 -0.75077243982E+03  0.10985079853E+04  0.50400001928E-02 0. -1.
</event>
<event>
 5   0  0.2080828E-07  0.3267339E+04  0.7818609E-02  0.8171256E-01
       -1   -1    0    0    0  501  0.00000000000E+00  0.00000000000E+00  0.15365107768E+04  0.15365107768E+04  0.50400001928E-02 0.  1.
        1   -1    0    0  501    0  0.00000000000E+00  0.00000000000E+00 -0.17369719265E+04  0.17369719265E+04  0.50400001928E-02 0. -1.
    10030    2    1    2    0    0  0.00000000000E+00  0.00000000000E+00 -0.20046114970E+03  0.32734827033E+04  0.32673390299E+04 0.  0.
        1    1    3    3  502    0  0.73630140899E+03 -0.13624380608E+04  0.42084241418E+03  0.16048319451E+04  0.50400001928E-02 0.  1.
       -1    1    3    3    0  502 -0.73630140899E+03  0.13624380608E+04 -0.62130356388E+03  0.16686507582E+04  0.50400001928E-02 0. -1.
</event>
<event>
 5   0  0.2057130E-07  0.3299072E+04  0.7818609E-02  0.8163132E-01
        1   -1    0    0  501    0  0.00000000000E+00  0.00000000000E+00  0.20021193568E+04  0.20021193568E+04  0.50400001928E-02 0.  1.
       -1   -1    0    0    0  501  0.00000000000E+00  0.00000000000E+00 -0.13590444014E+04  0.13590444014E+04  0.50400001928E-02 0. -1.
    10030    2    1    2    0    0  0.00000000000E+00  0.00000000000E+00  0.64307495541E+03  0.33611637581E+04  0.32990720530E+04 0.  0.
        2    1    3    3  502    0 -0.66750813698E+03  0.11252211839E+04 -0.70199952876E+03  0.14847535701E+04  0.25500000920E-02 0. -1.
       -2    1    3    3    0  502  0.66750813698E+03 -0.11252211839E+04  0.13450744842E+04  0.18764101880E+04  0.25500000920E-02 0.  1.
</event>
<event>
 5   0  0.6377741E-07  0.3307033E+04  0.7818609E-02  0.8161108E-01
       -2   -1    0    0    0  501  0.00000000000E+00  0.00000000000E+00  0.12297503717E+04  0.12297503717E+04  0.25500000920E-02 0.  1.
        2   -1    0    0  501    0  0.00000000000E+00  0.00000000000E+00 -0.22233098784E+04  0.22233098784E+04  0.25500000920E-02 0. -1.
    10030    2    1    2    0    0  0.00000000000E+00  0.00000000000E+00 -0.99355950672E+03  0.34530602501E+04  0.33070325969E+04 0.  0.
        1    1    3    3  502    0  0.13278618116E+04 -0.93951222418E+03 -0.80690649142E+03  0.18157638327E+04  0.50400001928E-02 0. -1.
       -1    1    3    3    0  502 -0.13278618116E+04  0.93951222418E+03 -0.18665301529E+03  0.16372964174E+04  0.50400001928E-02 0.  1.
</event>
<event>
 5   0  0.2087665E-07  0.3307686E+04  0.7818609E-02  0.8160942E-01
        1   -1    0    0  501    0  0.00000000000E+00  0.00000000000E+00  0.21080494605E+04  0.21080494606E+04  0.50400001928E-02 0.  1.
       -1   -1    0    0    0  501  0.00000000000E+00  0.00000000000E+00 -0.12975010863E+04  0.12975010863E+04  0.50400001928E-02 0. -1.
    10030    2    1    2    0    0  0.00000000000E+00  0.00000000000E+00  0.81054837426E+03  0.34055505468E+04  0.33076858769E+04 0.  0.
        5    1    3    3  502    0  0.16274606094E+04  0.29391304615E+03  0.41835687592E+03  0.17058890584E+04  0.46999998093E+01 0.  1.
       -5    1    3    3    0  502 -0.16274606094E+04 -0.29391304615E+03  0.39219149835E+03  0.16996614884E+04  0.46999998093E+01 0. -1.
</event>
<event>
 5   0  0.6258718E-07  0.3294526E+04  0.7818609E-02  0.8164290E-01
       -2   -1    0    0    0  501  0.00000000000E+00  0.00000000000E+00  0.12574996550E+04  0.12574996550E+04  0.25500000920E-02 0.  1.
        2   -1    0    0  501    0  0.00000000000E+00  0.00000000000E+00 -0.21578340510E+04  0.21578340510E+04  0.25500000920E-02 0. -1.
    10030    2    1    2    0    0  0.00000000000E+00  0.00000000000E+00 -0.90033439601E+03  0.34153337059E+04  0.32945261113E+04 0.  0.
        5    1    3    3  502    0 -0.13490106923E+04  0.92239137650E+03 -0.66467954254E+03  0.17642156001E+04  0.46999998093E+01 0.  1.
       -5    1    3    3    0  502  0.13490106923E+04 -0.92239137650E+03 -0.23565485347E+03  0.16511181058E+04  0.46999998093E+01 0. -1.
</event>
<event>
 5   0  0.2037333E-07  0.3304859E+04  0.7818609E-02  0.8161660E-01
       -1   -1    0    0    0  501  0.00000000000E+00  0.00000000000E+00  0.99096594523E+03  0.99096594524E+03  0.50400001928E-02 0. -1.
        1   -1    0    0  501    0  0.00000000000E+00  0.00000000000E+00 -0.27554165121E+04  0.27554165121E+04  0.50400001928E-02 0.  1.
    10030    2    1    2    0    0  0.00000000000E+00  0.00000000000E+00 -0.17644505669E+04  0.37463824574E+04  0.33048594091E+04 0.  0.
        3    1    3    3  502    0  0.79437790561E+03  0.43392098486E+02  0.75957737623E+03  0.10999440585E+04  0.10100000352E+00 0. -1.
       -3    1    3    3    0  502 -0.79437790561E+03 -0.43392098486E+02 -0.25240279431E+04  0.26464383989E+04  0.10100000352E+00 0.  1.
</event>
<event>
 5   0  0.6424183E-07  0.3241606E+04  0.7818609E-02  0.8177915E-01
        2   -1    0    0  501    0  0.00000000000E+00  0.00000000000E+00  0.29018385455E+04  0.29018385455E+04  0.25500000920E-02 0.  1.
       -2   -1    0    0    0  501  0.00000000000E+00  0.00000000000E+00 -0.90528873923E+03  0.90528873923E+03  0.25500000920E-02 0. -1.
    10030    2    1    2    0    0  0.00000000000E+00  0.00000000000E+00  0.19965498062E+04  0.38071272847E+04  0.32416056258E+04 0.  0.
        2    1    3    3  502    0  0.69085645672E+03 -0.82928103758E+03 -0.42180473182E+03  0.11588394690E+04  0.25500000920E-02 0. -1.
       -2    1    3    3    0  502 -0.69085645672E+03  0.82928103758E+03  0.24183545381E+04  0.26482878157E+04  0.25500000920E-02 0.  1.
</event>
<event>
 5   0  0.2080770E-07  0.3311169E+04  0.7818609E-02  0.8160059E-01
        1   -1    0    0  501    0  0.00000000000E+00  0.00000000000E+00  0.20400378571E+04  0.20400378571E+04  0.50400001928E-02 0. -1.
       -1   -1    0    0    0  501  0.00000000000E+00  0.00000000000E+00 -0.13435828318E+04  0.13435828318E+04  0.50400001928E-02 0.  1.
    10030    2    1    2    0    0  0.00000000000E+00  0.00000000000E+00  0.69645502523E+03  0.33836206889E+04  0.33111688819E+04 0.  0.
        4    1    3    3  502    0 -0.15865496750E+04  0.24728899126E+03 -0.63916899987E+02  0.16069781266E+04  0.12699999809E+01 0.  1.
       -4    1    3    3    0  502  0.15865496750E+04 -0.24728899126E+03  0.76037192522E+03  0.17766425623E+04  0.12699999809E+01 0. -1.
</event>
<event>
 5   0  0.2087665E-07  0.3305040E+04  0.7818609E-02  0.8161614E-01
       -1   -1    0    0    0  501  0.00000000000E+00  0.00000000000E+00  0.14882891821E+04  0.14882891821E+04  0.50400001928E-02 0.  1.
        1   -1    0    0  501    0  0.00000000000E+00  0.00000000000E+00 -0.18348732389E+04  0.18348732389E+04  0.50400001928E-02 0. -1.
    10030    2    1    2    0    0  0.00000000000E+00  0.00000000000E+00 -0.34658405685E+03  0.33231624210E+04  0.33050397832E+04 0.  0.
        5    1    3    3  502    0  0.15034998433E+04 -0.34309766939E+03 -0.77032574170E+03  0.17238479132E+04  0.46999998093E+01 0. -1.
       -5    1    3    3    0  502 -0.15034998433E+04  0.34309766939E+03  0.42374168486E+03  0.15993145078E+04  0.46999998093E+01 0.  1.
</event>
<event>
 5   0  0.2037333E-07  0.3300302E+04  0.7818609E-02  0.8162818E-01
       -1   -1    0    0    0  501  0.00000000000E+00  0.00000000000E+00  0.11751419651E+04  0.11751419651E+04  0.50400001928E-02 0.  1.
        1   -1    0    0  501    0  0.00000000000E+00  0.00000000000E+00 -0.23171659138E+04  0.23171659138E+04  0.50400001928E-02 0. -1.
    10030    2    1    2    0    0  0.00000000000E+00  0.00000000000E+00 -0.11420239487E+04  0.34923078789E+04  0.33003023531E+04 0.  0.
        3    1    3    3  502    0 -0.15266881553E+04 -0.33881748791E+03 -0.13657490316E+02  0.15638927555E+04  0.10100000352E+00 0. -1.
       -3    1    3    3    0  502  0.15266881553E+04  0.33881748791E+03 -0.11283664583E+04  0.19284151234E+04  0.10100000352E+00 0.  1.
</event>
<event>
 5   0  0.2057130E-07  0.3329714E+04  0.7818609E-02  0.8155376E-01
       -1   -1    0    0    0  501  0.00000000000E+00  0.00000000000E+00  0.12427200027E+04  0.12427200027E+04  0.50400001928E-02 0. -1.
        1   -1    0    0  501    0  0.00000000000E+00  0.00000000000E+00 -0.22303890847E+04  0.22303890847E+04  0.50400001928E-02 0.  1.
    10030    2    1    2    0    0  0.00000000000E+00  0.00000000000E+00 -0.98766908200E+03  0.34731090874E+04  0.33297141795E+04 0.  0.
        2    1    3    3  502    0 -0.41507718266E+03  0.15504907400E+04 -0.32711780440E+02  0.16054222694E+04  0.25500000920E-02 0. -1.
       -2    1    3    3    0  502  0.41507718266E+03 -0.15504907400E+04 -0.95495730156E+03  0.18676868180E+04  0.25500000920E-02 0.  1.
</event>
<event>
 5   0  0.6351753E-07  0.3299287E+04  0.7818609E-02  0.8163077E-01
        2   -1    0    0  501    0  0.00000000000E+00  0.00000000000E+00  0.17940040866E+04  0.17940040866E+04  0.25500000920E-02 0. -1.
       -2   -1    0    0    0  501  0.00000000000E+00  0.00000000000E+00 -0.15168994351E+04  0.15168994351E+04  0.25500000920E-02 0.  1.
    10030    2    1    2    0    0  0.00000000000E+00  0.00000000000E+00  0.27710465148E+03  0.33109035217E+04  0.32992870658E+04 0.  0.
        3    1    3    3  502    0 -0.11155415139E+04  0.10742436924E+04 -0.43168370804E+03  0.16077261004E+04  0.10100000352E+00 0. -1.
       -3    1    3    3    0  502  0.11155415139E+04 -0.10742436924E+04  0.70878835952E+03  0.17031774214E+04  0.10100000352E+00 0.  1.
</event>
<event>
 5   0  0.6377741E-07  0.3281925E+04  0.7818609E-02  0.8167510E-01
       -2   -1    0    0    0  501  0.00000000000E+00  0.00000000000E+00  0.16388333852E+04  0.16388333852E+04  0.25500000920E-02 0.  1.
        2   -1    0    0  501    0  0.00000000000E+00  0.00000000000E+00 -0.16430939209E+04  0.16430939209E+04  0.25500000920E-02 0. -1.
    10030    2    1    2    0    0  0.00000000000E+00  0.00000000000E+00 -0.42605356507E+01  0.32819273061E+04  0.32819245406E+04 0.  0.
        1    1    3    3  502    0  0.74815900066E+03  0.22994711109E+02 -0.14624350714E+04  0.16428593930E+04  0.50400001928E-02 0. -1.
       -1    1    3    3    0  502 -0.74815900066E+03 -0.22994711109E+02  0.14581745357E+04  0.16390679131E+04  0.50400001928E-02 0.  1.
</event>
<event>
 5   0  0.2057130E-07  0.3292817E+04  0.7818609E-02  0.8164725E-01
       -1   -1    0    0    0  501  0.00000000000E+00  0.00000000000E+00  0.17240785369E+04  0.17240785369E+04  0.50400001928E-02 0.  1.
        1   -1    0    0  501    0  0.00000000000E+00  0.00000000000E+00 -0.15722379089E+04  0.15722379089E+04  0.50400001928E-02 0. -1.
    10030    2    1    2    0    0  0.00000000000E+00  0.00000000000E+00  0.15184062795E+03  0.32963164458E+04  0.32928174159E+04 0.  0.
        2    1    3    3  502    0  0.27577139011E+03  0.12999480631E+04  0.10489340328E+04  0.16929788633E+04  0.25500000920E-02 0.  1.
       -2    1    3    3    0  502 -0.27577139011E+03 -0.12999480631E+04 -0.89709340484E+03  0.16033375825E+04  0.25500000920E-02 0. -1.
</event>
<event>
 5   0  0.2080770E-07  0.3306957E+04  0.7818609E-02  0.8161127E-01
        1   -1    0    0  501    0  0.00000000000E+00  0.00000000000E+00  0.14515861846E+04  0.14515861846E+04  0.50400001928E-02 0. -1.
       -1   -1    0    0    0  501  0.00000000000E+00  0.00000000000E+00 -0.18834510905E+04  0.18834510905E+04  0.50400001928E-02 0.  1.
    10030    2    1    2    0    0  0.00000000000E+00  0.00000000000E+00 -0.43186490589E+03  0.33350372751E+04  0.33069572615E+04 0.  0.
        4    1    3    3  502    0 -0.34973159014E+03 -0.14832706042E+04 -0.86292973945E+03  0.17513004364E+04  0.12699999809E+01 0.  1.
       -4    1    3    3    0  502  0.34973159014E+03  0.14832706042E+04  0.43106483355E+03  0.15837368387E+04  0.12699999809E+01 0. -1.
</event>
<event>
 5   0  0.2037333E-07  0.3249899E+04  0.7818609E-02  0.8175762E-01
        1   -1    0    0  501    0  0.00000000000E+00  0.00000000000E+00  0.17790872126E+04  0.17790872127E+04  0.50400001928E-02 0. -1.
       -1   -1    0    0    0  501  0.00000000000E+00  0.00000000000E+00 -0.14841657571E+04  0.14841657571E+04  0.50400001928E-02 0.  1.
    10030    2    1    2    0    0  0.00000000000E+00  0.00000000000E+00  0.29492145554E+03  0.32632529698E+04  0.32498986568E+04 0.  0.
        3    1    3    3  502    0 -0.12114401373E+04  0.66639489820E+03 -0.70973975513E+03  0.15541556861E+04  0.10100000352E+00 0.  1.
       -3    1    3    3    0  502  0.12114401373E+04 -0.66639489820E+03  0.10046612107E+04  0.17090972836E+04  0.10100000352E+00 0. -1.
</event>
<event>
 5   0  0.2080770E-07  0.3307790E+04  0.7818609E-02  0.8160916E-01
       -1   -1    0    0    0  501  0.00000000000E+00  0.00000000000E+00  0.13913669927E+04  0.13913669927E+04  0.50400001928E-02 0.  1.
        1   -1    0    0  501    0  0.00000000000E+00  0.00000000000E+00 -0.19659575475E+04  0.19659575475E+04  0.50400001928E-02 0. -1.
    10030    2    1    2    0    0  0.00000000000E+00  0.00000000000E+00 -0.57459055484E+03  0.33573245402E+04  0.33077898607E+04 0.  0.
        4    1    3    3  502    0  0.12416637163E+04 -0.12482870538E+03  0.81434130976E+03  0.14901222674E+04  0.12699999809E+01 0.  1.
       -4    1    3    3    0  502 -0.12416637163E+04  0.12482870538E+03 -0.13889318646E+04  0.18672022728E+04  0.12699999809E+01 0. -1.
</event>
<event>
 5   0  0.6424183E-07  0.3310407E+04  0.7818609E-02  0.8160252E-01
       -2   -1    0    0    0  501  0.00000000000E+00  0.00000000000E+00  0.11834939065E+04  0.11834939065E+04  0.25500000920E-02 0.  1.
        2   -1    0    0  501    0  0.00000000000E+00  0.00000000000E+00 -0.23149242575E+04  0.23149242575E+04  0.25500000920E-02 0. -1.
    10030    2    1    2    0    0  0.00000000000E+00  0.00000000000E+00 -0.11314303510E+04  0.34984181639E+04  0.33104070763E+04 0.  0.
        2    1    3    3  502    0 -0.68705757710E+03  0.15928769648E+03  0.10167532451E+04  0.12374198342E+04  0.25500000920E-02 0.  1.
       -2    1    3    3    0  502  0.68705757710E+03 -0.15928769648E+03 -0.21481835961E+04  0.22609983298E+04  0.25500000920E-02 0. -1.
</event>
<event>
 5   0  0.6377741E-07  0.3306028E+04  0.7818609E-02  0.8161363E-01
        2   -1    0    0  501    0  0.00000000000E+00  0.00000000000E+00  0.24936968097E+04  0.24936968098E+04  0.25500000920E-02 0.  1.
       -2   -1    0    0    0  501  0.00000000000E+00  0.00000000000E+00 -0.10957448819E+04  0.10957448819E+04  0.25500000920E-02 0. -1.
    10030    2    1    2    0    0  0.00000000000E+00  0.00000000000E+00  0.13979519278E+04  0.35894416917E+04  0.33060281405E+04 0.  0.
        1    1    3    3  502    0 -0.14593754583E+04  0.52824486676E+03  0.13166350995E+04  0.20352757436E+04  0.50400001928E-02 0.  1.
       -1    1    3    3    0  502  0.14593754583E+04 -0.52824486676E+03  0.81316828334E+02  0.15541659480E+04  0.50400001928E-02 0. -1.
</event>
<event>
 5   0  0.2080828E-07  0.3289474E+04  0.7818609E-02  0.8165579E-01
       -1   -1    0    0    0  501  0.00000000000E+00  0.00000000000E+00  0.18556828542E+04  0.18556828542E+04  0.50400001928E-02 0.  1.
        1   -1    0    0  501    0  0.00000000000E+00  0.00000000000E+00 -0.14577705116E+04  0.14577705116E+04  0.50400001928E-02 0. -1.
    10030    2    1    2    0    0  0.00000000000E+00  0.00000000000E+00  0.39791234259E+03  0.33134533657E+04  0.32894739662E+04 0.  0.
        1    1    3    3  502    0 -0.13710424405E+04 -0.23746377710E+03 -0.68437049512E+03  0.15506480560E+04  0.50400001928E-02 0. -1.
       -1    1    3    3    0  502  0.13710424405E+04  0.23746377710E+03  0.10822828377E+04  0.17628053097E+04  0.50400001928E-02 0.  1.
</event>
<event>
 5   0  0.6424183E-07  0.3299237E+04  0.7818609E-02  0.8163090E-01
       -2   -1    0    0    0  501  0.00000000000E+00  0.00000000000E+00  0.16490547479E+04  0.16490547479E+04  0.25500000920E-02 0.  1.
        2   -1    0    0  501    0  0.00000000000E+00  0.00000000000E+00 -0.16501825040E+04  0.16501825040E+04  0.25500000920E-02 0. -1.
    10030    2    1    2    0    0  0.00000000000E+00  0.00000000000E+00 -0.11277560097E+01  0.32992372519E+04  0.32992370592E+04 0.  0.
        2    1    3    3  502    0 -0.72385515855E+03  0.10299811161E+04 -0.10665910990E+04  0.16499830188E+04  0.25500000920E-02 0. -1.
       -2    1    3    3    0  502  0.72385515855E+03 -0.10299811161E+04  0.10654633429E+04  0.16492542331E+04  0.25500000920E-02 0.  1.
</event>
<event>
 5   0  0.2037333E-07  0.3291350E+04  0.7818609E-02  0.8165100E-01
        1   -1    0    0  501    0  0.00000000000E+00  0.00000000000E+00  0.15988683536E+04  0.15988683536E+04  0.50400001928E-02 0.  1.
       -1   -1    0    0    0  501  0.00000000000E+00  0.00000000000E+00 -0.16938520202E+04  0.16938520202E+04  0.50400001928E-02 0. -1.
    10030    2    1    2    0    0  0.00000000000E+00  0.00000000000E+00 -0.94983666521E+02  0.32927203738E+04  0.32913501125E+04 0.  0.
        3    1    3    3  502    0  0.61906190401E+03 -0.38511769200E+03 -0.15234680832E+04  0.16889370292E+04  0.10100000352E+00 0. -1.
       -3    1    3    3    0  502 -0.61906190401E+03  0.38511769200E+03  0.14284844167E+04  0.16037833447E+04  0.10100000352E+00 0.  1.
</event>
<event>
 5   0  0.6377741E-07  0.3313070E+04  0.7818609E-02  0.8159578E-01
       -2   -1    0    0    0  501  0.00000000000E+00  0.00000000000E+00  0.13338893165E+04  0.13338893165E+04  0.25500000920E-02 0. -1.
        2   -1    0    0  501    0  0.00000000000E+00  0.00000000000E+00 -0.20572228568E+04  0.20572228568E+04  0.25500000920E-02 0.  1.
    10030    2    1    2    0    0  0.00000000000E+00  0.00000000000E+00 -0.72333354036E+03  0.33911121733E+04  0.33130696282E+04 0.  0.
        1    1    3    3  502    0  0.21218429732E+03 -0.11441146496E+03 -0.20391733312E+04  0.20533728434E+04  0.50400001928E-02 0.  1.
       -1    1    3    3    0  502 -0.21218429732E+03  0.11441146496E+03  0.13158397909E+04  0.13377393298E+04  0.50400001928E-02 0. -1.
</event>
<event>
 5   0  0.2037333E-07  0.3311697E+04  0.7818609E-02  0.8159925E-01
       -1   -1    0    0    0  501  0.00000000000E+00  0.00000000000E+00  0.12853006154E+04  0.12853006154E+04  0.50400001928E-02 0. -1.
        1   -1    0    0  501    0  0.00000000000E+00  0.00000000000E+00 -0.21332245224E+04  0.21332245224E+04  0.50400001928E-02 0.  1.
    10030    2    1    2    0    0  0.00000000000E+00  0.00000000000E+00 -0.84792390707E+03  0.34185251378E+04  0.33116973240E+04 0.  0.
        3    1    3    3  502    0  0.55010731355E+03 -0.17754439083E+02 -0.20360370592E+04  0.21091183450E+04  0.10100000352E+00 0.  1.
       -3    1    3    3    0  502 -0.55010731355E+03  0.17754439083E+02  0.11881131522E+04  0.13094067928E+04  0.10100000352E+00 0. -1.
</event>
<event>
 5   0  0.2057130E-07  0.3291929E+04  0.7818609E-02  0.8164952E-01
       -1   -1    0    0    0  501  0.00000000000E+00  0.00000000000E+00  0.17495937221E+04  0.17495937221E+04  0.50400001928E-02 0. -1.
        1   -1    0    0  501    0  0.00000000000E+00  0.00000000000E+00 -0.15484735623E+04  0.15484735623E+04  0.50400001928E-02 0.  1.
    10030    2    1    2    0    0  0.00000000000E+00  0.00000000000E+00  0.20112015986E+03  0.32980672844E+04  0.32919292966E+04 0.  0.
        2    1    3    3  502    0  0.61798451702E+03 -0.50946974075E+03  0.15412034606E+04  0.17368858302E+04  0.25500000920E-02 0. -1.
       -2    1    3    3    0  502 -0.61798451702E+03  0.50946974075E+03 -0.13400833008E+04  0.15611814542E+04  0.25500000920E-02 0.  1.
</event>
<event>
 5   0  0.6377741E-07  0.3301217E+04  0.7818609E-02  0.8162586E-01
       -2   -1    0    0    0  501  0.00000000000E+00  0.00000000000E+00  0.98168895983E+03  0.98168895983E+03  0.25500000920E-02 0.  1.
        2   -1    0    0  501    0  0.00000000000E+00  0.00000000000E+00 -0.27753275973E+04  0.27753275973E+04  0.25500000920E-02 0. -1.
    10030    2    1    2    0    0  0.00000000000E+00  0.00000000000E+00 -0.17936386375E+04  0.37570165571E+04  0.33012170254E+04 0.  0.
        1    1    3    3  502    0 -0.13231321873E+04 -0.54504330462E+03 -0.18330558067E+04  0.23254772799E+04  0.50400001928E-02 0. -1.
       -1    1    3    3    0  502  0.13231321873E+04  0.54504330462E+03  0.39417169198E+02  0.14315392772E+04  0.50400001928E-02 0.  1.
</event>
<event>
 5   0  0.2057130E-07  0.3395696E+04  0.7818609E-02  0.8138964E-01
        1   -1    0    0  501    0  0.00000000000E+00  0.00000000000E+00  0.15556937966E+04  0.15556937966E+04  0.50400001928E-02 0. -1.
       -1   -1    0    0    0  501  0.00000000000E+00  0.00000000000E+00 -0.18529913273E+04  0.18529913273E+04  0.50400001928E-02 0.  1.
    10030    2    1    2    0    0  0.00000000000E+00  0.00000000000E+00 -0.29729753072E+03  0.34086851239E+04  0.33956955770E+04 0.  0.
        2    1    3    3  502    0 -0.11349719168E+04 -0.12608354879E+04 -0.78958896731E+02  0.16982643749E+04  0.25500000920E-02 0.  1.
       -2    1    3    3    0  502  0.11349719168E+04  0.12608354879E+04 -0.21833863399E+03  0.17104207490E+04  0.25500000920E-02 0. -1.
</event>
<event>
 5   0  0.6424183E-07  0.3298964E+04  0.7818609E-02  0.8163159E-01
        2   -1    0    0  501    0  0.00000000000E+00  0.00000000000E+00  0.21358179359E+04  0.21358179359E+04  0.25500000920E-02 0. -1.
       -2   -1    0    0    0  501  0.00000000000E+00  0.00000000000E+00 -0.12738874294E+04  0.12738874294E+04  0.25500000920E-02 0.  1.
    10030    2    1    2    0    0  0.00000000000E+00  0.00000000000E+00  0.86193050650E+03  0.34097053652E+04  0.32989644556E+04 0.  0.
        2    1    3    3  502    0  0.24754776198E+03 -0.72238205805E+03 -0.10801936908E+04  0.13228507632E+04  0.25500000920E-02 0.  1.
       -2    1    3    3    0  502 -0.24754776198E+03  0.72238205805E+03  0.19421241973E+04  0.20868546020E+04  0.25500000920E-02 0. -1.
</event>
<event>
 5   0  0.6377741E-07  0.3311945E+04  0.7818609E-02  0.8159863E-01
       -2   -1    0    0    0  501  0.00000000000E+00  0.00000000000E+00  0.17110992204E+04  0.17110992204E+04  0.25500000920E-02 0. -1.
        2   -1    0    0  501    0  0.00000000000E+00  0.00000000000E+00 -0.16026214758E+04  0.16026214758E+04  0.25500000920E-02 0.  1.
    10030    2    1    2    0    0  0.00000000000E+00  0.00000000000E+00  0.10847774459E+03  0.33137206963E+04  0.33119446601E+04 0.  0.
        1    1    3    3  502    0  0.92725189047E+03 -0.56172624690E+03  0.13066736539E+04  0.16978599715E+04  0.50400001928E-02 0. -1.
       -1    1    3    3    0  502 -0.92725189047E+03  0.56172624690E+03 -0.11981959093E+04  0.16158607248E+04  0.50400001928E-02 0.  1.
</event>
<event>
 5   0  0.2057130E-07  0.3371885E+04  0.7818609E-02  0.8144841E-01
       -1   -1    0    0    0  501  0.00000000000E+00  0.00000000000E+00  0.12159274128E+04  0.12159274128E+04  0.50400001928E-02 0. -1.
        1   -1    0    0  501    0  0.00000000000E+00  0.00000000000E+00 -0.23376410077E+04  0.23376410077E+04  0.50400001928E-02 0.  1.
    10030    2    1    2    0    0  0.00000000000E+00  0.00000000000E+00 -0.11217135949E+04  0.35535684205E+04  0.33718848038E+04 0.  0.
        2    1    3    3  502    0 -0.12773611001E+04 -0.38828958386E+03 -0.16458852237E+04  0.21192825085E+04  0.25500000920E-02 0.  1.
       -2    1    3    3    0  502  0.12773611001E+04  0.38828958386E+03  0.52417162880E+03  0.14342859120E+04  0.25500000920E-02 0. -1.
</event>
<event>
 5   0  0.2080770E-07  0.3275217E+04  0.7818609E-02  0.8169230E-01
       -1   -1    0    0    0  501  0.00000000000E+00  0.00000000000E+00  0.16821184199E+04  0.16821184199E+04  0.50400001928E-02 0. -1.
        1   -1    0    0  501    0  0.00000000000E+00  0.00000000000E+00 -0.15942764079E+04  0.15942764079E+04  0.50400001928E-02 0.  1.
    10030    2    1    2    0    0  0.00000000000E+00  0.00000000000E+00  0.87842012062E+02  0.32763948278E+04  0.32752170689E+04 0.  0.
        4    1    3    3  502    0  0.88882541657E+03 -0.90513020862E+02 -0.13289998796E+04  0.16013886227E+04  0.12699999809E+01 0.  1.
       -4    1    3    3    0  502 -0.88882541657E+03  0.90513020862E+02  0.14168418917E+04  0.16750062051E+04  0.12699999809E+01 0. -1.
</event>
<event>
 5   0  0.6258718E-07  0.3277863E+04  0.7818609E-02  0.8168551E-01
       -2   -1    0    0    0  501  0.00000000000E+00  0.00000000000E+00  0.10073974067E+04  0.10073974067E+04  0.25500000920E-02 0. -1.
        2   -1    0    0  501    0  0.00000000000E+00  0.00000000000E+00 -0.26663724177E+04  0.26663724177E+04  0.25500000920E-02 0.  1.
    10030    2    1    2    0    0  0.00000000000E+00  0.00000000000E+00 -0.16589750110E+04  0.36737698244E+04  0.32778631203E+04 0.  0.
        5    1    3    3  502    0  0.15710549085E+04 -0.45216855099E+03 -0.95924987937E+03  0.18954820878E+04  0.46999998093E+01 0.  1.
       -5    1    3    3    0  502 -0.15710549085E+04  0.45216855099E+03 -0.69972513162E+03  0.17782877365E+04  0.46999998093E+01 0. -1.
</event>
<event>
 5   0  0.2087665E-07  0.3293261E+04  0.7818609E-02  0.8164612E-01
       -1   -1    0    0    0  501  0.00000000000E+00  0.00000000000E+00  0.17611403113E+04  0.17611403113E+04  0.50400001928E-02 0.  1.
        1   -1    0    0  501    0  0.00000000000E+00  0.00000000000E+00 -0.15395662094E+04  0.15395662094E+04  0.50400001928E-02 0. -1.
    10030    2    1    2    0    0  0.00000000000E+00  0.00000000000E+00  0.22157410188E+03  0.33007065208E+04  0.32932610667E+04 0.  0.
        5    1    3    3  502    0 -0.18425556702E+03  0.11210689372E+04  0.13053811855E+04  0.17305455225E+04  0.46999998093E+01 0.  1.
       -5    1    3    3    0  502  0.18425556702E+03 -0.11210689372E+04 -0.10838070836E+04  0.15701609983E+04  0.46999998093E+01 0. -1.
</event>
<event>
 5   0  0.2037333E-07  0.3305600E+04  0.7818609E-02  0.8161472E-01
        1   -1    0    0  501    0  0.00000000000E+00  0.00000000000E+00  0.16656059650E+04  0.16656059650E+04  0.50400001928E-02 0.  1.
       -1   -1    0    0    0  501  0.00000000000E+00  0.00000000000E+00 -0.16400926591E+04  0.16400926591E+04  0.50400001928E-02 0. -1.
    10030    2    1    2    0    0  0.00000000000E+00  0.00000000000E+00  0.25513305864E+02  0.33056986242E+04  0.33056001671E+04 0.  0.
        3    1    3    3  502    0  0.61861656926E+03  0.17104634352E+03  0.15358925586E+04  0.16646048399E+04  0.10100000352E+00 0.  1.
       -3    1    3    3    0  502 -0.61861656926E+03 -0.17104634352E+03 -0.15103792527E+04  0.16410937842E+04  0.10100000352E+00 0. -1.
</event>
<event>
 5   0  0.6351753E-07  0.3326087E+04  0.7818609E-02  0.8156289E-01
       -2   -1    0    0    0  501  0.00000000000E+00  0.00000000000E+00  0.11319717759E+04  0.11319717759E+04  0.25500000920E-02 0. -1.
        2   -1    0    0  501    0  0.00000000000E+00  0.00000000000E+00 -0.24432714878E+04  0.24432714878E+04  0.25500000920E-02 0.  1.
    10030    2    1    2    0    0  0.00000000000E+00  0.00000000000E+00 -0.13112997118E+04  0.35752432637E+04  0.33260874102E+04 0.  0.
        3    1    3    3  502    0 -0.14334651161E+04 -0.76711938291E+03 -0.10317452978E+04  0.19255629713E+04  0.10100000352E+00 0.  1.
       -3    1    3    3    0  502  0.14334651161E+04  0.76711938291E+03 -0.27955441399E+03  0.16496802924E+04  0.10100000352E+00 0. -1.
</event>
<event>
 5   0  0.6258718E-07  0.3300211E+04  0.7818609E-02  0.8162842E-01
       -2   -1    0    0    0  501  0.00000000000E+00  0.00000000000E+00  0.11118742999E+04  0.11118742999E+04  0.25500000920E-02 0.  1.
        2   -1    0    0  501    0  0.00000000000E+00  0.00000000000E+00 -0.24488814167E+04  0.24488814167E+04  0.25500000920E-02 0. -1.
    10030    2    1    2    0    0  0.00000000000E+00  0.00000000000E+00 -0.13370071168E+04  0.35607557165E+04  0.33002110906E+04 0.  0.
        5    1    3    3  502    0 -0.22269047152E+03 -0.16348439887E+04 -0.69311462297E+03  0.17896189214E+04  0.46999998093E+01 0.  1.
       -5    1    3    3    0  502  0.22269047152E+03  0.16348439887E+04 -0.64389249385E+03  0.17711367951E+04  0.46999998093E+01 0. -1.
</event>
<event>
 5   0  0.2087665E-07  0.3294723E+04  0.7818609E-02  0.8164239E-01
        1   -1    0    0  501    0  0.00000000000E+00  0.00000000000E+00  0.21068713753E+04  0.21068713753E+04  0.50400001928E-02 0.  1.
       -1   -1    0    0    0  501  0.00000000000E+00  0.00000000000E+00 -0.12880708969E+04  0.12880708969E+04  0.50400001928E-02 0. -1.
    10030    2    1    2    0    0  0.00000000000E+00  0.00000000000E+00  0.81880047849E+03  0.33949422722E+04  0.32947228727E+04 0.  0.
        5    1    3    3  502    0  0.13678855228E+04  0.74972361024E+03 -0.13641150687E+03  0.15658309246E+04  0.46999998093E+01 0. -1.
       -5    1    3    3    0  502 -0.13678855228E+04 -0.74972361024E+03  0.95521198536E+03  0.18291113476E+04  0.46999998093E+01 0.  1.
</event>
<event>
 5   0  0.2057130E-07  0.3295912E+04  0.7818609E-02  0.8163936E-01
       -1   -1    0    0    0  501  0.00000000000E+00  0.00000000000E+00  0.12819077118E+04  0.12819077118E+04  0.50400001928E-02 0.  1.
        1   -1    0    0  501    0  0.00000000000E+00  0.00000000000E+00 -0.21185289238E+04  0.21185289239E+04  0.50400001928E-02 0. -1.
    10030    2    1    2    0    0  0.00000000000E+00  0.00000000000E+00 -0.83662121201E+03  0.34004366357E+04  0.32959117496E+04 0.  0.
        2    1    3    3  502    0 -0.43814849558E+02  0.11847209007E+04  0.76266349723E+03  0.14096591658E+04  0.25500000920E-02 0.  1.
       -2    1    3    3    0  502  0.43814849558E+02 -0.11847209007E+04 -0.15992847092E+04  0.19907774699E+04  0.25500000920E-02 0. -1.
</event>
<event>
 5   0  0.6426079E-07  0.3125298E+04  0.7818609E-02  0.8208829E-01
        2   -1    0    0  501    0  0.00000000000E+00  0.00000000000E+00  0.17483396975E+04  0.17483396975E+04  0.25500000920E-02 0.  1.
       -2   -1    0    0    0  501  0.00000000000E+00  0.00000000000E+00 -0.13966805924E+04  0.13966805924E+04  0.25500000920E-02 0. -1.
    10030    2    1    2    0    0  0.00000000000E+00  0.00000000000E+00  0.35165910508E+03  0.31450202899E+04  0.31252981454E+04 0.  0.
        4    1    3    3  502    0  0.70959375184E+03 -0.47759178327E+03 -0.11401896215E+04  0.14253600212E+04  0.12699999809E+01 0. -1.
       -4    1    3    3    0  502 -0.70959375184E+03  0.47759178327E+03  0.14918487265E+04  0.17196602687E+04  0.12699999809E+01 0.  1.
</event>
<event>
 5   0  0.2057130E-07  0.3292915E+04  0.7818609E-02  0.8164701E-01
        1   -1    0    0  501    0  0.00000000000E+00  0.00000000000E+00  0.18810472518E+04  0.18810472518E+04  0.50400001928E-02 0.  1.
       -1   -1    0    0    0  501  0.00000000000E+00  0.00000000000E+00 -0.14411239560E+04  0.14411239560E+04  0.50400001928E-02 0. -1.
    10030    2    1    2    0    0  0.00000000000E+00  0.00000000000E+00  0.43992329579E+03  0.33221712078E+04  0.32929149742E+04 0.  0.
        2    1    3    3  502    0  0.13939819611E+04 -0.78342186680E+02  0.11003538275E+04  0.17776675032E+04  0.25500000920E-02 0.  1.
       -2    1    3    3    0  502 -0.13939819611E+04  0.78342186680E+02 -0.66043053176E+03  0.15445037046E+04  0.25500000920E-02 0. -1.
</event>
<event>
 5   0  0.2080828E-07  0.3389964E+04  0.7818609E-02  0.8140374E-01
       -1   -1    0    0    0  501  0.00000000000E+00  0.00000000000E+00  0.29032218840E+04  0.29032218840E+04  0.50400001928E-02 0.  1.
        1   -1    0    0  501    0  0.00000000000E+00  0.00000000000E+00 -0.98957760006E+03  0.98957760007E+03  0.50400001928E-02 0. -1.
    10030    2    1    2    0    0  0.00000000000E+00  0.00000000000E+00  0.19136442839E+04  0.38927994841E+04  0.33899636248E+04 0.  0.
        1    1    3    3  502    0 -0.49499089489E+03  0.97696758754E+03  0.24423386370E+04  0.26766583030E+04  0.50400001928E-02 0.  1.
       -1    1    3    3    0  502  0.49499089489E+03 -0.97696758754E+03 -0.52869435313E+03  0.12161411810E+04  0.50400001928E-02 0. -1.
</event>
<event>
 5   0  0.6424183E-07  0.3288333E+04  0.7818609E-02  0.8165871E-01
        2   -1    0    0  501    0  0.00000000000E+00  0.00000000000E+00  0.10764091601E+04  0.10764091601E+04  0.25500000920E-02 0. -1.
       -2   -1    0    0    0  501  0.00000000000E+00  0.00000000000E+00 -0.25113896948E+04  0.25113896948E+04  0.25500000920E-02 0.  1.
    10030    2    1    2    0    0  0.00000000000E+00  0.00000000000E+00 -0.14349805347E+04  0.35877988548E+04  0.32883326303E+04 0.  0.
        2    1    3    3  502    0 -0.10215821518E+04  0.12755463960E+04 -0.52038935491E+03  0.17150666990E+04  0.25500000920E-02 0. -1.
       -2    1    3    3    0  502  0.10215821518E+04 -0.12755463960E+04 -0.91459117981E+03  0.18727321558E+04  0.25500000920E-02 0.  1.
</event>
<event>
 5   0  0.2057130E-07  0.3299454E+04  0.7818609E-02  0.8163034E-01
       -1   -1    0    0    0  501  0.00000000000E+00  0.00000000000E+00  0.12899234529E+04  0.12899234530E+04  0.50400001928E-02 0. -1.
        1   -1    0    0  501    0  0.00000000000E+00  0.00000000000E+00 -0.21098925775E+04  0.21098925775E+04  0.50400001928E-02 0.  1.
    10030    2    1    2    0    0  0.00000000000E+00  0.00000000000E+00 -0.81996912454E+03  0.33998160304E+04  0.32994544512E+04 0.  0.
        2    1    3    3  502    0  0.98833458605E+03 -0.12757623499E+04 -0.57188629005E+02  0.16148205370E+04  0.25500000920E-02 0.  1.
       -2    1    3    3    0  502 -0.98833458605E+03  0.12757623499E+04 -0.76278049554E+03  0.17849954935E+04  0.25500000920E-02 0. -1.
</event>
<event>
 5   0  0.6377741E-07  0.3269658E+04  0.7818609E-02  0.8170659E-01
        2   -1    0    0  501    0  0.00000000000E+00  0.00000000000E+00  0.23950469930E+04  0.23950469930E+04  0.25500000920E-02 0. -1.
       -2   -1    0    0    0  501  0.00000000000E+00  0.00000000000E+00 -0.11159135693E+04  0.11159135693E+04  0.25500000920E-02 0.  1.
    10030    2    1    2    0    0  0.00000000000E+00  0.00000000000E+00  0.12791334237E+04  0.35109605623E+04  0.32696577427E+04 0.  0.
        1    1    3    3  502    0  0.31289628373E+03 -0.82766419290E+03 -0.83656095110E+03  0.12176889281E+04  0.50400001928E-02 0.  1.
       -1    1    3    3    0  502 -0.31289628373E+03  0.82766419290E+03  0.21156943748E+04  0.22932716342E+04  0.50400001928E-02 0. -1.
</event>
<event>
 5   0  0.2037333E-07  0.3292560E+04  0.7818609E-02  0.8164791E-01
        1   -1    0    0  501    0  0.00000000000E+00  0.00000000000E+00  0.17381141602E+04  0.17381141602E+04  0.50400001928E-02 0.  1.
       -1   -1    0    0    0  501  0.00000000000E+00  0.00000000000E+00 -0.15592980315E+04  0.15592980315E+04  0.50400001928E-02 0. -1.
    10030    2    1    2    0    0  0.00000000000E+00  0.00000000000E+00  0.17881612874E+03  0.32974121917E+04  0.32925600912E+04 0.  0.
        3    1    3    3  502    0 -0.14906574212E+04 -0.67598292504E+03 -0.87559772192E+02  0.16391092661E+04  0.10100000352E+00 0. -1.
       -3    1    3    3    0  502  0.14906574212E+04  0.67598292504E+03  0.26637590093E+03  0.16583029256E+04  0.10100000352E+00 0.  1.
</event>
<event>
 5   0  0.2037333E-07  0.3299210E+04  0.7818609E-02  0.8163096E-01
        1   -1    0    0  501    0  0.00000000000E+00  0.00000000000E+00  0.21394877377E+04  0.21394877377E+04  0.50400001928E-02 0. -1.
       -1   -1    0    0    0  501  0.00000000000E+00  0.00000000000E+00 -0.12718915135E+04  0.12718915135E+04  0.50400001928E-02 0.  1.
    10030    2    1    2    0    0  0.00000000000E+00  0.00000000000E+00  0.86759622424E+03  0.34113792512E+04  0.32992097822E+04 0.  0.
        3    1    3    3  502    0 -0.15684218958E+04 -0.16386951637E+03 -0.66806686458E+02  0.15783737216E+04  0.10100000352E+00 0.  1.
       -3    1    3    3    0  502  0.15684218958E+04  0.16386951637E+03  0.93440291070E+03  0.18330055295E+04  0.10100000352E+00 0. -1.
</event>
<event>
 5   0  0.6426079E-07  0.3295232E+04  0.7818609E-02  0.8164110E-01
        2   -1    0    0  501    0  0.00000000000E+00  0.00000000000E+00  0.30703539067E+04  0.30703539067E+04  0.25500000920E-02 0. -1.
       -2   -1    0    0    0  501  0.00000000000E+00  0.00000000000E+00 -0.88414517885E+03  0.88414517885E+03  0.25500000920E-02 0.  1.
    10030    2    1    2    0    0  0.00000000000E+00  0.00000000000E+00  0.21862087278E+04  0.39544990855E+04  0.32952320731E+04 0.  0.
        4    1    3    3  502    0 -0.98606209898E+03 -0.63061523902E+03 -0.29847814934E+03  0.12079258509E+04  0.12699999809E+01 0. -1.
       -4    1    3    3    0  502  0.98606209898E+03  0.63061523902E+03  0.24846868772E+04  0.27465732346E+04  0.12699999809E+01 0.  1.
</event>
<event>
 5   0  0.6377741E-07  0.3296485E+04  0.7818609E-02  0.8163790E-01
       -2   -1    0    0    0  501  0.00000000000E+00  0.00000000000E+00  0.16427963840E+04  0.16427963840E+04  0.25500000920E-02 0. -1.
        2   -1    0    0  501    0  0.00000000000E+00  0.00000000000E+00 -0.16537069173E+04  0.16537069173E+04  0.25500000920E-02 0.  1.
    10030    2    1    2    0    0  0.00000000000E+00  0.00000000000E+00 -0.10910533346E+02  0.32965033013E+04  0.32964852458E+04 0.  0.
        1    1    3    3  502    0 -0.10697461599E+04  0.93982689018E+03  0.82465307694E+03  0.16455042168E+04  0.50400001928E-02 0. -1.
       -1    1    3    3    0  502  0.10697461599E+04 -0.93982689018E+03 -0.83556361029E+03  0.16509990845E+04  0.50400001928E-02 0.  1.
</event>
<event>
 5   0  0.2057130E-07  0.3318036E+04  0.7818609E-02  0.8158321E-01
       -1   -1    0    0    0  501  0.00000000000E+00  0.00000000000E+00  0.13930566046E+04  0.13930566046E+04  0.50400001928E-02 0.  1.
        1   -1    0    0  501    0  0.00000000000E+00  0.00000000000E+00 -0.19757564351E+04  0.19757564351E+04  0.50400001928E-02 0. -1.
    10030    2    1    2    0    0  0.00000000000E+00  0.00000000000E+00 -0.58269983049E+03  0.33688130397E+04  0.33180358956E+04 0.  0.
        2    1    3    3  502    0  0.26526239441E+03 -0.14864531737E+04 -0.98920639433E+03  0.18051139760E+04  0.25500000920E-02 0.  1.
       -2    1    3    3    0  502 -0.26526239441E+03  0.14864531737E+04  0.40650656384E+03  0.15636990638E+04  0.25500000920E-02 0. -1.
</event>
<event>
 5   0  0.2080828E-07  0.3294665E+04  0.7818609E-02  0.8164254E-01
        1   -1    0    0  501    0  0.00000000000E+00  0.00000000000E+00  0.12855378812E+04  0.12855378812E+04  0.50400001928E-02 0. -1.
       -1   -1    0    0    0  501  0.00000000000E+00  0.00000000000E+00 -0.21109485358E+04  0.21109485358E+04  0.50400001928E-02 0.  1.
    10030    2    1    2    0    0  0.00000000000E+00  0.00000000000E+00 -0.82541065462E+03  0.33964864169E+04  0.32946649650E+04 0.  0.
        1    1    3    3  502    0 -0.69425375960E+03  0.93399519971E+03 -0.16146578243E+04  0.19903404748E+04  0.50400001928E-02 0.  1.
       -1    1    3    3    0  502  0.69425375960E+03 -0.93399519971E+03  0.78924716971E+03  0.14061459422E+04  0.50400001928E-02 0. -1.
</event>
<event>
 5   0  0.2087665E-07  0.3305166E+04  0.7818609E-02  0.8161582E-01
       -1   -1    0    0    0  501  0.00000000000E+00  0.00000000000E+00  0.12763033001E+04  0.12763033001E+04  0.50400001928E-02 0.  1.
        1   -1    0    0  501    0  0.00000000000E+00  0.00000000000E+00 -0.21397971806E+04  0.21397971806E+04  0.50400001928E-02 0. -1.
    10030    2    1    2    0    0  0.00000000000E+00  0.00000000000E+00 -0.86349388051E+03  0.34161004807E+04  0.33051657769E+04 0.  0.
        5    1    3    3  502    0 -0.22406997354E+03 -0.48602483307E+03  0.11842464185E+04  0.12995726841E+04  0.46999998093E+01 0.  1.
       -5    1    3    3    0  502  0.22406997354E+03  0.48602483307E+03 -0.20477402991E+04  0.21165277966E+04  0.46999998093E+01 0. -1.
</event>
<event>
 5   0  0.6424183E-07  0.3297805E+04  0.7818609E-02  0.8163454E-01
       -2   -1    0    0    0  501  0.00000000000E+00  0.00000000000E+00  0.92200325237E+03  0.92200325237E+03  0.25500000920E-02 0.  1.
        2   -1    0    0  501    0  0.00000000000E+00  0.00000000000E+00 -0.29488818651E+04  0.29488818651E+04  0.25500000920E-02 0. -1.
    10030    2    1    2    0    0  0.00000000000E+00  0.00000000000E+00 -0.20268786128E+04  0.38708851175E+04  0.32978045245E+04 0.  0.
        2    1    3    3  502    0 -0.12261944647E+04  0.10025520739E+04 -0.47527192323E+03  0.16536465545E+04  0.25500000920E-02 0.  1.
       -2    1    3    3    0  502  0.12261944647E+04 -0.10025520739E+04 -0.15516066895E+04  0.22172385630E+04  0.25500000920E-02 0. -1.
</event>
<event>
 5   0  0.2080770E-07  0.3293106E+04  0.7818609E-02  0.8164652E-01
       -1   -1    0    0    0  501  0.00000000000E+00  0.00000000000E+00  0.10407293754E+04  0.10407293754E+04  0.50400001928E-02 0.  1.
        1   -1    0    0  501    0  0.00000000000E+00  0.00000000000E+00 -0.26050358063E+04  0.26050358063E+04  0.50400001928E-02 0. -1.
    10030    2    1    2    0    0  0.00000000000E+00  0.00000000000E+00 -0.15643064309E+04  0.36457651817E+04  0.32931063072E+04 0.  0.
        4    1    3    3  502    0  0.11807287833E+04  0.15653759617E+03 -0.20407890696E+04  0.23629316787E+04  0.12699999809E+01 0. -1.
       -4    1    3    3    0  502 -0.11807287833E+04 -0.15653759617E+03  0.47648263866E+03  0.12828335031E+04  0.12699999809E+01 0.  1.
</event>
<event>
 5   0  0.6258718E-07  0.3304323E+04  0.7818609E-02  0.8161796E-01
        2   -1    0    0  501    0  0.00000000000E+00  0.00000000000E+00  0.21162674780E+04  0.21162674780E+04  0.25500000920E-02 0. -1.
       -2   -1    0    0    0  501  0.00000000000E+00  0.00000000000E+00 -0.12898355686E+04  0.12898355686E+04  0.25500000920E-02 0.  1.
    10030    2    1    2    0    0  0.00000000000E+00  0.00000000000E+00  0.82643190936E+03  0.34061030466E+04  0.33043226633E+04 0.  0.
        5    1    3    3  502    0 -0.97291865576E+03  0.20349563794E+03 -0.94714373611E+03  0.13729838063E+04  0.46999998093E+01 0.  1.
       -5    1    3    3    0  502  0.97291865576E+03 -0.20349563794E+03  0.17735756455E+04  0.20331192404E+04  0.46999998093E+01 0. -1.
</event>
<event>
 5   0  0.2087665E-07  0.3293797E+04  0.7818609E-02  0.8164475E-01
       -1   -1    0    0    0  501  0.00000000000E+00  0.00000000000E+00  0.18328561883E+04  0.18328561883E+04  0.50400001928E-02 0.  1.
        1   -1    0    0  501    0  0.00000000000E+00  0.00000000000E+00 -0.14798079227E+04  0.14798079227E+04  0.50400001928E-02 0. -1.
    10030    2    1    2    0    0  0.00000000000E+00  0.00000000000E+00  0.35304826555E+03  0.33126641110E+04  0.32937972668E+04 0.  0.
        5    1    3    3  502    0 -0.15861644988E+04 -0.11315644828E+03 -0.25433473910E+03  0.16104131297E+04  0.46999998093E+01 0.  1.
       -5    1    3    3    0  502  0.15861644988E+04  0.11315644828E+03  0.60738300465E+03  0.17022509813E+04  0.46999998093E+01 0. -1.
</event>
<event>
 5   0  0.2080828E-07  0.3306865E+04  0.7818609E-02  0.8161151E-01
        1   -1    0    0  501    0  0.00000000000E+00  0.00000000000E+00  0.23137192480E+04  0.23137192480E+04  0.50400001928E-02 0.  1.
       -1   -1    0    0    0  501  0.00000000000E+00  0.00000000000E+00 -0.11815776074E+04  0.11815776074E+04  0.50400001928E-02 0. -1.
    10030    2    1    2    0    0  0.00000000000E+00  0.00000000000E+00  0.11321416406E+04  0.34952968555E+04  0.33068648919E+04 0.  0.
        1    1    3    3  502    0 -0.30646389606E+03 -0.16204483891E+04  0.69142796502E+03  0.17882521445E+04  0.50400001928E-02 0. -1.
       -1    1    3    3    0  502  0.30646389606E+03  0.16204483891E+04  0.44071367558E+03  0.17070447110E+04  0.50400001928E-02 0.  1.
</event>
<event>
 5   0  0.6424183E-07  0.3264518E+04  0.7818609E-02  0.8171983E-01
        2   -1    0    0  501    0  0.00000000000E+00  0.00000000000E+00  0.20676124169E+04  0.20676124169E+04  0.25500000920E-02 0. -1.
       -2   -1    0    0    0  501  0.00000000000E+00  0.00000000000E+00 -0.12885725879E+04  0.12885725879E+04  0.25500000920E-02 0.  1.
    10030    2    1    2    0    0  0.00000000000E+00  0.00000000000E+00  0.77903982896E+03  0.33561850049E+04  0.32645175343E+04 0.  0.
        2    1    3    3  502    0  0.99245701560E+03  0.12797799508E+04  0.18018245715E+03  0.16295009568E+04  0.25500000920E-02 0.  1.
       -2    1    3    3    0  502 -0.99245701560E+03 -0.12797799508E+04  0.59885737181E+03  0.17266840481E+04  0.25500000920E-02 0. -1.
</event>
<event>
 5   0  0.2087665E-07  0.3309666E+04  0.7818609E-02  0.8160440E-01
       -1   -1    0    0    0  501  0.00000000000E+00  0.00000000000E+00  0.27022140372E+04  0.27022140373E+04  0.50400001928E-02 0. -1.
        1   -1    0    0  501    0  0.00000000000E+00  0.00000000000E+00 -0.10134178902E+04  0.10134178902E+04  0.50400001928E-02 0.  1.
    10030    2    1    2    0    0  0.00000000000E+00  0.00000000000E+00  0.16887961470E+04  0.37156319275E+04  0.33096658735E+04 0.  0.
        5    1    3    3  502    0  0.11084938190E+04  0.11548341047E+03  0.22176994418E+04  0.24819967504E+04  0.46999998093E+01 0. -1.
       -5    1    3    3    0  502 -0.11084938190E+04 -0.11548341047E+03 -0.52890329482E+03  0.12336351771E+04  0.46999998093E+01 0.  1.
</event>
<event>
 5   0  0.6377741E-07  0.3319071E+04  0.7818609E-02  0.8158060E-01
        2   -1    0    0  501    0  0.00000000000E+00  0.00000000000E+00  0.87839354288E+03  0.87839354289E+03  0.25500000920E-02 0. -1.
       -2   -1    0    0    0  501  0.00000000000E+00  0.00000000000E+00 -0.31353350809E+04  0.31353350809E+04  0.25500000920E-02 0.  1.
    10030    2    1    2    0    0  0.00000000000E+00  0.00000000000E+00 -0.22569415380E+04  0.40137286238E+04  0.33190710085E+04 0.  0.
        1    1    3    3  502    0 -0.10318003555E+04  0.12985037733E+04 -0.11982970045E+04  0.20461279857E+04  0.50400001928E-02 0.  1.
       -1    1    3    3    0  502  0.10318003555E+04 -0.12985037733E+04 -0.10586445335E+04  0.19676006381E+04  0.50400001928E-02 0. -1.
</event>
<event>
 5   0  0.2080828E-07  0.3311257E+04  0.7818609E-02  0.8160037E-01
        1   -1    0    0  501    0  0.00000000000E+00  0.00000000000E+00  0.18663068083E+04  0.18663068083E+04  0.50400001928E-02 0. -1.
       -1   -1    0    0    0  501  0.00000000000E+00  0.00000000000E+00 -0.14687325754E+04  0.14687325754E+04  0.50400001928E-02 0.  1.
    10030    2    1    2    0    0  0.00000000000E+00  0.00000000000E+00  0.39757423289E+03  0.33350393837E+04  0.33112569245E+04 0.  0.
        1    1    3    3  502    0  0.40049064052E+03 -0.45785249176E+02 -0.14185534187E+04  0.14747144957E+04  0.50400001928E-02 0.  1.
       -1    1    3    3    0  502 -0.40049064052E+03  0.45785249176E+02  0.18161276516E+04  0.18603248880E+04  0.50400001928E-02 0. -1.
</event>
<event>
 5   0  0.2057130E-07  0.3296284E+04  0.7818609E-02  0.8163842E-01
       -1   -1    0    0    0  501  0.00000000000E+00  0.00000000000E+00  0.13777262933E+04  0.13777262933E+04  0.50400001928E-02 0. -1.
        1   -1    0    0  501    0  0.00000000000E+00  0.00000000000E+00 -0.19716339431E+04  0.19716339431E+04  0.50400001928E-02 0.  1.
    10030    2    1    2    0    0  0.00000000000E+00  0.00000000000E+00 -0.59390764984E+03  0.33493602364E+04  0.32962839223E+04 0.  0.
        2    1    3    3  502    0  0.16217105338E+04  0.29087496358E+03 -0.34028582498E+03  0.16823637367E+04  0.25500000920E-02 0.  1.
       -2    1    3    3    0  502 -0.16217105338E+04 -0.29087496358E+03 -0.25362182486E+03  0.16669964997E+04  0.25500000920E-02 0. -1.
</event>
<event>
 5   0  0.6426079E-07  0.3263214E+04  0.7818609E-02  0.8172319E-01
        2   -1    0    0  501    0  0.00000000000E+00  0.00000000000E+00  0.92945772871E+03  0.92945772872E+03  0.25500000920E-02 0. -1.
       -2   -1    0    0    0  501  0.00000000000E+00  0.00000000000E+00 -0.28641869220E+04  0.28641869220E+04  0.25500000920E-02 0.  1.
    10030    2    1    2    0    0  0.00000000000E+00  0.00000000000E+00 -0.19347291932E+04  0.37936446507E+04  0.32632135518E+04 0.  0.
        4    1    3    3  502    0  0.10628646568E+04 -0.95028261903E+03 -0.18896846924E+04  0.23671983830E+04  0.12699999809E+01 0.  1.
       -4    1    3    3    0  502 -0.10628646568E+04  0.95028261903E+03 -0.45044500833E+02  0.14264462677E+04  0.12699999809E+01 0. -1.
</event>
<event>
 5   0  0.6424183E-07  0.3288828E+04  0.7818609E-02  0.8165744E-01
        2   -1    0    0  501    0  0.00000000000E+00  0.00000000000E+00  0.16020031708E+04  0.16020031708E+04  0.25500000920E-02 0.  1.
       -2   -1    0    0    0  501  0.00000000000E+00  0.00000000000E+00 -0.16879476220E+04  0.16879476220E+04  0.25500000920E-02 0. -1.
    10030    2    1    2    0    0  0.00000000000E+00  0.00000000000E+00 -0.85944451119E+02  0.32899507928E+04  0.32888280238E+04 0.  0.
        2    1    3    3  502    0  0.13798032393E+04 -0.48953269744E+03 -0.79195889478E+03  0.16645414180E+04  0.25500000920E-02 0. -1.
       -2    1    3    3    0  502 -0.13798032393E+04  0.48953269744E+03  0.70601444366E+03  0.16254093748E+04  0.25500000920E-02 0.  1.
</event>
<event>
 5   0  0.6426079E-07  0.3303502E+04  0.7818609E-02  0.8162005E-01
        2   -1    0    0  501    0  0.00000000000E+00  0.00000000000E+00  0.18875703980E+04  0.18875703980E+04  0.25500000920E-02 0. -1.
       -2   -1    0    0    0  501  0.00000000000E+00  0.00000000000E+00 -0.14453927543E+04  0.14453927543E+04  0.25500000920E-02 0.  1.
    10030    2    1    2    0    0  0.00000000000E+00  0.00000000000E+00  0.44217764367E+03  0.33329631524E+04  0.33035015221E+04 0.  0.
        4    1    3    3  502    0  0.14734658245E+04  0.68382897893E+03  0.52301570335E+03  0.17065376197E+04  0.12699999809E+01 0.  1.
       -4    1    3    3    0  502 -0.14734658245E+04 -0.68382897893E+03 -0.80838059688E+02  0.16264255327E+04  0.12699999809E+01 0. -1.
</event>
<event>
 5   0  0.2057130E-07  0.3309974E+04  0.7818609E-02  0.8160362E-01
        1   -1    0    0  501    0  0.00000000000E+00  0.00000000000E+00  0.11021401438E+04  0.11021401438E+04  0.50400001928E-02 0. -1.
       -1   -1    0    0    0  501  0.00000000000E+00  0.00000000000E+00 -0.24851483399E+04  0.24851483399E+04  0.50400001928E-02 0.  1.
    10030    2    1    2    0    0  0.00000000000E+00  0.00000000000E+00 -0.13830081961E+04  0.35872884836E+04  0.33099738661E+04 0.  0.
        2    1    3    3  502    0 -0.13175250219E+04 -0.59891575831E+03 -0.15615110016E+04  0.21290582136E+04  0.25500000920E-02 0.  1.
       -2    1    3    3    0  502  0.13175250219E+04  0.59891575831E+03  0.17850280550E+03  0.14582302700E+04  0.25500000920E-02 0. -1.
</event>
<event>
 5   0  0.6377741E-07  0.3291742E+04  0.7818609E-02  0.8165000E-01
       -2   -1    0    0    0  501  0.00000000000E+00  0.00000000000E+00  0.97884490814E+03  0.97884490815E+03  0.25500000920E-02 0. -1.
        2   -1    0    0  501    0  0.00000000000E+00  0.00000000000E+00 -0.27674370407E+04  0.27674370407E+04  0.25500000920E-02 0.  1.
    10030    2    1    2    0    0  0.00000000000E+00  0.00000000000E+00 -0.17885921326E+04  0.37462819489E+04  0.32917421867E+04 0.  0.
        1    1    3    3  502    0 -0.15254787195E+04  0.57058260357E+03 -0.11641969755E+04  0.20020001071E+04  0.50400001928E-02 0.  1.
       -1    1    3    3    0  502  0.15254787195E+04 -0.57058260357E+03 -0.62439515705E+03  0.17442818417E+04  0.50400001928E-02 0. -1.
</event>
<event>
 5   0  0.2080770E-07  0.3298197E+04  0.7818609E-02  0.8163354E-01
        1   -1    0    0  501    0  0.00000000000E+00  0.00000000000E+00  0.33412023988E+04  0.33412023988E+04  0.50400001928E-02 0.  1.
       -1   -1    0    0    0  501  0.00000000000E+00  0.00000000000E+00 -0.81393641057E+03  0.81393641058E+03  0.50400001928E-02 0. -1.
    10030    2    1    2    0    0  0.00000000000E+00  0.00000000000E+00  0.25272659882E+04  0.41551388094E+04  0.32981972576E+04 0.  0.
        4    1    3    3  502    0  0.22694948453E+03  0.15054548215E+04  0.20620300889E+04  0.25631757624E+04  0.12699999809E+01 0.  1.
       -4    1    3    3    0  502 -0.22694948453E+03 -0.15054548215E+04  0.46523589930E+03  0.15919630470E+04  0.12699999809E+01 0. -1.
</event>
<event>
 5   0  0.2057130E-07  0.3333705E+04  0.7818609E-02  0.8154372E-01
       -1   -1    0    0    0  501  0.00000000000E+00  0.00000000000E+00  0.12579712585E+04  0.12579712585E+04  0.50400001928E-02 0. -1.
        1   -1    0    0  501    0  0.00000000000E+00  0.00000000000E+00 -0.22086332226E+04  0.22086332226E+04  0.50400001928E-02 0.  1.
    10030    2    1    2    0    0  0.00000000000E+00  0.00000000000E+00 -0.95066196415E+03  0.34666044812E+04  0.33337049148E+04 0.  0.
        2    1    3    3  502    0 -0.10333088118E+04  0.21120108041E+03  0.86688681892E+03  0.13652200385E+04  0.25500000920E-02 0. -1.
       -2    1    3    3    0  502  0.10333088118E+04 -0.21120108041E+03 -0.18175487831E+04  0.21013844426E+04  0.25500000920E-02 0.  1.
</event>
<event>
 5   0  0.2080828E-07  0.3264390E+04  0.7818609E-02  0.8172016E-01
        1   -1    0    0  501    0  0.00000000000E+00  0.00000000000E+00  0.22438517689E+04  0.22438517689E+04  0.50400001928E-02 0.  1.
       -1   -1    0    0    0  501  0.00000000000E+00  0.00000000000E+00 -0.11872712932E+04  0.11872712933E+04  0.50400001928E-02 0. -1.
    10030    2    1    2    0    0  0.00000000000E+00  0.00000000000E+00  0.10565804756E+04  0.34311230621E+04  0.32643901676E+04 0.  0.
        1    1    3    3  502    0  0.46112573512E+03 -0.11453844283E+04  0.16502955088E+04  0.20610719781E+04  0.50400001928E-02 0.  1.
       -1    1    3    3    0  502 -0.46112573512E+03  0.11453844283E+04 -0.59371503321E+03  0.13700510841E+04  0.50400001928E-02 0. -1.
</event>
<event>
 5   0  0.6377741E-07  0.3300552E+04  0.7818609E-02  0.8162755E-01
        2   -1    0    0  501    0  0.00000000000E+00  0.00000000000E+00  0.19034332021E+04  0.19034332021E+04  0.25500000920E-02 0. -1.
       -2   -1    0    0    0  501  0.00000000000E+00  0.00000000000E+00 -0.14307888535E+04  0.14307888535E+04  0.25500000920E-02 0.  1.
    10030    2    1    2    0    0  0.00000000000E+00  0.00000000000E+00  0.47264434864E+03  0.33342220556E+04  0.33005520804E+04 0.  0.
        1    1    3    3  502    0 -0.10495388121E+04 -0.12593914441E+04  0.42749454941E+03  0.16942107654E+04  0.50400001928E-02 0.  1.
       -1    1    3    3    0  502  0.10495388121E+04  0.12593914441E+04  0.45149799228E+02  0.16400112902E+04  0.50400001928E-02 0. -1.
</event>
<event>
 5   0  0.2037333E-07  0.3295411E+04  0.7818609E-02  0.8164064E-01
        1   -1    0    0  501    0  0.00000000000E+00  0.00000000000E+00  0.18267872658E+04  0.18267872658E+04  0.50400001928E-02 0.  1.
       -1   -1    0    0    0  501  0.00000000000E+00  0.00000000000E+00 -0.14861794230E+04  0.14861794230E+04  0.50400001928E-02 0. -1.
    10030    2    1    2    0    0  0.00000000000E+00  0.00000000000E+00  0.34060784279E+03  0.33129666888E+04  0.32954111395E+04 0.  0.
        3    1    3    3  502    0  0.78407634792E+03 -0.10084750465E+04  0.12165864136E+04  0.17640521962E+04  0.10100000352E+00 0.  1.
       -3    1    3    3    0  502 -0.78407634792E+03  0.10084750465E+04 -0.87597857080E+03  0.15489144926E+04  0.10100000352E+00 0. -1.
</event>
<event>
 5   0  0.2087665E-07  0.3283887E+04  0.7818609E-02  0.8167008E-01
        1   -1    0    0  501    0  0.00000000000E+00  0.00000000000E+00  0.20128641772E+04  0.20128641772E+04  0.50400001928E-02 0. -1.
       -1   -1    0    0    0  501  0.00000000000E+00  0.00000000000E+00 -0.13393740157E+04  0.13393740157E+04  0.50400001928E-02 0.  1.
    10030    2    1    2    0    0  0.00000000000E+00  0.00000000000E+00  0.67349016150E+03  0.33522381930E+04  0.32838867071E+04 0.  0.
        5    1    3    3  502    0  0.36987156814E+03 -0.14539398475E+04 -0.34438345604E+03  0.15392751905E+04  0.46999998093E+01 0.  1.
       -5    1    3    3    0  502 -0.36987156814E+03  0.14539398475E+04  0.10178736175E+04  0.18129630025E+04  0.46999998093E+01 0. -1.
</event>
<event>
 5   0  0.2037333E-07  0.3289647E+04  0.7818609E-02  0.8165535E-01
       -1   -1    0    0    0  501  0.00000000000E+00  0.00000000000E+00  0.10706764060E+04  0.10706764060E+04  0.50400001928E-02 0. -1.
        1   -1    0    0  501    0  0.00000000000E+00  0.00000000000E+00 -0.25268551594E+04  0.25268551594E+04  0.50400001928E-02 0.  1.
    10030    2    1    2    0    0  0.00000000000E+00  0.00000000000E+00 -0.14561787534E+04  0.35975315655E+04  0.32896469116E+04 0.  0.
        3    1    3    3  502    0  0.79531606595E+03  0.28691872444E+03 -0.22710210460E+04  0.24233007657E+04  0.10100000352E+00 0.  1.
       -3    1    3    3    0  502 -0.79531606595E+03 -0.28691872444E+03  0.81484229263E+03  0.11742307998E+04  0.10100000352E+00 0. -1.
</event>
<event>
 5   0  0.6424183E-07  0.3306787E+04  0.7818609E-02  0.8161171E-01
       -2   -1    0    0    0  501  0.00000000000E+00  0.00000000000E+00  0.14106448649E+04  0.14106448649E+04  0.25500000920E-02 0.  1.
        2   -1    0    0  501    0  0.00000000000E+00  0.00000000000E+00 -0.19379148292E+04  0.19379148292E+04  0.25500000920E-02 0. -1.
    10030    2    1    2    0    0  0.00000000000E+00  0.00000000000E+00 -0.52726996428E+03  0.33485596942E+04  0.33067867198E+04 0.  0.
        2    1    3    3  502    0  0.11347657045E+04  0.99793883916E+03 -0.94303100010E+03  0.17812587117E+04  0.25500000920E-02 0. -1.
       -2    1    3    3    0  502 -0.11347657045E+04 -0.99793883916E+03  0.41576103582E+03  0.15673009825E+04  0.25500000920E-02 0.  1.
</event>
<event>
 5   0  0.6426079E-07  0.3303551E+04  0.7818609E-02  0.8161992E-01
        2   -1    0    0  501    0  0.00000000000E+00  0.00000000000E+00  0.15391558452E+04  0.15391558453E+04  0.25500000920E-02 0.  1.
       -2   -1    0    0    0  501  0.00000000000E+00  0.00000000000E+00 -0.17726354966E+04  0.17726354966E+04  0.25500000920E-02 0. -1.
    10030    2    1    2    0    0  0.00000000000E+00  0.00000000000E+00 -0.23347965134E+03  0.33117913418E+04  0.33035509901E+04 0.  0.
        4    1    3    3  502    0  0.70776492262E+03  0.10535126097E+04  0.94303505199E+03  0.15811820663E+04  0.12699999809E+01 0.  1.
       -4    1    3    3    0  502 -0.70776492262E+03 -0.10535126097E+04 -0.11765147033E+04  0.17306092756E+04  0.12699999809E+01 0. -1.
</event>
<event>
 5   0  0.6426079E-07  0.3302257E+04  0.7818609E-02  0.8162321E-01
        2   -1    0    0  501    0  0.00000000000E+00  0.00000000000E+00  0.34183820129E+04  0.34183820129E+04  0.25500000920E-02 0.  1.
       -2   -1    0    0    0  501  0.00000000000E+00  0.00000000000E+00 -0.79751928475E+03  0.79751928475E+03  0.25500000920E-02 0. -1.
    10030    2    1    2    0    0  0.00000000000E+00  0.00000000000E+00  0.26208627282E+04  0.42159012977E+04  0.33022571541E+04 0.  0.
        4    1    3    3  502    0 -0.43372073743E+03  0.13462094795E+04  0.22276149146E+03  0.14317883698E+04  0.12699999809E+01 0. -1.
       -4    1    3    3    0  502  0.43372073743E+03 -0.13462094795E+04  0.23981012367E+04  0.27841129279E+04  0.12699999809E+01 0.  1.
</event>
<event>
 5   0  0.2037333E-07  0.3314663E+04  0.7818609E-02  0.8159174E-01
        1   -1    0    0  501    0  0.00000000000E+00  0.00000000000E+00  0.23544779583E+04  0.23544779583E+04  0.50400001928E-02 0.  1.
       -1   -1    0    0    0  501  0.00000000000E+00  0.00000000000E+00 -0.11666056073E+04  0.11666056073E+04  0.50400001928E-02 0. -1.
    10030    2    1    2    0    0  0.00000000000E+00  0.00000000000E+00  0.11878723510E+04  0.35210835656E+04  0.33146626908E+04 0.  0.
        3    1    3    3  502    0  0.16496648848E+04 -0.40674503825E+02  0.43040607562E+03  0.17053732869E+04  0.10100000352E+00 0. -1.
       -3    1    3    3    0  502 -0.16496648848E+04  0.40674503825E+02  0.75746627540E+03  0.18157102787E+04  0.10100000352E+00 0.  1.
</event>
<event>
 5   0  0.2080770E-07  0.3251888E+04  0.7818609E-02  0.8175246E-01
        1   -1    0    0  501    0  0.00000000000E+00  0.00000000000E+00  0.21160253406E+04  0.21160253406E+04  0.50400001928E-02 0. -1.
       -1   -1    0    0    0  501  0.00000000000E+00  0.00000000000E+00 -0.12493678891E+04  0.12493678892E+04  0.50400001928E-02 0.  1.
    10030    2    1    2    0    0  0.00000000000E+00  0.00000000000E+00  0.86665745143E+03  0.33653932297E+04  0.32518881366E+04 0.  0.
        4    1    3    3  502    0  0.13753284108E+04 -0.96525491417E+01 -0.46416137417E+03  0.14515745945E+04  0.12699999809E+01 0.  1.
       -4    1    3    3    0  502 -0.13753284108E+04  0.96525491417E+01  0.13308188256E+04  0.19138186353E+04  0.12699999809E+01 0. -1.
</event>
<event>
 5   0  0.6258718E-07  0.3303012E+04  0.7818609E-02  0.8162129E-01
       -2   -1    0    0    0  501  0.00000000000E+00  0.00000000000E+00  0.18859997115E+04  0.18859997115E+04  0.25500000920E-02 0.  1.
        2   -1    0    0  501    0  0.00000000000E+00  0.00000000000E+00 -0.14461680228E+04  0.14461680228E+04  0.25500000920E-02 0. -1.
    10030    2    1    2    0    0  0.00000000000E+00  0.00000000000E+00  0.43983168870E+03  0.33321677343E+04  0.33030122457E+04 0.  0.
        5    1    3    3  502    0  0.14896120747E+04 -0.49183256417E+03 -0.30098184168E+03  0.15973276318E+04  0.46999998093E+01 0.  1.
       -5    1    3    3    0  502 -0.14896120747E+04  0.49183256417E+03  0.74081353037E+03  0.17348401025E+04  0.46999998093E+01 0. -1.
</event>
<event>
 5   0  0.2087665E-07  0.3301788E+04  0.7818609E-02  0.8162441E-01
       -1   -1    0    0    0  501  0.00000000000E+00  0.00000000000E+00  0.15288808723E+04  0.15288808723E+04  0.50400001928E-02 0. -1.
        1   -1    0    0  501    0  0.00000000000E+00  0.00000000000E+00 -0.17826441894E+04  0.17826441894E+04  0.50400001928E-02 0.  1.
    10030    2    1    2    0    0  0.00000000000E+00  0.00000000000E+00 -0.25376331706E+03  0.33115250618E+04  0.33017877602E+04 0.  0.
        5    1    3    3  502    0  0.66454069608E+03 -0.12888540692E+04  0.66453947380E+03  0.15951156543E+04  0.46999998093E+01 0. -1.
       -5    1    3    3    0  502 -0.66454069608E+03  0.12888540692E+04 -0.91830279086E+03  0.17164094075E+04  0.46999998093E+01 0.  1.
</event>
<event>
 5   0  0.2080770E-07  0.3343908E+04  0.7818609E-02  0.8151812E-01
        1   -1    0    0  501    0  0.00000000000E+00  0.00000000000E+00  0.88689508333E+03  0.88689508334E+03  0.50400001928E-02 0.  1.
       -1   -1    0    0    0  501  0.00000000000E+00  0.00000000000E+00 -0.31519290492E+04  0.31519290492E+04  0.50400001928E-02 0. -1.
    10030    2    1    2    0    0  0.00000000000E+00  0.00000000000E+00 -0.22650339659E+04  0.40388241325E+04  0.33439081188E+04 0.  0.
        4    1    3    3  502    0  0.11336408969E+04 -0.10945005322E+04 -0.45748352226E+03  0.16408430406E+04  0.12699999809E+01 0. -1.
       -4    1    3    3    0  502 -0.11336408969E+04  0.10945005322E+04 -0.18075504436E+04  0.23979810919E+04  0.12699999809E+01 0.  1.
</event>
<event>
 5   0  0.6258718E-07  0.3303947E+04  0.7818609E-02  0.8161892E-01
       -2   -1    0    0    0  501  0.00000000000E+00  0.00000000000E+00  0.12087748007E+04  0.12087748007E+04  0.25500000920E-02 0.  1.
        2   -1    0    0  501    0  0.00000000000E+00  0.00000000000E+00 -0.22576718708E+04  0.22576718708E+04  0.25500000920E-02 0. -1.
    10030    2    1    2    0    0  0.00000000000E+00  0.00000000000E+00 -0.10488970701E+04  0.34664466716E+04  0.33039472549E+04 0.  0.
        5    1    3    3  502    0 -0.72960717850E+03 -0.73972387507E+03  0.82303824872E+03  0.13254931517E+04  0.46999998093E+01 0.  1.
       -5    1    3    3    0  502  0.72960717850E+03  0.73972387507E+03 -0.18719353189E+04  0.21409535199E+04  0.46999998093E+01 0. -1.
</event>
<event>
 5   0  0.2037333E-07  0.3304568E+04  0.7818609E-02  0.8161734E-01
        1   -1    0    0  501    0  0.00000000000E+00  0.00000000000E+00  0.20006130071E+04  0.20006130071E+04  0.50400001928E-02 0. -1.
       -1   -1    0    0    0  501  0.00000000000E+00  0.00000000000E+00 -0.13646027863E+04  0.13646027864E+04  0.50400001928E-02 0.  1.
    10030    2    1    2    0    0  0.00000000000E+00  0.00000000000E+00  0.63601022073E+03  0.33652157934E+04  0.33045677986E+04 0.  0.
        3    1    3    3  502    0 -0.12496060608E+04  0.10589494080E+04  0.53913759112E+03  0.17244009128E+04  0.10100000352E+00 0. -1.
       -3    1    3    3    0  502  0.12496060608E+04 -0.10589494080E+04  0.96872629615E+02  0.16408148806E+04  0.10100000352E+00 0.  1.
</event>
<event>
 5   0  0.2037333E-07  0.3306946E+04  0.7818609E-02  0.8161130E-01
        1   -1    0    0  501    0  0.00000000000E+00  0.00000000000E+00  0.16580043110E+04  0.16580043111E+04  0.50400001928E-02 0. -1.
       -1   -1    0    0    0  501  0.00000000000E+00  0.00000000000E+00 -0.16489539892E+04  0.16489539892E+04  0.50400001928E-02 0.  1.
    10030    2    1    2    0    0  0.00000000000E+00  0.00000000000E+00  0.90503218525E+01  0.33069583003E+04  0.33069459160E+04 0.  0.
        3    1    3    3  502    0 -0.15291836952E+04 -0.86736337464E+01 -0.62436097276E+03  0.16517580453E+04  0.10100000352E+00 0. -1.
       -3    1    3    3    0  502  0.15291836952E+04  0.86736337464E+01  0.63341129462E+03  0.16552002550E+04  0.10100000352E+00 0.  1.
</event>
<event>
 5   0  0.2037333E-07  0.3325357E+04  0.7818609E-02  0.8156473E-01
        1   -1    0    0  501    0  0.00000000000E+00  0.00000000000E+00  0.21725976113E+04  0.21725976113E+04  0.50400001928E-02 0. -1.
       -1   -1    0    0    0  501  0.00000000000E+00  0.00000000000E+00 -0.12724399767E+04  0.12724399767E+04  0.50400001928E-02 0.  1.
    10030    2    1    2    0    0  0.00000000000E+00  0.00000000000E+00  0.90015763461E+03  0.34450375880E+04  0.33253571561E+04 0.  0.
        3    1    3    3  502    0 -0.11195006680E+04  0.10197137059E+04 -0.26121903283E+03  0.15366630018E+04  0.10100000352E+00 0. -1.
       -3    1    3    3    0  502  0.11195006680E+04 -0.10197137059E+04  0.11613766674E+04  0.19083745863E+04  0.10100000352E+00 0.  1.
</event>
<event>
 5   0  0.2057130E-07  0.3279532E+04  0.7818609E-02  0.8168123E-01
       -1   -1    0    0    0  501  0.00000000000E+00  0.00000000000E+00  0.12186371135E+04  0.12186371135E+04  0.50400001928E-02 0. -1.
        1   -1    0    0  501    0  0.00000000000E+00  0.00000000000E+00 -0.22064260871E+04  0.22064260871E+04  0.50400001928E-02 0.  1.
    10030    2    1    2    0    0  0.00000000000E+00  0.00000000000E+00 -0.98778897365E+03  0.34250632006E+04  0.32795321117E+04 0.  0.
        2    1    3    3  502    0 -0.10031755190E+04  0.30607799700E+03 -0.18102998948E+04  0.20921832069E+04  0.25500000920E-02 0.  1.
       -2    1    3    3    0  502  0.10031755190E+04 -0.30607799700E+03  0.82251092117E+03  0.13328799937E+04  0.25500000920E-02 0. -1.
</event>
<event>
 5   0  0.2080770E-07  0.3301614E+04  0.7818609E-02  0.8162485E-01
       -1   -1    0    0    0  501  0.00000000000E+00  0.00000000000E+00  0.26237879422E+04  0.26237879422E+04  0.50400001928E-02 0. -1.
        1   -1    0    0  501    0  0.00000000000E+00  0.00000000000E+00 -0.10386374836E+04  0.10386374836E+04  0.50400001928E-02 0.  1.
    10030    2    1    2    0    0  0.00000000000E+00  0.00000000000E+00  0.15851504586E+04  0.36624254258E+04  0.33016144571E+04 0.  0.
        4    1    3    3  502    0  0.13784845053E+04 -0.70141199337E+03  0.15248462968E+03  0.15541722849E+04  0.12699999809E+01 0.  1.
       -4    1    3    3    0  502 -0.13784845053E+04  0.70141199337E+03  0.14326658290E+04  0.21082531409E+04  0.12699999809E+01 0. -1.
</event>
<event>
 5   0  0.2080770E-07  0.3293742E+04  0.7818609E-02  0.8164490E-01
       -1   -1    0    0    0  501  0.00000000000E+00  0.00000000000E+00  0.11344355238E+04  0.11344355238E+04  0.50400001928E-02 0. -1.
        1   -1    0    0  501    0  0.00000000000E+00  0.00000000000E+00 -0.23907785851E+04  0.23907785851E+04  0.50400001928E-02 0.  1.
    10030    2    1    2    0    0  0.00000000000E+00  0.00000000000E+00 -0.12563430613E+04  0.35252141089E+04  0.32937420400E+04 0.  0.
        4    1    3    3  502    0 -0.46358113617E+03  0.67703568251E+03  0.90007578219E+03  0.12179584606E+04  0.12699999809E+01 0. -1.
       -4    1    3    3    0  502  0.46358113617E+03 -0.67703568251E+03 -0.21564188435E+04  0.23072556483E+04  0.12699999809E+01 0.  1.
</event>
<event>
 5   0  0.6351753E-07  0.3295475E+04  0.7818609E-02  0.8164048E-01
       -2   -1    0    0    0  501  0.00000000000E+00  0.00000000000E+00  0.10032308841E+04  0.10032308841E+04  0.25500000920E-02 0.  1.
        2   -1    0    0  501    0  0.00000000000E+00  0.00000000000E+00 -0.27062953617E+04  0.27062953617E+04  0.25500000920E-02 0. -1.
    10030    2    1    2    0    0  0.00000000000E+00  0.00000000000E+00 -0.17030644776E+04  0.37095262458E+04  0.32954751332E+04 0.  0.
        3    1    3    3  502    0  0.68176831875E+03  0.65723288610E+03 -0.23693873206E+04  0.25516189747E+04  0.10100000352E+00 0. -1.
       -3    1    3    3    0  502 -0.68176831875E+03 -0.65723288610E+03  0.66632284302E+03  0.11579072711E+04  0.10100000352E+00 0.  1.
</event>
<event>
 5   0  0.6426079E-07  0.3302836E+04  0.7818609E-02  0.8162174E-01
        2   -1    0    0  501    0  0.00000000000E+00  0.00000000000E+00  0.30515547317E+04  0.30515547317E+04  0.25500000920E-02 0. -1.
       -2   -1    0    0    0  501  0.00000000000E+00  0.00000000000E+00 -0.89370254186E+03  0.89370254186E+03  0.25500000920E-02 0.  1.
    10030    2    1    2    0    0  0.00000000000E+00  0.00000000000E+00  0.21578521898E+04  0.39452572736E+04  0.33028364903E+04 0.  0.
        4    1    3    3  502    0  0.12971732658E+03  0.11021473456E+04 -0.38190380569E+03  0.11736300465E+04  0.12699999809E+01 0.  1.
       -4    1    3    3    0  502 -0.12971732658E+03 -0.11021473456E+04  0.25397559955E+04  0.27716272271E+04  0.12699999809E+01 0. -1.
</event>
<event>
 5   0  0.6426079E-07  0.3297087E+04  0.7818609E-02  0.8163637E-01
       -2   -1    0    0    0  501  0.00000000000E+00  0.00000000000E+00  0.15961954764E+04  0.15961954764E+04  0.25500000920E-02 0. -1.
        2   -1    0    0  501    0  0.00000000000E+00  0.00000000000E+00 -0.17026080151E+04  0.17026080151E+04  0.25500000920E-02 0.  1.
    10030    2    1    2    0    0  0.00000000000E+00  0.00000000000E+00 -0.10641253866E+03  0.32988034915E+04  0.32970867212E+04 0.  0.
        4    1    3    3  502    0  0.85264212552E+03 -0.10257659072E+04  0.91605989790E+03  0.16181352354E+04  0.12699999809E+01 0. -1.
       -4    1    3    3    0  502 -0.85264212552E+03  0.10257659072E+04 -0.10224724366E+04  0.16806682561E+04  0.12699999809E+01 0.  1.
</event>
<event>
 5   0  0.2087665E-07  0.3265673E+04  0.7818609E-02  0.8171685E-01
       -1   -1    0    0    0  501  0.00000000000E+00  0.00000000000E+00  0.14451401794E+04  0.14451401794E+04  0.50400001928E-02 0. -1.
        1   -1    0    0  501    0  0.00000000000E+00  0.00000000000E+00 -0.18449113011E+04  0.18449113011E+04  0.50400001928E-02 0.  1.
    10030    2    1    2    0    0  0.00000000000E+00  0.00000000000E+00 -0.39977112174E+03  0.32900514805E+04  0.32656732529E+04 0.  0.
        5    1    3    3  502    0  0.59268098943E+03 -0.14937481734E+04  0.91372895738E+02  0.16096351937E+04  0.46999998093E+01 0. -1.
       -5    1    3    3    0  502 -0.59268098943E+03  0.14937481734E+04 -0.49114401748E+03  0.16804162867E+04  0.46999998093E+01 0.  1.
</event>
<event>
 5   0  0.2037333E-07  0.3309232E+04  0.7818609E-02  0.8160550E-01
        1   -1    0    0  501    0  0.00000000000E+00  0.00000000000E+00  0.21519087510E+04  0.21519087510E+04  0.50400001928E-02 0. -1.
       -1   -1    0    0    0  501  0.00000000000E+00  0.00000000000E+00 -0.12722442069E+04  0.12722442069E+04  0.50400001928E-02 0.  1.
    10030    2    1    2    0    0  0.00000000000E+00  0.00000000000E+00  0.87966454405E+03  0.34241529579E+04  0.33092315980E+04 0.  0.
        3    1    3    3  502    0 -0.16397296611E+04 -0.21951216733E+03  0.40958566345E+03  0.17043061283E+04  0.10100000352E+00 0.  1.
       -3    1    3    3    0  502  0.16397296611E+04  0.21951216733E+03  0.47007888060E+03  0.17198468296E+04  0.10100000352E+00 0. -1.
</event>
<event>
 5   0  0.6426079E-07  0.3299096E+04  0.7818609E-02  0.8163126E-01
        2   -1    0    0  501    0  0.00000000000E+00  0.00000000000E+00  0.22053264647E+04  0.22053264647E+04  0.25500000920E-02 0.  1.
       -2   -1    0    0    0  501  0.00000000000E+00  0.00000000000E+00 -0.12338346055E+04  0.12338346055E+04  0.25500000920E-02 0. -1.
    10030    2    1    2    0    0  0.00000000000E+00  0.00000000000E+00  0.97149185926E+03  0.34391610702E+04  0.32990956994E+04 0.  0.
        4    1    3    3  502    0  0.15039490378E+04 -0.49244523461E+03  0.97095443766E+03  0.18566419015E+04  0.12699999809E+01 0. -1.
       -4    1    3    3    0  502 -0.15039490378E+04  0.49244523461E+03  0.53742160412E+00  0.15825191687E+04  0.12699999809E+01 0.  1.
</event>
<event>
 5   0  0.6258718E-07  0.3310790E+04  0.7818609E-02  0.8160155E-01
        2   -1    0    0  501    0  0.00000000000E+00  0.00000000000E+00  0.29256305966E+04  0.29256305966E+04  0.25500000920E-02 0. -1.
       -2   -1    0    0    0  501  0.00000000000E+00  0.00000000000E+00 -0.93666404937E+03  0.93666404937E+03  0.25500000920E-02 0.  1.
    10030    2    1    2    0    0  0.00000000000E+00  0.00000000000E+00  0.19889665472E+04  0.38622946459E+04  0.33107902389E+04 0.  0.
        5    1    3    3  502    0  0.29788307764E+03 -0.48791562579E+03  0.28068193284E+04  0.28644463371E+04  0.46999998093E+01 0. -1.
       -5    1    3    3    0  502 -0.29788307764E+03  0.48791562579E+03 -0.81785278117E+03  0.99784830887E+03  0.46999998093E+01 0.  1.
</event>
<event>
 5   0  0.2087665E-07  0.3290485E+04  0.7818609E-02  0.8165321E-01
        1   -1    0    0  501    0  0.00000000000E+00  0.00000000000E+00  0.22855307534E+04  0.22855307534E+04  0.50400001928E-02 0. -1.
       -1   -1    0    0    0  501  0.00000000000E+00  0.00000000000E+00 -0.11843301202E+04  0.11843301203E+04  0.50400001928E-02 0.  1.
    10030    2    1    2    0    0  0.00000000000E+00  0.00000000000E+00  0.11012006332E+04  0.34698608737E+04  0.32904850172E+04 0.  0.
        5    1    3    3  502    0 -0.29629355496E+02 -0.39399972253E+03 -0.11335495710E+04  0.12004459171E+04  0.46999998093E+01 0.  1.
       -5    1    3    3    0  502  0.29629355496E+02  0.39399972253E+03  0.22347502041E+04  0.22694149565E+04  0.46999998093E+01 0. -1.
</event>
<event>
 5   0  0.2037333E-07  0.3179800E+04  0.7818609E-02  0.8194172E-01
        1   -1    0    0  501    0  0.00000000000E+00  0.00000000000E+00  0.19804678334E+04  0.19804678334E+04  0.50400001928E-02 0.  1.
       -1   -1    0    0    0  501  0.00000000000E+00  0.00000000000E+00 -0.12763559983E+04  0.12763559984E+04  0.50400001928E-02 0. -1.
    10030    2    1    2    0    0  0.00000000000E+00  0.00000000000E+00  0.70411183509E+03  0.32568238318E+04  0.31797999929E+04 0.  0.
        3    1    3    3  502    0 -0.15132975231E+03 -0.13681554981E+04 -0.46284955864E+03  0.14522327242E+04  0.10100000352E+00 0. -1.
       -3    1    3    3    0  502  0.15132975231E+03  0.13681554981E+04  0.11669613937E+04  0.18045911076E+04  0.10100000352E+00 0.  1.
</event>
<event>
 5   0  0.6424183E-07  0.3299514E+04  0.7818609E-02  0.8163019E-01
       -2   -1    0    0    0  501  0.00000000000E+00  0.00000000000E+00  0.21815820420E+04  0.21815820420E+04  0.25500000920E-02 0.  1.
        2   -1    0    0  501    0  0.00000000000E+00  0.00000000000E+00 -0.12475803909E+04  0.12475803909E+04  0.25500000920E-02 0. -1.
    10030    2    1    2    0    0  0.00000000000E+00  0.00000000000E+00  0.93400165111E+03  0.34291624329E+04  0.32995144956E+04 0.  0.
        2    1    3    3  502    0  0.96818192940E+03 -0.13352658259E+04  0.42828241617E+03  0.17040354756E+04  0.25500000920E-02 0. -1.
       -2    1    3    3    0  502 -0.96818192940E+03  0.13352658259E+04  0.50571923495E+03  0.17251269573E+04  0.25500000920E-02 0.  1.
</event>
<event>
 5   0  0.6258718E-07  0.3301514E+04  0.7818609E-02  0.8162510E-01
        2   -1    0    0  501    0  0.00000000000E+00  0.00000000000E+00  0.34684352953E+04  0.34684352953E+04  0.25500000920E-02 0.  1.
       -2   -1    0    0    0  501  0.00000000000E+00  0.00000000000E+00 -0.78565630127E+03  0.78565630127E+03  0.25500000920E-02 0. -1.
    10030    2    1    2    0    0  0.00000000000E+00  0.00000000000E+00  0.26827789940E+04  0.42540915966E+04  0.33015136197E+04 0.  0.
        5    1    3    3  502    0  0.12785935673E+04  0.12673761394E+03  0.59674798509E+01  0.12848819533E+04  0.46999998093E+01 0. -1.
       -5    1    3    3    0  502 -0.12785935673E+04 -0.12673761394E+03  0.26768115142E+04  0.29692096433E+04  0.46999998093E+01 0.  1.
</event>
<event>
 5   0  0.6377741E-07  0.3300510E+04  0.7818609E-02  0.8162766E-01
       -2   -1    0    0    0  501  0.00000000000E+00  0.00000000000E+00  0.16059603779E+04  0.16059603779E+04  0.25500000920E-02 0. -1.
        2   -1    0    0  501    0  0.00000000000E+00  0.00000000000E+00 -0.16957715148E+04  0.16957715148E+04  0.25500000920E-02 0.  1.
    10030    2    1    2    0    0  0.00000000000E+00  0.00000000000E+00 -0.89811136877E+02  0.33017318926E+04  0.33005101803E+04 0.  0.
        1    1    3    3  502    0 -0.11932847315E+04 -0.90322396087E+03 -0.74057644775E+03  0.16697890432E+04  0.50400001928E-02 0. -1.
       -1    1    3    3    0  502  0.11932847315E+04  0.90322396087E+03  0.65076531088E+03  0.16319428494E+04  0.50400001928E-02 0.  1.
</event>
<event>
 5   0  0.6426079E-07  0.3304314E+04  0.7818609E-02  0.8161799E-01
        2   -1    0    0  501    0  0.00000000000E+00  0.00000000000E+00  0.20767590334E+04  0.20767590334E+04  0.25500000920E-02 0.  1.
       -2   -1    0    0    0  501  0.00000000000E+00  0.00000000000E+00 -0.13143666065E+04  0.13143666065E+04  0.25500000920E-02 0. -1.
    10030    2    1    2    0    0  0.00000000000E+00  0.00000000000E+00  0.76239242694E+03  0.33911256399E+04  0.33043139822E+04 0.  0.
        4    1    3    3  502    0  0.14801537698E+04 -0.15821960699E+03 -0.35438577445E+03  0.15301893727E+04  0.12699999809E+01 0. -1.
       -4    1    3    3    0  502 -0.14801537698E+04  0.15821960699E+03  0.11167782014E+04  0.18609362671E+04  0.12699999809E+01 0.  1.
</event>
<event>
 5   0  0.6258718E-07  0.3273886E+04  0.7818609E-02  0.8169572E-01
        2   -1    0    0  501    0  0.00000000000E+00  0.00000000000E+00  0.21732637354E+04  0.21732637354E+04  0.25500000920E-02 0.  1.
       -2   -1    0    0    0  501  0.00000000000E+00  0.00000000000E+00 -0.12329762348E+04  0.12329762348E+04  0.25500000920E-02 0. -1.
    10030    2    1    2    0    0  0.00000000000E+00  0.00000000000E+00  0.94028750063E+03  0.34062399701E+04  0.32738860931E+04 0.  0.
        5    1    3    3  502    0 -0.14815373839E+04  0.65385053625E+03  0.71873161325E+03  0.17717422966E+04  0.46999998093E+01 0. -1.
       -5    1    3    3    0  502  0.14815373839E+04 -0.65385053625E+03  0.22155588737E+03  0.16344976736E+04  0.46999998093E+01 0.  1.
</event>
<event>
 5   0  0.6351753E-07  0.3329575E+04  0.7818609E-02  0.8155411E-01
       -2   -1    0    0    0  501  0.00000000000E+00  0.00000000000E+00  0.10038366248E+04  0.10038366248E+04  0.25500000920E-02 0. -1.
        2   -1    0    0  501    0  0.00000000000E+00  0.00000000000E+00 -0.27609248188E+04  0.27609248188E+04  0.25500000920E-02 0.  1.
    10030    2    1    2    0    0  0.00000000000E+00  0.00000000000E+00 -0.17570881940E+04  0.37647614436E+04  0.33295750188E+04 0.  0.
        3    1    3    3  502    0 -0.21749958296E+02 -0.14107742893E+04 -0.18776407744E+04  0.23486787868E+04  0.10100000352E+00 0.  1.
       -3    1    3    3    0  502  0.21749958296E+02  0.14107742893E+04  0.12055258035E+03  0.14160826568E+04  0.10100000352E+00 0. -1.
</event>
<event>
 5   0  0.2080770E-07  0.3291851E+04  0.7818609E-02  0.8164972E-01
        1   -1    0    0  501    0  0.00000000000E+00  0.00000000000E+00  0.14477102120E+04  0.14477102120E+04  0.50400001928E-02 0. -1.
       -1   -1    0    0    0  501  0.00000000000E+00  0.00000000000E+00 -0.18712800908E+04  0.18712800908E+04  0.50400001928E-02 0.  1.
    10030    2    1    2    0    0  0.00000000000E+00  0.00000000000E+00 -0.42356987877E+03  0.33189903028E+04  0.32918513314E+04 0.  0.
        4    1    3    3  502    0 -0.11426801949E+04  0.73334502362E+03 -0.11498080529E+04  0.17792057562E+04  0.12699999809E+01 0.  1.
       -4    1    3    3    0  502  0.11426801949E+04 -0.73334502362E+03  0.72623817410E+03  0.15397845466E+04  0.12699999809E+01 0. -1.
</event>
<event>
 5   0  0.6258718E-07  0.3289120E+04  0.7818609E-02  0.8165669E-01
       -2   -1    0    0    0  501  0.00000000000E+00  0.00000000000E+00  0.16266967054E+04  0.16266967054E+04  0.25500000920E-02 0. -1.
        2   -1    0    0  501    0  0.00000000000E+00  0.00000000000E+00 -0.16626198484E+04  0.16626198484E+04  0.25500000920E-02 0.  1.
    10030    2    1    2    0    0  0.00000000000E+00  0.00000000000E+00 -0.35923142943E+02  0.32893165538E+04  0.32891203868E+04 0.  0.
        5    1    3    3  502    0  0.13291783969E+04  0.51805920006E+03  0.80028988794E+03  0.16357220241E+04  0.46999998093E+01 0. -1.
       -5    1    3    3    0  502 -0.13291783969E+04 -0.51805920006E+03 -0.83621303088E+03  0.16535945297E+04  0.46999998093E+01 0.  1.
</event>
<event>
 5   0  0.2087665E-07  0.3297721E+04  0.7818609E-02  0.8163476E-01
        1   -1    0    0  501    0  0.00000000000E+00  0.00000000000E+00  0.22008079077E+04  0.22008079078E+04  0.50400001928E-02 0. -1.
       -1   -1    0    0    0  501  0.00000000000E+00  0.00000000000E+00 -0.12353373352E+04  0.12353373352E+04  0.50400001928E-02 0.  1.
    10030    2    1    2    0    0  0.00000000000E+00  0.00000000000E+00  0.96547057257E+03  0.34361452429E+04  0.32977205315E+04 0.  0.
        5    1    3    3  502    0 -0.59424763019E+03  0.19510555685E+03  0.20723963259E+04  0.21647274761E+04  0.46999998093E+01 0. -1.
       -5    1    3    3    0  502  0.59424763019E+03 -0.19510555685E+03 -0.11069257533E+04  0.12714177668E+04  0.46999998093E+01 0.  1.
</event>
<event>
 5   0  0.2087665E-07  0.3273232E+04  0.7818609E-02  0.8169740E-01
        1   -1    0    0  501    0  0.00000000000E+00  0.00000000000E+00  0.23773277727E+04  0.23773277727E+04  0.50400001928E-02 0.  1.
       -1   -1    0    0    0  501  0.00000000000E+00  0.00000000000E+00 -0.11266900363E+04  0.11266900363E+04  0.50400001928E-02 0. -1.
    10030    2    1    2    0    0  0.00000000000E+00  0.00000000000E+00  0.12506377365E+04  0.35040178090E+04  0.32732317452E+04 0.  0.
        5    1    3    3  502    0  0.17816464130E+03  0.80434265003E+03  0.21391611346E+04  0.22923224442E+04  0.46999998093E+01 0.  1.
       -5    1    3    3    0  502 -0.17816464130E+03 -0.80434265003E+03 -0.88852339818E+03  0.12116953648E+04  0.46999998093E+01 0. -1.
</event>
<event>
 5   0  0.2087665E-07  0.3312607E+04  0.7818609E-02  0.8159695E-01
        1   -1    0    0  501    0  0.00000000000E+00  0.00000000000E+00  0.15589260631E+04  0.15589260631E+04  0.50400001928E-02 0.  1.
       -1   -1    0    0    0  501  0.00000000000E+00  0.00000000000E+00 -0.17597635100E+04  0.17597635100E+04  0.50400001928E-02 0. -1.
    10030    2    1    2    0    0  0.00000000000E+00  0.00000000000E+00 -0.20083744691E+03  0.33186895731E+04  0.33126069496E+04 0.  0.
        5    1    3    3  502    0 -0.19700043922E+03  0.26447510084E+02  0.15469273484E+04  0.15596521904E+04  0.46999998093E+01 0.  1.
       -5    1    3    3    0  502  0.19700043922E+03 -0.26447510084E+02 -0.17477647953E+04  0.17590373827E+04  0.46999998093E+01 0. -1.
</event>
<event>
 5   0  0.2080828E-07  0.3309287E+04  0.7818609E-02  0.8160536E-01
        1   -1    0    0  501    0  0.00000000000E+00  0.00000000000E+00  0.29402579892E+04  0.29402579892E+04  0.50400001928E-02 0.  1.
       -1   -1    0    0    0  501  0.00000000000E+00  0.00000000000E+00 -0.93115803025E+03  0.93115803026E+03  0.50400001928E-02 0. -1.
    10030    2    1    2    0    0  0.00000000000E+00  0.00000000000E+00  0.20090999589E+04  0.38714160194E+04  0.33092868341E+04 0.  0.
        1    1    3    3  502    0  0.82109099758E+03  0.33536573988E+03  0.26386723302E+04  0.27837478823E+04  0.50400001928E-02 0.  1.
       -1    1    3    3    0  502 -0.82109099758E+03 -0.33536573988E+03 -0.62957237132E+03  0.10876681371E+04  0.50400001928E-02 0. -1.
</event>
<event>
 5   0  0.6351753E-07  0.3300449E+04  0.7818609E-02  0.8162781E-01
       -2   -1    0    0    0  501  0.00000000000E+00  0.00000000000E+00  0.99695491070E+03  0.99695491070E+03  0.25500000920E-02 0.  1.
        2   -1    0    0  501    0  0.00000000000E+00  0.00000000000E+00 -0.27315590675E+04  0.27315590675E+04  0.25500000920E-02 0. -1.
    10030    2    1    2    0    0  0.00000000000E+00  0.00000000000E+00 -0.17346041568E+04  0.37285139782E+04  0.33004491975E+04 0.  0.
        3    1    3    3  502    0  0.30009421535E+03  0.15651932669E+04 -0.13510384745E+04  0.20893040637E+04  0.10100000352E+00 0. -1.
       -3    1    3    3    0  502 -0.30009421535E+03 -0.15651932669E+04 -0.38356568234E+03  0.16392099145E+04  0.10100000352E+00 0.  1.
</event>
<event>
 5   0  0.2057130E-07  0.3310401E+04  0.7818609E-02  0.8160254E-01
       -1   -1    0    0    0  501  0.00000000000E+00  0.00000000000E+00  0.17773285137E+04  0.17773285137E+04  0.50400001928E-02 0. -1.
        1   -1    0    0  501    0  0.00000000000E+00  0.00000000000E+00 -0.15414640326E+04  0.15414640326E+04  0.50400001928E-02 0.  1.
    10030    2    1    2    0    0  0.00000000000E+00  0.00000000000E+00  0.23586448103E+03  0.33187925463E+04  0.33104005667E+04 0.  0.
        2    1    3    3  502    0  0.12508055901E+04  0.89238810904E+03  0.73497346966E+03  0.17032490019E+04  0.25500000920E-02 0.  1.
       -2    1    3    3    0  502 -0.12508055901E+04 -0.89238810904E+03 -0.49910898863E+03  0.16155435444E+04  0.25500000920E-02 0. -1.
</event>
<event>
 5   0  0.2080770E-07  0.3300465E+04  0.7818609E-02  0.8162777E-01
       -1   -1    0    0    0  501  0.00000000000E+00  0.00000000000E+00  0.19680323837E+04  0.19680323837E+04  0.50400001928E-02 0.  1.
        1   -1    0    0  501    0  0.00000000000E+00  0.00000000000E+00 -0.13837508592E+04  0.13837508592E+04  0.50400001928E-02 0. -1.
    10030    2    1    2    0    0  0.00000000000E+00  0.00000000000E+00  0.58428152456E+03  0.33517832429E+04  0.33004645139E+04 0.  0.
        4    1    3    3  502    0  0.84997855000E+02 -0.92010653261E+03  0.16806766653E+04  0.19179406490E+04  0.12699999809E+01 0.  1.
       -4    1    3    3    0  502 -0.84997855000E+02  0.92010653261E+03 -0.10963951408E+04  0.14338425940E+04  0.12699999809E+01 0. -1.
</event>
<event>
 5   0  0.6426079E-07  0.3349548E+04  0.7818609E-02  0.8150401E-01
        2   -1    0    0  501    0  0.00000000000E+00  0.00000000000E+00  0.18845739788E+04  0.18845739788E+04  0.25500000920E-02 0. -1.
       -2   -1    0    0    0  501  0.00000000000E+00  0.00000000000E+00 -0.14883300960E+04  0.14883300960E+04  0.25500000920E-02 0.  1.
    10030    2    1    2    0    0  0.00000000000E+00  0.00000000000E+00  0.39624388283E+03  0.33729040748E+04  0.33495481312E+04 0.  0.
        4    1    3    3  502    0 -0.30641545834E+02 -0.65784975022E+02 -0.14867455814E+04  0.14885162425E+04  0.12699999809E+01 0.  1.
       -4    1    3    3    0  502  0.30641545834E+02  0.65784975022E+02  0.18829894643E+04  0.18843878323E+04  0.12699999809E+01 0. -1.
</event>
<event>
 5   0  0.6424183E-07  0.3314327E+04  0.7818609E-02  0.8159260E-01
       -2   -1    0    0    0  501  0.00000000000E+00  0.00000000000E+00  0.14999676143E+04  0.14999676143E+04  0.25500000920E-02 0.  1.
        2   -1    0    0  501    0  0.00000000000E+00  0.00000000000E+00 -0.18308330208E+04  0.18308330208E+04  0.25500000920E-02 0. -1.
    10030    2    1    2    0    0  0.00000000000E+00  0.00000000000E+00 -0.33086540650E+03  0.33308006350E+04  0.33143266214E+04 0.  0.
        2    1    3    3  502    0 -0.15682888646E+04  0.12286582914E+02  0.37249350881E+03  0.16119653647E+04  0.25500000920E-02 0. -1.
       -2    1    3    3    0  502  0.15682888646E+04 -0.12286582914E+02 -0.70335891530E+03  0.17188352703E+04  0.25500000920E-02 0.  1.
</event>
<event>
 5   0  0.2080828E-07  0.3297046E+04  0.7818609E-02  0.8163647E-01
        1   -1    0    0  501    0  0.00000000000E+00  0.00000000000E+00  0.14278754255E+04  0.14278754255E+04  0.50400001928E-02 0. -1.
       -1   -1    0    0    0  501  0.00000000000E+00  0.00000000000E+00 -0.19032670478E+04  0.19032670478E+04  0.50400001928E-02 0.  1.
    10030    2    1    2    0    0  0.00000000000E+00  0.00000000000E+00 -0.47539162236E+03  0.33311424733E+04  0.32970460996E+04 0.  0.
        1    1    3    3  502    0 -0.55216129320E+02  0.49744180806E+03  0.13492580484E+04  0.14390950124E+04  0.50400001928E-02 0. -1.
       -1    1    3    3    0  502  0.55216129320E+02 -0.49744180806E+03 -0.18246496708E+04  0.18920474610E+04  0.50400001928E-02 0.  1.
</event>
<event>
 5   0  0.6258718E-07  0.3296525E+04  0.7818609E-02  0.8163780E-01
       -2   -1    0    0    0  501  0.00000000000E+00  0.00000000000E+00  0.11736928917E+04  0.11736928917E+04  0.25500000920E-02 0. -1.
        2   -1    0    0  501    0  0.00000000000E+00  0.00000000000E+00 -0.23147188460E+04  0.23147188460E+04  0.25500000920E-02 0.  1.
    10030    2    1    2    0    0  0.00000000000E+00  0.00000000000E+00 -0.11410259543E+04  0.34884117377E+04  0.32965248707E+04 0.  0.
        5    1    3    3  502    0 -0.31968783276E+03 -0.13905397472E+04  0.30271507054E+03  0.14585813665E+04  0.46999998093E+01 0. -1.
       -5    1    3    3    0  502  0.31968783276E+03  0.13905397472E+04 -0.14437410249E+04  0.20298303712E+04  0.46999998093E+01 0.  1.
</event>
<event>
 5   0  0.2037333E-07  0.3308798E+04  0.7818609E-02  0.8160660E-01
        1   -1    0    0  501    0  0.00000000000E+00  0.00000000000E+00  0.16421216026E+04  0.16421216026E+04  0.50400001928E-02 0.  1.
       -1   -1    0    0    0  501  0.00000000000E+00  0.00000000000E+00 -0.16667684880E+04  0.16667684881E+04  0.50400001928E-02 0. -1.
    10030    2    1    2    0    0  0.00000000000E+00  0.00000000000E+00 -0.24646885412E+02  0.33088900907E+04  0.33087982960E+04 0.  0.
        3    1    3    3  502    0 -0.14356447226E+04 -0.68346170195E+03  0.44468033266E+03  0.16510409674E+04  0.10100000352E+00 0. -1.
       -3    1    3    3    0  502  0.14356447226E+04  0.68346170195E+03 -0.46932721808E+03  0.16578491233E+04  0.10100000352E+00 0.  1.
</event>
<event>
 5   0  0.6426079E-07  0.3204991E+04  0.7818609E-02  0.8187500E-01
        2   -1    0    0  501    0  0.00000000000E+00  0.00000000000E+00  0.20232836123E+04  0.20232836123E+04  0.25500000920E-02 0. -1.
       -2   -1    0    0    0  501  0.00000000000E+00  0.00000000000E+00 -0.12692195109E+04  0.12692195109E+04  0.25500000920E-02 0.  1.
    10030    2    1    2    0    0  0.00000000000E+00  0.00000000000E+00  0.75406410143E+03  0.32925031233E+04  0.32049905066E+04 0.  0.
        4    1    3    3  502    0 -0.12753399236E+04 -0.76690085501E+03  0.98770474152E+03  0.17861106101E+04  0.12699999809E+01 0. -1.
       -4    1    3    3    0  502  0.12753399236E+04  0.76690085501E+03 -0.23364064009E+03  0.15063925132E+04  0.12699999809E+01 0.  1.
</event>
<event>
 5   0  0.2057130E-07  0.3361967E+04  0.7818609E-02  0.8147304E-01
        1   -1    0    0  501    0  0.00000000000E+00  0.00000000000E+00  0.22625408354E+04  0.22625408354E+04  0.50400001928E-02 0.  1.
       -1   -1    0    0    0  501  0.00000000000E+00  0.00000000000E+00 -0.12489081800E+04  0.12489081800E+04  0.50400001928E-02 0. -1.
    10030    2    1    2    0    0  0.00000000000E+00  0.00000000000E+00  0.10136326554E+04  0.35114490154E+04  0.33619671366E+04 0.  0.
        2    1    3    3  502    0  0.14385737522E+04  0.73010610108E+03  0.13418112660E+02  0.16132976803E+04  0.25500000920E-02 0. -1.
       -2    1    3    3    0  502 -0.14385737522E+04 -0.73010610108E+03  0.10002145427E+04  0.18981513351E+04  0.25500000920E-02 0.  1.
</event>
<event>
 5   0  0.2037333E-07  0.3281232E+04  0.7818609E-02  0.8167687E-01
        1   -1    0    0  501    0  0.00000000000E+00  0.00000000000E+00  0.13761340973E+04  0.13761340974E+04  0.50400001928E-02 0.  1.
       -1   -1    0    0    0  501  0.00000000000E+00  0.00000000000E+00 -0.19559295247E+04  0.19559295247E+04  0.50400001928E-02 0. -1.
    10030    2    1    2    0    0  0.00000000000E+00  0.00000000000E+00 -0.57979542730E+03  0.33320636220E+04  0.32812322752E+04 0.  0.
        3    1    3    3  502    0  0.62078922596E+03  0.12691049833E+04 -0.11368533220E+04  0.18134062446E+04  0.10100000352E+00 0. -1.
       -3    1    3    3    0  502 -0.62078922596E+03 -0.12691049833E+04  0.55705789474E+03  0.15186573774E+04  0.10100000352E+00 0.  1.
</event>
<event>
 5   0  0.2080828E-07  0.3303799E+04  0.7818609E-02  0.8161929E-01
        1   -1    0    0  501    0  0.00000000000E+00  0.00000000000E+00  0.18322423289E+04  0.18322423289E+04  0.50400001928E-02 0.  1.
       -1   -1    0    0    0  501  0.00000000000E+00  0.00000000000E+00 -0.14893071148E+04  0.14893071148E+04  0.50400001928E-02 0. -1.
    10030    2    1    2    0    0  0.00000000000E+00  0.00000000000E+00  0.34293521409E+03  0.33215494437E+04  0.33037987448E+04 0.  0.
        1    1    3    3  502    0 -0.14036669908E+04 -0.34777993494E+03 -0.63128316435E+03  0.15778942733E+04  0.50400001928E-02 0.  1.
       -1    1    3    3    0  502  0.14036669908E+04  0.34777993494E+03  0.97421837845E+03  0.17436551704E+04  0.50400001928E-02 0. -1.
</event>
<event>
 5   0  0.2037333E-07  0.3320195E+04  0.7818609E-02  0.8157776E-01
        1   -1    0    0  501    0  0.00000000000E+00  0.00000000000E+00  0.15669663486E+04  0.15669663486E+04  0.50400001928E-02 0.  1.
       -1   -1    0    0    0  501  0.00000000000E+00  0.00000000000E+00 -0.17587639503E+04  0.17587639503E+04  0.50400001928E-02 0. -1.
    10030    2    1    2    0    0  0.00000000000E+00  0.00000000000E+00 -0.19179760173E+03  0.33257302989E+04  0.33201951300E+04 0.  0.
        3    1    3    3  502    0 -0.38836277456E+02  0.11920937857E+04  0.10607244785E+04  0.15961617336E+04  0.10100000352E+00 0.  1.
       -3    1    3    3    0  502  0.38836277456E+02 -0.11920937857E+04 -0.12525220802E+04  0.17295685653E+04  0.10100000352E+00 0. -1.
</event>
<event>
 5   0  0.6426079E-07  0.3291189E+04  0.7818609E-02  0.8165141E-01
        2   -1    0    0  501    0  0.00000000000E+00  0.00000000000E+00  0.21023627025E+04  0.21023627025E+04  0.25500000920E-02 0.  1.
       -2   -1    0    0    0  501  0.00000000000E+00  0.00000000000E+00 -0.12880659198E+04  0.12880659198E+04  0.25500000920E-02 0. -1.
    10030    2    1    2    0    0  0.00000000000E+00  0.00000000000E+00  0.81429678271E+03  0.33904286223E+04  0.32911892976E+04 0.  0.
        4    1    3    3  502    0 -0.47383271072E+03  0.24437505474E+03  0.20109294318E+04  0.20804027009E+04  0.12699999809E+01 0.  1.
       -4    1    3    3    0  502  0.47383271072E+03 -0.24437505474E+03 -0.11966326491E+04  0.13100259215E+04  0.12699999809E+01 0. -1.
</event>
<event>
 5   0  0.6377741E-07  0.3297813E+04  0.7818609E-02  0.8163452E-01
       -2   -1    0    0    0  501  0.00000000000E+00  0.00000000000E+00  0.10113065527E+04  0.10113065527E+04  0.25500000920E-02 0. -1.
        2   -1    0    0  501    0  0.00000000000E+00  0.00000000000E+00 -0.26884954333E+04  0.26884954333E+04  0.25500000920E-02 0.  1.
    10030    2    1    2    0    0  0.00000000000E+00  0.00000000000E+00 -0.16771888806E+04  0.36998019860E+04  0.32978132443E+04 0.  0.
        1    1    3    3  502    0  0.52440980737E+03 -0.10060418557E+04  0.50382621512E+03  0.12413568047E+04  0.50400001928E-02 0. -1.
       -1    1    3    3    0  502 -0.52440980737E+03  0.10060418557E+04 -0.21810150958E+04  0.24584451813E+04  0.50400001928E-02 0.  1.
</event>
<event>
 5   0  0.2057130E-07  0.3309136E+04  0.7818609E-02  0.8160575E-01
        1   -1    0    0  501    0  0.00000000000E+00  0.00000000000E+00  0.22777359690E+04  0.22777359690E+04  0.50400001928E-02 0.  1.
       -1   -1    0    0    0  501  0.00000000000E+00  0.00000000000E+00 -0.12018934560E+04  0.12018934560E+04  0.50400001928E-02 0. -1.
    10030    2    1    2    0    0  0.00000000000E+00  0.00000000000E+00  0.10758425130E+04  0.34796294251E+04  0.33091364165E+04 0.  0.
        2    1    3    3  502    0  0.10162263419E+04 -0.48869746498E+03 -0.73526933532E+03  0.13461657349E+04  0.25500000920E-02 0. -1.
       -2    1    3    3    0  502 -0.10162263419E+04  0.48869746498E+03  0.18111118483E+04  0.21334636902E+04  0.25500000920E-02 0.  1.
</event>
<event>
 5   0  0.2057130E-07  0.3281137E+04  0.7818609E-02  0.8167712E-01
       -1   -1    0    0    0  501  0.00000000000E+00  0.00000000000E+00  0.11151140951E+04  0.11151140951E+04  0.50400001928E-02 0. -1.
        1   -1    0    0  501    0  0.00000000000E+00  0.00000000000E+00 -0.24136230991E+04  0.24136230991E+04  0.50400001928E-02 0.  1.
    10030    2    1    2    0    0  0.00000000000E+00  0.00000000000E+00 -0.12985090040E+04  0.35287371943E+04  0.32811370823E+04 0.  0.
        2    1    3    3  502    0 -0.89186680577E+03 -0.96854862222E+03  0.40335402407E+03  0.13770284316E+04  0.25500000920E-02 0. -1.
       -2    1    3    3    0  502  0.89186680577E+03  0.96854862222E+03 -0.17018630281E+04  0.21517087626E+04  0.25500000920E-02 0.  1.
</event>
<event>
 5   0  0.1994250E-07  0.3300339E+04  0.7818609E-02  0.8162809E-01
       -3   -1    0    0    0  501  0.00000000000E+00  0.00000000000E+00  0.11995023180E+04  0.11995023223E+04  0.10100000352E+00 0. -1.
        3   -1    0    0  501    0  0.00000000000E+00  0.00000000000E+00 -0.22701578069E+04  0.22701578091E+04  0.10100000352E+00 0.  1.
    10030    2    1    2    0    0  0.00000000000E+00  0.00000000000E+00 -0.10706554888E+04  0.34696601314E+04  0.33003391116E+04 0.  0.
        3    1    3    3  502    0 -0.11805481911E+04  0.16819339566E+03  0.66383958109E+03  0.13647952408E+04  0.10100000352E+00 0. -1.
       -3    1    3    3    0  502  0.11805481911E+04 -0.16819339566E+03 -0.17344950699E+04  0.21048648906E+04  0.10100000352E+00 0.  1.
</event>
<event>
 5   0  0.6426079E-07  0.3278147E+04  0.7818609E-02  0.8168478E-01
       -2   -1    0    0    0  501  0.00000000000E+00  0.00000000000E+00  0.17081442929E+04  0.17081442929E+04  0.25500000920E-02 0. -1.
        2   -1    0    0  501    0  0.00000000000E+00  0.00000000000E+00 -0.15727958690E+04  0.15727958690E+04  0.25500000920E-02 0.  1.
    10030    2    1    2    0    0  0.00000000000E+00  0.00000000000E+00  0.13534842387E+03  0.32809401618E+04  0.32781472129E+04 0.  0.
        4    1    3    3  502    0 -0.17487092389E+03  0.16185536486E+04 -0.12292154403E+03  0.16326074459E+04  0.12699999809E+01 0.  1.
       -4    1    3    3    0  502  0.17487092389E+03 -0.16185536486E+04  0.25826996790E+03  0.16483327160E+04  0.12699999809E+01 0. -1.
</event>
<event>
 5   0  0.2037333E-07  0.3293031E+04  0.7818609E-02  0.8164671E-01
        1   -1    0    0  501    0  0.00000000000E+00  0.00000000000E+00  0.23526149946E+04  0.23526149946E+04  0.50400001928E-02 0.  1.
       -1   -1    0    0    0  501  0.00000000000E+00  0.00000000000E+00 -0.11523401447E+04  0.11523401447E+04  0.50400001928E-02 0. -1.
    10030    2    1    2    0    0  0.00000000000E+00  0.00000000000E+00  0.12002748499E+04  0.35049551393E+04  0.32930306426E+04 0.  0.
        3    1    3    3  502    0 -0.12346111623E+04 -0.17039597082E+02  0.17594827291E+04  0.21494963490E+04  0.10100000352E+00 0.  1.
       -3    1    3    3    0  502  0.12346111623E+04  0.17039597082E+02 -0.55920787927E+03  0.13554587903E+04  0.10100000352E+00 0. -1.
</event>
<event>
 5   0  0.6426079E-07  0.3292135E+04  0.7818609E-02  0.8164900E-01
       -2   -1    0    0    0  501  0.00000000000E+00  0.00000000000E+00  0.10588725474E+04  0.10588725474E+04  0.25500000920E-02 0.  1.
        2   -1    0    0  501    0  0.00000000000E+00  0.00000000000E+00 -0.25588896619E+04  0.25588896619E+04  0.25500000920E-02 0. -1.
    10030    2    1    2    0    0  0.00000000000E+00  0.00000000000E+00 -0.15000171145E+04  0.36177622093E+04  0.32921348787E+04 0.  0.
        4    1    3    3  502    0  0.17738394924E+03  0.96334682317E+03 -0.22037449753E+04  0.24116375549E+04  0.12699999809E+01 0. -1.
       -4    1    3    3    0  502 -0.17738394924E+03 -0.96334682317E+03  0.70372786075E+03  0.12061246544E+04  0.12699999809E+01 0.  1.
</event>
<event>
 5   0  0.2037333E-07  0.3297227E+04  0.7818609E-02  0.8163601E-01
        1   -1    0    0  501    0  0.00000000000E+00  0.00000000000E+00  0.18912820155E+04  0.18912820155E+04  0.50400001928E-02 0.  1.
       -1   -1    0    0    0  501  0.00000000000E+00  0.00000000000E+00 -0.14370814296E+04  0.14370814296E+04  0.50400001928E-02 0. -1.
    10030    2    1    2    0    0  0.00000000000E+00  0.00000000000E+00  0.45420058588E+03  0.33283634452E+04  0.32972268728E+04 0.  0.
        3    1    3    3  502    0  0.11406706608E+04 -0.18724780800E+03 -0.95947222375E+03  0.15022577197E+04  0.10100000352E+00 0. -1.
       -3    1    3    3    0  502 -0.11406706608E+04  0.18724780800E+03  0.14136728096E+04  0.18261057255E+04  0.10100000352E+00 0.  1.
</event>
<event>
 5   0  0.2037333E-07  0.3313112E+04  0.7818609E-02  0.8159567E-01
        1   -1    0    0  501    0  0.00000000000E+00  0.00000000000E+00  0.15832040156E+04  0.15832040157E+04  0.50400001928E-02 0. -1.
       -1   -1    0    0    0  501  0.00000000000E+00  0.00000000000E+00 -0.17333066723E+04  0.17333066723E+04  0.50400001928E-02 0.  1.
    10030    2    1    2    0    0  0.00000000000E+00  0.00000000000E+00 -0.15010265664E+03  0.33165106879E+04  0.33131121828E+04 0.  0.
        3    1    3    3  502    0  0.21052199395E+03 -0.31950191633E+03  0.15383640826E+04  0.15852334356E+04  0.10100000352E+00 0. -1.
       -3    1    3    3    0  502 -0.21052199395E+03  0.31950191633E+03 -0.16884667393E+04  0.17312772523E+04  0.10100000352E+00 0.  1.
</event>
<event>
 5   0  0.6377741E-07  0.3303588E+04  0.7818609E-02  0.8161983E-01
       -2   -1    0    0    0  501  0.00000000000E+00  0.00000000000E+00  0.15987379497E+04  0.15987379497E+04  0.25500000920E-02 0. -1.
        2   -1    0    0  501    0  0.00000000000E+00  0.00000000000E+00 -0.17066109138E+04  0.17066109138E+04  0.25500000920E-02 0.  1.
    10030    2    1    2    0    0  0.00000000000E+00  0.00000000000E+00 -0.10787296413E+03  0.33053488635E+04  0.33035881300E+04 0.  0.
        1    1    3    3  502    0  0.15567513616E+04  0.65517654501E+01  0.49854067360E+03  0.16346438544E+04  0.50400001928E-02 0. -1.
       -1    1    3    3    0  502 -0.15567513616E+04 -0.65517654501E+01 -0.60641363774E+03  0.16707050091E+04  0.50400001928E-02 0.  1.
</event>
<event>
 5   0  0.6377741E-07  0.3311919E+04  0.7818609E-02  0.8159869E-01
        2   -1    0    0  501    0  0.00000000000E+00  0.00000000000E+00  0.26695100732E+04  0.26695100732E+04  0.25500000920E-02 0.  1.
       -2   -1    0    0    0  501  0.00000000000E+00  0.00000000000E+00 -0.10272304664E+04  0.10272304664E+04  0.25500000920E-02 0. -1.
    10030    2    1    2    0    0  0.00000000000E+00  0.00000000000E+00  0.16422796068E+04  0.36967405397E+04  0.33119191280E+04 0.  0.
        1    1    3    3  502    0  0.11552389822E+04  0.11853693124E+04  0.76505663850E+03  0.18234552840E+04  0.50400001928E-02 0. -1.
       -1    1    3    3    0  502 -0.11552389822E+04 -0.11853693124E+04  0.87722296832E+03  0.18732852556E+04  0.50400001928E-02 0.  1.
</event>
<event>
 5   0  0.6426079E-07  0.3317042E+04  0.7818609E-02  0.8158572E-01
        2   -1    0    0  501    0  0.00000000000E+00  0.00000000000E+00  0.24472130615E+04  0.24472130615E+04  0.25500000920E-02 0. -1.
       -2   -1    0    0    0  501  0.00000000000E+00  0.00000000000E+00 -0.11240103182E+04  0.11240103182E+04  0.25500000920E-02 0.  1.
    10030    2    1    2    0    0  0.00000000000E+00  0.00000000000E+00  0.13232027433E+04  0.35712233797E+04  0.33170424972E+04 0.  0.
        4    1    3    3  502    0  0.98374474240E+03  0.84117845979E+03  0.17780587601E+04  0.21992793108E+04  0.12699999809E+01 0. -1.
       -4    1    3    3    0  502 -0.98374474240E+03 -0.84117845979E+03 -0.45485601683E+03  0.13719440690E+04  0.12699999809E+01 0.  1.
</event>
<event>
 5   0  0.6426079E-07  0.3252821E+04  0.7818609E-02  0.8175005E-01
        2   -1    0    0  501    0  0.00000000000E+00  0.00000000000E+00  0.22049538246E+04  0.22049538246E+04  0.25500000920E-02 0. -1.
       -2   -1    0    0    0  501  0.00000000000E+00  0.00000000000E+00 -0.11996672399E+04  0.11996672399E+04  0.25500000920E-02 0.  1.
    10030    2    1    2    0    0  0.00000000000E+00  0.00000000000E+00  0.10052865846E+04  0.34046210645E+04  0.32528208490E+04 0.  0.
        4    1    3    3  502    0 -0.13080056836E+04  0.91858462220E+03  0.18771525676E+03  0.16093213498E+04  0.12699999809E+01 0.  1.
       -4    1    3    3    0  502  0.13080056836E+04 -0.91858462220E+03  0.81757132785E+03  0.17952997147E+04  0.12699999809E+01 0. -1.
</event>
<event>
 5   0  0.2080828E-07  0.3325266E+04  0.7818609E-02  0.8156496E-01
       -1   -1    0    0    0  501  0.00000000000E+00  0.00000000000E+00  0.31205960383E+04  0.31205960383E+04  0.50400001928E-02 0. -1.
        1   -1    0    0  501    0  0.00000000000E+00  0.00000000000E+00 -0.88583994765E+03  0.88583994766E+03  0.50400001928E-02 0.  1.
    10030    2    1    2    0    0  0.00000000000E+00  0.00000000000E+00  0.22347560907E+04  0.40064359860E+04  0.33252660833E+04 0.  0.
        1    1    3    3  502    0 -0.99083108852E+03  0.85142638244E+03  0.23564828122E+04  0.26943801467E+04  0.50400001928E-02 0. -1.
       -1    1    3    3    0  502  0.99083108852E+03 -0.85142638244E+03 -0.12172672151E+03  0.13120558393E+04  0.50400001928E-02 0.  1.
</event>
<event>
 5   0  0.2037333E-07  0.3299834E+04  0.7818609E-02  0.8162938E-01
        1   -1    0    0  501    0  0.00000000000E+00  0.00000000000E+00  0.13520035391E+04  0.13520035391E+04  0.50400001928E-02 0. -1.
       -1   -1    0    0    0  501  0.00000000000E+00  0.00000000000E+00 -0.20134756448E+04  0.20134756448E+04  0.50400001928E-02 0.  1.
    10030    2    1    2    0    0  0.00000000000E+00  0.00000000000E+00 -0.66147210570E+03  0.33654791839E+04  0.32998340550E+04 0.  0.
        3    1    3    3  502    0  0.15384315524E+04 -0.38931108938E+03 -0.79126219218E+03  0.17732542493E+04  0.10100000352E+00 0.  1.
       -3    1    3    3    0  502 -0.15384315524E+04  0.38931108938E+03  0.12979008648E+03  0.15922249346E+04  0.10100000352E+00 0. -1.
</event>
<event>
 5   0  0.6424183E-07  0.3307837E+04  0.7818609E-02  0.8160904E-01
        2   -1    0    0  501    0  0.00000000000E+00  0.00000000000E+00  0.24054741341E+04  0.24054741341E+04  0.25500000920E-02 0. -1.
       -2   -1    0    0    0  501  0.00000000000E+00  0.00000000000E+00 -0.11371756280E+04  0.11371756280E+04  0.25500000920E-02 0.  1.
    10030    2    1    2    0    0  0.00000000000E+00  0.00000000000E+00  0.12682985062E+04  0.35426497621E+04  0.33078370934E+04 0.  0.
        2    1    3    3  502    0 -0.31495683989E+03  0.12609476276E+04  0.17296278102E+04  0.21635154477E+04  0.25500000920E-02 0. -1.
       -2    1    3    3    0  502  0.31495683989E+03 -0.12609476276E+04 -0.46132930405E+03  0.13791343144E+04  0.25500000920E-02 0.  1.
</event>
<event>
 5   0  0.2057130E-07  0.3305346E+04  0.7818609E-02  0.8161536E-01
        1   -1    0    0  501    0  0.00000000000E+00  0.00000000000E+00  0.93596959945E+03  0.93596959946E+03  0.50400001928E-02 0.  1.
       -1   -1    0    0    0  501  0.00000000000E+00  0.00000000000E+00 -0.29181804828E+04  0.29181804828E+04  0.50400001928E-02 0. -1.
    10030    2    1    2    0    0  0.00000000000E+00  0.00000000000E+00 -0.19822108834E+04  0.38541500823E+04  0.33053461045E+04 0.  0.
        2    1    3    3  502    0  0.95692325489E+03  0.13459355324E+04 -0.91659182342E+03  0.18887522717E+04  0.25500000920E-02 0. -1.
       -2    1    3    3    0  502 -0.95692325489E+03 -0.13459355324E+04 -0.10656190600E+04  0.19653978106E+04  0.25500000920E-02 0.  1.
</event>
<event>
 5   0  0.2080770E-07  0.3284477E+04  0.7818609E-02  0.8166856E-01
        1   -1    0    0  501    0  0.00000000000E+00  0.00000000000E+00  0.13785727369E+04  0.13785727369E+04  0.50400001928E-02 0. -1.
       -1   -1    0    0    0  501  0.00000000000E+00  0.00000000000E+00 -0.19563331488E+04  0.19563331488E+04  0.50400001928E-02 0.  1.
    10030    2    1    2    0    0  0.00000000000E+00  0.00000000000E+00 -0.57776041196E+03  0.33349058857E+04  0.32844771537E+04 0.  0.
        4    1    3    3  502    0 -0.19932428559E+03 -0.16148124169E+04 -0.62757920391E+02  0.16282780728E+04  0.12699999809E+01 0.  1.
       -4    1    3    3    0  502  0.19932428559E+03  0.16148124169E+04 -0.51500249157E+03  0.17066278130E+04  0.12699999809E+01 0. -1.
</event>
<event>
 5   0  0.2080770E-07  0.3311354E+04  0.7818609E-02  0.8160012E-01
       -1   -1    0    0    0  501  0.00000000000E+00  0.00000000000E+00  0.10928937710E+04  0.10928937710E+04  0.50400001928E-02 0. -1.
        1   -1    0    0  501    0  0.00000000000E+00  0.00000000000E+00 -0.25082645177E+04  0.25082645177E+04  0.50400001928E-02 0.  1.
    10030    2    1    2    0    0  0.00000000000E+00  0.00000000000E+00 -0.14153707467E+04  0.36011582887E+04  0.33113542047E+04 0.  0.
        4    1    3    3  502    0  0.63791317116E+02  0.15280854741E+04 -0.18031971766E+02  0.15295232307E+04  0.12699999809E+01 0. -1.
       -4    1    3    3    0  502 -0.63791317116E+02 -0.15280854741E+04 -0.13973387749E+04  0.20716350579E+04  0.12699999809E+01 0.  1.
</event>
<event>
 5   0  0.6424183E-07  0.3273762E+04  0.7818609E-02  0.8169604E-01
       -2   -1    0    0    0  501  0.00000000000E+00  0.00000000000E+00  0.13101117749E+04  0.13101117749E+04  0.25500000920E-02 0. -1.
        2   -1    0    0  501    0  0.00000000000E+00  0.00000000000E+00 -0.20451530788E+04  0.20451530788E+04  0.25500000920E-02 0.  1.
    10030    2    1    2    0    0  0.00000000000E+00  0.00000000000E+00 -0.73504130388E+03  0.33552648537E+04  0.32737618301E+04 0.  0.
        2    1    3    3  502    0 -0.44138861680E+03  0.12204617911E+04 -0.13898655387E+04  0.19015985671E+04  0.25500000920E-02 0.  1.
       -2    1    3    3    0  502  0.44138861680E+03 -0.12204617911E+04  0.65482423482E+03  0.14536662867E+04  0.25500000920E-02 0. -1.
</event>
<event>
 5   0  0.2080828E-07  0.3297937E+04  0.7818609E-02  0.8163421E-01
        1   -1    0    0  501    0  0.00000000000E+00  0.00000000000E+00  0.20357517266E+04  0.20357517266E+04  0.50400001928E-02 0. -1.
       -1   -1    0    0    0  501  0.00000000000E+00  0.00000000000E+00 -0.13356720667E+04  0.13356720668E+04  0.50400001928E-02 0.  1.
    10030    2    1    2    0    0  0.00000000000E+00  0.00000000000E+00  0.70007965989E+03  0.33714237934E+04  0.32979367587E+04 0.  0.
        1    1    3    3  502    0 -0.14303160884E+04  0.31762855040E+03 -0.42339303527E+03  0.15251077572E+04  0.50400001928E-02 0. -1.
       -1    1    3    3    0  502  0.14303160884E+04 -0.31762855040E+03  0.11234726952E+04  0.18463160362E+04  0.50400001928E-02 0.  1.
</event>
<event>
 5   0  0.6424183E-07  0.3291980E+04  0.7818609E-02  0.8164939E-01
        2   -1    0    0  501    0  0.00000000000E+00  0.00000000000E+00  0.12505335280E+04  0.12505335280E+04  0.25500000920E-02 0. -1.
       -2   -1    0    0    0  501  0.00000000000E+00  0.00000000000E+00 -0.21665021782E+04  0.21665021782E+04  0.25500000920E-02 0.  1.
    10030    2    1    2    0    0  0.00000000000E+00  0.00000000000E+00 -0.91596865017E+03  0.34170357063E+04  0.32919803234E+04 0.  0.
        2    1    3    3  502    0  0.57677784774E+03  0.70559946289E+03  0.96475607791E+03  0.13271388690E+04  0.25500000920E-02 0. -1.
       -2    1    3    3    0  502 -0.57677784774E+03 -0.70559946289E+03 -0.18807247281E+04  0.20898968373E+04  0.25500000920E-02 0.  1.
</event>
<event>
 5   0  0.6424183E-07  0.3303672E+04  0.7818609E-02  0.8161962E-01
        2   -1    0    0  501    0  0.00000000000E+00  0.00000000000E+00  0.19412149339E+04  0.19412149339E+04  0.25500000920E-02 0.  1.
       -2   -1    0    0    0  501  0.00000000000E+00  0.00000000000E+00 -0.14055948955E+04  0.14055948956E+04  0.25500000920E-02 0. -1.
    10030    2    1    2    0    0  0.00000000000E+00  0.00000000000E+00  0.53562003837E+03  0.33468098295E+04  0.33036717768E+04 0.  0.
        2    1    3    3  502    0  0.98980201658E+03 -0.88985585652E+03 -0.72323288024E+03  0.15147994179E+04  0.25500000920E-02 0. -1.
       -2    1    3    3    0  502 -0.98980201658E+03  0.88985585652E+03  0.12588529186E+04  0.18320104116E+04  0.25500000920E-02 0.  1.
</event>
<event>
 5   0  0.6424183E-07  0.3309751E+04  0.7818609E-02  0.8160419E-01
       -2   -1    0    0    0  501  0.00000000000E+00  0.00000000000E+00  0.20672211923E+04  0.20672211923E+04  0.25500000920E-02 0.  1.
        2   -1    0    0  501    0  0.00000000000E+00  0.00000000000E+00 -0.13247798746E+04  0.13247798746E+04  0.25500000920E-02 0. -1.
    10030    2    1    2    0    0  0.00000000000E+00  0.00000000000E+00  0.74244131774E+03  0.33920010670E+04  0.33097510674E+04 0.  0.
        2    1    3    3  502    0  0.32488997782E+03  0.53349471959E+03 -0.11993253142E+04  0.13522393734E+04  0.25500000920E-02 0. -1.
       -2    1    3    3    0  502 -0.32488997782E+03 -0.53349471959E+03  0.19417666320E+04  0.20397616936E+04  0.25500000920E-02 0.  1.
</event>
<event>
 5   0  0.6377741E-07  0.3302065E+04  0.7818609E-02  0.8162370E-01
        2   -1    0    0  501    0  0.00000000000E+00  0.00000000000E+00  0.11474318548E+04  0.11474318548E+04  0.25500000920E-02 0. -1.
       -2   -1    0    0    0  501  0.00000000000E+00  0.00000000000E+00 -0.23756596020E+04  0.23756596020E+04  0.25500000920E-02 0.  1.
    10030    2    1    2    0    0  0.00000000000E+00  0.00000000000E+00 -0.12282277471E+04  0.35230914568E+04  0.33020645079E+04 0.  0.
        1    1    3    3  502    0 -0.53893877725E+02  0.14731419597E+04 -0.14074263194E+04  0.20381120254E+04  0.50400001928E-02 0.  1.
       -1    1    3    3    0  502  0.53893877725E+02 -0.14731419597E+04  0.17919857229E+03  0.14849794314E+04  0.50400001928E-02 0. -1.
</event>
<event>
 5   0  0.2080770E-07  0.3292513E+04  0.7818609E-02  0.8164803E-01
       -1   -1    0    0    0  501  0.00000000000E+00  0.00000000000E+00  0.22491862888E+04  0.22491862888E+04  0.50400001928E-02 0. -1.
        1   -1    0    0  501    0  0.00000000000E+00  0.00000000000E+00 -0.12049515366E+04  0.12049515366E+04  0.50400001928E-02 0.  1.
    10030    2    1    2    0    0  0.00000000000E+00  0.00000000000E+00  0.10442347521E+04  0.34541378254E+04  0.32925130067E+04 0.  0.
        4    1    3    3  502    0 -0.34917341077E+03  0.15841554509E+04  0.81640177616E+03  0.18160352519E+04  0.12699999809E+01 0. -1.
       -4    1    3    3    0  502  0.34917341077E+03 -0.15841554509E+04  0.22783297599E+03  0.16381025734E+04  0.12699999809E+01 0.  1.
</event>
<event>
 5   0  0.6426079E-07  0.3287729E+04  0.7818609E-02  0.8166025E-01
       -2   -1    0    0    0  501  0.00000000000E+00  0.00000000000E+00  0.27711613184E+04  0.27711613184E+04  0.25500000920E-02 0. -1.
        2   -1    0    0  501    0  0.00000000000E+00  0.00000000000E+00 -0.97514725735E+03  0.97514725735E+03  0.25500000920E-02 0.  1.
    10030    2    1    2    0    0  0.00000000000E+00  0.00000000000E+00  0.17960140611E+04  0.37463085758E+04  0.32877289179E+04 0.  0.
        4    1    3    3  502    0 -0.14080176537E+04  0.97426931121E+02 -0.62329087936E+02  0.14127605063E+04  0.12699999809E+01 0.  1.
       -4    1    3    3    0  502  0.14080176537E+04 -0.97426931121E+02  0.18583431490E+04  0.23335480694E+04  0.12699999809E+01 0. -1.
</event>
<event>
 5   0  0.6258718E-07  0.3290065E+04  0.7818609E-02  0.8165428E-01
       -2   -1    0    0    0  501  0.00000000000E+00  0.00000000000E+00  0.19924819057E+04  0.19924819057E+04  0.25500000920E-02 0.  1.
        2   -1    0    0  501    0  0.00000000000E+00  0.00000000000E+00 -0.13581711605E+04  0.13581711605E+04  0.25500000920E-02 0. -1.
    10030    2    1    2    0    0  0.00000000000E+00  0.00000000000E+00  0.63431074526E+03  0.33506530662E+04  0.32900647180E+04 0.  0.
        5    1    3    3  502    0  0.12286677079E+04 -0.89317613337E+03 -0.32591693905E+03  0.15535867799E+04  0.46999998093E+01 0.  1.
       -5    1    3    3    0  502 -0.12286677079E+04  0.89317613337E+03  0.96022768431E+03  0.17970662863E+04  0.46999998093E+01 0. -1.
</event>
<event>
 5   0  0.2087665E-07  0.3293205E+04  0.7818609E-02  0.8164626E-01
        1   -1    0    0  501    0  0.00000000000E+00  0.00000000000E+00  0.13124628868E+04  0.13124628868E+04  0.50400001928E-02 0. -1.
       -1   -1    0    0    0  501  0.00000000000E+00  0.00000000000E+00 -0.20658109065E+04  0.20658109065E+04  0.50400001928E-02 0.  1.
    10030    2    1    2    0    0  0.00000000000E+00  0.00000000000E+00 -0.75334801965E+03  0.33782737933E+04  0.32932052144E+04 0.  0.
        5    1    3    3  502    0  0.88468699563E+03  0.24591280694E+03  0.10254294039E+04  0.13764707557E+04  0.46999998093E+01 0. -1.
       -5    1    3    3    0  502 -0.88468699563E+03 -0.24591280694E+03 -0.17787774236E+04  0.20018030376E+04  0.46999998093E+01 0.  1.
</event>
<event>
 5   0  0.6258718E-07  0.3302929E+04  0.7818609E-02  0.8162150E-01
        2   -1    0    0  501    0  0.00000000000E+00  0.00000000000E+00  0.22887848932E+04  0.22887848932E+04  0.25500000920E-02 0.  1.
       -2   -1    0    0    0  501  0.00000000000E+00  0.00000000000E+00 -0.11916084717E+04  0.11916084717E+04  0.25500000920E-02 0. -1.
    10030    2    1    2    0    0  0.00000000000E+00  0.00000000000E+00  0.10971764215E+04  0.34803933648E+04  0.33029292869E+04 0.  0.
        5    1    3    3  502    0 -0.54515090561E+03  0.15446194373E+04  0.32686728388E+03  0.16703002806E+04  0.46999998093E+01 0.  1.
       -5    1    3    3    0  502  0.54515090561E+03 -0.15446194373E+04  0.77030913763E+03  0.18100930842E+04  0.46999998093E+01 0. -1.
</event>
<event>
 5   0  0.2087665E-07  0.3266587E+04  0.7818609E-02  0.8171450E-01
       -1   -1    0    0    0  501  0.00000000000E+00  0.00000000000E+00  0.16194928288E+04  0.16194928288E+04  0.50400001928E-02 0.  1.
        1   -1    0    0  501    0  0.00000000000E+00  0.00000000000E+00 -0.16472118344E+04  0.16472118344E+04  0.50400001928E-02 0. -1.
    10030    2    1    2    0    0  0.00000000000E+00  0.00000000000E+00 -0.27719005602E+02  0.32667046632E+04  0.32665870589E+04 0.  0.
        5    1    3    3  502    0 -0.67707632866E+03 -0.59084837163E+03 -0.13777603230E+04  0.16449254545E+04  0.46999998093E+01 0. -1.
       -5    1    3    3    0  502  0.67707632866E+03  0.59084837163E+03  0.13500413174E+04  0.16217792087E+04  0.46999998093E+01 0.  1.
</event>
<event>
 5   0  0.6258718E-07  0.3293190E+04  0.7818609E-02  0.8164630E-01
       -2   -1    0    0    0  501  0.00000000000E+00  0.00000000000E+00  0.12526392699E+04  0.12526392699E+04  0.25500000920E-02 0.  1.
        2   -1    0    0  501    0  0.00000000000E+00  0.00000000000E+00 -0.21644494762E+04  0.21644494762E+04  0.25500000920E-02 0. -1.
    10030    2    1    2    0    0  0.00000000000E+00  0.00000000000E+00 -0.91181020625E+03  0.34170887461E+04  0.32931895855E+04 0.  0.
        5    1    3    3  502    0  0.88856643647E+03  0.13811482006E+04 -0.57925422925E+03  0.17414586461E+04  0.46999998093E+01 0.  1.
       -5    1    3    3    0  502 -0.88856643647E+03 -0.13811482006E+04 -0.33255597700E+03  0.16756301000E+04  0.46999998093E+01 0. -1.
</event>
<event>
 5   0  0.6424183E-07  0.3307970E+04  0.7818609E-02  0.8160870E-01
       -2   -1    0    0    0  501  0.00000000000E+00  0.00000000000E+00  0.14061932765E+04  0.14061932765E+04  0.25500000920E-02 0. -1.
        2   -1    0    0  501    0  0.00000000000E+00  0.00000000000E+00 -0.19454413483E+04  0.19454413483E+04  0.25500000920E-02 0.  1.
    10030    2    1    2    0    0  0.00000000000E+00  0.00000000000E+00 -0.53924807180E+03  0.33516346249E+04  0.33079700990E+04 0.  0.
        2    1    3    3  502    0 -0.10317821771E+04 -0.55348029677E+03  0.91402215859E+03  0.14853792130E+04  0.25500000920E-02 0. -1.
       -2    1    3    3    0  502  0.10317821771E+04  0.55348029677E+03 -0.14532702304E+04  0.18662554119E+04  0.25500000920E-02 0.  1.
</event>
<event>
 5   0  0.2080828E-07  0.3307617E+04  0.7818609E-02  0.8160960E-01
       -1   -1    0    0    0  501  0.00000000000E+00  0.00000000000E+00  0.14019403734E+04  0.14019403734E+04  0.50400001928E-02 0. -1.
        1   -1    0    0  501    0  0.00000000000E+00  0.00000000000E+00 -0.19509268803E+04  0.19509268803E+04  0.50400001928E-02 0.  1.
    10030    2    1    2    0    0  0.00000000000E+00  0.00000000000E+00 -0.54898650693E+03  0.33528672537E+04  0.33076173654E+04 0.  0.
        1    1    3    3  502    0  0.14238313542E+04  0.32429300302E+03  0.51241373163E+03  0.15475882881E+04  0.50400001928E-02 0. -1.
       -1    1    3    3    0  502 -0.14238313542E+04 -0.32429300302E+03 -0.10614002386E+04  0.18052789656E+04  0.50400001928E-02 0.  1.
</event>
<event>
 5   0  0.2037333E-07  0.3304404E+04  0.7818609E-02  0.8161776E-01
        1   -1    0    0  501    0  0.00000000000E+00  0.00000000000E+00  0.13802427091E+04  0.13802427091E+04  0.50400001928E-02 0.  1.
       -1   -1    0    0    0  501  0.00000000000E+00  0.00000000000E+00 -0.19777475920E+04  0.19777475920E+04  0.50400001928E-02 0. -1.
    10030    2    1    2    0    0  0.00000000000E+00  0.00000000000E+00 -0.59750488287E+03  0.33579903011E+04  0.33044041486E+04 0.  0.
        3    1    3    3  502    0  0.25648712871E+03 -0.15439264376E+04  0.23924493505E+03  0.15832664466E+04  0.10100000352E+00 0.  1.
       -3    1    3    3    0  502 -0.25648712871E+03  0.15439264376E+04 -0.83674981792E+03  0.17747238545E+04  0.10100000352E+00 0. -1.
</event>
<event>
 5   0  0.6426079E-07  0.3288422E+04  0.7818609E-02  0.8165848E-01
       -2   -1    0    0    0  501  0.00000000000E+00  0.00000000000E+00  0.15075342796E+04  0.15075342796E+04  0.25500000920E-02 0.  1.
        2   -1    0    0  501    0  0.00000000000E+00  0.00000000000E+00 -0.17932796203E+04  0.17932796203E+04  0.25500000920E-02 0. -1.
    10030    2    1    2    0    0  0.00000000000E+00  0.00000000000E+00 -0.28574534069E+03  0.33008138999E+04  0.32884224184E+04 0.  0.
        4    1    3    3  502    0  0.76614410644E+03 -0.14390764828E+04 -0.35700956314E+03  0.16689443838E+04  0.12699999809E+01 0. -1.
       -4    1    3    3    0  502 -0.76614410644E+03  0.14390764828E+04  0.71264222442E+02  0.16318695161E+04  0.12699999809E+01 0.  1.
</event>
<event>
 5   0  0.6426079E-07  0.3323953E+04  0.7818609E-02  0.8156827E-01
        2   -1    0    0  501    0  0.00000000000E+00  0.00000000000E+00  0.29179528039E+04  0.29179528039E+04  0.25500000920E-02 0.  1.
       -2   -1    0    0    0  501  0.00000000000E+00  0.00000000000E+00 -0.94661085080E+03  0.94661085081E+03  0.25500000920E-02 0. -1.
    10030    2    1    2    0    0  0.00000000000E+00  0.00000000000E+00  0.19713419531E+04  0.38645636547E+04  0.33239529397E+04 0.  0.
        4    1    3    3  502    0 -0.10375957743E+04 -0.22210126225E+03 -0.50152363203E+03  0.11736530697E+04  0.12699999809E+01 0. -1.
       -4    1    3    3    0  502  0.10375957743E+04  0.22210126225E+03  0.24728655851E+04  0.26909105850E+04  0.12699999809E+01 0.  1.
</event>
<event>
 5   0  0.6377741E-07  0.3299888E+04  0.7818609E-02  0.8162924E-01
       -2   -1    0    0    0  501  0.00000000000E+00  0.00000000000E+00  0.23092758012E+04  0.23092758012E+04  0.25500000920E-02 0.  1.
        2   -1    0    0  501    0  0.00000000000E+00  0.00000000000E+00 -0.11788611089E+04  0.11788611089E+04  0.25500000920E-02 0. -1.
    10030    2    1    2    0    0  0.00000000000E+00  0.00000000000E+00  0.11304146923E+04  0.34881369100E+04  0.32998881385E+04 0.  0.
        1    1    3    3  502    0  0.74960326335E+03  0.14674506872E+04  0.47677565022E+03  0.17154100362E+04  0.50400001928E-02 0. -1.
       -1    1    3    3    0  502 -0.74960326335E+03 -0.14674506872E+04  0.65363904205E+03  0.17727268738E+04  0.50400001928E-02 0.  1.
</event>
<event>
 5   0  0.2057130E-07  0.3309655E+04  0.7818609E-02  0.8160443E-01
        1   -1    0    0  501    0  0.00000000000E+00  0.00000000000E+00  0.18361296360E+04  0.18361296360E+04  0.50400001928E-02 0. -1.
       -1   -1    0    0    0  501  0.00000000000E+00  0.00000000000E+00 -0.14914276827E+04  0.14914276827E+04  0.50400001928E-02 0.  1.
    10030    2    1    2    0    0  0.00000000000E+00  0.00000000000E+00  0.34470195326E+03  0.33275573187E+04  0.33096553102E+04 0.  0.
        2    1    3    3  502    0 -0.16468152096E+04 -0.76338719194E+02  0.31674757268E+03  0.16787367153E+04  0.25500000920E-02 0. -1.
       -2    1    3    3    0  502  0.16468152096E+04  0.76338719194E+02  0.27954380572E+02  0.16488206033E+04  0.25500000920E-02 0.  1.
</event>
<event>
 5   0  0.2037333E-07  0.3298973E+04  0.7818609E-02  0.8163157E-01
        1   -1    0    0  501    0  0.00000000000E+00  0.00000000000E+00  0.17065406530E+04  0.17065406530E+04  0.50400001928E-02 0. -1.
       -1   -1    0    0    0  501  0.00000000000E+00  0.00000000000E+00 -0.15943397528E+04  0.15943397528E+04  0.50400001928E-02 0.  1.
    10030    2    1    2    0    0  0.00000000000E+00  0.00000000000E+00  0.11220090022E+03  0.33008804057E+04  0.32989729328E+04 0.  0.
        3    1    3    3  502    0 -0.10815371138E+04  0.91343073322E+03  0.90318747378E+03  0.16792337110E+04  0.10100000352E+00 0. -1.
       -3    1    3    3    0  502  0.10815371138E+04 -0.91343073322E+03 -0.79098657356E+03  0.16216466948E+04  0.10100000352E+00 0.  1.
</event>
<event>
 5   0  0.2080828E-07  0.3285864E+04  0.7818609E-02  0.8166502E-01
       -1   -1    0    0    0  501  0.00000000000E+00  0.00000000000E+00  0.16702897928E+04  0.16702897928E+04  0.50400001928E-02 0. -1.
        1   -1    0    0  501    0  0.00000000000E+00  0.00000000000E+00 -0.16160218859E+04  0.16160218859E+04  0.50400001928E-02 0.  1.
    10030    2    1    2    0    0  0.00000000000E+00  0.00000000000E+00  0.54267906914E+02  0.32863116788E+04  0.32858635766E+04 0.  0.
        1    1    3    3  502    0 -0.59904972056E+03  0.12734823900E+04  0.87495640292E+03  0.16571562004E+04  0.50400001928E-02 0. -1.
       -1    1    3    3    0  502  0.59904972056E+03 -0.12734823900E+04 -0.82068849600E+03  0.16291554784E+04  0.50400001928E-02 0.  1.
</event>
<event>
 5   0  0.6424183E-07  0.3294757E+04  0.7818609E-02  0.8164231E-01
        2   -1    0    0  501    0  0.00000000000E+00  0.00000000000E+00  0.16479736680E+04  0.16479736680E+04  0.25500000920E-02 0. -1.
       -2   -1    0    0    0  501  0.00000000000E+00  0.00000000000E+00 -0.16467836612E+04  0.16467836612E+04  0.25500000920E-02 0.  1.
    10030    2    1    2    0    0  0.00000000000E+00  0.00000000000E+00  0.11900068213E+01  0.32947573292E+04  0.32947571143E+04 0.  0.
        2    1    3    3  502    0  0.60106862287E+03  0.15149590705E+04  0.24032744430E+03  0.16474652516E+04  0.25500000920E-02 0. -1.
       -2    1    3    3    0  502 -0.60106862287E+03 -0.15149590705E+04 -0.23913743748E+03  0.16472920776E+04  0.25500000920E-02 0.  1.
</event>
<event>
 5   0  0.2087665E-07  0.3290518E+04  0.7818609E-02  0.8165312E-01
        1   -1    0    0  501    0  0.00000000000E+00  0.00000000000E+00  0.15790798396E+04  0.15790798396E+04  0.50400001928E-02 0.  1.
       -1   -1    0    0    0  501  0.00000000000E+00  0.00000000000E+00 -0.17142112197E+04  0.17142112198E+04  0.50400001928E-02 0. -1.
    10030    2    1    2    0    0  0.00000000000E+00  0.00000000000E+00 -0.13513138014E+03  0.32932910594E+04  0.32905175143E+04 0.  0.
        5    1    3    3  502    0  0.15315818470E+04 -0.14147405806E+03  0.51696119622E+03  0.16226610341E+04  0.46999998093E+01 0.  1.
       -5    1    3    3    0  502 -0.15315818470E+04  0.14147405806E+03 -0.65209257635E+03  0.16706300253E+04  0.46999998093E+01 0. -1.
</event>
<event>
 5   0  0.2037333E-07  0.3303125E+04  0.7818609E-02  0.8162101E-01
       -1   -1    0    0    0  501  0.00000000000E+00  0.00000000000E+00  0.17489120380E+04  0.17489120380E+04  0.50400001928E-02 0.  1.
        1   -1    0    0  501    0  0.00000000000E+00  0.00000000000E+00 -0.15596313590E+04  0.15596313590E+04  0.50400001928E-02 0. -1.
    10030    2    1    2    0    0  0.00000000000E+00  0.00000000000E+00  0.18928067900E+03  0.33085433970E+04  0.33031246168E+04 0.  0.
        3    1    3    3  502    0  0.99753089073E+03  0.12037396122E+04 -0.43877542297E+03  0.16237551583E+04  0.10100000352E+00 0. -1.
       -3    1    3    3    0  502 -0.99753089073E+03 -0.12037396122E+04  0.62805610198E+03  0.16847882387E+04  0.10100000352E+00 0.  1.
</event>
<event>
 5   0  0.2057130E-07  0.3294970E+04  0.7818609E-02  0.8164176E-01
        1   -1    0    0  501    0  0.00000000000E+00  0.00000000000E+00  0.20442105100E+04  0.20442105100E+04  0.50400001928E-02 0.  1.
       -1   -1    0    0    0  501  0.00000000000E+00  0.00000000000E+00 -0.13277531430E+04  0.13277531430E+04  0.50400001928E-02 0. -1.
    10030    2    1    2    0    0  0.00000000000E+00  0.00000000000E+00  0.71645736700E+03  0.33719636530E+04  0.32949700633E+04 0.  0.
        2    1    3    3  502    0 -0.13419034029E+04  0.92868349662E+03  0.58944882841E+03  0.17351102849E+04  0.25500000920E-02 0.  1.
       -2    1    3    3    0  502  0.13419034029E+04 -0.92868349662E+03  0.12700853859E+03  0.16368533680E+04  0.25500000920E-02 0. -1.
</event>
<event>
 5   0  0.6424183E-07  0.3294940E+04  0.7818609E-02  0.8164184E-01
        2   -1    0    0  501    0  0.00000000000E+00  0.00000000000E+00  0.15854181004E+04  0.15854181004E+04  0.25500000920E-02 0.  1.
       -2   -1    0    0    0  501  0.00000000000E+00  0.00000000000E+00 -0.17119507516E+04  0.17119507517E+04  0.25500000920E-02 0. -1.
    10030    2    1    2    0    0  0.00000000000E+00  0.00000000000E+00 -0.12653265130E+03  0.32973688520E+04  0.32949401868E+04 0.  0.
        2    1    3    3  502    0  0.68726784561E+03 -0.60649314747E+03 -0.14332116853E+04  0.17012544678E+04  0.25500000920E-02 0. -1.
       -2    1    3    3    0  502 -0.68726784561E+03  0.60649314747E+03  0.13066790340E+04  0.15961143842E+04  0.25500000920E-02 0.  1.
</event>
<event>
 5   0  0.6258718E-07  0.3261486E+04  0.7818609E-02  0.8172765E-01
        2   -1    0    0  501    0  0.00000000000E+00  0.00000000000E+00  0.18699787047E+04  0.18699787047E+04  0.25500000920E-02 0. -1.
       -2   -1    0    0    0  501  0.00000000000E+00  0.00000000000E+00 -0.14221142050E+04  0.14221142050E+04  0.25500000920E-02 0.  1.
    10030    2    1    2    0    0  0.00000000000E+00  0.00000000000E+00  0.44786449970E+03  0.32920929097E+04  0.32614863354E+04 0.  0.
        5    1    3    3  502    0 -0.15997155419E+03 -0.14128889407E+04  0.10298325753E+04  0.17556831377E+04  0.46999998093E+01 0. -1.
       -5    1    3    3    0  502  0.15997155419E+03  0.14128889407E+04 -0.58196807556E+03  0.15364097721E+04  0.46999998093E+01 0.  1.
</event>
<event>
 5   0  0.2087665E-07  0.3221727E+04  0.7818609E-02  0.8183103E-01
        1   -1    0    0  501    0  0.00000000000E+00  0.00000000000E+00  0.15320404816E+04  0.15320404816E+04  0.50400001928E-02 0.  1.
       -1   -1    0    0    0  501  0.00000000000E+00  0.00000000000E+00 -0.16937417832E+04  0.16937417832E+04  0.50400001928E-02 0. -1.
    10030    2    1    2    0    0  0.00000000000E+00  0.00000000000E+00 -0.16170130158E+03  0.32257822648E+04  0.32217268520E+04 0.  0.
        5    1    3    3  502    0 -0.12781008093E+04 -0.97484967737E+03 -0.18579343704E+03  0.16181516812E+04  0.46999998093E+01 0.  1.
       -5    1    3    3    0  502  0.12781008093E+04  0.97484967737E+03  0.24092135463E+02  0.16076305836E+04  0.46999998093E+01 0. -1.
</event>
<event>
 5   0  0.2080828E-07  0.3313603E+04  0.7818609E-02  0.8159443E-01
       -1   -1    0    0    0  501  0.00000000000E+00  0.00000000000E+00  0.19785547379E+04  0.19785547380E+04  0.50400001928E-02 0. -1.
        1   -1    0    0  501    0  0.00000000000E+00  0.00000000000E+00 -0.13873721035E+04  0.13873721035E+04  0.50400001928E-02 0.  1.
    10030    2    1    2    0    0  0.00000000000E+00  0.00000000000E+00  0.59118263443E+03  0.33659268415E+04  0.33136032646E+04 0.  0.
        1    1    3    3  502    0  0.30993370016E+03 -0.16274086722E+04  0.27348150269E+03  0.16790801104E+04  0.50400001928E-02 0. -1.
       -1    1    3    3    0  502 -0.30993370016E+03  0.16274086722E+04  0.31770113174E+03  0.16868467310E+04  0.50400001928E-02 0.  1.
</event>
<event>
 5   0  0.2087665E-07  0.3303107E+04  0.7818609E-02  0.8162105E-01
        1   -1    0    0  501    0  0.00000000000E+00  0.00000000000E+00  0.22613252361E+04  0.22613252361E+04  0.50400001928E-02 0.  1.
       -1   -1    0    0    0  501  0.00000000000E+00  0.00000000000E+00 -0.12062078445E+04  0.12062078445E+04  0.50400001928E-02 0. -1.
    10030    2    1    2    0    0  0.00000000000E+00  0.00000000000E+00  0.10551173916E+04  0.34675330806E+04  0.33031065613E+04 0.  0.
        5    1    3    3  502    0  0.85748646211E+03 -0.92860489846E+03 -0.58837999670E+03  0.13942034287E+04  0.46999998093E+01 0. -1.
       -5    1    3    3    0  502 -0.85748646211E+03  0.92860489846E+03  0.16434973883E+04  0.20733296519E+04  0.46999998093E+01 0.  1.
</event>
<event>
 5   0  0.6258718E-07  0.3295815E+04  0.7818609E-02  0.8163961E-01
       -2   -1    0    0    0  501  0.00000000000E+00  0.00000000000E+00  0.16016595531E+04  0.16016595531E+04  0.25500000920E-02 0.  1.
        2   -1    0    0  501    0  0.00000000000E+00  0.00000000000E+00 -0.16954909782E+04  0.16954909782E+04  0.25500000920E-02 0. -1.
    10030    2    1    2    0    0  0.00000000000E+00  0.00000000000E+00 -0.93831425135E+02  0.32971505313E+04  0.32958151177E+04 0.  0.
        5    1    3    3  502    0  0.55884756289E+03 -0.27152714630E+03  0.14799856636E+04  0.16051221898E+04  0.46999998093E+01 0.  1.
       -5    1    3    3    0  502 -0.55884756289E+03  0.27152714630E+03 -0.15738170887E+04  0.16920283415E+04  0.46999998093E+01 0. -1.
</event>
<event>
 5   0  0.6424183E-07  0.3290267E+04  0.7818609E-02  0.8165376E-01
        2   -1    0    0  501    0  0.00000000000E+00  0.00000000000E+00  0.96636095378E+03  0.96636095378E+03  0.25500000920E-02 0.  1.
       -2   -1    0    0    0  501  0.00000000000E+00  0.00000000000E+00 -0.28006764367E+04  0.28006764367E+04  0.25500000920E-02 0. -1.
    10030    2    1    2    0    0  0.00000000000E+00  0.00000000000E+00 -0.18343154829E+04  0.37670373905E+04  0.32902670728E+04 0.  0.
        2    1    3    3  502    0 -0.58730766775E+03  0.12318551909E+04 -0.19690159495E+04  0.23957089384E+04  0.25500000920E-02 0. -1.
       -2    1    3    3    0  502  0.58730766775E+03 -0.12318551909E+04  0.13470046657E+03  0.13713284521E+04  0.25500000920E-02 0.  1.
</event>
<event>
 5   0  0.6424183E-07  0.3306292E+04  0.7818609E-02  0.8161296E-01
        2   -1    0    0  501    0  0.00000000000E+00  0.00000000000E+00  0.15967084768E+04  0.15967084768E+04  0.25500000920E-02 0. -1.
       -2   -1    0    0    0  501  0.00000000000E+00  0.00000000000E+00 -0.17115788570E+04  0.17115788570E+04  0.25500000920E-02 0.  1.
    10030    2    1    2    0    0  0.00000000000E+00  0.00000000000E+00 -0.11487038018E+03  0.33082873337E+04  0.33062924672E+04 0.  0.
        2    1    3    3  502    0  0.84824815335E+03 -0.24383729344E+03  0.13412318280E+04  0.16055791391E+04  0.25500000920E-02 0. -1.
       -2    1    3    3    0  502 -0.84824815335E+03  0.24383729344E+03 -0.14561022082E+04  0.17027081947E+04  0.25500000920E-02 0.  1.
</event>
<event>
 5   0  0.6258718E-07  0.3296647E+04  0.7818609E-02  0.8163749E-01
       -2   -1    0    0    0  501  0.00000000000E+00  0.00000000000E+00  0.15913187018E+04  0.15913187018E+04  0.25500000920E-02 0. -1.
        2   -1    0    0  501    0  0.00000000000E+00  0.00000000000E+00 -0.17073703633E+04  0.17073703633E+04  0.25500000920E-02 0.  1.
    10030    2    1    2    0    0  0.00000000000E+00  0.00000000000E+00 -0.11605166150E+03  0.32986890652E+04  0.32966470179E+04 0.  0.
        5    1    3    3  502    0 -0.13652227655E+04  0.61557056202E+02 -0.98018544487E+03  0.16817871646E+04  0.46999998093E+01 0.  1.
       -5    1    3    3    0  502  0.13652227655E+04 -0.61557056202E+02  0.86413378337E+03  0.16169019006E+04  0.46999998093E+01 0. -1.
</event>
<event>
 5   0  0.6377741E-07  0.3283166E+04  0.7818609E-02  0.8167192E-01
        2   -1    0    0  501    0  0.00000000000E+00  0.00000000000E+00  0.22654542449E+04  0.22654542449E+04  0.25500000920E-02 0. -1.
       -2   -1    0    0    0  501  0.00000000000E+00  0.00000000000E+00 -0.11895160368E+04  0.11895160368E+04  0.25500000920E-02 0.  1.
    10030    2    1    2    0    0  0.00000000000E+00  0.00000000000E+00  0.10759382081E+04  0.34549702816E+04  0.32831656399E+04 0.  0.
        1    1    3    3  502    0  0.34710987876E+03 -0.78799931335E+03 -0.93279604626E+03  0.12694631344E+04  0.50400001928E-02 0.  1.
       -1    1    3    3    0  502 -0.34710987876E+03  0.78799931335E+03  0.20087342544E+04  0.21855071472E+04  0.50400001928E-02 0. -1.
</event>
<event>
 5   0  0.6424183E-07  0.3318856E+04  0.7818609E-02  0.8158114E-01
       -2   -1    0    0    0  501  0.00000000000E+00  0.00000000000E+00  0.16562435464E+04  0.16562435464E+04  0.25500000920E-02 0.  1.
        2   -1    0    0  501    0  0.00000000000E+00  0.00000000000E+00 -0.16626182306E+04  0.16626182306E+04  0.25500000920E-02 0. -1.
    10030    2    1    2    0    0  0.00000000000E+00  0.00000000000E+00 -0.63746842363E+01  0.33188617770E+04  0.33188556549E+04 0.  0.
        2    1    3    3  502    0 -0.16040706041E+03 -0.11437931027E+04  0.11883297016E+04  0.16571422891E+04  0.25500000920E-02 0.  1.
       -2    1    3    3    0  502  0.16040706041E+03  0.11437931027E+04 -0.11947043858E+04  0.16617194878E+04  0.25500000920E-02 0. -1.
</event>
<event>
 5   0  0.6377741E-07  0.3293754E+04  0.7818609E-02  0.8164487E-01
       -2   -1    0    0    0  501  0.00000000000E+00  0.00000000000E+00  0.28976210647E+04  0.28976210647E+04  0.25500000920E-02 0. -1.
        2   -1    0    0  501    0  0.00000000000E+00  0.00000000000E+00 -0.93601031662E+03  0.93601031663E+03  0.25500000920E-02 0.  1.
    10030    2    1    2    0    0  0.00000000000E+00  0.00000000000E+00  0.19616107481E+04  0.38336313813E+04  0.32937536096E+04 0.  0.
        1    1    3    3  502    0 -0.64408654008E+03 -0.10128745040E+04  0.22932087691E+04  0.25883525051E+04  0.50400001928E-02 0. -1.
       -1    1    3    3    0  502  0.64408654008E+03  0.10128745040E+04 -0.33159802103E+03  0.12452788762E+04  0.50400001928E-02 0.  1.
</event>
<event>
 5   0  0.2080770E-07  0.3301876E+04  0.7818609E-02  0.8162418E-01
        1   -1    0    0  501    0  0.00000000000E+00  0.00000000000E+00  0.15414273939E+04  0.15414273939E+04  0.50400001928E-02 0. -1.
       -1   -1    0    0    0  501  0.00000000000E+00  0.00000000000E+00 -0.17682283472E+04  0.17682283472E+04  0.50400001928E-02 0.  1.
    10030    2    1    2    0    0  0.00000000000E+00  0.00000000000E+00 -0.22680095333E+03  0.33096557411E+04  0.33018755961E+04 0.  0.
        4    1    3    3  502    0  0.77557874993E+03 -0.14399617799E+04  0.11203316191E+03  0.16393795677E+04  0.12699999809E+01 0. -1.
       -4    1    3    3    0  502 -0.77557874993E+03  0.14399617799E+04 -0.33883411524E+03  0.16702761734E+04  0.12699999809E+01 0.  1.
</event>
<event>
 5   0  0.2080828E-07  0.3296521E+04  0.7818609E-02  0.8163781E-01
       -1   -1    0    0    0  501  0.00000000000E+00  0.00000000000E+00  0.13219066222E+04  0.13219066222E+04  0.50400001928E-02 0. -1.
        1   -1    0    0  501    0  0.00000000000E+00  0.00000000000E+00 -0.20551853524E+04  0.20551853524E+04  0.50400001928E-02 0.  1.
    10030    2    1    2    0    0  0.00000000000E+00  0.00000000000E+00 -0.73327873019E+03  0.33770919745E+04  0.32965212738E+04 0.  0.
        1    1    3    3  502    0 -0.87585018303E+02 -0.16558269891E+02  0.13194356950E+04  0.13224431425E+04  0.50400001928E-02 0. -1.
       -1    1    3    3    0  502  0.87585018303E+02  0.16558269891E+02 -0.20527144252E+04  0.20546488321E+04  0.50400001928E-02 0.  1.
</event>
<event>
 5   0  0.2080828E-07  0.3277412E+04  0.7818609E-02  0.8168667E-01
        1   -1    0    0  501    0  0.00000000000E+00  0.00000000000E+00  0.23006257890E+04  0.23006257890E+04  0.50400001928E-02 0. -1.
       -1   -1    0    0    0  501  0.00000000000E+00  0.00000000000E+00 -0.11672288109E+04  0.11672288109E+04  0.50400001928E-02 0.  1.
    10030    2    1    2    0    0  0.00000000000E+00  0.00000000000E+00  0.11333969781E+04  0.34678545999E+04  0.32774116031E+04 0.  0.
        1    1    3    3  502    0 -0.82126025937E+03 -0.10633514006E+04 -0.42599160829E+03  0.14094869510E+04  0.50400001928E-02 0.  1.
       -1    1    3    3    0  502  0.82126025937E+03  0.10633514006E+04  0.15593885864E+04  0.20583676489E+04  0.50400001928E-02 0. -1.
</event>
<event>
 5   0  0.6426079E-07  0.3287795E+04  0.7818609E-02  0.8166008E-01
        2   -1    0    0  501    0  0.00000000000E+00  0.00000000000E+00  0.11585838012E+04  0.11585838012E+04  0.25500000920E-02 0.  1.
       -2   -1    0    0    0  501  0.00000000000E+00  0.00000000000E+00 -0.23325013703E+04  0.23325013703E+04  0.25500000920E-02 0. -1.
    10030    2    1    2    0    0  0.00000000000E+00  0.00000000000E+00 -0.11739175690E+04  0.34910851715E+04  0.32877945824E+04 0.  0.
        4    1    3    3  502    0 -0.77165981699E+03 -0.22545500697E+03  0.93561628799E+03  0.12335591938E+04  0.12699999809E+01 0.  1.
       -4    1    3    3    0  502  0.77165981699E+03  0.22545500697E+03 -0.21095338570E+04  0.22575259777E+04  0.12699999809E+01 0. -1.
</event>
<event>
 5   0  0.2087665E-07  0.3291686E+04  0.7818609E-02  0.8165014E-01
       -1   -1    0    0    0  501  0.00000000000E+00  0.00000000000E+00  0.17835390458E+04  0.17835390458E+04  0.50400001928E-02 0.  1.
        1   -1    0    0  501    0  0.00000000000E+00  0.00000000000E+00 -0.15187777103E+04  0.15187777103E+04  0.50400001928E-02 0. -1.
    10030    2    1    2    0    0  0.00000000000E+00  0.00000000000E+00  0.26476133548E+03  0.33023167560E+04  0.32916861018E+04 0.  0.
        5    1    3    3  502    0  0.26112175958E+03 -0.22724754782E+02  0.17624592873E+04  0.17818489883E+04  0.46999998093E+01 0.  1.
       -5    1    3    3    0  502 -0.26112175958E+03  0.22724754782E+02 -0.14976979518E+04  0.15204677677E+04  0.46999998093E+01 0. -1.
</event>
<event>
 5   0  0.2057130E-07  0.3308725E+04  0.7818609E-02  0.8160679E-01
       -1   -1    0    0    0  501  0.00000000000E+00  0.00000000000E+00  0.12478622005E+04  0.12478622005E+04  0.50400001928E-02 0.  1.
        1   -1    0    0  501    0  0.00000000000E+00  0.00000000000E+00 -0.21932832312E+04  0.21932832312E+04  0.50400001928E-02 0. -1.
    10030    2    1    2    0    0  0.00000000000E+00  0.00000000000E+00 -0.94542103072E+03  0.34411454317E+04  0.33087249745E+04 0.  0.
        2    1    3    3  502    0 -0.96964877852E+03  0.13221891845E+04 -0.70178042707E+03  0.17835074323E+04  0.25500000920E-02 0. -1.
       -2    1    3    3    0  502  0.96964877852E+03 -0.13221891845E+04 -0.24364060365E+03  0.16576379994E+04  0.25500000920E-02 0.  1.
</event>
<event>
 5   0  0.2080770E-07  0.3298110E+04  0.7818609E-02  0.8163376E-01
        1   -1    0    0  501    0  0.00000000000E+00  0.00000000000E+00  0.17102199189E+04  0.17102199189E+04  0.50400001928E-02 0.  1.
       -1   -1    0    0    0  501  0.00000000000E+00  0.00000000000E+00 -0.15900775085E+04  0.15900775085E+04  0.50400001928E-02 0. -1.
    10030    2    1    2    0    0  0.00000000000E+00  0.00000000000E+00  0.12014241038E+03  0.33002974273E+04  0.32981098996E+04 0.  0.
        4    1    3    3  502    0  0.10481829566E+04  0.92749847061E+03  0.93268152763E+03  0.16819147923E+04  0.12699999809E+01 0.  1.
       -4    1    3    3    0  502 -0.10481829566E+04 -0.92749847061E+03 -0.81253911725E+03  0.16183826351E+04  0.12699999809E+01 0. -1.
</event>
<event>
 5   0  0.2080828E-07  0.3314044E+04  0.7818609E-02  0.8159331E-01
        1   -1    0    0  501    0  0.00000000000E+00  0.00000000000E+00  0.18782395747E+04  0.18782395747E+04  0.50400001928E-02 0. -1.
       -1   -1    0    0    0  501  0.00000000000E+00  0.00000000000E+00 -0.14618593585E+04  0.14618593585E+04  0.50400001928E-02 0.  1.
    10030    2    1    2    0    0  0.00000000000E+00  0.00000000000E+00  0.41638021621E+03  0.33400989332E+04  0.33140441154E+04 0.  0.
        1    1    3    3  502    0 -0.33067537153E+03  0.33002393747E+03  0.18104877720E+04  0.18697935643E+04  0.50400001928E-02 0. -1.
       -1    1    3    3    0  502  0.33067537153E+03 -0.33002393747E+03 -0.13941075558E+04  0.14703053689E+04  0.50400001928E-02 0.  1.
</event>
<event>
 5   0  0.6351753E-07  0.3280826E+04  0.7818609E-02  0.8167791E-01
        2   -1    0    0  501    0  0.00000000000E+00  0.00000000000E+00  0.32262947489E+04  0.32262947489E+04  0.25500000920E-02 0.  1.
       -2   -1    0    0    0  501  0.00000000000E+00  0.00000000000E+00 -0.83406963124E+03  0.83406963124E+03  0.25500000920E-02 0. -1.
    10030    2    1    2    0    0  0.00000000000E+00  0.00000000000E+00  0.23922251177E+04  0.40603643802E+04  0.32808257933E+04 0.  0.
        3    1    3    3  502    0  0.14843365970E+04  0.59872991894E+01  0.33185745002E+03  0.15209932145E+04  0.10100000352E+00 0.  1.
       -3    1    3    3    0  502 -0.14843365970E+04 -0.59872991894E+01  0.20603676677E+04  0.25393711657E+04  0.10100000352E+00 0. -1.
</event>
<event>
 5   0  0.2057130E-07  0.3293572E+04  0.7818609E-02  0.8164533E-01
       -1   -1    0    0    0  501  0.00000000000E+00  0.00000000000E+00  0.21933975169E+04  0.21933975169E+04  0.50400001928E-02 0.  1.
        1   -1    0    0  501    0  0.00000000000E+00  0.00000000000E+00 -0.12363943950E+04  0.12363943950E+04  0.50400001928E-02 0. -1.
    10030    2    1    2    0    0  0.00000000000E+00  0.00000000000E+00  0.95700312186E+03  0.34297919119E+04  0.32935721616E+04 0.  0.
        2    1    3    3  502    0 -0.18226956273E+03  0.16366672811E+04  0.48011937023E+03  0.17153473678E+04  0.25500000920E-02 0.  1.
       -2    1    3    3    0  502  0.18226956273E+03 -0.16366672811E+04  0.47688375163E+03  0.17144445442E+04  0.25500000920E-02 0. -1.
</event>
<event>
 5   0  0.6351753E-07  0.3307681E+04  0.7818609E-02  0.8160944E-01
        2   -1    0    0  501    0  0.00000000000E+00  0.00000000000E+00  0.18978075445E+04  0.18978075445E+04  0.25500000920E-02 0. -1.
       -2   -1    0    0    0  501  0.00000000000E+00  0.00000000000E+00 -0.14412358026E+04  0.14412358026E+04  0.25500000920E-02 0.  1.
    10030    2    1    2    0    0  0.00000000000E+00  0.00000000000E+00  0.45657174187E+03  0.33390433471E+04  0.33076808671E+04 0.  0.
        3    1    3    3  502    0  0.13658744017E+04 -0.93045733095E+03  0.16585741746E+03  0.16609853759E+04  0.10100000352E+00 0.  1.
       -3    1    3    3    0  502 -0.13658744017E+04  0.93045733095E+03  0.29071432441E+03  0.16780579712E+04  0.10100000352E+00 0. -1.
</event>
<event>
 5   0  0.1994250E-07  0.3296175E+04  0.7818609E-02  0.8163869E-01
        3   -1    0    0  501    0  0.00000000000E+00  0.00000000000E+00  0.22372541388E+04  0.22372541411E+04  0.10100000352E+00 0.  1.
       -3   -1    0    0    0  501  0.00000000000E+00  0.00000000000E+00 -0.12140740115E+04  0.12140740157E+04  0.10100000352E+00 0. -1.
    10030    2    1    2    0    0  0.00000000000E+00  0.00000000000E+00  0.10231801274E+04  0.34513281568E+04  0.32961748243E+04 0.  0.
        2    1    3    3  502    0 -0.93783184526E+03  0.11673678691E+04 -0.20922958001E+03  0.15119700159E+04  0.25500000920E-02 0. -1.
       -2    1    3    3    0  502  0.93783184526E+03 -0.11673678691E+04  0.12324097074E+04  0.19393581409E+04  0.25500000920E-02 0.  1.
</event>
<event>
 5   0  0.6258718E-07  0.3303692E+04  0.7818609E-02  0.8161957E-01
        2   -1    0    0  501    0  0.00000000000E+00  0.00000000000E+00  0.22389955222E+04  0.22389955222E+04  0.25500000920E-02 0. -1.
       -2   -1    0    0    0  501  0.00000000000E+00  0.00000000000E+00 -0.12186694823E+04  0.12186694823E+04  0.25500000920E-02 0.  1.
    10030    2    1    2    0    0  0.00000000000E+00  0.00000000000E+00  0.10203260399E+04  0.34576650045E+04  0.33036921853E+04 0.  0.
        5    1    3    3  502    0 -0.14969058757E+04  0.36954755925E+03  0.11304755591E+04  0.19118811885E+04  0.46999998093E+01 0. -1.
       -5    1    3    3    0  502  0.14969058757E+04 -0.36954755925E+03 -0.11014951917E+03  0.15457838160E+04  0.46999998093E+01 0.  1.
</event>
<event>
 5   0  0.2037333E-07  0.3280639E+04  0.7818609E-02  0.8167839E-01
       -1   -1    0    0    0  501  0.00000000000E+00  0.00000000000E+00  0.19829700074E+04  0.19829700074E+04  0.50400001928E-02 0.  1.
        1   -1    0    0  501    0  0.00000000000E+00  0.00000000000E+00 -0.13568781745E+04  0.13568781745E+04  0.50400001928E-02 0. -1.
    10030    2    1    2    0    0  0.00000000000E+00  0.00000000000E+00  0.62609183290E+03  0.33398481818E+04  0.32806394033E+04 0.  0.
        3    1    3    3  502    0  0.44061301738E+03  0.85223412493E+03 -0.10414575418E+04  0.14160072939E+04  0.10100000352E+00 0. -1.
       -3    1    3    3    0  502 -0.44061301738E+03 -0.85223412493E+03  0.16675493747E+04  0.19238408879E+04  0.10100000352E+00 0.  1.
</event>
<event>
 5   0  0.2087665E-07  0.3299173E+04  0.7818609E-02  0.8163106E-01
       -1   -1    0    0    0  501  0.00000000000E+00  0.00000000000E+00  0.18725795917E+04  0.18725795917E+04  0.50400001928E-02 0.  1.
        1   -1    0    0  501    0  0.00000000000E+00  0.00000000000E+00 -0.14531477846E+04  0.14531477846E+04  0.50400001928E-02 0. -1.
    10030    2    1    2    0    0  0.00000000000E+00  0.00000000000E+00  0.41943180716E+03  0.33257273763E+04  0.32991725539E+04 0.  0.
        5    1    3    3  502    0  0.15095884062E+04  0.59212964206E+03 -0.95438551231E+02  0.16243784276E+04  0.46999998093E+01 0. -1.
       -5    1    3    3    0  502 -0.15095884062E+04 -0.59212964206E+03  0.51487035839E+03  0.17013489487E+04  0.46999998093E+01 0.  1.
</event>
<event>
 5   0  0.6258718E-07  0.3296290E+04  0.7818609E-02  0.8163840E-01
        2   -1    0    0  501    0  0.00000000000E+00  0.00000000000E+00  0.84170729390E+03  0.84170729390E+03  0.25500000920E-02 0.  1.
       -2   -1    0    0    0  501  0.00000000000E+00  0.00000000000E+00 -0.32272291729E+04  0.32272291729E+04  0.25500000920E-02 0. -1.
    10030    2    1    2    0    0  0.00000000000E+00  0.00000000000E+00 -0.23855218790E+04  0.40689364668E+04  0.32962902384E+04 0.  0.
        5    1    3    3  502    0  0.16051594432E+04  0.25976473170E+03 -0.15247790669E+04  0.22291226630E+04  0.46999998093E+01 0.  1.
       -5    1    3    3    0  502 -0.16051594432E+04 -0.25976473170E+03 -0.86074281211E+03  0.18398138038E+04  0.46999998093E+01 0. -1.
</event>
<event>
 5   0  0.2037333E-07  0.3313571E+04  0.7818609E-02  0.8159451E-01
       -1   -1    0    0    0  501  0.00000000000E+00  0.00000000000E+00  0.15903664118E+04  0.15903664118E+04  0.50400001928E-02 0. -1.
        1   -1    0    0  501    0  0.00000000000E+00  0.00000000000E+00 -0.17259787333E+04  0.17259787333E+04  0.50400001928E-02 0.  1.
    10030    2    1    2    0    0  0.00000000000E+00  0.00000000000E+00 -0.13561232147E+03  0.33163451451E+04  0.33135712486E+04 0.  0.
        3    1    3    3  502    0 -0.22892883300E+03  0.25900020489E+03  0.15538740213E+04  0.15918586624E+04  0.10100000352E+00 0. -1.
       -3    1    3    3    0  502  0.22892883300E+03 -0.25900020489E+03 -0.16894863427E+04  0.17244864828E+04  0.10100000352E+00 0.  1.
</event>
<event>
 5   0  0.2057130E-07  0.3286898E+04  0.7818609E-02  0.8166237E-01
        1   -1    0    0  501    0  0.00000000000E+00  0.00000000000E+00  0.25166956561E+04  0.25166956561E+04  0.50400001928E-02 0.  1.
       -1   -1    0    0    0  501  0.00000000000E+00  0.00000000000E+00 -0.10732028693E+04  0.10732028693E+04  0.50400001928E-02 0. -1.
    10030    2    1    2    0    0  0.00000000000E+00  0.00000000000E+00  0.14434927867E+04  0.35898985254E+04  0.32868982335E+04 0.  0.
        2    1    3    3  502    0 -0.23426579249E+03 -0.13051732222E+01  0.24983655877E+04  0.25093251632E+04  0.25500000920E-02 0.  1.
       -2    1    3    3    0  502  0.23426579249E+03  0.13051732222E+01 -0.10548728009E+04  0.10805733622E+04  0.25500000920E-02 0. -1.
</event>
<event>
 5   0  0.6424183E-07  0.3320733E+04  0.7818609E-02  0.8157640E-01
       -2   -1    0    0    0  501  0.00000000000E+00  0.00000000000E+00  0.81826018590E+03  0.81826018591E+03  0.25500000920E-02 0. -1.
        2   -1    0    0  501    0  0.00000000000E+00  0.00000000000E+00 -0.33691198432E+04  0.33691198432E+04  0.25500000920E-02 0.  1.
    10030    2    1    2    0    0  0.00000000000E+00  0.00000000000E+00 -0.25508596573E+04  0.41873800291E+04  0.33207328283E+04 0.  0.
        2    1    3    3  502    0  0.10153314033E+04 -0.11315493752E+04 -0.43376437641E+03  0.15809659646E+04  0.25500000920E-02 0. -1.
       -2    1    3    3    0  502 -0.10153314033E+04  0.11315493752E+04 -0.21170952809E+04  0.26064140645E+04  0.25500000920E-02 0.  1.
</event>
<event>
 5   0  0.6424183E-07  0.3307203E+04  0.7818609E-02  0.8161065E-01
       -2   -1    0    0    0  501  0.00000000000E+00  0.00000000000E+00  0.11823938214E+04  0.11823938214E+04  0.25500000920E-02 0.  1.
        2   -1    0    0  501    0  0.00000000000E+00  0.00000000000E+00 -0.23125950426E+04  0.23125950426E+04  0.25500000920E-02 0. -1.
    10030    2    1    2    0    0  0.00000000000E+00  0.00000000000E+00 -0.11302012211E+04  0.34949888640E+04  0.33072031022E+04 0.  0.
        2    1    3    3  502    0 -0.12880701782E+04  0.10047092159E+04 -0.29395301681E+03  0.16598113653E+04  0.25500000920E-02 0.  1.
       -2    1    3    3    0  502  0.12880701782E+04 -0.10047092159E+04 -0.83624820431E+03  0.18351774987E+04  0.25500000920E-02 0. -1.
</event>
<event>
 5   0  0.6426079E-07  0.3276876E+04  0.7818609E-02  0.8168804E-01
       -2   -1    0    0    0  501  0.00000000000E+00  0.00000000000E+00  0.18210718913E+04  0.18210718913E+04  0.25500000920E-02 0.  1.
        2   -1    0    0  501    0  0.00000000000E+00  0.00000000000E+00 -0.14741199607E+04  0.14741199607E+04  0.25500000920E-02 0. -1.
    10030    2    1    2    0    0  0.00000000000E+00  0.00000000000E+00  0.34695193061E+03  0.32951918520E+04  0.32768756002E+04 0.  0.
        4    1    3    3  502    0 -0.76614425734E+03  0.14156247174E+04 -0.13402149370E+03  0.16152194084E+04  0.12699999809E+01 0. -1.
       -4    1    3    3    0  502  0.76614425734E+03 -0.14156247174E+04  0.48097342431E+03  0.16799724436E+04  0.12699999809E+01 0.  1.
</event>
<event>
 5   0  0.6377741E-07  0.3286118E+04  0.7818609E-02  0.8166437E-01
       -2   -1    0    0    0  501  0.00000000000E+00  0.00000000000E+00  0.23607249502E+04  0.23607249502E+04  0.25500000920E-02 0. -1.
        2   -1    0    0  501    0  0.00000000000E+00  0.00000000000E+00 -0.11435650456E+04  0.11435650456E+04  0.25500000920E-02 0.  1.
    10030    2    1    2    0    0  0.00000000000E+00  0.00000000000E+00  0.12171599046E+04  0.35042899958E+04  0.32861177918E+04 0.  0.
        1    1    3    3  502    0 -0.15984924032E+04  0.19859867327E+03  0.26299135059E+03  0.16321102434E+04  0.50400001928E-02 0.  1.
       -1    1    3    3    0  502  0.15984924032E+04 -0.19859867327E+03  0.95416855402E+03  0.18721797525E+04  0.50400001928E-02 0. -1.
</event>
<event>
 5   0  0.2057130E-07  0.3291233E+04  0.7818609E-02  0.8165130E-01
       -1   -1    0    0    0  501  0.00000000000E+00  0.00000000000E+00  0.16867516413E+04  0.16867516413E+04  0.50400001928E-02 0.  1.
        1   -1    0    0  501    0  0.00000000000E+00  0.00000000000E+00 -0.16054844208E+04  0.16054844208E+04  0.50400001928E-02 0. -1.
    10030    2    1    2    0    0  0.00000000000E+00  0.00000000000E+00  0.81267220517E+02  0.32922360621E+04  0.32912328887E+04 0.  0.
        2    1    3    3  502    0 -0.12363479470E+03 -0.11708872661E+04  0.11906757055E+04  0.16745062520E+04  0.25500000920E-02 0.  1.
       -2    1    3    3    0  502  0.12363479470E+03  0.11708872661E+04 -0.11094084849E+04  0.16177298102E+04  0.25500000920E-02 0. -1.
</event>
<event>
 5   0  0.6426079E-07  0.3304365E+04  0.7818609E-02  0.8161786E-01
       -2   -1    0    0    0  501  0.00000000000E+00  0.00000000000E+00  0.13517054209E+04  0.13517054209E+04  0.25500000920E-02 0.  1.
        2   -1    0    0  501    0  0.00000000000E+00  0.00000000000E+00 -0.20194536312E+04  0.20194536312E+04  0.25500000920E-02 0. -1.
    10030    2    1    2    0    0  0.00000000000E+00  0.00000000000E+00 -0.66774821029E+03  0.33711590521E+04  0.33043646412E+04 0.  0.
        4    1    3    3  502    0 -0.18853242016E+03  0.15677557954E+04 -0.82980945732E+03  0.17838127861E+04  0.12699999809E+01 0. -1.
       -4    1    3    3    0  502  0.18853242016E+03 -0.15677557954E+04  0.16206124703E+03  0.15873462660E+04  0.12699999809E+01 0.  1.
</event>
<event>
 5   0  0.6351753E-07  0.3319058E+04  0.7818609E-02  0.8158063E-01
       -2   -1    0    0    0  501  0.00000000000E+00  0.00000000000E+00  0.14212600375E+04  0.14212600375E+04  0.25500000920E-02 0. -1.
        2   -1    0    0  501    0  0.00000000000E+00  0.00000000000E+00 -0.19377430639E+04  0.19377430639E+04  0.25500000920E-02 0.  1.
    10030    2    1    2    0    0  0.00000000000E+00  0.00000000000E+00 -0.51648302635E+03  0.33590031014E+04  0.33190581674E+04 0.  0.
        3    1    3    3  502    0  0.12884538374E+04 -0.99668325728E+03 -0.57914753012E+03  0.17288443187E+04  0.10100000352E+00 0. -1.
       -3    1    3    3    0  502 -0.12884538374E+04  0.99668325728E+03  0.62664503769E+02  0.16301587827E+04  0.10100000352E+00 0.  1.
</event>
<event>
 5   0  0.2037333E-07  0.3284128E+04  0.7818609E-02  0.8166946E-01
       -1   -1    0    0    0  501  0.00000000000E+00  0.00000000000E+00  0.17334553879E+04  0.17334553879E+04  0.50400001928E-02 0. -1.
        1   -1    0    0  501    0  0.00000000000E+00  0.00000000000E+00 -0.15554913481E+04  0.15554913481E+04  0.50400001928E-02 0.  1.
    10030    2    1    2    0    0  0.00000000000E+00  0.00000000000E+00  0.17796403982E+03  0.32889467360E+04  0.32841284130E+04 0.  0.
        3    1    3    3  502    0 -0.44176052734E+03  0.88894952302E+03 -0.12209857237E+04  0.15735913591E+04  0.10100000352E+00 0.  1.
       -3    1    3    3    0  502  0.44176052734E+03 -0.88894952302E+03  0.13989497635E+04  0.17153553769E+04  0.10100000352E+00 0. -1.
</event>
<event>
 5   0  0.6258718E-07  0.3290615E+04  0.7818609E-02  0.8165287E-01
       -2   -1    0    0    0  501  0.00000000000E+00  0.00000000000E+00  0.15611390367E+04  0.15611390367E+04  0.25500000920E-02 0. -1.
        2   -1    0    0  501    0  0.00000000000E+00  0.00000000000E+00 -0.17340142632E+04  0.17340142632E+04  0.25500000920E-02 0.  1.
    10030    2    1    2    0    0  0.00000000000E+00  0.00000000000E+00 -0.17287522651E+03  0.32951532998E+04  0.32906153567E+04 0.  0.
        5    1    3    3  502    0  0.80263417581E+03 -0.14357268172E+04 -0.12498944082E+03  0.16495992132E+04  0.46999998093E+01 0.  1.
       -5    1    3    3    0  502 -0.80263417581E+03  0.14357268172E+04 -0.47885785687E+02  0.16455540867E+04  0.46999998093E+01 0. -1.
</event>
<event>
 5   0  0.2080770E-07  0.3310811E+04  0.7818609E-02  0.8160150E-01
       -1   -1    0    0    0  501  0.00000000000E+00  0.00000000000E+00  0.15410888354E+04  0.15410888354E+04  0.50400001928E-02 0.  1.
        1   -1    0    0  501    0  0.00000000000E+00  0.00000000000E+00 -0.17782016099E+04  0.17782016099E+04  0.50400001928E-02 0. -1.
    10030    2    1    2    0    0  0.00000000000E+00  0.00000000000E+00 -0.23711277445E+03  0.33192904453E+04  0.33108105643E+04 0.  0.
        4    1    3    3  502    0 -0.21488390529E+03  0.13682776346E+04  0.79041138454E+03  0.15947133121E+04  0.12699999809E+01 0.  1.
       -4    1    3    3    0  502  0.21488390529E+03 -0.13682776346E+04 -0.10275241590E+04  0.17245771332E+04  0.12699999809E+01 0. -1.
</event>
<event>
 5   0  0.6377741E-07  0.3305303E+04  0.7818609E-02  0.8161547E-01
       -2   -1    0    0    0  501  0.00000000000E+00  0.00000000000E+00  0.12006493694E+04  0.12006493694E+04  0.25500000920E-02 0. -1.
        2   -1    0    0  501    0  0.00000000000E+00  0.00000000000E+00 -0.22748159636E+04  0.22748159636E+04  0.25500000920E-02 0.  1.
    10030    2    1    2    0    0  0.00000000000E+00  0.00000000000E+00 -0.10741665941E+04  0.34754653330E+04  0.33053026199E+04 0.  0.
        1    1    3    3  502    0  0.10101752228E+04 -0.16953287530E+03 -0.19007951040E+04  0.21592168497E+04  0.50400001928E-02 0.  1.
       -1    1    3    3    0  502 -0.10101752228E+04  0.16953287530E+03  0.82662850985E+03  0.13162484833E+04  0.50400001928E-02 0. -1.
</event>
<event>
 5   0  0.6424183E-07  0.3294365E+04  0.7818609E-02  0.8164331E-01
        2   -1    0    0  501    0  0.00000000000E+00  0.00000000000E+00  0.18601077686E+04  0.18601077686E+04  0.25500000920E-02 0. -1.
       -2   -1    0    0    0  501  0.00000000000E+00  0.00000000000E+00 -0.14586302051E+04  0.14586302051E+04  0.25500000920E-02 0.  1.
    10030    2    1    2    0    0  0.00000000000E+00  0.00000000000E+00  0.40147756357E+03  0.33187379737E+04  0.32943645069E+04 0.  0.
        2    1    3    3  502    0 -0.58206870142E+03 -0.81271706171E+03 -0.11181057263E+04  0.14998244600E+04  0.25500000920E-02 0.  1.
       -2    1    3    3    0  502  0.58206870142E+03  0.81271706171E+03  0.15195832899E+04  0.18189135137E+04  0.25500000920E-02 0. -1.
</event>
<event>
 5   0  0.2087665E-07  0.3299129E+04  0.7818609E-02  0.8163117E-01
       -1   -1    0    0    0  501  0.00000000000E+00  0.00000000000E+00  0.11452691006E+04  0.11452691006E+04  0.50400001928E-02 0. -1.
        1   -1    0    0  501    0  0.00000000000E+00  0.00000000000E+00 -0.23759161516E+04  0.23759161516E+04  0.50400001928E-02 0.  1.
    10030    2    1    2    0    0  0.00000000000E+00  0.00000000000E+00 -0.12306470510E+04  0.35211852522E+04  0.32991291906E+04 0.  0.
        5    1    3    3  502    0 -0.13478381239E+04  0.37602671223E+02 -0.16295238250E+04  0.21150535585E+04  0.46999998093E+01 0.  1.
       -5    1    3    3    0  502  0.13478381239E+04 -0.37602671223E+02  0.39887677394E+03  0.14061316937E+04  0.46999998093E+01 0. -1.
</event>
<event>
 5   0  0.6426079E-07  0.3314448E+04  0.7818609E-02  0.8159229E-01
       -2   -1    0    0    0  501  0.00000000000E+00  0.00000000000E+00  0.15556475872E+04  0.15556475872E+04  0.25500000920E-02 0. -1.
        2   -1    0    0  501    0  0.00000000000E+00  0.00000000000E+00 -0.17654325918E+04  0.17654325918E+04  0.25500000920E-02 0.  1.
    10030    2    1    2    0    0  0.00000000000E+00  0.00000000000E+00 -0.20978500458E+03  0.33210801789E+04  0.33144477378E+04 0.  0.
        4    1    3    3  502    0 -0.16380219557E+04  0.24126788426E+03 -0.33593810829E+02  0.16560363149E+04  0.12699999809E+01 0. -1.
       -4    1    3    3    0  502  0.16380219557E+04 -0.24126788426E+03 -0.17619119375E+03  0.16650438640E+04  0.12699999809E+01 0.  1.
</event>
<event>
 5   0  0.6258718E-07  0.3291076E+04  0.7818609E-02  0.8165170E-01
        2   -1    0    0  501    0  0.00000000000E+00  0.00000000000E+00  0.22151973364E+04  0.22151973364E+04  0.25500000920E-02 0. -1.
       -2   -1    0    0    0  501  0.00000000000E+00  0.00000000000E+00 -0.12223722629E+04  0.12223722629E+04  0.25500000920E-02 0.  1.
    10030    2    1    2    0    0  0.00000000000E+00  0.00000000000E+00  0.99282507344E+03  0.34375695993E+04  0.32910762865E+04 0.  0.
        5    1    3    3  502    0  0.95398466120E+03 -0.50062859977E+03  0.17955851091E+04  0.20940066147E+04  0.46999998093E+01 0. -1.
       -5    1    3    3    0  502 -0.95398466120E+03  0.50062859977E+03 -0.80276003563E+03  0.13435629846E+04  0.46999998093E+01 0.  1.
</event>
<event>
 5   0  0.2080770E-07  0.3381511E+04  0.7818609E-02  0.8142459E-01
       -1   -1    0    0    0  501  0.00000000000E+00  0.00000000000E+00  0.19446639149E+04  0.19446639149E+04  0.50400001928E-02 0. -1.
        1   -1    0    0  501    0  0.00000000000E+00  0.00000000000E+00 -0.14699993547E+04  0.14699993547E+04  0.50400001928E-02 0.  1.
    10030    2    1    2    0    0  0.00000000000E+00  0.00000000000E+00  0.47466456018E+03  0.34146632696E+04  0.33815113189E+04 0.  0.
        4    1    3    3  502    0 -0.22264306524E+03 -0.14391806007E+04 -0.63006654046E+03  0.15867565013E+04  0.12699999809E+01 0.  1.
       -4    1    3    3    0  502  0.22264306524E+03  0.14391806007E+04  0.11047311006E+04  0.18279067683E+04  0.12699999809E+01 0. -1.
</event>
<event>
 5   0  0.6351753E-07  0.3275877E+04  0.7818609E-02  0.8169061E-01
       -2   -1    0    0    0  501  0.00000000000E+00  0.00000000000E+00  0.26140719612E+04  0.26140719612E+04  0.25500000920E-02 0. -1.
        2   -1    0    0  501    0  0.00000000000E+00  0.00000000000E+00 -0.10263079023E+04  0.10263079024E+04  0.25500000920E-02 0.  1.
    10030    2    1    2    0    0  0.00000000000E+00  0.00000000000E+00  0.15877640588E+04  0.36403798635E+04  0.32758771107E+04 0.  0.
        3    1    3    3  502    0  0.88398173008E+03  0.36867017125E+03 -0.68268485320E+03  0.11761802639E+04  0.10100000352E+00 0.  1.
       -3    1    3    3    0  502 -0.88398173008E+03 -0.36867017125E+03  0.22704489120E+04  0.24641995996E+04  0.10100000352E+00 0. -1.
</event>
<event>
 5   0  0.1994250E-07  0.3267814E+04  0.7818609E-02  0.8171134E-01
        3   -1    0    0  501    0  0.00000000000E+00  0.00000000000E+00  0.21523330593E+04  0.21523330616E+04  0.10100000352E+00 0. -1.
       -3   -1    0    0    0  501  0.00000000000E+00  0.00000000000E+00 -0.12403523816E+04  0.12403523857E+04  0.10100000352E+00 0.  1.
    10030    2    1    2    0    0  0.00000000000E+00  0.00000000000E+00  0.91198067772E+03  0.33926854473E+04  0.32678136097E+04 0.  0.
        1    1    3    3  502    0  0.72882495145E+03  0.13882751159E+04  0.93306892516E+03  0.18245852204E+04  0.50400001928E-02 0. -1.
       -1    1    3    3    0  502 -0.72882495145E+03 -0.13882751159E+04 -0.21088247439E+02  0.15681002269E+04  0.50400001928E-02 0.  1.
</event>
<event>
 5   0  0.2037333E-07  0.3306094E+04  0.7818609E-02  0.8161347E-01
       -1   -1    0    0    0  501  0.00000000000E+00  0.00000000000E+00  0.11532618750E+04  0.11532618750E+04  0.50400001928E-02 0. -1.
        1   -1    0    0  501    0  0.00000000000E+00  0.00000000000E+00 -0.23694222246E+04  0.23694222246E+04  0.50400001928E-02 0.  1.
    10030    2    1    2    0    0  0.00000000000E+00  0.00000000000E+00 -0.12161603496E+04  0.35226840996E+04  0.33060939596E+04 0.  0.
        3    1    3    3  502    0 -0.34655394905E+03 -0.12004101886E+04 -0.17613367913E+04  0.21594887272E+04  0.10100000352E+00 0.  1.
       -3    1    3    3    0  502  0.34655394905E+03  0.12004101886E+04  0.54517644174E+03  0.13631953724E+04  0.10100000352E+00 0. -1.
</event>
<event>
 5   0  0.2037333E-07  0.3302764E+04  0.7818609E-02  0.8162192E-01
        1   -1    0    0  501    0  0.00000000000E+00  0.00000000000E+00  0.12491753218E+04  0.12491753218E+04  0.50400001928E-02 0. -1.
       -1   -1    0    0    0  501  0.00000000000E+00  0.00000000000E+00 -0.21830904346E+04  0.21830904346E+04  0.50400001928E-02 0.  1.
    10030    2    1    2    0    0  0.00000000000E+00  0.00000000000E+00 -0.93391511280E+03  0.34322657565E+04  0.33027641129E+04 0.  0.
        3    1    3    3  502    0 -0.13278639920E+04 -0.50090394690E+03  0.41050453182E+03  0.14773765688E+04  0.10100000352E+00 0. -1.
       -3    1    3    3    0  502  0.13278639920E+04  0.50090394690E+03 -0.13444196446E+04  0.19548891877E+04  0.10100000352E+00 0.  1.
</event>
<event>
 5   0  0.2080828E-07  0.3293053E+04  0.7818609E-02  0.8164665E-01
        1   -1    0    0  501    0  0.00000000000E+00  0.00000000000E+00  0.14778004143E+04  0.14778004143E+04  0.50400001928E-02 0.  1.
       -1   -1    0    0    0  501  0.00000000000E+00  0.00000000000E+00 -0.18345172193E+04  0.18345172194E+04  0.50400001928E-02 0. -1.
    10030    2    1    2    0    0  0.00000000000E+00  0.00000000000E+00 -0.35671680509E+03  0.33123176336E+04  0.32930534807E+04 0.  0.
        1    1    3    3  502    0 -0.51609551336E+03  0.52086421878E+03 -0.16612269163E+04  0.18158548898E+04  0.50400001928E-02 0. -1.
       -1    1    3    3    0  502  0.51609551336E+03 -0.52086421878E+03  0.13045101112E+04  0.14964627438E+04  0.50400001928E-02 0.  1.
</event>
<event>
 5   0  0.6351753E-07  0.3302543E+04  0.7818609E-02  0.8162249E-01
       -2   -1    0    0    0  501  0.00000000000E+00  0.00000000000E+00  0.97847225954E+03  0.97847225954E+03  0.25500000920E-02 0. -1.
        2   -1    0    0  501    0  0.00000000000E+00  0.00000000000E+00 -0.27866894051E+04  0.27866894051E+04  0.25500000920E-02 0.  1.
    10030    2    1    2    0    0  0.00000000000E+00  0.00000000000E+00 -0.18082171455E+04  0.37651616646E+04  0.33025434313E+04 0.  0.
        3    1    3    3  502    0  0.11284237463E+04  0.97410231499E+03 -0.17138722112E+04  0.22714694446E+04  0.10100000352E+00 0. -1.
       -3    1    3    3    0  502 -0.11284237463E+04 -0.97410231499E+03 -0.94344934359E+02  0.14936922200E+04  0.10100000352E+00 0.  1.
</event>
<event>
 5   0  0.6351753E-07  0.3384222E+04  0.7818609E-02  0.8141790E-01
       -2   -1    0    0    0  501  0.00000000000E+00  0.00000000000E+00  0.11409170738E+04  0.11409170738E+04  0.25500000920E-02 0.  1.
        2   -1    0    0  501    0  0.00000000000E+00  0.00000000000E+00 -0.25095950835E+04  0.25095950835E+04  0.25500000920E-02 0. -1.
    10030    2    1    2    0    0  0.00000000000E+00  0.00000000000E+00 -0.13686780097E+04  0.36505121573E+04  0.33842221435E+04 0.  0.
        3    1    3    3  502    0  0.11998716308E+04  0.11919522422E+04 -0.74139516859E+03  0.18466480131E+04  0.10100000352E+00 0.  1.
       -3    1    3    3    0  502 -0.11998716308E+04 -0.11919522422E+04 -0.62728284113E+03  0.18038641443E+04  0.10100000352E+00 0. -1.
</event>
<event>
 5   0  0.6258718E-07  0.3271917E+04  0.7818609E-02  0.8170078E-01
       -2   -1    0    0    0  501  0.00000000000E+00  0.00000000000E+00  0.21603846772E+04  0.21603846772E+04  0.25500000920E-02 0. -1.
        2   -1    0    0  501    0  0.00000000000E+00  0.00000000000E+00 -0.12388353594E+04  0.12388353594E+04  0.25500000920E-02 0.  1.
    10030    2    1    2    0    0  0.00000000000E+00  0.00000000000E+00  0.92154931781E+03  0.33992200365E+04  0.32719174365E+04 0.  0.
        5    1    3    3  502    0 -0.95880477722E+02  0.89914839829E+03  0.18771521386E+04  0.20835986057E+04  0.46999998093E+01 0. -1.
       -5    1    3    3    0  502  0.95880477722E+02 -0.89914839829E+03 -0.95560282080E+03  0.13156214308E+04  0.46999998093E+01 0.  1.
</event>
<event>
 5   0  0.2080770E-07  0.3294186E+04  0.7818609E-02  0.8164376E-01
        1   -1    0    0  501    0  0.00000000000E+00  0.00000000000E+00  0.15968665169E+04  0.15968665169E+04  0.50400001928E-02 0. -1.
       -1   -1    0    0    0  501  0.00000000000E+00  0.00000000000E+00 -0.16988993120E+04  0.16988993121E+04  0.50400001928E-02 0.  1.
    10030    2    1    2    0    0  0.00000000000E+00  0.00000000000E+00 -0.10203279517E+03  0.32957658289E+04  0.32941860463E+04 0.  0.
        4    1    3    3  502    0  0.16039645543E+04  0.27311423428E+03 -0.30730352409E+03  0.16558172439E+04  0.12699999809E+01 0.  1.
       -4    1    3    3    0  502 -0.16039645543E+04 -0.27311423428E+03  0.20527072892E+03  0.16399485850E+04  0.12699999809E+01 0. -1.
</event>
<event>
 5   0  0.2080828E-07  0.3308381E+04  0.7818609E-02  0.8160766E-01
       -1   -1    0    0    0  501  0.00000000000E+00  0.00000000000E+00  0.15723071867E+04  0.15723071867E+04  0.50400001928E-02 0. -1.
        1   -1    0    0  501    0  0.00000000000E+00  0.00000000000E+00 -0.17403378945E+04  0.17403378945E+04  0.50400001928E-02 0.  1.
    10030    2    1    2    0    0  0.00000000000E+00  0.00000000000E+00 -0.16803070778E+03  0.33126450812E+04  0.33083807392E+04 0.  0.
        1    1    3    3  502    0  0.83461149330E+01 -0.98408420784E+03 -0.14153360091E+04  0.17238524892E+04  0.50400001928E-02 0.  1.
       -1    1    3    3    0  502 -0.83461149330E+01  0.98408420784E+03  0.12473053013E+04  0.15887925920E+04  0.50400001928E-02 0. -1.
</event>
<event>
 5   0  0.6424183E-07  0.3303667E+04  0.7818609E-02  0.8161963E-01
       -2   -1    0    0    0  501  0.00000000000E+00  0.00000000000E+00  0.17587906879E+04  0.17587906879E+04  0.25500000920E-02 0.  1.
        2   -1    0    0  501    0  0.00000000000E+00  0.00000000000E+00 -0.15513804963E+04  0.15513804963E+04  0.25500000920E-02 0. -1.
    10030    2    1    2    0    0  0.00000000000E+00  0.00000000000E+00  0.20741019156E+03  0.33101711842E+04  0.33036667933E+04 0.  0.
        2    1    3    3  502    0 -0.13655833955E+04 -0.29457653747E+03  0.98689400877E+03  0.17104248394E+04  0.25500000920E-02 0.  1.
       -2    1    3    3    0  502  0.13655833955E+04  0.29457653747E+03 -0.77948381721E+03  0.15997463448E+04  0.25500000920E-02 0. -1.
</event>
<event>
 5   0  0.6351753E-07  0.3279961E+04  0.7818609E-02  0.8168013E-01
        2   -1    0    0  501    0  0.00000000000E+00  0.00000000000E+00  0.24691399810E+04  0.24691399810E+04  0.25500000920E-02 0. -1.
       -2   -1    0    0    0  501  0.00000000000E+00  0.00000000000E+00 -0.10892604405E+04  0.10892604405E+04  0.25500000920E-02 0.  1.
    10030    2    1    2    0    0  0.00000000000E+00  0.00000000000E+00  0.13798795406E+04  0.35584004215E+04  0.32799612823E+04 0.  0.
        3    1    3    3  502    0 -0.49703235802E+03  0.15624645528E+04  0.65236040172E+03  0.17646276513E+04  0.10100000352E+00 0. -1.
       -3    1    3    3    0  502  0.49703235802E+03 -0.15624645528E+04  0.72751913885E+03  0.17937727703E+04  0.10100000352E+00 0.  1.
</event>
<event>
 5   0  0.2080828E-07  0.3302188E+04  0.7818609E-02  0.8162339E-01
       -1   -1    0    0    0  501  0.00000000000E+00  0.00000000000E+00  0.16894710366E+04  0.16894710366E+04  0.50400001928E-02 0.  1.
        1   -1    0    0  501    0  0.00000000000E+00  0.00000000000E+00 -0.16135883960E+04  0.16135883960E+04  0.50400001928E-02 0. -1.
    10030    2    1    2    0    0  0.00000000000E+00  0.00000000000E+00  0.75882640635E+02  0.33030594326E+04  0.33021876748E+04 0.  0.
        1    1    3    3  502    0 -0.41251320920E+03 -0.15910119076E+04 -0.11902308772E+03  0.16479237037E+04  0.50400001928E-02 0. -1.
       -1    1    3    3    0  502  0.41251320920E+03  0.15910119076E+04  0.19490572836E+03  0.16551357288E+04  0.50400001928E-02 0.  1.
</event>
<event>
 5   0  0.6258718E-07  0.3304575E+04  0.7818609E-02  0.8161732E-01
       -2   -1    0    0    0  501  0.00000000000E+00  0.00000000000E+00  0.13187465315E+04  0.13187465315E+04  0.25500000920E-02 0. -1.
        2   -1    0    0  501    0  0.00000000000E+00  0.00000000000E+00 -0.20701891712E+04  0.20701891712E+04  0.25500000920E-02 0.  1.
    10030    2    1    2    0    0  0.00000000000E+00  0.00000000000E+00 -0.75144263965E+03  0.33889357027E+04  0.33045754881E+04 0.  0.
        5    1    3    3  502    0  0.88358834793E+03 -0.25239286343E+03 -0.17839483855E+04  0.20067198255E+04  0.46999998093E+01 0.  1.
       -5    1    3    3    0  502 -0.88358834793E+03  0.25239286343E+03  0.10325057458E+04  0.13822158772E+04  0.46999998093E+01 0. -1.
</event>
<event>
 5   0  0.2080828E-07  0.3282837E+04  0.7818609E-02  0.8167276E-01
       -1   -1    0    0    0  501  0.00000000000E+00  0.00000000000E+00  0.13528943216E+04  0.13528943216E+04  0.50400001928E-02 0.  1.
        1   -1    0    0  501    0  0.00000000000E+00  0.00000000000E+00 -0.19914744634E+04  0.19914744634E+04  0.50400001928E-02 0. -1.
    10030    2    1    2    0    0  0.00000000000E+00  0.00000000000E+00 -0.63858014180E+03  0.33443687850E+04  0.32828368787E+04 0.  0.
        1    1    3    3  502    0  0.41527882339E+03  0.12848006744E+04  0.63152308002E+03  0.14906343196E+04  0.50400001928E-02 0.  1.
       -1    1    3    3    0  502 -0.41527882339E+03 -0.12848006744E+04 -0.12701032218E+04  0.18537344654E+04  0.50400001928E-02 0. -1.
</event>
<event>
 5   0  0.2087665E-07  0.3292827E+04  0.7818609E-02  0.8164723E-01
        1   -1    0    0  501    0  0.00000000000E+00  0.00000000000E+00  0.23730520931E+04  0.23730520931E+04  0.50400001928E-02 0.  1.
       -1   -1    0    0    0  501  0.00000000000E+00  0.00000000000E+00 -0.11422746421E+04  0.11422746421E+04  0.50400001928E-02 0. -1.
    10030    2    1    2    0    0  0.00000000000E+00  0.00000000000E+00  0.12307774510E+04  0.35153267353E+04  0.32928268891E+04 0.  0.
        5    1    3    3  502    0 -0.10348941100E+04  0.98418268749E+03  0.14899071878E+04  0.20638475960E+04  0.46999998093E+01 0.  1.
       -5    1    3    3    0  502  0.10348941100E+04 -0.98418268749E+03 -0.25912973680E+03  0.14514791393E+04  0.46999998093E+01 0. -1.
</event>
<event>
 5   0  0.6424183E-07  0.3308892E+04  0.7818609E-02  0.8160637E-01
        2   -1    0    0  501    0  0.00000000000E+00  0.00000000000E+00  0.25005598173E+04  0.25005598173E+04  0.25500000920E-02 0.  1.
       -2   -1    0    0    0  501  0.00000000000E+00  0.00000000000E+00 -0.10946313676E+04  0.10946313677E+04  0.25500000920E-02 0. -1.
    10030    2    1    2    0    0  0.00000000000E+00  0.00000000000E+00  0.14059284496E+04  0.35951911849E+04  0.33088917859E+04 0.  0.
        2    1    3    3  502    0  0.10336244219E+04  0.35566575246E+03 -0.64638938648E+03  0.12699200022E+04  0.25500000920E-02 0. -1.
       -2    1    3    3    0  502 -0.10336244219E+04 -0.35566575246E+03  0.20523178361E+04  0.23252711828E+04  0.25500000920E-02 0.  1.
</event>
<event>
 5   0  0.2080828E-07  0.3294537E+04  0.7818609E-02  0.8164287E-01
       -1   -1    0    0    0  501  0.00000000000E+00  0.00000000000E+00  0.98008486232E+03  0.98008486233E+03  0.50400001928E-02 0. -1.
        1   -1    0    0  501    0  0.00000000000E+00  0.00000000000E+00 -0.27686311625E+04  0.27686311625E+04  0.50400001928E-02 0.  1.
    10030    2    1    2    0    0  0.00000000000E+00  0.00000000000E+00 -0.17885463002E+04  0.37487160249E+04  0.32945369883E+04 0.  0.
        1    1    3    3  502    0  0.13228833254E+04  0.86967883250E+03 -0.37641397141E+03  0.16272827173E+04  0.50400001928E-02 0.  1.
       -1    1    3    3    0  502 -0.13228833254E+04 -0.86967883250E+03 -0.14121323288E+04  0.21214333075E+04  0.50400001928E-02 0. -1.
</event>
<event>
 5   0  0.2057130E-07  0.3298153E+04  0.7818609E-02  0.8163366E-01
       -1   -1    0    0    0  501  0.00000000000E+00  0.00000000000E+00  0.14896692247E+04  0.14896692247E+04  0.50400001928E-02 0. -1.
        1   -1    0    0  501    0  0.00000000000E+00  0.00000000000E+00 -0.18255413494E+04  0.18255413494E+04  0.50400001928E-02 0.  1.
    10030    2    1    2    0    0  0.00000000000E+00  0.00000000000E+00 -0.33587212469E+03  0.33152105741E+04  0.32981526749E+04 0.  0.
        2    1    3    3  502    0 -0.92378847803E+03  0.12572889127E+04 -0.70482606334E+03  0.17119989316E+04  0.25500000920E-02 0.  1.
       -2    1    3    3    0  502  0.92378847803E+03 -0.12572889127E+04  0.36895393865E+03  0.16032116426E+04  0.25500000920E-02 0. -1.
</event>
<event>
 5   0  0.6258718E-07  0.3197720E+04  0.7818609E-02  0.8189420E-01
       -2   -1    0    0    0  501  0.00000000000E+00  0.00000000000E+00  0.10256316166E+04  0.10256316166E+04  0.25500000920E-02 0.  1.
        2   -1    0    0  501    0  0.00000000000E+00  0.00000000000E+00 -0.24924670487E+04  0.24924670487E+04  0.25500000920E-02 0. -1.
    10030    2    1    2    0    0  0.00000000000E+00  0.00000000000E+00 -0.14668354322E+04  0.35180986653E+04  0.31977198179E+04 0.  0.
        5    1    3    3  502    0  0.11098748029E+04  0.55802435744E+03 -0.18407999427E+04  0.22207610814E+04  0.46999998093E+01 0. -1.
       -5    1    3    3    0  502 -0.11098748029E+04 -0.55802435744E+03  0.37396451054E+03  0.12973375839E+04  0.46999998093E+01 0.  1.
</event>
<event>
 5   0  0.6426079E-07  0.3292853E+04  0.7818609E-02  0.8164716E-01
        2   -1    0    0  501    0  0.00000000000E+00  0.00000000000E+00  0.18763412331E+04  0.18763412331E+04  0.25500000920E-02 0.  1.
       -2   -1    0    0    0  501  0.00000000000E+00  0.00000000000E+00 -0.14446841139E+04  0.14446841139E+04  0.25500000920E-02 0. -1.
    10030    2    1    2    0    0  0.00000000000E+00  0.00000000000E+00  0.43165711919E+03  0.33210253470E+04  0.32928530922E+04 0.  0.
        4    1    3    3  502    0 -0.14880743073E+04 -0.30532365218E+03 -0.42452964304E+03  0.15772807953E+04  0.12699999809E+01 0. -1.
       -4    1    3    3    0  502  0.14880743073E+04  0.30532365218E+03  0.85618676222E+03  0.17437445516E+04  0.12699999809E+01 0.  1.
</event>
<event>
 5   0  0.2057130E-07  0.3280513E+04  0.7818609E-02  0.8167872E-01
        1   -1    0    0  501    0  0.00000000000E+00  0.00000000000E+00  0.19778357446E+04  0.19778357446E+04  0.50400001928E-02 0. -1.
       -1   -1    0    0    0  501  0.00000000000E+00  0.00000000000E+00 -0.13602952963E+04  0.13602952963E+04  0.50400001928E-02 0.  1.
    10030    2    1    2    0    0  0.00000000000E+00  0.00000000000E+00  0.61754044827E+03  0.33381310409E+04  0.32805125576E+04 0.  0.
        2    1    3    3  502    0  0.57297331176E+03 -0.84134080075E+03 -0.10000115047E+04  0.14269463089E+04  0.25500000920E-02 0.  1.
       -2    1    3    3    0  502 -0.57297331176E+03  0.84134080075E+03  0.16175519530E+04  0.19111847319E+04  0.25500000920E-02 0. -1.
</event>
<event>
 5   0  0.2037333E-07  0.3253478E+04  0.7818609E-02  0.8174835E-01
        1   -1    0    0  501    0  0.00000000000E+00  0.00000000000E+00  0.14402965041E+04  0.14402965041E+04  0.50400001928E-02 0.  1.
       -1   -1    0    0    0  501  0.00000000000E+00  0.00000000000E+00 -0.18373156976E+04  0.18373156976E+04  0.50400001928E-02 0. -1.
    10030    2    1    2    0    0  0.00000000000E+00  0.00000000000E+00 -0.39701919349E+03  0.32776122016E+04  0.32534777553E+04 0.  0.
        3    1    3    3  502    0 -0.27256038151E+03  0.12058271549E+04  0.86667532457E+03  0.15097795924E+04  0.10100000352E+00 0.  1.
       -3    1    3    3    0  502  0.27256038151E+03 -0.12058271549E+04 -0.12636945181E+04  0.17678326093E+04  0.10100000352E+00 0. -1.
</event>
<event>
 5   0  0.2057130E-07  0.3308569E+04  0.7818609E-02  0.8160718E-01
       -1   -1    0    0    0  501  0.00000000000E+00  0.00000000000E+00  0.11656206611E+04  0.11656206611E+04  0.50400001928E-02 0. -1.
        1   -1    0    0  501    0  0.00000000000E+00  0.00000000000E+00 -0.23478117470E+04  0.23478117470E+04  0.50400001928E-02 0.  1.
    10030    2    1    2    0    0  0.00000000000E+00  0.00000000000E+00 -0.11821910858E+04  0.35134324081E+04  0.33085694073E+04 0.  0.
        2    1    3    3  502    0 -0.11531434515E+04 -0.10579568151E+04 -0.21560961948E+02  0.15650806106E+04  0.25500000920E-02 0. -1.
       -2    1    3    3    0  502  0.11531434515E+04  0.10579568151E+04 -0.11606301239E+04  0.19483517975E+04  0.25500000920E-02 0.  1.
</event>
<event>
 5   0  0.6351753E-07  0.3300916E+04  0.7818609E-02  0.8162662E-01
        2   -1    0    0  501    0  0.00000000000E+00  0.00000000000E+00  0.18337557399E+04  0.18337557399E+04  0.25500000920E-02 0. -1.
       -2   -1    0    0    0  501  0.00000000000E+00  0.00000000000E+00 -0.14854826342E+04  0.14854826342E+04  0.25500000920E-02 0.  1.
    10030    2    1    2    0    0  0.00000000000E+00  0.00000000000E+00  0.34827310564E+03  0.33192383741E+04  0.33009164225E+04 0.  0.
        3    1    3    3  502    0  0.10344724566E+04 -0.12128807574E+04 -0.25578694304E+03  0.16145092027E+04  0.10100000352E+00 0.  1.
       -3    1    3    3    0  502 -0.10344724566E+04  0.12128807574E+04  0.60406004868E+03  0.17047291714E+04  0.10100000352E+00 0. -1.
</event>
<event>
 5   0  0.1994250E-07  0.3255873E+04  0.7818609E-02  0.8174215E-01
        3   -1    0    0  501    0  0.00000000000E+00  0.00000000000E+00  0.17235574823E+04  0.17235574853E+04  0.10100000352E+00 0.  1.
       -3   -1    0    0    0  501  0.00000000000E+00  0.00000000000E+00 -0.15376207970E+04  0.15376208003E+04  0.10100000352E+00 0. -1.
    10030    2    1    2    0    0  0.00000000000E+00  0.00000000000E+00  0.18593668530E+03  0.32611782856E+04  0.32558733636E+04 0.  0.
        3    1    3    3  502    0  0.13817393725E+03 -0.11029229490E+04  0.12842954999E+04  0.16985128818E+04  0.10100000352E+00 0.  1.
       -3    1    3    3    0  502 -0.13817393725E+03  0.11029229490E+04 -0.10983588146E+04  0.15626654038E+04  0.10100000352E+00 0. -1.
</event>
<event>
 5   0  0.2080770E-07  0.3290638E+04  0.7818609E-02  0.8165282E-01
       -1   -1    0    0    0  501  0.00000000000E+00  0.00000000000E+00  0.14145152710E+04  0.14145152710E+04  0.50400001928E-02 0. -1.
        1   -1    0    0  501    0  0.00000000000E+00  0.00000000000E+00 -0.19137829731E+04  0.19137829731E+04  0.50400001928E-02 0.  1.
    10030    2    1    2    0    0  0.00000000000E+00  0.00000000000E+00 -0.49926770211E+03  0.33282982441E+04  0.32906383823E+04 0.  0.
        4    1    3    3  502    0  0.11938629847E+04 -0.11317567180E+04 -0.21943358664E+03  0.16596188740E+04  0.12699999809E+01 0. -1.
       -4    1    3    3    0  502 -0.11938629847E+04  0.11317567180E+04 -0.27983411547E+03  0.16686793701E+04  0.12699999809E+01 0.  1.
</event>
<event>
 5   0  0.2037333E-07  0.3221843E+04  0.7818609E-02  0.8183072E-01
       -1   -1    0    0    0  501  0.00000000000E+00  0.00000000000E+00  0.10884909047E+04  0.10884909047E+04  0.50400001928E-02 0.  1.
        1   -1    0    0  501    0  0.00000000000E+00  0.00000000000E+00 -0.23840971229E+04  0.23840971230E+04  0.50400001928E-02 0. -1.
    10030    2    1    2    0    0  0.00000000000E+00  0.00000000000E+00 -0.12956062183E+04  0.34725880277E+04  0.32218429721E+04 0.  0.
        3    1    3    3  502    0 -0.82433586391E+03 -0.94472181490E+03 -0.17379750758E+04  0.21430320339E+04  0.10100000352E+00 0. -1.
       -3    1    3    3    0  502  0.82433586391E+03  0.94472181490E+03  0.44236885758E+03  0.13295559937E+04  0.10100000352E+00 0.  1.
</event>
<event>
 5   0  0.6377741E-07  0.3316180E+04  0.7818609E-02  0.8158791E-01
       -2   -1    0    0    0  501  0.00000000000E+00  0.00000000000E+00  0.14074009579E+04  0.14074009579E+04  0.25500000920E-02 0.  1.
        2   -1    0    0  501    0  0.00000000000E+00  0.00000000000E+00 -0.19534324265E+04  0.19534324265E+04  0.25500000920E-02 0. -1.
    10030    2    1    2    0    0  0.00000000000E+00  0.00000000000E+00 -0.54603146864E+03  0.33608333844E+04  0.33161801328E+04 0.  0.
        1    1    3    3  502    0  0.41331017086E+03  0.11961683880E+03  0.13498359111E+04  0.14167534974E+04  0.50400001928E-02 0.  1.
       -1    1    3    3    0  502 -0.41331017086E+03 -0.11961683880E+03 -0.18958673798E+04  0.19440798870E+04  0.50400001928E-02 0. -1.
</event>
<event>
 5   0  0.2080828E-07  0.3310156E+04  0.7818609E-02  0.8160316E-01
       -1   -1    0    0    0  501  0.00000000000E+00  0.00000000000E+00  0.21009355091E+04  0.21009355091E+04  0.50400001928E-02 0.  1.
        1   -1    0    0  501    0  0.00000000000E+00  0.00000000000E+00 -0.13038398897E+04  0.13038398897E+04  0.50400001928E-02 0. -1.
    10030    2    1    2    0    0  0.00000000000E+00  0.00000000000E+00  0.79709561939E+03  0.34047753988E+04  0.33101562032E+04 0.  0.
        1    1    3    3  502    0 -0.43311381594E+03  0.69742654492E+03 -0.10796437842E+04  0.13563266803E+04  0.50400001928E-02 0. -1.
       -1    1    3    3    0  502  0.43311381594E+03 -0.69742654492E+03  0.18767394036E+04  0.20484487184E+04  0.50400001928E-02 0.  1.
</event>
<event>
 5   0  0.6351753E-07  0.3301022E+04  0.7818609E-02  0.8162635E-01
        2   -1    0    0  501    0  0.00000000000E+00  0.00000000000E+00  0.26718228688E+04  0.26718228688E+04  0.25500000920E-02 0.  1.
       -2   -1    0    0    0  501  0.00000000000E+00  0.00000000000E+00 -0.10195987778E+04  0.10195987778E+04  0.25500000920E-02 0. -1.
    10030    2    1    2    0    0  0.00000000000E+00  0.00000000000E+00  0.16522240911E+04  0.36914216466E+04  0.33010224667E+04 0.  0.
        3    1    3    3  502    0 -0.11512301651E+04  0.29624618245E+03  0.21065607745E+04  0.24188201671E+04  0.10100000352E+00 0.  1.
       -3    1    3    3    0  502  0.11512301651E+04 -0.29624618245E+03 -0.45433668342E+03  0.12726014796E+04  0.10100000352E+00 0. -1.
</event>
<event>
 5   0  0.6351753E-07  0.3299423E+04  0.7818609E-02  0.8163042E-01
       -2   -1    0    0    0  501  0.00000000000E+00  0.00000000000E+00  0.12300645379E+04  0.12300645379E+04  0.25500000920E-02 0. -1.
        2   -1    0    0  501    0  0.00000000000E+00  0.00000000000E+00 -0.22125245399E+04  0.22125245399E+04  0.25500000920E-02 0.  1.
    10030    2    1    2    0    0  0.00000000000E+00  0.00000000000E+00 -0.98246000198E+03  0.34425890777E+04  0.32994229651E+04 0.  0.
        3    1    3    3  502    0  0.14957720844E+04 -0.68079330568E+03 -0.34098777577E+03  0.16784178047E+04  0.10100000352E+00 0. -1.
       -3    1    3    3    0  502 -0.14957720844E+04  0.68079330568E+03 -0.64147222621E+03  0.17641712731E+04  0.10100000352E+00 0.  1.
</event>
<event>
 5   0  0.6426079E-07  0.3291631E+04  0.7818609E-02  0.8165028E-01
       -2   -1    0    0    0  501  0.00000000000E+00  0.00000000000E+00  0.16432468956E+04  0.16432468956E+04  0.25500000920E-02 0. -1.
        2   -1    0    0  501    0  0.00000000000E+00  0.00000000000E+00 -0.16483880252E+04  0.16483880252E+04  0.25500000920E-02 0.  1.
    10030    2    1    2    0    0  0.00000000000E+00  0.00000000000E+00 -0.51411296409E+01  0.32916349208E+04  0.32916309059E+04 0.  0.
        4    1    3    3  502    0 -0.76559951864E+03  0.11414223843E+04 -0.90795512936E+03  0.16472315600E+04  0.12699999809E+01 0.  1.
       -4    1    3    3    0  502  0.76559951864E+03 -0.11414223843E+04  0.90281399972E+03  0.16444033609E+04  0.12699999809E+01 0. -1.
</event>
<event>
 5   0  0.2087665E-07  0.3297171E+04  0.7818609E-02  0.8163616E-01
        1   -1    0    0  501    0  0.00000000000E+00  0.00000000000E+00  0.21873154560E+04  0.21873154560E+04  0.50400001928E-02 0.  1.
       -1   -1    0    0    0  501  0.00000000000E+00  0.00000000000E+00 -0.12425432095E+04  0.12425432095E+04  0.50400001928E-02 0. -1.
    10030    2    1    2    0    0  0.00000000000E+00  0.00000000000E+00  0.94477224653E+03  0.34298586655E+04  0.32971708885E+04 0.  0.
        5    1    3    3  502    0  0.51405778595E+03  0.11875798273E+04  0.15348661343E+04  0.20075949277E+04  0.46999998093E+01 0.  1.
       -5    1    3    3    0  502 -0.51405778595E+03 -0.11875798273E+04 -0.59009388779E+03  0.14222637378E+04  0.46999998093E+01 0. -1.
</event>
<event>
 5   0  0.6426079E-07  0.3296786E+04  0.7818609E-02  0.8163714E-01
       -2   -1    0    0    0  501  0.00000000000E+00  0.00000000000E+00  0.12092681285E+04  0.12092681285E+04  0.25500000920E-02 0. -1.
        2   -1    0    0  501    0  0.00000000000E+00  0.00000000000E+00 -0.22469788962E+04  0.22469788962E+04  0.25500000920E-02 0.  1.
    10030    2    1    2    0    0  0.00000000000E+00  0.00000000000E+00 -0.10377107676E+04  0.34562470247E+04  0.32967862925E+04 0.  0.
        4    1    3    3  502    0 -0.80488701224E+03  0.78429790112E+03  0.74538842399E+03  0.13485443321E+04  0.12699999809E+01 0. -1.
       -4    1    3    3    0  502  0.80488701224E+03 -0.78429790112E+03 -0.17830991916E+04  0.21077026926E+04  0.12699999809E+01 0.  1.
</event>
<event>
 5   0  0.2087665E-07  0.3293665E+04  0.7818609E-02  0.8164509E-01
        1   -1    0    0  501    0  0.00000000000E+00  0.00000000000E+00  0.17886580876E+04  0.17886580876E+04  0.50400001928E-02 0.  1.
       -1   -1    0    0    0  501  0.00000000000E+00  0.00000000000E+00 -0.15162529495E+04  0.15162529495E+04  0.50400001928E-02 0. -1.
    10030    2    1    2    0    0  0.00000000000E+00  0.00000000000E+00  0.27240513815E+03  0.33049110371E+04  0.32936654967E+04 0.  0.
        5    1    3    3  502    0 -0.29308541642E+03  0.14058083805E+04 -0.67267616689E+03  0.15857842160E+04  0.46999998093E+01 0. -1.
       -5    1    3    3    0  502  0.29308541642E+03 -0.14058083805E+04  0.94508130504E+03  0.17191268212E+04  0.46999998093E+01 0.  1.
</event>
<event>
 5   0  0.6377741E-07  0.3300489E+04  0.7818609E-02  0.8162771E-01
        2   -1    0    0  501    0  0.00000000000E+00  0.00000000000E+00  0.10837693367E+04  0.10837693367E+04  0.25500000920E-02 0.  1.
       -2   -1    0    0    0  501  0.00000000000E+00  0.00000000000E+00 -0.25128102114E+04  0.25128102114E+04  0.25500000920E-02 0. -1.
    10030    2    1    2    0    0  0.00000000000E+00  0.00000000000E+00 -0.14290408747E+04  0.35965795482E+04  0.33004888463E+04 0.  0.
        1    1    3    3  502    0  0.14190196308E+04 -0.61178879481E+03 -0.13456169609E+04  0.20490454479E+04  0.50400001928E-02 0. -1.
       -1    1    3    3    0  502 -0.14190196308E+04  0.61178879481E+03 -0.83423913765E+02  0.15475341003E+04  0.50400001928E-02 0.  1.
</event>
<event>
 5   0  0.2057130E-07  0.3234448E+04  0.7818609E-02  0.8179778E-01
        1   -1    0    0  501    0  0.00000000000E+00  0.00000000000E+00  0.27437115451E+04  0.27437115451E+04  0.50400001928E-02 0.  1.
       -1   -1    0    0    0  501  0.00000000000E+00  0.00000000000E+00 -0.95323907893E+03  0.95323907895E+03  0.50400001928E-02 0. -1.
    10030    2    1    2    0    0  0.00000000000E+00  0.00000000000E+00  0.17904724662E+04  0.36969506241E+04  0.32344477527E+04 0.  0.
        2    1    3    3  502    0  0.15443152512E+04  0.30571427294E+03  0.47210921529E+03  0.16435504017E+04  0.25500000920E-02 0. -1.
       -2    1    3    3    0  502 -0.15443152512E+04 -0.30571427294E+03  0.13183632509E+04  0.20534002224E+04  0.25500000920E-02 0.  1.
</event>
<event>
 5   0  0.6258718E-07  0.3298919E+04  0.7818609E-02  0.8163171E-01
        2   -1    0    0  501    0  0.00000000000E+00  0.00000000000E+00  0.14894180357E+04  0.14894180357E+04  0.25500000920E-02 0.  1.
       -2   -1    0    0    0  501  0.00000000000E+00  0.00000000000E+00 -0.18266977011E+04  0.18266977011E+04  0.25500000920E-02 0. -1.
    10030    2    1    2    0    0  0.00000000000E+00  0.00000000000E+00 -0.33727966547E+03  0.33161157368E+04  0.32989189149E+04 0.  0.
        5    1    3    3  502    0  0.86459158135E+03 -0.55050396813E+03  0.11304286065E+04  0.15259305835E+04  0.46999998093E+01 0.  1.
       -5    1    3    3    0  502 -0.86459158135E+03  0.55050396813E+03 -0.14677082719E+04  0.17901851533E+04  0.46999998093E+01 0. -1.
</event>
<event>
 5   0  0.2037333E-07  0.3335306E+04  0.7818609E-02  0.8153969E-01
        1   -1    0    0  501    0  0.00000000000E+00  0.00000000000E+00  0.13098175076E+04  0.13098175076E+04  0.50400001928E-02 0. -1.
       -1   -1    0    0    0  501  0.00000000000E+00  0.00000000000E+00 -0.21232473921E+04  0.21232473921E+04  0.50400001928E-02 0.  1.
    10030    2    1    2    0    0  0.00000000000E+00  0.00000000000E+00 -0.81342988451E+03  0.34330648997E+04  0.33353060473E+04 0.  0.
        3    1    3    3  502    0 -0.43138354853E+03  0.99549957674E+03  0.89687940891E+03  0.14076589990E+04  0.10100000352E+00 0. -1.
       -3    1    3    3    0  502  0.43138354853E+03 -0.99549957674E+03 -0.17103092934E+04  0.20254059007E+04  0.10100000352E+00 0.  1.
</event>
<event>
 5   0  0.2037333E-07  0.3289417E+04  0.7818609E-02  0.8165593E-01
        1   -1    0    0  501    0  0.00000000000E+00  0.00000000000E+00  0.16089961412E+04  0.16089961412E+04  0.50400001928E-02 0. -1.
       -1   -1    0    0    0  501  0.00000000000E+00  0.00000000000E+00 -0.16812136241E+04  0.16812136241E+04  0.50400001928E-02 0.  1.
    10030    2    1    2    0    0  0.00000000000E+00  0.00000000000E+00 -0.72217482868E+02  0.32902097653E+04  0.32894171118E+04 0.  0.
        3    1    3    3  502    0 -0.51105024671E+02  0.16291540019E+04 -0.25596101967E+03  0.16499304650E+04  0.10100000352E+00 0.  1.
       -3    1    3    3    0  502  0.51105024671E+02 -0.16291540019E+04  0.18374353680E+03  0.16402793003E+04  0.10100000352E+00 0. -1.
</event>
<event>
 5   0  0.2037333E-07  0.3316667E+04  0.7818609E-02  0.8158667E-01
        1   -1    0    0  501    0  0.00000000000E+00  0.00000000000E+00  0.23087774903E+04  0.23087774903E+04  0.50400001928E-02 0.  1.
       -1   -1    0    0    0  501  0.00000000000E+00  0.00000000000E+00 -0.11911368795E+04  0.11911368795E+04  0.50400001928E-02 0. -1.
    10030    2    1    2    0    0  0.00000000000E+00  0.00000000000E+00  0.11176406109E+04  0.34999143698E+04  0.33166670109E+04 0.  0.
        3    1    3    3  502    0 -0.79879946411E+03 -0.30036799931E+03  0.20592693772E+04  0.22291011410E+04  0.10100000352E+00 0.  1.
       -3    1    3    3    0  502  0.79879946411E+03  0.30036799931E+03 -0.94162876627E+03  0.12708132288E+04  0.10100000352E+00 0. -1.
</event>
<event>
 5   0  0.2080770E-07  0.3313349E+04  0.7818609E-02  0.8159507E-01
       -1   -1    0    0    0  501  0.00000000000E+00  0.00000000000E+00  0.14458236337E+04  0.14458236338E+04  0.50400001928E-02 0. -1.
        1   -1    0    0  501    0  0.00000000000E+00  0.00000000000E+00 -0.18982745287E+04  0.18982745287E+04  0.50400001928E-02 0.  1.
    10030    2    1    2    0    0  0.00000000000E+00  0.00000000000E+00 -0.45245089498E+03  0.33440981625E+04  0.33133488660E+04 0.  0.
        4    1    3    3  502    0 -0.87065109123E+03 -0.11684799410E+04  0.56924497044E+03  0.15644232626E+04  0.12699999809E+01 0. -1.
       -4    1    3    3    0  502  0.87065109123E+03  0.11684799410E+04 -0.10216958654E+04  0.17796748999E+04  0.12699999809E+01 0.  1.
</event>
<event>
 5   0  0.2087665E-07  0.3303641E+04  0.7818609E-02  0.8161970E-01
        1   -1    0    0  501    0  0.00000000000E+00  0.00000000000E+00  0.23663655985E+04  0.23663655985E+04  0.50400001928E-02 0.  1.
       -1   -1    0    0    0  501  0.00000000000E+00  0.00000000000E+00 -0.11530385295E+04  0.11530385295E+04  0.50400001928E-02 0. -1.
    10030    2    1    2    0    0  0.00000000000E+00  0.00000000000E+00  0.12133270689E+04  0.35194041280E+04  0.33036408461E+04 0.  0.
        5    1    3    3  502    0  0.63949475342E+03  0.11649051667E+02 -0.10157594132E+04  0.12003659923E+04  0.46999998093E+01 0. -1.
       -5    1    3    3    0  502 -0.63949475342E+03 -0.11649051667E+02  0.22290864821E+04  0.23190381357E+04  0.46999998093E+01 0.  1.
</event>
<event>
 5   0  0.1994250E-07  0.3297798E+04  0.7818609E-02  0.8163456E-01
       -4   -1    0    0    0  501  0.00000000000E+00  0.00000000000E+00  0.11253371494E+04  0.11253378661E+04  0.12699999809E+01 0. -1.
        4   -1    0    0  501    0  0.00000000000E+00  0.00000000000E+00 -0.24160462655E+04  0.24160465993E+04  0.12699999809E+01 0.  1.
    10030    2    1    2    0    0  0.00000000000E+00  0.00000000000E+00 -0.12907091161E+04  0.35413844654E+04  0.32977983427E+04 0.  0.
        4    1    3    3  502    0  0.42427760156E+03  0.43714510378E+03 -0.22907708359E+04  0.23703881455E+04  0.12699999809E+01 0.  1.
       -4    1    3    3    0  502 -0.42427760156E+03 -0.43714510378E+03  0.10000617198E+04  0.11709963199E+04  0.12699999809E+01 0. -1.
</event>
<event>
 5   0  0.1994250E-07  0.3299143E+04  0.7818609E-02  0.8163114E-01
       -3   -1    0    0    0  501  0.00000000000E+00  0.00000000000E+00  0.25939628510E+04  0.25939628530E+04  0.10100000352E+00 0.  1.
        3   -1    0    0  501    0  0.00000000000E+00  0.00000000000E+00 -0.10490071817E+04  0.10490071865E+04  0.10100000352E+00 0. -1.
    10030    2    1    2    0    0  0.00000000000E+00  0.00000000000E+00  0.15449556693E+04  0.36429700395E+04  0.32991427202E+04 0.  0.
        1    1    3    3  502    0  0.52968339153E+03  0.83058071531E+03  0.22334939626E+04  0.24410907605E+04  0.50400001928E-02 0.  1.
       -1    1    3    3    0  502 -0.52968339153E+03 -0.83058071531E+03 -0.68853829331E+03  0.12018792790E+04  0.50400001928E-02 0. -1.
</event>
<event>
 5   0  0.6377741E-07  0.3390817E+04  0.7818609E-02  0.8140164E-01
        2   -1    0    0  501    0  0.00000000000E+00  0.00000000000E+00  0.14255282143E+04  0.14255282143E+04  0.25500000920E-02 0.  1.
       -2   -1    0    0    0  501  0.00000000000E+00  0.00000000000E+00 -0.20163826633E+04  0.20163826633E+04  0.25500000920E-02 0. -1.
    10030    2    1    2    0    0  0.00000000000E+00  0.00000000000E+00 -0.59085444891E+03  0.34419108776E+04  0.33908172333E+04 0.  0.
        1    1    3    3  502    0  0.12299422933E+03 -0.11647088177E+04  0.94890574588E+03  0.15073474467E+04  0.50400001928E-02 0.  1.
       -1    1    3    3    0  502 -0.12299422933E+03  0.11647088177E+04 -0.15397601948E+04  0.19345634309E+04  0.50400001928E-02 0. -1.
</event>
<event>
 5   0  0.2080828E-07  0.3312023E+04  0.7818609E-02  0.8159843E-01
       -1   -1    0    0    0  501  0.00000000000E+00  0.00000000000E+00  0.17028710514E+04  0.17028710514E+04  0.50400001928E-02 0. -1.
        1   -1    0    0  501    0  0.00000000000E+00  0.00000000000E+00 -0.16104416797E+04  0.16104416797E+04  0.50400001928E-02 0.  1.
    10030    2    1    2    0    0  0.00000000000E+00  0.00000000000E+00  0.92429371669E+02  0.33133127311E+04  0.33120232585E+04 0.  0.
        1    1    3    3  502    0 -0.15402367558E+04  0.58582489083E+03  0.21015175985E+03  0.16612296135E+04  0.50400001928E-02 0. -1.
       -1    1    3    3    0  502  0.15402367558E+04 -0.58582489083E+03 -0.11772238818E+03  0.16520831176E+04  0.50400001928E-02 0.  1.
</event>
<event>
 5   0  0.6426079E-07  0.3299637E+04  0.7818609E-02  0.8162988E-01
       -2   -1    0    0    0  501  0.00000000000E+00  0.00000000000E+00  0.15825532934E+04  0.15825532934E+04  0.25500000920E-02 0. -1.
        2   -1    0    0  501    0  0.00000000000E+00  0.00000000000E+00 -0.17199428888E+04  0.17199428888E+04  0.25500000920E-02 0.  1.
    10030    2    1    2    0    0  0.00000000000E+00  0.00000000000E+00 -0.13738959544E+03  0.33024961822E+04  0.32996371214E+04 0.  0.
        4    1    3    3  502    0 -0.32597077641E+03  0.86916552368E+03  0.12963762789E+04  0.15944587558E+04  0.12699999809E+01 0. -1.
       -4    1    3    3    0  502  0.32597077641E+03 -0.86916552368E+03 -0.14337658744E+04  0.17080374264E+04  0.12699999809E+01 0.  1.
</event>
<event>
 5   0  0.6351753E-07  0.3274180E+04  0.7818609E-02  0.8169496E-01
       -2   -1    0    0    0  501  0.00000000000E+00  0.00000000000E+00  0.16719404584E+04  0.16719404584E+04  0.25500000920E-02 0.  1.
        2   -1    0    0  501    0  0.00000000000E+00  0.00000000000E+00 -0.16029662415E+04  0.16029662415E+04  0.25500000920E-02 0. -1.
    10030    2    1    2    0    0  0.00000000000E+00  0.00000000000E+00  0.68974216886E+02  0.32749066998E+04  0.32741802715E+04 0.  0.
        3    1    3    3  502    0 -0.13148325475E+04 -0.95505353283E+03 -0.16342600049E+03  0.16332850169E+04  0.10100000352E+00 0. -1.
       -3    1    3    3    0  502  0.13148325475E+04  0.95505353283E+03  0.23240021737E+03  0.16416216829E+04  0.10100000352E+00 0.  1.
</event>
<event>
 5   0  0.2037333E-07  0.3298154E+04  0.7818609E-02  0.8163365E-01
        1   -1    0    0  501    0  0.00000000000E+00  0.00000000000E+00  0.20974468151E+04  0.20974468151E+04  0.50400001928E-02 0.  1.
       -1   -1    0    0    0  501  0.00000000000E+00  0.00000000000E+00 -0.12965551907E+04  0.12965551907E+04  0.50400001928E-02 0. -1.
    10030    2    1    2    0    0  0.00000000000E+00  0.00000000000E+00  0.80089162442E+03  0.33940020058E+04  0.32981543659E+04 0.  0.
        3    1    3    3  502    0 -0.11561456897E+04 -0.62525202118E+03  0.14253009788E+04  0.19388387855E+04  0.10100000352E+00 0.  1.
       -3    1    3    3    0  502  0.11561456897E+04  0.62525202118E+03 -0.62440935440E+03  0.14551632203E+04  0.10100000352E+00 0. -1.
</event>
<event>
 5   0  0.2087665E-07  0.3329620E+04  0.7818609E-02  0.8155399E-01
       -1   -1    0    0    0  501  0.00000000000E+00  0.00000000000E+00  0.26360408070E+04  0.26360408070E+04  0.50400001928E-02 0.  1.
        1   -1    0    0  501    0  0.00000000000E+00  0.00000000000E+00 -0.10514226997E+04  0.10514226997E+04  0.50400001928E-02 0. -1.
    10030    2    1    2    0    0  0.00000000000E+00  0.00000000000E+00  0.15846181073E+04  0.36874635067E+04  0.33296204840E+04 0.  0.
        5    1    3    3  502    0 -0.13150520438E+04  0.36959035958E+02  0.19221717019E+04  0.23292689818E+04  0.46999998093E+01 0.  1.
       -5    1    3    3    0  502  0.13150520438E+04 -0.36959035958E+02 -0.33755359457E+03  0.13581945249E+04  0.46999998093E+01 0. -1.
</event>
<event>
 5   0  0.2080770E-07  0.3297652E+04  0.7818609E-02  0.8163493E-01
        1   -1    0    0  501    0  0.00000000000E+00  0.00000000000E+00  0.15469920524E+04  0.15469920524E+04  0.50400001928E-02 0. -1.
       -1   -1    0    0    0  501  0.00000000000E+00  0.00000000000E+00 -0.17573634930E+04  0.17573634930E+04  0.50400001928E-02 0.  1.
    10030    2    1    2    0    0  0.00000000000E+00  0.00000000000E+00 -0.21037144062E+03  0.33043555455E+04  0.32976521084E+04 0.  0.
        4    1    3    3  502    0 -0.12374880379E+04 -0.87372131566E+03  0.54718315722E+03  0.16106447783E+04  0.12699999809E+01 0. -1.
       -4    1    3    3    0  502  0.12374880379E+04  0.87372131566E+03 -0.75755459785E+03  0.16937107672E+04  0.12699999809E+01 0.  1.
</event>
<event>
 5   0  0.6258718E-07  0.3269448E+04  0.7818609E-02  0.8170713E-01
       -2   -1    0    0    0  501  0.00000000000E+00  0.00000000000E+00  0.13991782518E+04  0.13991782518E+04  0.25500000920E-02 0.  1.
        2   -1    0    0  501    0  0.00000000000E+00  0.00000000000E+00 -0.19099232672E+04  0.19099232672E+04  0.25500000920E-02 0. -1.
    10030    2    1    2    0    0  0.00000000000E+00  0.00000000000E+00 -0.51074501534E+03  0.33091015190E+04  0.32694483315E+04 0.  0.
        5    1    3    3  502    0  0.68591876859E+03 -0.11363459651E+03 -0.17528107951E+04  0.18856736600E+04  0.46999998093E+01 0. -1.
       -5    1    3    3    0  502 -0.68591876859E+03  0.11363459651E+03  0.12420657797E+04  0.14234278590E+04  0.46999998093E+01 0.  1.
</event>
<event>
 5   0  0.6424183E-07  0.3296190E+04  0.7818609E-02  0.8163865E-01
       -2   -1    0    0    0  501  0.00000000000E+00  0.00000000000E+00  0.13363034365E+04  0.13363034365E+04  0.25500000920E-02 0. -1.
        2   -1    0    0  501    0  0.00000000000E+00  0.00000000000E+00 -0.20326353890E+04  0.20326353890E+04  0.25500000920E-02 0.  1.
    10030    2    1    2    0    0  0.00000000000E+00  0.00000000000E+00 -0.69633195254E+03  0.33689388256E+04  0.32961903195E+04 0.  0.
        2    1    3    3  502    0  0.15344349418E+04 -0.48199540197E+03 -0.71583798250E+03  0.17604641931E+04  0.25500000920E-02 0. -1.
       -2    1    3    3    0  502 -0.15344349418E+04  0.48199540197E+03  0.19506029958E+02  0.16084746324E+04  0.25500000920E-02 0.  1.
</event>
<event>
 5   0  0.6351753E-07  0.3328797E+04  0.7818609E-02  0.8155606E-01
        2   -1    0    0  501    0  0.00000000000E+00  0.00000000000E+00  0.19020440265E+04  0.19020440265E+04  0.25500000920E-02 0. -1.
       -2   -1    0    0    0  501  0.00000000000E+00  0.00000000000E+00 -0.14564452957E+04  0.14564452957E+04  0.25500000920E-02 0.  1.
    10030    2    1    2    0    0  0.00000000000E+00  0.00000000000E+00  0.44559873081E+03  0.33584893223E+04  0.33287974253E+04 0.  0.
        3    1    3    3  502    0  0.16167055040E+04 -0.19250667123E+03  0.57146479095E+03  0.17255050051E+04  0.10100000352E+00 0. -1.
       -3    1    3    3    0  502 -0.16167055040E+04  0.19250667123E+03 -0.12586606014E+03  0.16329843172E+04  0.10100000352E+00 0.  1.
</event>
<event>
 5   0  0.6424183E-07  0.3329678E+04  0.7818609E-02  0.8155385E-01
        2   -1    0    0  501    0  0.00000000000E+00  0.00000000000E+00  0.24760426565E+04  0.24760426565E+04  0.25500000920E-02 0. -1.
       -2   -1    0    0    0  501  0.00000000000E+00  0.00000000000E+00 -0.11194029249E+04  0.11194029249E+04  0.25500000920E-02 0.  1.
    10030    2    1    2    0    0  0.00000000000E+00  0.00000000000E+00  0.13566397317E+04  0.35954455814E+04  0.33296782979E+04 0.  0.
        2    1    3    3  502    0  0.97690336749E+02 -0.88821667227E+03 -0.83851353486E+03  0.12253885943E+04  0.25500000920E-02 0.  1.
       -2    1    3    3    0  502 -0.97690336749E+02  0.88821667227E+03  0.21951532665E+04  0.23700569871E+04  0.25500000920E-02 0. -1.
</event>
<event>
 5   0  0.6351753E-07  0.3250979E+04  0.7818609E-02  0.8175482E-01
        2   -1    0    0  501    0  0.00000000000E+00  0.00000000000E+00  0.19585220689E+04  0.19585220689E+04  0.25500000920E-02 0.  1.
       -2   -1    0    0    0  501  0.00000000000E+00  0.00000000000E+00 -0.13490863435E+04  0.13490863435E+04  0.25500000920E-02 0. -1.
    10030    2    1    2    0    0  0.00000000000E+00  0.00000000000E+00  0.60943572535E+03  0.33076084124E+04  0.32509785460E+04 0.  0.
        3    1    3    3  502    0  0.11584740721E+04 -0.17186484961E+03 -0.84213337295E+03  0.14424937887E+04  0.10100000352E+00 0. -1.
       -3    1    3    3    0  502 -0.11584740721E+04  0.17186484961E+03  0.14515690983E+04  0.18651146237E+04  0.10100000352E+00 0.  1.
</event>
<event>
 5   0  0.6258718E-07  0.3327776E+04  0.7818609E-02  0.8155863E-01
        2   -1    0    0  501    0  0.00000000000E+00  0.00000000000E+00  0.19873166350E+04  0.19873166350E+04  0.25500000920E-02 0. -1.
       -2   -1    0    0    0  501  0.00000000000E+00  0.00000000000E+00 -0.13930964177E+04  0.13930964177E+04  0.25500000920E-02 0.  1.
    10030    2    1    2    0    0  0.00000000000E+00  0.00000000000E+00  0.59422021732E+03  0.33804130526E+04  0.33277762454E+04 0.  0.
        5    1    3    3  502    0 -0.73914979499E+03 -0.87530859951E+03  0.15228418988E+04  0.19056697254E+04  0.46999998093E+01 0. -1.
       -5    1    3    3    0  502  0.73914979499E+03  0.87530859951E+03 -0.92862168146E+03  0.14747433272E+04  0.46999998093E+01 0.  1.
</event>
<event>
 5   0  0.6426079E-07  0.3298578E+04  0.7818609E-02  0.8163257E-01
       -2   -1    0    0    0  501  0.00000000000E+00  0.00000000000E+00  0.21462927945E+04  0.21462927945E+04  0.25500000920E-02 0. -1.
        2   -1    0    0  501    0  0.00000000000E+00  0.00000000000E+00 -0.12673736788E+04  0.12673736788E+04  0.25500000920E-02 0.  1.
    10030    2    1    2    0    0  0.00000000000E+00  0.00000000000E+00  0.87891911575E+03  0.34136664733E+04  0.32985784785E+04 0.  0.
        4    1    3    3  502    0  0.13348354900E+04 -0.91795604600E+03  0.11927133641E+03  0.16243941493E+04  0.12699999809E+01 0. -1.
       -4    1    3    3    0  502 -0.13348354900E+04  0.91795604600E+03  0.75964777934E+03  0.17892723240E+04  0.12699999809E+01 0.  1.
</event>
<event>
 5   0  0.6426079E-07  0.3303875E+04  0.7818609E-02  0.8161910E-01
       -2   -1    0    0    0  501  0.00000000000E+00  0.00000000000E+00  0.24414027480E+04  0.24414027480E+04  0.25500000920E-02 0. -1.
        2   -1    0    0  501    0  0.00000000000E+00  0.00000000000E+00 -0.11177582130E+04  0.11177582130E+04  0.25500000920E-02 0.  1.
    10030    2    1    2    0    0  0.00000000000E+00  0.00000000000E+00  0.13236445349E+04  0.35591609610E+04  0.33038752839E+04 0.  0.
        4    1    3    3  502    0 -0.84269954212E+03  0.10387372012E+04  0.17061500261E+04  0.21679637949E+04  0.12699999809E+01 0. -1.
       -4    1    3    3    0  502  0.84269954212E+03 -0.10387372012E+04 -0.38250549118E+03  0.13911971661E+04  0.12699999809E+01 0.  1.
</event>
<event>
 5   0  0.2080828E-07  0.3301221E+04  0.7818609E-02  0.8162585E-01
        1   -1    0    0  501    0  0.00000000000E+00  0.00000000000E+00  0.18733331486E+04  0.18733331486E+04  0.50400001928E-02 0. -1.
       -1   -1    0    0    0  501  0.00000000000E+00  0.00000000000E+00 -0.14543678041E+04  0.14543678041E+04  0.50400001928E-02 0.  1.
    10030    2    1    2    0    0  0.00000000000E+00  0.00000000000E+00  0.41896534445E+03  0.33277009527E+04  0.33012212393E+04 0.  0.
        1    1    3    3  502    0 -0.12217125318E+04  0.32289338561E+03  0.12799203805E+04  0.17986210911E+04  0.50400001928E-02 0. -1.
       -1    1    3    3    0  502  0.12217125318E+04 -0.32289338561E+03 -0.86095503608E+03  0.15290798616E+04  0.50400001928E-02 0.  1.
</event>
<event>
 5   0  0.6424183E-07  0.3215863E+04  0.7818609E-02  0.8184640E-01
       -2   -1    0    0    0  501  0.00000000000E+00  0.00000000000E+00  0.25931987714E+04  0.25931987714E+04  0.25500000920E-02 0.  1.
        2   -1    0    0  501    0  0.00000000000E+00  0.00000000000E+00 -0.99700971865E+03  0.99700971866E+03  0.25500000920E-02 0. -1.
    10030    2    1    2    0    0  0.00000000000E+00  0.00000000000E+00  0.15961890528E+04  0.35902084901E+04  0.32158634160E+04 0.  0.
        2    1    3    3  502    0  0.64737239500E+03  0.10703566372E+04 -0.32980135438E+03  0.12936472788E+04  0.25500000920E-02 0. -1.
       -2    1    3    3    0  502 -0.64737239500E+03 -0.10703566372E+04  0.19259904072E+04  0.22965612113E+04  0.25500000920E-02 0.  1.
</event>
<event>
 5   0  0.2087665E-07  0.3524334E+04  0.7818609E-02  0.8108047E-01
       -1   -1    0    0    0  501  0.00000000000E+00  0.00000000000E+00  0.11844428461E+04  0.11844428461E+04  0.50400001928E-02 0. -1.
        1   -1    0    0  501    0  0.00000000000E+00  0.00000000000E+00 -0.26216825686E+04  0.26216825686E+04  0.50400001928E-02 0.  1.
    10030    2    1    2    0    0  0.00000000000E+00  0.00000000000E+00 -0.14372397225E+04  0.38061254147E+04  0.35243343559E+04 0.  0.
        5    1    3    3  502    0 -0.87789358710E+03 -0.11586981530E+04 -0.17942105991E+04  0.23092189858E+04  0.46999998093E+01 0.  1.
       -5    1    3    3    0  502  0.87789358710E+03  0.11586981530E+04  0.35697087663E+03  0.14969064289E+04  0.46999998093E+01 0. -1.
</event>
<event>
 5   0  0.2080828E-07  0.3300322E+04  0.7818609E-02  0.8162813E-01
       -1   -1    0    0    0  501  0.00000000000E+00  0.00000000000E+00  0.16521348456E+04  0.16521348456E+04  0.50400001928E-02 0. -1.
        1   -1    0    0  501    0  0.00000000000E+00  0.00000000000E+00 -0.16481895292E+04  0.16481895292E+04  0.50400001928E-02 0.  1.
    10030    2    1    2    0    0  0.00000000000E+00  0.00000000000E+00  0.39453163607E+01  0.33003243748E+04  0.33003220166E+04 0.  0.
        1    1    3    3  502    0 -0.24385966053E+03 -0.15996306028E+04  0.32561737629E+03  0.16505490829E+04  0.50400001928E-02 0. -1.
       -1    1    3    3    0  502  0.24385966053E+03  0.15996306028E+04 -0.32167205993E+03  0.16497752919E+04  0.50400001928E-02 0.  1.
</event>
<event>
 5   0  0.2087665E-07  0.3301161E+04  0.7818609E-02  0.8162600E-01
       -1   -1    0    0    0  501  0.00000000000E+00  0.00000000000E+00  0.96452681972E+03  0.96452681973E+03  0.50400001928E-02 0.  1.
        1   -1    0    0  501    0  0.00000000000E+00  0.00000000000E+00 -0.28246141344E+04  0.28246141344E+04  0.50400001928E-02 0. -1.
    10030    2    1    2    0    0  0.00000000000E+00  0.00000000000E+00 -0.18600873147E+04  0.37891409541E+04  0.33011610612E+04 0.  0.
        5    1    3    3  502    0 -0.41991606279E+03  0.15739550656E+04 -0.12353077496E+04  0.20444244605E+04  0.46999998093E+01 0. -1.
       -5    1    3    3    0  502  0.41991606279E+03 -0.15739550656E+04 -0.62477956511E+03  0.17447164937E+04  0.46999998093E+01 0.  1.
</event>
<event>
 5   0  0.6377741E-07  0.3302924E+04  0.7818609E-02  0.8162152E-01
        2   -1    0    0  501    0  0.00000000000E+00  0.00000000000E+00  0.27641208107E+04  0.27641208107E+04  0.25500000920E-02 0. -1.
       -2   -1    0    0    0  501  0.00000000000E+00  0.00000000000E+00 -0.98668857313E+03  0.98668857314E+03  0.25500000920E-02 0.  1.
    10030    2    1    2    0    0  0.00000000000E+00  0.00000000000E+00  0.17774322375E+04  0.37508093838E+04  0.33029238070E+04 0.  0.
        1    1    3    3  502    0  0.45755319552E+03  0.83088526060E+02  0.26882318893E+04  0.27281585952E+04  0.50400001928E-02 0. -1.
       -1    1    3    3    0  502 -0.45755319552E+03 -0.83088526060E+02 -0.91079965173E+03  0.10226507886E+04  0.50400001928E-02 0.  1.
</event>
<event>
 5   0  0.6351753E-07  0.3298735E+04  0.7818609E-02  0.8163217E-01
       -2   -1    0    0    0  501  0.00000000000E+00  0.00000000000E+00  0.27279720808E+04  0.27279720808E+04  0.25500000920E-02 0.  1.
        2   -1    0    0  501    0  0.00000000000E+00  0.00000000000E+00 -0.99722913646E+03  0.99722913646E+03  0.25500000920E-02 0. -1.
    10030    2    1    2    0    0  0.00000000000E+00  0.00000000000E+00  0.17307429443E+04  0.37252012173E+04  0.32987350560E+04 0.  0.
        3    1    3    3  502    0 -0.74540443806E+03  0.10427590066E+03 -0.79198633173E+03  0.10925857402E+04  0.10100000352E+00 0. -1.
       -3    1    3    3    0  502  0.74540443806E+03 -0.10427590066E+03  0.25227292761E+04  0.26326154771E+04  0.10100000352E+00 0.  1.
</event>
<event>
 5   0  0.6258718E-07  0.3297643E+04  0.7818609E-02  0.8163495E-01
        2   -1    0    0  501    0  0.00000000000E+00  0.00000000000E+00  0.10473591928E+04  0.10473591928E+04  0.25500000920E-02 0. -1.
       -2   -1    0    0    0  501  0.00000000000E+00  0.00000000000E+00 -0.25956826167E+04  0.25956826167E+04  0.25500000920E-02 0.  1.
    10030    2    1    2    0    0  0.00000000000E+00  0.00000000000E+00 -0.15483234239E+04  0.36430418094E+04  0.32976428249E+04 0.  0.
        5    1    3    3  502    0  0.71861081926E+03 -0.10815518394E+04  0.34835212905E+03  0.13444430767E+04  0.46999998093E+01 0. -1.
       -5    1    3    3    0  502 -0.71861081926E+03  0.10815518394E+04 -0.18966755529E+04  0.22985987327E+04  0.46999998093E+01 0.  1.
</event>
<event>
 5   0  0.2087665E-07  0.3309483E+04  0.7818609E-02  0.8160487E-01
       -1   -1    0    0    0  501  0.00000000000E+00  0.00000000000E+00  0.15144685160E+04  0.15144685160E+04  0.50400001928E-02 0.  1.
        1   -1    0    0  501    0  0.00000000000E+00  0.00000000000E+00 -0.18080063621E+04  0.18080063621E+04  0.50400001928E-02 0. -1.
    10030    2    1    2    0    0  0.00000000000E+00  0.00000000000E+00 -0.29353784607E+03  0.33224748782E+04  0.33094825651E+04 0.  0.
        5    1    3    3  502    0  0.13800952079E+04 -0.48677027213E+03 -0.92216011321E+03  0.17297425951E+04  0.46999998093E+01 0. -1.
       -5    1    3    3    0  502 -0.13800952079E+04  0.48677027213E+03  0.62862226714E+03  0.15927322831E+04  0.46999998093E+01 0.  1.
</event>
<event>
 5   0  0.6351753E-07  0.3289659E+04  0.7818609E-02  0.8165532E-01
       -2   -1    0    0    0  501  0.00000000000E+00  0.00000000000E+00  0.10720496688E+04  0.10720496688E+04  0.25500000920E-02 0. -1.
        2   -1    0    0  501    0  0.00000000000E+00  0.00000000000E+00 -0.25236375770E+04  0.25236375770E+04  0.25500000920E-02 0.  1.
    10030    2    1    2    0    0  0.00000000000E+00  0.00000000000E+00 -0.14515879082E+04  0.35956872458E+04  0.32896594526E+04 0.  0.
        3    1    3    3  502    0 -0.79088374139E+03 -0.93787471685E+03  0.47173630926E+03  0.13143976691E+04  0.10100000352E+00 0. -1.
       -3    1    3    3    0  502  0.79088374139E+03  0.93787471685E+03 -0.19233242175E+04  0.22812895767E+04  0.10100000352E+00 0.  1.
</event>
<event>
 5   0  0.6377741E-07  0.3293206E+04  0.7818609E-02  0.8164626E-01
        2   -1    0    0  501    0  0.00000000000E+00  0.00000000000E+00  0.89006551466E+03  0.89006551466E+03  0.25500000920E-02 0.  1.
       -2   -1    0    0    0  501  0.00000000000E+00  0.00000000000E+00 -0.30461820597E+04  0.30461820597E+04  0.25500000920E-02 0. -1.
    10030    2    1    2    0    0  0.00000000000E+00  0.00000000000E+00 -0.21561165450E+04  0.39362475743E+04  0.32932060990E+04 0.  0.
        1    1    3    3  502    0  0.86995796367E+03 -0.61654526927E+03 -0.25777903499E+04  0.27896161054E+04  0.50400001928E-02 0. -1.
       -1    1    3    3    0  502 -0.86995796367E+03  0.61654526927E+03  0.42167380492E+03  0.11466314689E+04  0.50400001928E-02 0.  1.
</event>
<event>
 5   0  0.1994250E-07  0.3309799E+04  0.7818609E-02  0.8160407E-01
        4   -1    0    0  501    0  0.00000000000E+00  0.00000000000E+00  0.11264260343E+04  0.11264267502E+04  0.12699999809E+01 0. -1.
       -4   -1    0    0    0  501  0.00000000000E+00  0.00000000000E+00 -0.24313094721E+04  0.24313098038E+04  0.12699999809E+01 0.  1.
    10030    2    1    2    0    0  0.00000000000E+00  0.00000000000E+00 -0.13048834378E+04  0.35577365540E+04  0.33097988763E+04 0.  0.
        2    1    3    3  502    0 -0.13397334145E+04  0.87827544119E+03 -0.10988062216E+04  0.19425829417E+04  0.25500000920E-02 0. -1.
       -2    1    3    3    0  502  0.13397334145E+04 -0.87827544119E+03 -0.20607721619E+03  0.16151536124E+04  0.25500000920E-02 0.  1.
</event>
<event>
 5   0  0.2087665E-07  0.3298101E+04  0.7818609E-02  0.8163379E-01
        1   -1    0    0  501    0  0.00000000000E+00  0.00000000000E+00  0.12213390590E+04  0.12213390590E+04  0.50400001928E-02 0. -1.
       -1   -1    0    0    0  501  0.00000000000E+00  0.00000000000E+00 -0.22265463445E+04  0.22265463445E+04  0.50400001928E-02 0.  1.
    10030    2    1    2    0    0  0.00000000000E+00  0.00000000000E+00 -0.10052072855E+04  0.34478854035E+04  0.32981012824E+04 0.  0.
        5    1    3    3  502    0  0.10019347584E+04  0.71988573989E+03 -0.16464796050E+04  0.20574318745E+04  0.46999998093E+01 0.  1.
       -5    1    3    3    0  502 -0.10019347584E+04 -0.71988573989E+03  0.64127231946E+03  0.13904535290E+04  0.46999998093E+01 0. -1.
</event>
<event>
 5   0  0.6351753E-07  0.3288166E+04  0.7818609E-02  0.8165913E-01
        2   -1    0    0  501    0  0.00000000000E+00  0.00000000000E+00  0.23927087330E+04  0.23927087330E+04  0.25500000920E-02 0. -1.
       -2   -1    0    0    0  501  0.00000000000E+00  0.00000000000E+00 -0.11296857186E+04  0.11296857186E+04  0.25500000920E-02 0.  1.
    10030    2    1    2    0    0  0.00000000000E+00  0.00000000000E+00  0.12630230144E+04  0.35223944516E+04  0.32881659839E+04 0.  0.
        3    1    3    3  502    0 -0.46336533177E+03  0.86402407611E+03 -0.78225891386E+03  0.12542623543E+04  0.10100000352E+00 0.  1.
       -3    1    3    3    0  502  0.46336533177E+03 -0.86402407611E+03  0.20452819283E+04  0.22681320974E+04  0.10100000352E+00 0. -1.
</event>
<event>
 5   0  0.6377741E-07  0.3305001E+04  0.7818609E-02  0.8161624E-01
       -2   -1    0    0    0  501  0.00000000000E+00  0.00000000000E+00  0.14162200874E+04  0.14162200874E+04  0.25500000920E-02 0.  1.
        2   -1    0    0  501    0  0.00000000000E+00  0.00000000000E+00 -0.19282021398E+04  0.19282021398E+04  0.25500000920E-02 0. -1.
    10030    2    1    2    0    0  0.00000000000E+00  0.00000000000E+00 -0.51198205244E+03  0.33444222272E+04  0.33050014238E+04 0.  0.
        1    1    3    3  502    0  0.10184220039E+04 -0.61526000238E+03 -0.14164167273E+04  0.18498552900E+04  0.50400001928E-02 0. -1.
       -1    1    3    3    0  502 -0.10184220039E+04  0.61526000238E+03  0.90443467483E+03  0.14945669372E+04  0.50400001928E-02 0.  1.
</event>
<event>
 5   0  0.6426079E-07  0.3292533E+04  0.7818609E-02  0.8164798E-01
       -2   -1    0    0    0  501  0.00000000000E+00  0.00000000000E+00  0.13236937388E+04  0.13236937388E+04  0.25500000920E-02 0. -1.
        2   -1    0    0  501    0  0.00000000000E+00  0.00000000000E+00 -0.20474473092E+04  0.20474473092E+04  0.25500000920E-02 0.  1.
    10030    2    1    2    0    0  0.00000000000E+00  0.00000000000E+00 -0.72375357038E+03  0.33711410480E+04  0.32925328753E+04 0.  0.
        4    1    3    3  502    0 -0.14089141720E+03  0.43783711616E+03 -0.19803243512E+04  0.20330366157E+04  0.12699999809E+01 0.  1.
       -4    1    3    3    0  502  0.14089141720E+03 -0.43783711616E+03  0.12565707808E+04  0.13381044324E+04  0.12699999809E+01 0. -1.
</event>
<event>
 5   0  0.6377741E-07  0.3259672E+04  0.7818609E-02  0.8173233E-01
       -2   -1    0    0    0  501  0.00000000000E+00  0.00000000000E+00  0.13778406536E+04  0.13778406536E+04  0.25500000920E-02 0. -1.
        2   -1    0    0  501    0  0.00000000000E+00  0.00000000000E+00 -0.19279191559E+04  0.19279191559E+04  0.25500000920E-02 0.  1.
    10030    2    1    2    0    0  0.00000000000E+00  0.00000000000E+00 -0.55007850227E+03  0.33057598095E+04  0.32596720018E+04 0.  0.
        1    1    3    3  502    0 -0.66143202979E+03  0.66672338630E+03 -0.16259212171E+04  0.18776666925E+04  0.50400001928E-02 0.  1.
       -1    1    3    3    0  502  0.66143202979E+03 -0.66672338630E+03  0.10758427148E+04  0.14280931170E+04  0.50400001928E-02 0. -1.
</event>
<event>
 5   0  0.6351753E-07  0.3291498E+04  0.7818609E-02  0.8165062E-01
        2   -1    0    0  501    0  0.00000000000E+00  0.00000000000E+00  0.19430005133E+04  0.19430005133E+04  0.25500000920E-02 0.  1.
       -2   -1    0    0    0  501  0.00000000000E+00  0.00000000000E+00 -0.13939729807E+04  0.13939729807E+04  0.25500000920E-02 0. -1.
    10030    2    1    2    0    0  0.00000000000E+00  0.00000000000E+00  0.54902753255E+03  0.33369734940E+04  0.32914982711E+04 0.  0.
        3    1    3    3  502    0 -0.77487410206E+03 -0.13716790496E+04 -0.20804231105E+03  0.15890924777E+04  0.10100000352E+00 0. -1.
       -3    1    3    3    0  502  0.77487410206E+03  0.13716790496E+04  0.75706984360E+03  0.17478810164E+04  0.10100000352E+00 0.  1.
</event>
<event>
 5   0  0.6424183E-07  0.3291942E+04  0.7818609E-02  0.8164949E-01
       -2   -1    0    0    0  501  0.00000000000E+00  0.00000000000E+00  0.16383738458E+04  0.16383738458E+04  0.25500000920E-02 0.  1.
        2   -1    0    0  501    0  0.00000000000E+00  0.00000000000E+00 -0.16536030889E+04  0.16536030889E+04  0.25500000920E-02 0. -1.
    10030    2    1    2    0    0  0.00000000000E+00  0.00000000000E+00 -0.15229243143E+02  0.32919769347E+04  0.32919417080E+04 0.  0.
        2    1    3    3  502    0  0.15602484294E+04  0.20360503231E+03  0.47549496910E+03  0.16437535205E+04  0.25500000920E-02 0.  1.
       -2    1    3    3    0  502 -0.15602484294E+04 -0.20360503231E+03 -0.49072421225E+03  0.16482234142E+04  0.25500000920E-02 0. -1.
</event>
<event>
 5   0  0.6377741E-07  0.3302474E+04  0.7818609E-02  0.8162266E-01
        2   -1    0    0  501    0  0.00000000000E+00  0.00000000000E+00  0.26841114484E+04  0.26841114484E+04  0.25500000920E-02 0. -1.
       -2   -1    0    0    0  501  0.00000000000E+00  0.00000000000E+00 -0.10158237086E+04  0.10158237086E+04  0.25500000920E-02 0.  1.
    10030    2    1    2    0    0  0.00000000000E+00  0.00000000000E+00  0.16682877398E+04  0.36999351570E+04  0.33024742517E+04 0.  0.
        1    1    3    3  502    0  0.62423730215E+03  0.13422937591E+03  0.25402072072E+04  0.26192255325E+04  0.50400001928E-02 0. -1.
       -1    1    3    3    0  502 -0.62423730215E+03 -0.13422937591E+03 -0.87191946739E+03  0.10807096245E+04  0.50400001928E-02 0.  1.
</event>
<event>
 5   0  0.6424183E-07  0.3306970E+04  0.7818609E-02  0.8161124E-01
       -2   -1    0    0    0  501  0.00000000000E+00  0.00000000000E+00  0.23239979498E+04  0.23239979498E+04  0.25500000920E-02 0. -1.
        2   -1    0    0  501    0  0.00000000000E+00  0.00000000000E+00 -0.11764263410E+04  0.11764263411E+04  0.25500000920E-02 0.  1.
    10030    2    1    2    0    0  0.00000000000E+00  0.00000000000E+00  0.11475716087E+04  0.35004242908E+04  0.33069698545E+04 0.  0.
        2    1    3    3  502    0 -0.13237453620E+04 -0.99050676623E+03  0.59986373510E+03  0.17587614784E+04  0.25500000920E-02 0.  1.
       -2    1    3    3    0  502  0.13237453620E+04  0.99050676623E+03  0.54770787361E+03  0.17416628124E+04  0.25500000920E-02 0. -1.
</event>
<event>
 5   0  0.2080828E-07  0.3266762E+04  0.7818609E-02  0.8171405E-01
        1   -1    0    0  501    0  0.00000000000E+00  0.00000000000E+00  0.15970200401E+04  0.15970200401E+04  0.50400001928E-02 0. -1.
       -1   -1    0    0    0  501  0.00000000000E+00  0.00000000000E+00 -0.16705699512E+04  0.16705699512E+04  0.50400001928E-02 0.  1.
    10030    2    1    2    0    0  0.00000000000E+00  0.00000000000E+00 -0.73549911060E+02  0.32675899913E+04  0.32667621220E+04 0.  0.
        1    1    3    3  502    0 -0.16236385310E+04 -0.17741592564E+03 -0.52753997000E+02  0.16341546666E+04  0.50400001928E-02 0.  1.
       -1    1    3    3    0  502  0.16236385310E+04  0.17741592564E+03 -0.20795914060E+02  0.16334353247E+04  0.50400001928E-02 0. -1.
</event>
<event>
 5   0  0.2057130E-07  0.3266266E+04  0.7818609E-02  0.8171532E-01
       -1   -1    0    0    0  501  0.00000000000E+00  0.00000000000E+00  0.11947124054E+04  0.11947124054E+04  0.50400001928E-02 0.  1.
        1   -1    0    0  501    0  0.00000000000E+00  0.00000000000E+00 -0.22324400740E+04  0.22324400740E+04  0.50400001928E-02 0. -1.
    10030    2    1    2    0    0  0.00000000000E+00  0.00000000000E+00 -0.10377276686E+04  0.34271524794E+04  0.32662662786E+04 0.  0.
        2    1    3    3  502    0  0.11790506596E+04 -0.81406969175E+03 -0.13412121587E+04  0.19625799285E+04  0.25500000920E-02 0. -1.
       -2    1    3    3    0  502 -0.11790506596E+04  0.81406969175E+03  0.30348449014E+03  0.14645725509E+04  0.25500000920E-02 0.  1.
</event>
<event>
 5   0  0.2080770E-07  0.3302960E+04  0.7818609E-02  0.8162143E-01
       -1   -1    0    0    0  501  0.00000000000E+00  0.00000000000E+00  0.10269991320E+04  0.10269991320E+04  0.50400001928E-02 0.  1.
        1   -1    0    0  501    0  0.00000000000E+00  0.00000000000E+00 -0.26556845585E+04  0.26556845585E+04  0.50400001928E-02 0. -1.
    10030    2    1    2    0    0  0.00000000000E+00  0.00000000000E+00 -0.16286854265E+04  0.36826836905E+04  0.33029597252E+04 0.  0.
        4    1    3    3  502    0  0.14434373949E+04 -0.63143770369E+03 -0.13664012038E+04  0.20854924956E+04  0.12699999809E+01 0. -1.
       -4    1    3    3    0  502 -0.14434373949E+04  0.63143770369E+03 -0.26228422274E+03  0.15971911949E+04  0.12699999809E+01 0.  1.
</event>
<event>
 5   0  0.1994250E-07  0.3322033E+04  0.7818609E-02  0.8157312E-01
        3   -1    0    0  501    0  0.00000000000E+00  0.00000000000E+00  0.13696383711E+04  0.13696383749E+04  0.10100000352E+00 0.  1.
       -3   -1    0    0    0  501  0.00000000000E+00  0.00000000000E+00 -0.20143827012E+04  0.20143827038E+04  0.10100000352E+00 0. -1.
    10030    2    1    2    0    0  0.00000000000E+00  0.00000000000E+00 -0.64474433011E+03  0.33840210786E+04  0.33220330235E+04 0.  0.
        4    1    3    3  502    0 -0.11607406641E+04 -0.10982753648E+04  0.13934770530E+03  0.16040408543E+04  0.12699999809E+01 0.  1.
       -4    1    3    3    0  502  0.11607406641E+04  0.10982753648E+04 -0.78409203541E+03  0.17799802244E+04  0.12699999809E+01 0. -1.
</event>
<event>
 5   0  0.6351753E-07  0.3311414E+04  0.7818609E-02  0.8159997E-01
       -2   -1    0    0    0  501  0.00000000000E+00  0.00000000000E+00  0.15492788386E+04  0.15492788386E+04  0.25500000920E-02 0.  1.
        2   -1    0    0  501    0  0.00000000000E+00  0.00000000000E+00 -0.17694465064E+04  0.17694465064E+04  0.25500000920E-02 0. -1.
    10030    2    1    2    0    0  0.00000000000E+00  0.00000000000E+00 -0.22016766785E+03  0.33187253450E+04  0.33114142166E+04 0.  0.
        3    1    3    3  502    0 -0.80921815404E+03 -0.56947224411E+02 -0.15566308860E+04  0.17553280983E+04  0.10100000352E+00 0. -1.
       -3    1    3    3    0  502  0.80921815404E+03  0.56947224411E+02  0.13364632182E+04  0.15633972467E+04  0.10100000352E+00 0.  1.
</event>
<event>
 5   0  0.6351753E-07  0.3297185E+04  0.7818609E-02  0.8163612E-01
       -2   -1    0    0    0  501  0.00000000000E+00  0.00000000000E+00  0.18431756715E+04  0.18431756715E+04  0.25500000920E-02 0. -1.
        2   -1    0    0  501    0  0.00000000000E+00  0.00000000000E+00 -0.14745517998E+04  0.14745517998E+04  0.25500000920E-02 0.  1.
    10030    2    1    2    0    0  0.00000000000E+00  0.00000000000E+00  0.36862387170E+03  0.33177274714E+04  0.32971854688E+04 0.  0.
        3    1    3    3  502    0  0.18797298117E+01 -0.16236608636E+04  0.47171328990E+03  0.16907961354E+04  0.10100000352E+00 0. -1.
       -3    1    3    3    0  502 -0.18797298117E+01  0.16236608636E+04 -0.10308941819E+03  0.16269313359E+04  0.10100000352E+00 0.  1.
</event>
<event>
 5   0  0.2037333E-07  0.3221144E+04  0.7818609E-02  0.8183255E-01
        1   -1    0    0  501    0  0.00000000000E+00  0.00000000000E+00  0.18036938087E+04  0.18036938087E+04  0.50400001928E-02 0. -1.
       -1   -1    0    0    0  501  0.00000000000E+00  0.00000000000E+00 -0.14381277931E+04  0.14381277931E+04  0.50400001928E-02 0.  1.
    10030    2    1    2    0    0  0.00000000000E+00  0.00000000000E+00  0.36556601562E+03  0.32418216018E+04  0.32211440182E+04 0.  0.
        3    1    3    3  502    0  0.10194646911E+04  0.89307264180E+03  0.10584575797E+04  0.17196567850E+04  0.10100000352E+00 0. -1.
       -3    1    3    3    0  502 -0.10194646911E+04 -0.89307264180E+03 -0.69289156409E+03  0.15221648168E+04  0.10100000352E+00 0.  1.
</event>
<event>
 5   0  0.2080770E-07  0.3289407E+04  0.7818609E-02  0.8165596E-01
       -1   -1    0    0    0  501  0.00000000000E+00  0.00000000000E+00  0.14300482922E+04  0.14300482922E+04  0.50400001928E-02 0.  1.
        1   -1    0    0  501    0  0.00000000000E+00  0.00000000000E+00 -0.18915793078E+04  0.18915793078E+04  0.50400001928E-02 0. -1.
    10030    2    1    2    0    0  0.00000000000E+00  0.00000000000E+00 -0.46153101565E+03  0.33216276000E+04  0.32894070947E+04 0.  0.
        4    1    3    3  502    0 -0.16941114502E+03  0.57892808850E+03  0.13143169853E+04  0.14461288388E+04  0.12699999809E+01 0.  1.
       -4    1    3    3    0  502  0.16941114502E+03 -0.57892808850E+03 -0.17758480010E+04  0.18754987612E+04  0.12699999809E+01 0. -1.
</event>
<event>
 5   0  0.1994250E-07  0.3319743E+04  0.7818609E-02  0.8157890E-01
       -3   -1    0    0    0  501  0.00000000000E+00  0.00000000000E+00  0.12076224480E+04  0.12076224522E+04  0.10100000352E+00 0.  1.
        3   -1    0    0  501    0  0.00000000000E+00  0.00000000000E+00 -0.22814853591E+04  0.22814853613E+04  0.10100000352E+00 0. -1.
    10030    2    1    2    0    0  0.00000000000E+00  0.00000000000E+00 -0.10738629111E+04  0.34891078136E+04  0.33197427284E+04 0.  0.
        2    1    3    3  502    0 -0.77697784081E+03  0.69545079971E+03 -0.18942613199E+04  0.21623071770E+04  0.25500000920E-02 0. -1.
       -2    1    3    3    0  502  0.77697784081E+03 -0.69545079971E+03  0.82039840879E+03  0.13268006365E+04  0.25500000920E-02 0.  1.
</event>
<event>
 5   0  0.6426079E-07  0.3308816E+04  0.7818609E-02  0.8160656E-01
        2   -1    0    0  501    0  0.00000000000E+00  0.00000000000E+00  0.15115707895E+04  0.15115707895E+04  0.25500000920E-02 0. -1.
       -2   -1    0    0    0  501  0.00000000000E+00  0.00000000000E+00 -0.18107425165E+04  0.18107425165E+04  0.25500000920E-02 0.  1.
    10030    2    1    2    0    0  0.00000000000E+00  0.00000000000E+00 -0.29917172692E+03  0.33223133060E+04  0.33088157974E+04 0.  0.
        4    1    3    3  502    0 -0.52081757840E+03 -0.29917271275E+03  0.13982304396E+04  0.15217769998E+04  0.12699999809E+01 0. -1.
       -4    1    3    3    0  502  0.52081757840E+03  0.29917271275E+03 -0.16974021665E+04  0.18005363062E+04  0.12699999809E+01 0.  1.
</event>
<event>
 5   0  0.6426079E-07  0.3295319E+04  0.7818609E-02  0.8164088E-01
       -2   -1    0    0    0  501  0.00000000000E+00  0.00000000000E+00  0.29800031829E+04  0.29800031829E+04  0.25500000920E-02 0. -1.
        2   -1    0    0  501    0  0.00000000000E+00  0.00000000000E+00 -0.91099946545E+03  0.91099946546E+03  0.25500000920E-02 0.  1.
    10030    2    1    2    0    0  0.00000000000E+00  0.00000000000E+00  0.20690037175E+04  0.38910026484E+04  0.32953186836E+04 0.  0.
        4    1    3    3  502    0 -0.14597352998E+04 -0.66635983066E+03  0.14761735264E+04  0.21803560403E+04  0.12699999809E+01 0.  1.
       -4    1    3    3    0  502  0.14597352998E+04  0.66635983066E+03  0.59283019109E+03  0.17106466081E+04  0.12699999809E+01 0. -1.
</event>
<event>
 5   0  0.6351753E-07  0.3296417E+04  0.7818609E-02  0.8163808E-01
        2   -1    0    0  501    0  0.00000000000E+00  0.00000000000E+00  0.30220586134E+04  0.30220586134E+04  0.25500000920E-02 0.  1.
       -2   -1    0    0    0  501  0.00000000000E+00  0.00000000000E+00 -0.89892057910E+03  0.89892057911E+03  0.25500000920E-02 0. -1.
    10030    2    1    2    0    0  0.00000000000E+00  0.00000000000E+00  0.21231380343E+04  0.39209791925E+04  0.32964166477E+04 0.  0.
        3    1    3    3  502    0  0.15975235791E+03 -0.37947635805E+03 -0.83676517432E+03  0.93257658631E+03  0.10100000352E+00 0. -1.
       -3    1    3    3    0  502 -0.15975235791E+03  0.37947635805E+03  0.29599032086E+04  0.29884026062E+04  0.10100000352E+00 0.  1.
</event>
<event>
 5   0  0.2080828E-07  0.3307173E+04  0.7818609E-02  0.8161073E-01
       -1   -1    0    0    0  501  0.00000000000E+00  0.00000000000E+00  0.18010932284E+04  0.18010932284E+04  0.50400001928E-02 0.  1.
        1   -1    0    0  501    0  0.00000000000E+00  0.00000000000E+00 -0.15181605278E+04  0.15181605278E+04  0.50400001928E-02 0. -1.
    10030    2    1    2    0    0  0.00000000000E+00  0.00000000000E+00  0.28293270061E+03  0.33192537563E+04  0.33071732016E+04 0.  0.
        1    1    3    3  502    0  0.14874743352E+04  0.60101012671E+03  0.54362388669E+03  0.16939067272E+04  0.50400001928E-02 0. -1.
       -1    1    3    3    0  502 -0.14874743352E+04 -0.60101012671E+03 -0.26069118609E+03  0.16253470291E+04  0.50400001928E-02 0.  1.
</event>
<event>
 5   0  0.6426079E-07  0.3315739E+04  0.7818609E-02  0.8158902E-01
       -2   -1    0    0    0  501  0.00000000000E+00  0.00000000000E+00  0.16392439392E+04  0.16392439392E+04  0.25500000920E-02 0.  1.
        2   -1    0    0  501    0  0.00000000000E+00  0.00000000000E+00 -0.16767070166E+04  0.16767070166E+04  0.25500000920E-02 0. -1.
    10030    2    1    2    0    0  0.00000000000E+00  0.00000000000E+00 -0.37463077400E+02  0.33159509558E+04  0.33157393232E+04 0.  0.
        4    1    3    3  502    0 -0.72882671937E+03 -0.14568748206E+04  0.28927768444E+03  0.16544956395E+04  0.12699999809E+01 0.  1.
       -4    1    3    3    0  502  0.72882671937E+03  0.14568748206E+04 -0.32674076184E+03  0.16614553163E+04  0.12699999809E+01 0. -1.
</event>
<event>
 5   0  0.2080770E-07  0.3297967E+04  0.7818609E-02  0.8163413E-01
        1   -1    0    0  501    0  0.00000000000E+00  0.00000000000E+00  0.12869020675E+04  0.12869020675E+04  0.50400001928E-02 0.  1.
       -1   -1    0    0    0  501  0.00000000000E+00  0.00000000000E+00 -0.21129402101E+04  0.21129402102E+04  0.50400001928E-02 0. -1.
    10030    2    1    2    0    0  0.00000000000E+00  0.00000000000E+00 -0.82603814266E+03  0.33998422776E+04  0.32979673285E+04 0.  0.
        4    1    3    3  502    0  0.57579114828E+02 -0.91419138648E+03  0.10004980675E+04  0.13564878332E+04  0.12699999809E+01 0.  1.
       -4    1    3    3    0  502 -0.57579114828E+02  0.91419138648E+03 -0.18265362102E+04  0.20433544444E+04  0.12699999809E+01 0. -1.
</event>
<event>
 5   0  0.6377741E-07  0.3301217E+04  0.7818609E-02  0.8162586E-01
        2   -1    0    0  501    0  0.00000000000E+00  0.00000000000E+00  0.19690626388E+04  0.19690626388E+04  0.25500000920E-02 0. -1.
       -2   -1    0    0    0  501  0.00000000000E+00  0.00000000000E+00 -0.13836576590E+04  0.13836576590E+04  0.25500000920E-02 0.  1.
    10030    2    1    2    0    0  0.00000000000E+00  0.00000000000E+00  0.58540497979E+03  0.33527202979E+04  0.33012171097E+04 0.  0.
        1    1    3    3  502    0  0.79833634817E+02 -0.52900340889E+03  0.18785665878E+04  0.19532614881E+04  0.50400001928E-02 0. -1.
       -1    1    3    3    0  502 -0.79833634817E+02  0.52900340889E+03 -0.12931616080E+04  0.13994588098E+04  0.50400001928E-02 0.  1.
</event>
<event>
 5   0  0.6258718E-07  0.3290039E+04  0.7818609E-02  0.8165435E-01
        2   -1    0    0  501    0  0.00000000000E+00  0.00000000000E+00  0.23438996574E+04  0.23438996574E+04  0.25500000920E-02 0.  1.
       -2   -1    0    0    0  501  0.00000000000E+00  0.00000000000E+00 -0.11545245123E+04  0.11545245123E+04  0.25500000920E-02 0. -1.
    10030    2    1    2    0    0  0.00000000000E+00  0.00000000000E+00  0.11893751451E+04  0.34984241697E+04  0.32900392757E+04 0.  0.
        5    1    3    3  502    0  0.66629649779E+03 -0.11168780652E+04 -0.47643750559E+03  0.13850568300E+04  0.46999998093E+01 0. -1.
       -5    1    3    3    0  502 -0.66629649779E+03  0.11168780652E+04  0.16658126507E+04  0.21133673397E+04  0.46999998093E+01 0.  1.
</event>
<event>
 5   0  0.2080828E-07  0.3291009E+04  0.7818609E-02  0.8165187E-01
       -1   -1    0    0    0  501  0.00000000000E+00  0.00000000000E+00  0.22835870564E+04  0.22835870564E+04  0.50400001928E-02 0. -1.
        1   -1    0    0  501    0  0.00000000000E+00  0.00000000000E+00 -0.11857154509E+04  0.11857154509E+04  0.50400001928E-02 0.  1.
    10030    2    1    2    0    0  0.00000000000E+00  0.00000000000E+00  0.10978716055E+04  0.34693025073E+04  0.32910086333E+04 0.  0.
        1    1    3    3  502    0 -0.12424476093E+03 -0.50509504983E+03 -0.10967700019E+04  0.12138625158E+04  0.50400001928E-02 0.  1.
       -1    1    3    3    0  502  0.12424476093E+03  0.50509504983E+03  0.21946416075E+04  0.22554399915E+04  0.50400001928E-02 0. -1.
</event>
<event>
 5   0  0.2080828E-07  0.3304805E+04  0.7818609E-02  0.8161674E-01
       -1   -1    0    0    0  501  0.00000000000E+00  0.00000000000E+00  0.19621103987E+04  0.19621103987E+04  0.50400001928E-02 0.  1.
        1   -1    0    0  501    0  0.00000000000E+00  0.00000000000E+00 -0.13915805239E+04  0.13915805239E+04  0.50400001928E-02 0. -1.
    10030    2    1    2    0    0  0.00000000000E+00  0.00000000000E+00  0.57052987485E+03  0.33536909226E+04  0.33048053598E+04 0.  0.
        1    1    3    3  502    0  0.41495465352E+03 -0.56418544068E+01  0.19083665356E+04  0.19529674931E+04  0.50400001928E-02 0.  1.
       -1    1    3    3    0  502 -0.41495465352E+03  0.56418544068E+01 -0.13378366608E+04  0.14007234295E+04  0.50400001928E-02 0. -1.
</event>
<event>
 5   0  0.2080770E-07  0.3288400E+04  0.7818609E-02  0.8165853E-01
        1   -1    0    0  501    0  0.00000000000E+00  0.00000000000E+00  0.20717720882E+04  0.20717720882E+04  0.50400001928E-02 0.  1.
       -1   -1    0    0    0  501  0.00000000000E+00  0.00000000000E+00 -0.13048698661E+04  0.13048698661E+04  0.50400001928E-02 0. -1.
    10030    2    1    2    0    0  0.00000000000E+00  0.00000000000E+00  0.76690222209E+03  0.33766419543E+04  0.32883995909E+04 0.  0.
        4    1    3    3  502    0 -0.73406039184E+02 -0.55147213382E+03 -0.12052849063E+04  0.13274875816E+04  0.12699999809E+01 0. -1.
       -4    1    3    3    0  502  0.73406039184E+02  0.55147213382E+03  0.19721871284E+04  0.20491543727E+04  0.12699999809E+01 0.  1.
</event>
<event>
 5   0  0.6426079E-07  0.3312352E+04  0.7818609E-02  0.8159760E-01
        2   -1    0    0  501    0  0.00000000000E+00  0.00000000000E+00  0.25033171830E+04  0.25033171830E+04  0.25500000920E-02 0. -1.
       -2   -1    0    0    0  501  0.00000000000E+00  0.00000000000E+00 -0.10957135914E+04  0.10957135914E+04  0.25500000920E-02 0.  1.
    10030    2    1    2    0    0  0.00000000000E+00  0.00000000000E+00  0.14076035916E+04  0.35990307744E+04  0.33123518298E+04 0.  0.
        4    1    3    3  502    0  0.10025490605E+04  0.12674880626E+04  0.10974960142E+04  0.19534916743E+04  0.12699999809E+01 0. -1.
       -4    1    3    3    0  502 -0.10025490605E+04 -0.12674880626E+04  0.31010757746E+03  0.16455391001E+04  0.12699999809E+01 0.  1.
</event>
<event>
 5   0  0.2080828E-07  0.3308206E+04  0.7818609E-02  0.8160810E-01
        1   -1    0    0  501    0  0.00000000000E+00  0.00000000000E+00  0.15049579350E+04  0.15049579350E+04  0.50400001928E-02 0.  1.
       -1   -1    0    0    0  501  0.00000000000E+00  0.00000000000E+00 -0.18180288167E+04  0.18180288167E+04  0.50400001928E-02 0. -1.
    10030    2    1    2    0    0  0.00000000000E+00  0.00000000000E+00 -0.31307088171E+03  0.33229867517E+04  0.33082060962E+04 0.  0.
        1    1    3    3  502    0  0.14020550545E+04 -0.83494187197E+03 -0.42824462926E+03  0.16870921042E+04  0.50400001928E-02 0. -1.
       -1    1    3    3    0  502 -0.14020550545E+04  0.83494187197E+03  0.11517374755E+03  0.16358946475E+04  0.50400001928E-02 0.  1.
</event>
<event>
 5   0  0.6377741E-07  0.3286917E+04  0.7818609E-02  0.8166232E-01
        2   -1    0    0  501    0  0.00000000000E+00  0.00000000000E+00  0.32909756635E+04  0.32909756635E+04  0.25500000920E-02 0. -1.
       -2   -1    0    0    0  501  0.00000000000E+00  0.00000000000E+00 -0.82071568514E+03  0.82071568514E+03  0.25500000920E-02 0.  1.
    10030    2    1    2    0    0  0.00000000000E+00  0.00000000000E+00  0.24702599784E+04  0.41116913487E+04  0.32869166990E+04 0.  0.
        1    1    3    3  502    0  0.71832973931E+02  0.57152759086E+03 -0.69030222053E+03  0.89906669327E+03  0.50400001928E-02 0.  1.
       -1    1    3    3    0  502 -0.71832973931E+02 -0.57152759086E+03  0.31605621989E+04  0.32126246554E+04  0.50400001928E-02 0. -1.
</event>
<event>
 5   0  0.1994250E-07  0.3300804E+04  0.7818609E-02  0.8162691E-01
       -3   -1    0    0    0  501  0.00000000000E+00  0.00000000000E+00  0.18271770249E+04  0.18271770276E+04  0.10100000352E+00 0. -1.
        3   -1    0    0  501    0  0.00000000000E+00  0.00000000000E+00 -0.14907294835E+04  0.14907294870E+04  0.10100000352E+00 0.  1.
    10030    2    1    2    0    0  0.00000000000E+00  0.00000000000E+00  0.33644754131E+03  0.33179065146E+04  0.33008039463E+04 0.  0.
        4    1    3    3  502    0  0.13848672832E+04  0.72699914493E+03 -0.36123102166E+03  0.16052646551E+04  0.12699999809E+01 0. -1.
       -4    1    3    3    0  502 -0.13848672832E+04 -0.72699914493E+03  0.69767856298E+03  0.17126418595E+04  0.12699999809E+01 0.  1.
</event>
<event>
 5   0  0.6351753E-07  0.3256934E+04  0.7818609E-02  0.8173941E-01
       -2   -1    0    0    0  501  0.00000000000E+00  0.00000000000E+00  0.13617118365E+04  0.13617118365E+04  0.25500000920E-02 0.  1.
        2   -1    0    0  501    0  0.00000000000E+00  0.00000000000E+00 -0.19474792169E+04  0.19474792169E+04  0.25500000920E-02 0. -1.
    10030    2    1    2    0    0  0.00000000000E+00  0.00000000000E+00 -0.58576738044E+03  0.33091910534E+04  0.32569344488E+04 0.  0.
        3    1    3    3  502    0  0.84894126036E+03  0.11526420707E+04  0.49585794903E+03  0.15149785882E+04  0.10100000352E+00 0.  1.
       -3    1    3    3    0  502 -0.84894126036E+03 -0.11526420707E+04 -0.10816253295E+04  0.17942124652E+04  0.10100000352E+00 0. -1.
</event>
<event>
 5   0  0.2080828E-07  0.3285028E+04  0.7818609E-02  0.8166715E-01
        1   -1    0    0  501    0  0.00000000000E+00  0.00000000000E+00  0.24240834769E+04  0.24240834769E+04  0.50400001928E-02 0.  1.
       -1   -1    0    0    0  501  0.00000000000E+00  0.00000000000E+00 -0.11129370665E+04  0.11129370666E+04  0.50400001928E-02 0. -1.
    10030    2    1    2    0    0  0.00000000000E+00  0.00000000000E+00  0.13111464104E+04  0.35370205435E+04  0.32850280692E+04 0.  0.
        1    1    3    3  502    0  0.89440572445E+03  0.24447170515E+03 -0.80420185758E+03  0.12273828426E+04  0.50400001928E-02 0. -1.
       -1    1    3    3    0  502 -0.89440572445E+03 -0.24447170515E+03  0.21153482680E+04  0.23096377009E+04  0.50400001928E-02 0.  1.
</event>
<event>
 5   0  0.1994250E-07  0.3296333E+04  0.7818609E-02  0.8163829E-01
        3   -1    0    0  501    0  0.00000000000E+00  0.00000000000E+00  0.17818186381E+04  0.17818186409E+04  0.10100000352E+00 0. -1.
       -3   -1    0    0    0  501  0.00000000000E+00  0.00000000000E+00 -0.15245395168E+04  0.15245395202E+04  0.10100000352E+00 0.  1.
    10030    2    1    2    0    0  0.00000000000E+00  0.00000000000E+00  0.25727912123E+03  0.33063581611E+04  0.32963330753E+04 0.  0.
        4    1    3    3  502    0 -0.52405312948E+03 -0.88069322506E+03  0.14233786328E+04  0.17539271890E+04  0.12699999809E+01 0. -1.
       -4    1    3    3    0  502  0.52405312948E+03  0.88069322506E+03 -0.11660995116E+04  0.15524309721E+04  0.12699999809E+01 0.  1.
</event>
<event>
 5   0  0.6258718E-07  0.3309205E+04  0.7818609E-02  0.8160557E-01
        2   -1    0    0  501    0  0.00000000000E+00  0.00000000000E+00  0.14994461714E+04  0.14994461714E+04  0.25500000920E-02 0.  1.
       -2   -1    0    0    0  501  0.00000000000E+00  0.00000000000E+00 -0.18258132198E+04  0.18258132198E+04  0.25500000920E-02 0. -1.
    10030    2    1    2    0    0  0.00000000000E+00  0.00000000000E+00 -0.32636704833E+03  0.33252593912E+04  0.33092045220E+04 0.  0.
        5    1    3    3  502    0  0.73506941781E+03  0.89780413902E+03 -0.13484430126E+04  0.17789603619E+04  0.46999998093E+01 0. -1.
       -5    1    3    3    0  502 -0.73506941781E+03 -0.89780413902E+03  0.10220759643E+04  0.15462990293E+04  0.46999998093E+01 0.  1.
</event>
<event>
 5   0  0.2080828E-07  0.3300048E+04  0.7818609E-02  0.8162883E-01
       -1   -1    0    0    0  501  0.00000000000E+00  0.00000000000E+00  0.20417051490E+04  0.20417051490E+04  0.50400001928E-02 0.  1.
        1   -1    0    0  501    0  0.00000000000E+00  0.00000000000E+00 -0.13334827135E+04  0.13334827135E+04  0.50400001928E-02 0. -1.
    10030    2    1    2    0    0  0.00000000000E+00  0.00000000000E+00  0.70822243553E+03  0.33751878626E+04  0.33000475890E+04 0.  0.
        1    1    3    3  502    0  0.53202613724E+03 -0.44142149189E+03  0.18864484868E+04  0.20091273324E+04  0.50400001928E-02 0.  1.
       -1    1    3    3    0  502 -0.53202613724E+03  0.44142149189E+03 -0.11782260513E+04  0.13660605302E+04  0.50400001928E-02 0. -1.
</event>
<event>
 5   0  0.2087665E-07  0.3298030E+04  0.7818609E-02  0.8163397E-01
       -1   -1    0    0    0  501  0.00000000000E+00  0.00000000000E+00  0.20346763011E+04  0.20346763011E+04  0.50400001928E-02 0.  1.
        1   -1    0    0  501    0  0.00000000000E+00  0.00000000000E+00 -0.13364538823E+04  0.13364538823E+04  0.50400001928E-02 0. -1.
    10030    2    1    2    0    0  0.00000000000E+00  0.00000000000E+00  0.69822241885E+03  0.33711301834E+04  0.32980303467E+04 0.  0.
        5    1    3    3  502    0  0.85308926550E+03 -0.12913472359E+04 -0.23261633585E+03  0.15650787291E+04  0.46999998093E+01 0. -1.
       -5    1    3    3    0  502 -0.85308926550E+03  0.12913472359E+04  0.93083875471E+03  0.18060514544E+04  0.46999998093E+01 0.  1.
</event>
<event>
 5   0  0.2037333E-07  0.3232794E+04  0.7818609E-02  0.8180210E-01
        1   -1    0    0  501    0  0.00000000000E+00  0.00000000000E+00  0.14432017783E+04  0.14432017783E+04  0.50400001928E-02 0.  1.
       -1   -1    0    0    0  501  0.00000000000E+00  0.00000000000E+00 -0.18103768317E+04  0.18103768317E+04  0.50400001928E-02 0. -1.
    10030    2    1    2    0    0  0.00000000000E+00  0.00000000000E+00 -0.36717505335E+03  0.32535786100E+04  0.32327938771E+04 0.  0.
        3    1    3    3  502    0  0.23455834821E+03  0.29167286124E+02  0.14257149249E+04  0.14451752165E+04  0.10100000352E+00 0.  1.
       -3    1    3    3    0  502 -0.23455834821E+03 -0.29167286124E+02 -0.17928899782E+04  0.18084033935E+04  0.10100000352E+00 0. -1.
</event>
<event>
 5   0  0.6426079E-07  0.3245010E+04  0.7818609E-02  0.8177030E-01
        2   -1    0    0  501    0  0.00000000000E+00  0.00000000000E+00  0.19573964072E+04  0.19573964072E+04  0.25500000920E-02 0. -1.
       -2   -1    0    0    0  501  0.00000000000E+00  0.00000000000E+00 -0.13449101604E+04  0.13449101604E+04  0.25500000920E-02 0.  1.
    10030    2    1    2    0    0  0.00000000000E+00  0.00000000000E+00  0.61248624680E+03  0.33023065675E+04  0.32450099019E+04 0.  0.
        4    1    3    3  502    0  0.10901402639E+04  0.70780557020E+03 -0.68205111340E+03  0.14678521228E+04  0.12699999809E+01 0. -1.
       -4    1    3    3    0  502 -0.10901402639E+04 -0.70780557020E+03  0.12945373602E+04  0.18344544448E+04  0.12699999809E+01 0.  1.
</event>
<event>
 5   0  0.2057130E-07  0.3263714E+04  0.7818609E-02  0.8172190E-01
       -1   -1    0    0    0  501  0.00000000000E+00  0.00000000000E+00  0.15685112399E+04  0.15685112399E+04  0.50400001928E-02 0.  1.
        1   -1    0    0  501    0  0.00000000000E+00  0.00000000000E+00 -0.16977614681E+04  0.16977614681E+04  0.50400001928E-02 0. -1.
    10030    2    1    2    0    0  0.00000000000E+00  0.00000000000E+00 -0.12925022821E+03  0.32662727080E+04  0.32637144149E+04 0.  0.
        2    1    3    3  502    0  0.76732426754E+03 -0.13675072304E+04 -0.51674841405E+03  0.16510274014E+04  0.25500000920E-02 0.  1.
       -2    1    3    3    0  502 -0.76732426754E+03  0.13675072304E+04  0.38749818585E+03  0.16152453067E+04  0.25500000920E-02 0. -1.
</event>
<event>
 5   0  0.6377741E-07  0.3331205E+04  0.7818609E-02  0.8155000E-01
        2   -1    0    0  501    0  0.00000000000E+00  0.00000000000E+00  0.15012800101E+04  0.15012800101E+04  0.25500000920E-02 0.  1.
       -2   -1    0    0    0  501  0.00000000000E+00  0.00000000000E+00 -0.18479104636E+04  0.18479104636E+04  0.25500000920E-02 0. -1.
    10030    2    1    2    0    0  0.00000000000E+00  0.00000000000E+00 -0.34663045351E+03  0.33491904737E+04  0.33312046106E+04 0.  0.
        1    1    3    3  502    0 -0.11207259731E+04  0.75326303975E+03  0.80703877318E+03  0.15731317476E+04  0.50400001928E-02 0.  1.
       -1    1    3    3    0  502  0.11207259731E+04 -0.75326303975E+03 -0.11536692267E+04  0.17760587261E+04  0.50400001928E-02 0. -1.
</event>
<event>
 5   0  0.6377741E-07  0.3288701E+04  0.7818609E-02  0.8165776E-01
        2   -1    0    0  501    0  0.00000000000E+00  0.00000000000E+00  0.16256069497E+04  0.16256069497E+04  0.25500000920E-02 0.  1.
       -2   -1    0    0    0  501  0.00000000000E+00  0.00000000000E+00 -0.16633105188E+04  0.16633105188E+04  0.25500000920E-02 0. -1.
    10030    2    1    2    0    0  0.00000000000E+00  0.00000000000E+00 -0.37703569095E+02  0.32889174685E+04  0.32887013479E+04 0.  0.
        1    1    3    3  502    0  0.20745950519E+03  0.16262929402E+04  0.10773048450E+03  0.16430076175E+04  0.50400001928E-02 0.  1.
       -1    1    3    3    0  502 -0.20745950519E+03 -0.16262929402E+04 -0.14543405359E+03  0.16459098510E+04  0.50400001928E-02 0. -1.
</event>
<event>
 5   0  0.6426079E-07  0.3297590E+04  0.7818609E-02  0.8163509E-01
        2   -1    0    0  501    0  0.00000000000E+00  0.00000000000E+00  0.22473133235E+04  0.22473133235E+04  0.25500000920E-02 0.  1.
       -2   -1    0    0    0  501  0.00000000000E+00  0.00000000000E+00 -0.12096775437E+04  0.12096775437E+04  0.25500000920E-02 0. -1.
    10030    2    1    2    0    0  0.00000000000E+00  0.00000000000E+00  0.10376357798E+04  0.34569908672E+04  0.32975897022E+04 0.  0.
        4    1    3    3  502    0 -0.13117192110E+04 -0.98159119837E+03  0.71323958208E+03  0.17868522277E+04  0.12699999809E+01 0. -1.
       -4    1    3    3    0  502  0.13117192110E+04  0.98159119837E+03  0.32439619775E+03  0.16701386395E+04  0.12699999809E+01 0.  1.
</event>
<event>
 5   0  0.6426079E-07  0.3292006E+04  0.7818609E-02  0.8164932E-01
        2   -1    0    0  501    0  0.00000000000E+00  0.00000000000E+00  0.23525475708E+04  0.23525475708E+04  0.25500000920E-02 0. -1.
       -2   -1    0    0    0  501  0.00000000000E+00  0.00000000000E+00 -0.11516560223E+04  0.11516560223E+04  0.25500000920E-02 0.  1.
    10030    2    1    2    0    0  0.00000000000E+00  0.00000000000E+00  0.12008915485E+04  0.35042035930E+04  0.32920058187E+04 0.  0.
        4    1    3    3  502    0 -0.46069108303E+03 -0.93955664266E+03 -0.75201190883E+03  0.12886141714E+04  0.12699999809E+01 0.  1.
       -4    1    3    3    0  502  0.46069108303E+03  0.93955664266E+03  0.19529034573E+04  0.22155894216E+04  0.12699999809E+01 0. -1.
</event>
<event>
 5   0  0.6351753E-07  0.3295488E+04  0.7818609E-02  0.8164044E-01
        2   -1    0    0  501    0  0.00000000000E+00  0.00000000000E+00  0.21869129408E+04  0.21869129408E+04  0.25500000920E-02 0.  1.
       -2   -1    0    0    0  501  0.00000000000E+00  0.00000000000E+00 -0.12415037291E+04  0.12415037291E+04  0.25500000920E-02 0. -1.
    10030    2    1    2    0    0  0.00000000000E+00  0.00000000000E+00  0.94540921166E+03  0.34284166699E+04  0.32954881710E+04 0.  0.
        3    1    3    3  502    0  0.13002363360E+04  0.21125611539E+03  0.15024889874E+04  0.19981783812E+04  0.10100000352E+00 0.  1.
       -3    1    3    3    0  502 -0.13002363360E+04 -0.21125611539E+03 -0.55707977570E+03  0.14302382887E+04  0.10100000352E+00 0. -1.
</event>
<event>
 5   0  0.2037333E-07  0.3298157E+04  0.7818609E-02  0.8163364E-01
        1   -1    0    0  501    0  0.00000000000E+00  0.00000000000E+00  0.13087542799E+04  0.13087542799E+04  0.50400001928E-02 0.  1.
       -1   -1    0    0    0  501  0.00000000000E+00  0.00000000000E+00 -0.20778999324E+04  0.20778999324E+04  0.50400001928E-02 0. -1.
    10030    2    1    2    0    0  0.00000000000E+00  0.00000000000E+00 -0.76914565253E+03  0.33866542124E+04  0.32981573218E+04 0.  0.
        3    1    3    3  502    0 -0.13417127470E+04  0.41564113406E+03  0.50261839751E+03  0.14918364225E+04  0.10100000352E+00 0.  1.
       -3    1    3    3    0  502  0.13417127470E+04 -0.41564113406E+03 -0.12717640500E+04  0.18948177899E+04  0.10100000352E+00 0. -1.
</event>
<event>
 5   0  0.2080828E-07  0.3301572E+04  0.7818609E-02  0.8162496E-01
        1   -1    0    0  501    0  0.00000000000E+00  0.00000000000E+00  0.19466427502E+04  0.19466427502E+04  0.50400001928E-02 0. -1.
       -1   -1    0    0    0  501  0.00000000000E+00  0.00000000000E+00 -0.13998943691E+04  0.13998943691E+04  0.50400001928E-02 0.  1.
    10030    2    1    2    0    0  0.00000000000E+00  0.00000000000E+00  0.54674838105E+03  0.33465371193E+04  0.33015718830E+04 0.  0.
        1    1    3    3  502    0 -0.89475728324E+03  0.12057901718E+04 -0.42195219567E+03  0.15596679742E+04  0.50400001928E-02 0.  1.
       -1    1    3    3    0  502  0.89475728324E+03 -0.12057901718E+04  0.96870057673E+03  0.17868691451E+04  0.50400001928E-02 0. -1.
</event>
<event>
 5   0  0.6351753E-07  0.3304187E+04  0.7818609E-02  0.8161831E-01
       -2   -1    0    0    0  501  0.00000000000E+00  0.00000000000E+00  0.13290183887E+04  0.13290183887E+04  0.25500000920E-02 0.  1.
        2   -1    0    0  501    0  0.00000000000E+00  0.00000000000E+00 -0.20537060351E+04  0.20537060351E+04  0.25500000920E-02 0. -1.
    10030    2    1    2    0    0  0.00000000000E+00  0.00000000000E+00 -0.72468764642E+03  0.33827244238E+04  0.33041870926E+04 0.  0.
        3    1    3    3  502    0 -0.52880049243E+03 -0.12304718694E+04  0.62797590478E+03  0.14792040864E+04  0.10100000352E+00 0.  1.
       -3    1    3    3    0  502  0.52880049243E+03  0.12304718694E+04 -0.13526635512E+04  0.19035203374E+04  0.10100000352E+00 0. -1.
</event>
<event>
 5   0  0.6424183E-07  0.3293915E+04  0.7818609E-02  0.8164445E-01
       -2   -1    0    0    0  501  0.00000000000E+00  0.00000000000E+00  0.13278058175E+04  0.13278058175E+04  0.25500000920E-02 0.  1.
        2   -1    0    0  501    0  0.00000000000E+00  0.00000000000E+00 -0.20428204539E+04  0.20428204539E+04  0.25500000920E-02 0. -1.
    10030    2    1    2    0    0  0.00000000000E+00  0.00000000000E+00 -0.71501463632E+03  0.33706262714E+04  0.32939149247E+04 0.  0.
        2    1    3    3  502    0  0.89886965653E+03  0.85027385759E+03 -0.14698069955E+04  0.19212664824E+04  0.25500000920E-02 0. -1.
       -2    1    3    3    0  502 -0.89886965653E+03 -0.85027385759E+03  0.75479235921E+03  0.14493597890E+04  0.25500000920E-02 0.  1.
</event>
<event>
 5   0  0.2080828E-07  0.3292616E+04  0.7818609E-02  0.8164777E-01
       -1   -1    0    0    0  501  0.00000000000E+00  0.00000000000E+00  0.29876288712E+04  0.29876288712E+04  0.50400001928E-02 0.  1.
        1   -1    0    0  501    0  0.00000000000E+00  0.00000000000E+00 -0.90718420262E+03  0.90718420264E+03  0.50400001928E-02 0. -1.
    10030    2    1    2    0    0  0.00000000000E+00  0.00000000000E+00  0.20804446686E+04  0.38948130738E+04  0.32926158083E+04 0.  0.
        1    1    3    3  502    0 -0.51650970496E+03 -0.59213064727E+03  0.27515090565E+04  0.28615036374E+04  0.50400001928E-02 0.  1.
       -1    1    3    3    0  502  0.51650970496E+03  0.59213064727E+03 -0.67106438791E+03  0.10333094365E+04  0.50400001928E-02 0. -1.
</event>
<event>
 5   0  0.6377741E-07  0.3304986E+04  0.7818609E-02  0.8161628E-01
       -2   -1    0    0    0  501  0.00000000000E+00  0.00000000000E+00  0.16604603746E+04  0.16604603746E+04  0.25500000920E-02 0.  1.
        2   -1    0    0  501    0  0.00000000000E+00  0.00000000000E+00 -0.16445643502E+04  0.16445643502E+04  0.25500000920E-02 0. -1.
    10030    2    1    2    0    0  0.00000000000E+00  0.00000000000E+00  0.15896024407E+02  0.33050247248E+04  0.33049864974E+04 0.  0.
        1    1    3    3  502    0 -0.10106616635E+04 -0.13028895580E+04 -0.10056931856E+03  0.16519904316E+04  0.50400001928E-02 0.  1.
       -1    1    3    3    0  502  0.10106616635E+04  0.13028895580E+04  0.11646534296E+03  0.16530342932E+04  0.50400001928E-02 0. -1.
</event>
<event>
 5   0  0.2057130E-07  0.3305810E+04  0.7818609E-02  0.8161419E-01
       -1   -1    0    0    0  501  0.00000000000E+00  0.00000000000E+00  0.31491443232E+04  0.31491443232E+04  0.50400001928E-02 0. -1.
        1   -1    0    0  501    0  0.00000000000E+00  0.00000000000E+00 -0.86756749297E+03  0.86756749298E+03  0.50400001928E-02 0.  1.
    10030    2    1    2    0    0  0.00000000000E+00  0.00000000000E+00  0.22815768302E+04  0.40167118161E+04  0.33058101854E+04 0.  0.
        2    1    3    3  502    0 -0.12654418180E+04  0.47308747581E+03  0.22979184229E+04  0.26656301005E+04  0.25500000920E-02 0. -1.
       -2    1    3    3    0  502  0.12654418180E+04 -0.47308747581E+03 -0.16341592711E+02  0.13510817156E+04  0.25500000920E-02 0.  1.
</event>
<event>
 5   0  0.6258718E-07  0.3298173E+04  0.7818609E-02  0.8163360E-01
       -2   -1    0    0    0  501  0.00000000000E+00  0.00000000000E+00  0.16373687790E+04  0.16373687790E+04  0.25500000920E-02 0. -1.
        2   -1    0    0  501    0  0.00000000000E+00  0.00000000000E+00 -0.16608884963E+04  0.16608884963E+04  0.25500000920E-02 0.  1.
    10030    2    1    2    0    0  0.00000000000E+00  0.00000000000E+00 -0.23519717247E+02  0.32982572753E+04  0.32981734153E+04 0.  0.
        5    1    3    3  502    0  0.43310663027E+03 -0.12065079599E+04 -0.10491974702E+04  0.16565265564E+04  0.46999998093E+01 0. -1.
       -5    1    3    3    0  502 -0.43310663027E+03  0.12065079599E+04  0.10256777530E+04  0.16417307189E+04  0.46999998093E+01 0.  1.
</event>
<event>
 5   0  0.2057130E-07  0.3301166E+04  0.7818609E-02  0.8162599E-01
        1   -1    0    0  501    0  0.00000000000E+00  0.00000000000E+00  0.13994302422E+04  0.13994302422E+04  0.50400001928E-02 0.  1.
       -1   -1    0    0    0  501  0.00000000000E+00  0.00000000000E+00 -0.19468092201E+04  0.19468092201E+04  0.50400001928E-02 0. -1.
    10030    2    1    2    0    0  0.00000000000E+00  0.00000000000E+00 -0.54737897789E+03  0.33462394623E+04  0.33011656720E+04 0.  0.
        2    1    3    3  502    0  0.85004138700E+02  0.73702823445E+03  0.12208872033E+04  0.14286363726E+04  0.25500000920E-02 0.  1.
       -2    1    3    3    0  502 -0.85004138700E+02 -0.73702823445E+03 -0.17682661812E+04  0.19176030897E+04  0.25500000920E-02 0. -1.
</event>
<event>
 5   0  0.2037333E-07  0.3265356E+04  0.7818609E-02  0.8171767E-01
        1   -1    0    0  501    0  0.00000000000E+00  0.00000000000E+00  0.18297357234E+04  0.18297357234E+04  0.50400001928E-02 0. -1.
       -1   -1    0    0    0  501  0.00000000000E+00  0.00000000000E+00 -0.14568432789E+04  0.14568432789E+04  0.50400001928E-02 0.  1.
    10030    2    1    2    0    0  0.00000000000E+00  0.00000000000E+00  0.37289244444E+03  0.32865790023E+04  0.32653564527E+04 0.  0.
        3    1    3    3  502    0 -0.15978375789E+04 -0.47055380801E+02 -0.14788588552E+03  0.16053564660E+04  0.10100000352E+00 0. -1.
       -3    1    3    3    0  502  0.15978375789E+04  0.47055380801E+02  0.52077832995E+03  0.16812225363E+04  0.10100000352E+00 0.  1.
</event>
<event>
 5   0  0.2087665E-07  0.3292492E+04  0.7818609E-02  0.8164808E-01
        1   -1    0    0  501    0  0.00000000000E+00  0.00000000000E+00  0.15977342127E+04  0.15977342127E+04  0.50400001928E-02 0.  1.
       -1   -1    0    0    0  501  0.00000000000E+00  0.00000000000E+00 -0.16962310110E+04  0.16962310110E+04  0.50400001928E-02 0. -1.
    10030    2    1    2    0    0  0.00000000000E+00  0.00000000000E+00 -0.98496798290E+02  0.32939652238E+04  0.32924922591E+04 0.  0.
        5    1    3    3  502    0  0.58100932191E+03  0.12783548492E+04 -0.90890068282E+03  0.16726881042E+04  0.46999998093E+01 0. -1.
       -5    1    3    3    0  502 -0.58100932191E+03 -0.12783548492E+04  0.81040388453E+03  0.16212771196E+04  0.46999998093E+01 0.  1.
</event>
<event>
 5   0  0.6377741E-07  0.3278093E+04  0.7818609E-02  0.8168492E-01
        2   -1    0    0  501    0  0.00000000000E+00  0.00000000000E+00  0.19961054786E+04  0.19961054786E+04  0.25500000920E-02 0.  1.
       -2   -1    0    0    0  501  0.00000000000E+00  0.00000000000E+00 -0.13458576011E+04  0.13458576011E+04  0.25500000920E-02 0. -1.
    10030    2    1    2    0    0  0.00000000000E+00  0.00000000000E+00  0.65024787749E+03  0.33419630797E+04  0.32780931841E+04 0.  0.
        1    1    3    3  502    0  0.30789074380E+03  0.16098670183E+04  0.32279819198E+03  0.16705290178E+04  0.50400001928E-02 0.  1.
       -1    1    3    3    0  502 -0.30789074380E+03 -0.16098670183E+04  0.32744968551E+03  0.16714340619E+04  0.50400001928E-02 0. -1.
</event>
<event>
 5   0  0.2037333E-07  0.3304490E+04  0.7818609E-02  0.8161754E-01
        1   -1    0    0  501    0  0.00000000000E+00  0.00000000000E+00  0.24839321039E+04  0.24839321039E+04  0.50400001928E-02 0. -1.
       -1   -1    0    0    0  501  0.00000000000E+00  0.00000000000E+00 -0.10990290629E+04  0.10990290629E+04  0.50400001928E-02 0.  1.
    10030    2    1    2    0    0  0.00000000000E+00  0.00000000000E+00  0.13849030409E+04  0.35829611668E+04  0.33044900196E+04 0.  0.
        3    1    3    3  502    0 -0.78132285892E+02  0.10888466368E+04 -0.65231581998E+03  0.12716947715E+04  0.10100000352E+00 0.  1.
       -3    1    3    3    0  502  0.78132285892E+02 -0.10888466368E+04  0.20372188609E+04  0.23112663953E+04  0.10100000352E+00 0. -1.
</event>
<event>
 5   0  0.6424183E-07  0.3287973E+04  0.7818609E-02  0.8165962E-01
       -2   -1    0    0    0  501  0.00000000000E+00  0.00000000000E+00  0.11833808936E+04  0.11833808936E+04  0.25500000920E-02 0.  1.
        2   -1    0    0  501    0  0.00000000000E+00  0.00000000000E+00 -0.22838726993E+04  0.22838726993E+04  0.25500000920E-02 0. -1.
    10030    2    1    2    0    0  0.00000000000E+00  0.00000000000E+00 -0.11004918058E+04  0.34672535929E+04  0.32879728197E+04 0.  0.
        2    1    3    3  502    0  0.94741265142E+03 -0.13377482907E+04 -0.41883105540E+03  0.16919162728E+04  0.25500000920E-02 0.  1.
       -2    1    3    3    0  502 -0.94741265142E+03  0.13377482907E+04 -0.68166075037E+03  0.17753373200E+04  0.25500000920E-02 0. -1.
</event>
<event>
 5   0  0.2080770E-07  0.3292819E+04  0.7818609E-02  0.8164725E-01
       -1   -1    0    0    0  501  0.00000000000E+00  0.00000000000E+00  0.15318497886E+04  0.15318497886E+04  0.50400001928E-02 0. -1.
        1   -1    0    0  501    0  0.00000000000E+00  0.00000000000E+00 -0.17695368090E+04  0.17695368090E+04  0.50400001928E-02 0.  1.
    10030    2    1    2    0    0  0.00000000000E+00  0.00000000000E+00 -0.23768702040E+03  0.33013865976E+04  0.32928192096E+04 0.  0.
        4    1    3    3  502    0 -0.18189081798E+03  0.43757160218E+03 -0.16996861797E+04  0.17645078348E+04  0.12699999809E+01 0.  1.
       -4    1    3    3    0  502  0.18189081798E+03 -0.43757160218E+03  0.14619991593E+04  0.15368787628E+04  0.12699999809E+01 0. -1.
</event>
<event>
 5   0  0.2087665E-07  0.3308155E+04  0.7818609E-02  0.8160823E-01
       -1   -1    0    0    0  501  0.00000000000E+00  0.00000000000E+00  0.17042885075E+04  0.17042885075E+04  0.50400001928E-02 0.  1.
        1   -1    0    0  501    0  0.00000000000E+00  0.00000000000E+00 -0.16053459323E+04  0.16053459324E+04  0.50400001928E-02 0. -1.
    10030    2    1    2    0    0  0.00000000000E+00  0.00000000000E+00  0.98942575166E+02  0.33096344399E+04  0.33081551494E+04 0.  0.
        5    1    3    3  502    0  0.41481836834E+03  0.88454860517E+03  0.13847778363E+04  0.16947366343E+04  0.46999998093E+01 0.  1.
       -5    1    3    3    0  502 -0.41481836834E+03 -0.88454860517E+03 -0.12858352612E+04  0.16148978056E+04  0.46999998093E+01 0. -1.
</event>
<event>
 5   0  0.6258718E-07  0.3301819E+04  0.7818609E-02  0.8162433E-01
       -2   -1    0    0    0  501  0.00000000000E+00  0.00000000000E+00  0.13302670668E+04  0.13302670668E+04  0.25500000920E-02 0. -1.
        2   -1    0    0  501    0  0.00000000000E+00  0.00000000000E+00 -0.20488383325E+04  0.20488383325E+04  0.25500000920E-02 0.  1.
    10030    2    1    2    0    0  0.00000000000E+00  0.00000000000E+00 -0.71857126571E+03  0.33791053994E+04  0.33018189890E+04 0.  0.
        5    1    3    3  502    0 -0.42840670190E+03  0.94876070333E+03  0.95203447698E+03  0.14106987310E+04  0.46999998093E+01 0. -1.
       -5    1    3    3    0  502  0.42840670190E+03 -0.94876070333E+03 -0.16706057427E+04  0.19684066683E+04  0.46999998093E+01 0.  1.
</event>
<event>
 5   0  0.2087665E-07  0.3353595E+04  0.7818609E-02  0.8149390E-01
        1   -1    0    0  501    0  0.00000000000E+00  0.00000000000E+00  0.18418175291E+04  0.18418175291E+04  0.50400001928E-02 0.  1.
       -1   -1    0    0    0  501  0.00000000000E+00  0.00000000000E+00 -0.15265630387E+04  0.15265630388E+04  0.50400001928E-02 0. -1.
    10030    2    1    2    0    0  0.00000000000E+00  0.00000000000E+00  0.31525449037E+03  0.33683805679E+04  0.33535954223E+04 0.  0.
        5    1    3    3  502    0 -0.97948827512E+03  0.11956015165E+04 -0.49544562829E+03  0.16230676905E+04  0.46999998093E+01 0. -1.
       -5    1    3    3    0  502  0.97948827512E+03 -0.11956015165E+04  0.81070011867E+03  0.17453128774E+04  0.46999998093E+01 0.  1.
</event>
<event>
 5   0  0.2057130E-07  0.3271538E+04  0.7818609E-02  0.8170176E-01
        1   -1    0    0  501    0  0.00000000000E+00  0.00000000000E+00  0.18666332382E+04  0.18666332382E+04  0.50400001928E-02 0. -1.
       -1   -1    0    0    0  501  0.00000000000E+00  0.00000000000E+00 -0.14334575906E+04  0.14334575906E+04  0.50400001928E-02 0.  1.
    10030    2    1    2    0    0  0.00000000000E+00  0.00000000000E+00  0.43317564760E+03  0.33000908288E+04  0.32715376105E+04 0.  0.
        2    1    3    3  502    0 -0.11359434349E+04 -0.48634706286E+03  0.12977814858E+04  0.17919647703E+04  0.25500000920E-02 0. -1.
       -2    1    3    3    0  502  0.11359434349E+04  0.48634706286E+03 -0.86460583823E+03  0.15081260585E+04  0.25500000920E-02 0.  1.
</event>
<event>
 5   0  0.6377741E-07  0.3301739E+04  0.7818609E-02  0.8162453E-01
       -2   -1    0    0    0  501  0.00000000000E+00  0.00000000000E+00  0.10391560997E+04  0.10391560997E+04  0.25500000920E-02 0.  1.
        2   -1    0    0  501    0  0.00000000000E+00  0.00000000000E+00 -0.26226759807E+04  0.26226759807E+04  0.25500000920E-02 0. -1.
    10030    2    1    2    0    0  0.00000000000E+00  0.00000000000E+00 -0.15835198809E+04  0.36618320804E+04  0.33017387801E+04 0.  0.
        1    1    3    3  502    0 -0.35473693077E+03  0.15389226591E+04 -0.13250889151E+04  0.20615484165E+04  0.50400001928E-02 0.  1.
       -1    1    3    3    0  502  0.35473693077E+03 -0.15389226591E+04 -0.25843096587E+03  0.16002836639E+04  0.50400001928E-02 0. -1.
</event>
<event>
 5   0  0.2080828E-07  0.3290289E+04  0.7818609E-02  0.8165371E-01
        1   -1    0    0  501    0  0.00000000000E+00  0.00000000000E+00  0.21821844311E+04  0.21821844311E+04  0.50400001928E-02 0.  1.
       -1   -1    0    0    0  501  0.00000000000E+00  0.00000000000E+00 -0.12402709521E+04  0.12402709521E+04  0.50400001928E-02 0. -1.
    10030    2    1    2    0    0  0.00000000000E+00  0.00000000000E+00  0.94191347894E+03  0.34224553832E+04  0.32902887181E+04 0.  0.
        1    1    3    3  502    0 -0.12180019008E+04 -0.50425272786E+03 -0.55280419380E+03  0.14294726023E+04  0.50400001928E-02 0. -1.
       -1    1    3    3    0  502  0.12180019008E+04  0.50425272786E+03  0.14947176727E+04  0.19929827810E+04  0.50400001928E-02 0.  1.
</event>
<event>
 5   0  0.6377741E-07  0.3290233E+04  0.7818609E-02  0.8165385E-01
        2   -1    0    0  501    0  0.00000000000E+00  0.00000000000E+00  0.14369459033E+04  0.14369459033E+04  0.25500000920E-02 0. -1.
       -2   -1    0    0    0  501  0.00000000000E+00  0.00000000000E+00 -0.18834450530E+04  0.18834450530E+04  0.25500000920E-02 0.  1.
    10030    2    1    2    0    0  0.00000000000E+00  0.00000000000E+00 -0.44649914977E+03  0.33203909563E+04  0.32902332154E+04 0.  0.
        1    1    3    3  502    0  0.14246330512E+04 -0.68782168862E+03 -0.67875203022E+03  0.17214477408E+04  0.50400001928E-02 0.  1.
       -1    1    3    3    0  502 -0.14246330512E+04  0.68782168862E+03  0.23225288045E+03  0.15989432155E+04  0.50400001928E-02 0. -1.
</event>
<event>
 5   0  0.6377741E-07  0.3299666E+04  0.7818609E-02  0.8162980E-01
        2   -1    0    0  501    0  0.00000000000E+00  0.00000000000E+00  0.26132548238E+04  0.26132548238E+04  0.25500000920E-02 0. -1.
       -2   -1    0    0    0  501  0.00000000000E+00  0.00000000000E+00 -0.10415934564E+04  0.10415934564E+04  0.25500000920E-02 0.  1.
    10030    2    1    2    0    0  0.00000000000E+00  0.00000000000E+00  0.15716613674E+04  0.36548482802E+04  0.32996661191E+04 0.  0.
        1    1    3    3  502    0  0.94049686383E+03 -0.52797666076E+03  0.21686785780E+04  0.24220777196E+04  0.50400001928E-02 0. -1.
       -1    1    3    3    0  502 -0.94049686383E+03  0.52797666076E+03 -0.59701721065E+03  0.12327705606E+04  0.50400001928E-02 0.  1.
</event>
<event>
 5   0  0.2080770E-07  0.3285146E+04  0.7818609E-02  0.8166685E-01
       -1   -1    0    0    0  501  0.00000000000E+00  0.00000000000E+00  0.11979457801E+04  0.11979457801E+04  0.50400001928E-02 0. -1.
        1   -1    0    0  501    0  0.00000000000E+00  0.00000000000E+00 -0.22522275636E+04  0.22522275636E+04  0.50400001928E-02 0.  1.
    10030    2    1    2    0    0  0.00000000000E+00  0.00000000000E+00 -0.10542817835E+04  0.34501733438E+04  0.32851462712E+04 0.  0.
        4    1    3    3  502    0 -0.86246141018E+03  0.69525261233E+03  0.74655954665E+03  0.13358774826E+04  0.12699999809E+01 0. -1.
       -4    1    3    3    0  502  0.86246141018E+03 -0.69525261233E+03 -0.18008413302E+04  0.21142958611E+04  0.12699999809E+01 0.  1.
</event>
<event>
 5   0  0.2087665E-07  0.3287069E+04  0.7818609E-02  0.8166194E-01
       -1   -1    0    0    0  501  0.00000000000E+00  0.00000000000E+00  0.27370131004E+04  0.27370131004E+04  0.50400001928E-02 0. -1.
        1   -1    0    0  501    0  0.00000000000E+00  0.00000000000E+00 -0.98691716645E+03  0.98691716646E+03  0.50400001928E-02 0.  1.
    10030    2    1    2    0    0  0.00000000000E+00  0.00000000000E+00  0.17500959339E+04  0.37239302668E+04  0.32870687328E+04 0.  0.
        5    1    3    3  502    0 -0.11040001030E+04 -0.31101212592E+03 -0.45852782286E+03  0.12352386912E+04  0.46999998093E+01 0.  1.
       -5    1    3    3    0  502  0.11040001030E+04  0.31101212592E+03  0.22086237568E+04  0.24886915757E+04  0.46999998093E+01 0. -1.
</event>
<event>
 5   0  0.6377741E-07  0.3291929E+04  0.7818609E-02  0.8164952E-01
        2   -1    0    0  501    0  0.00000000000E+00  0.00000000000E+00  0.27789429433E+04  0.27789429433E+04  0.25500000920E-02 0. -1.
       -2   -1    0    0    0  501  0.00000000000E+00  0.00000000000E+00 -0.97490287108E+03  0.97490287108E+03  0.25500000920E-02 0.  1.
    10030    2    1    2    0    0  0.00000000000E+00  0.00000000000E+00  0.18040400722E+04  0.37538458144E+04  0.32919291936E+04 0.  0.
        1    1    3    3  502    0 -0.20640459795E+03  0.13835470307E+04 -0.87099244113E+02  0.14015675234E+04  0.50400001928E-02 0.  1.
       -1    1    3    3    0  502  0.20640459795E+03 -0.13835470307E+04  0.18911393163E+04  0.23522782910E+04  0.50400001928E-02 0. -1.
</event>
<event>
 5   0  0.2080770E-07  0.3296604E+04  0.7818609E-02  0.8163760E-01
        1   -1    0    0  501    0  0.00000000000E+00  0.00000000000E+00  0.14307766982E+04  0.14307766982E+04  0.50400001928E-02 0. -1.
       -1   -1    0    0    0  501  0.00000000000E+00  0.00000000000E+00 -0.18988978983E+04  0.18988978983E+04  0.50400001928E-02 0.  1.
    10030    2    1    2    0    0  0.00000000000E+00  0.00000000000E+00 -0.46812120010E+03  0.33296745966E+04  0.32966036251E+04 0.  0.
        4    1    3    3  502    0  0.14731381527E+04 -0.16937330539E+03  0.49293356550E+03  0.15626286976E+04  0.12699999809E+01 0. -1.
       -4    1    3    3    0  502 -0.14731381527E+04  0.16937330539E+03 -0.96105476560E+03  0.17670458990E+04  0.12699999809E+01 0.  1.
</event>
<event>
 5   0  0.2080828E-07  0.3298016E+04  0.7818609E-02  0.8163400E-01
        1   -1    0    0  501    0  0.00000000000E+00  0.00000000000E+00  0.27426086496E+04  0.27426086496E+04  0.50400001928E-02 0.  1.
       -1   -1    0    0    0  501  0.00000000000E+00  0.00000000000E+00 -0.99147492063E+03  0.99147492065E+03  0.50400001928E-02 0. -1.
    10030    2    1    2    0    0  0.00000000000E+00  0.00000000000E+00  0.17511337289E+04  0.37340835702E+04  0.32980161875E+04 0.  0.
        1    1    3    3  502    0  0.32082847668E+03 -0.12717560203E+04 -0.25605028116E+03  0.13363592456E+04  0.50400001928E-02 0. -1.
       -1    1    3    3    0  502 -0.32082847668E+03  0.12717560203E+04  0.20071840101E+04  0.23977243247E+04  0.50400001928E-02 0.  1.
</event>
<event>
 5   0  0.2087665E-07  0.3303089E+04  0.7818609E-02  0.8162110E-01
        1   -1    0    0  501    0  0.00000000000E+00  0.00000000000E+00  0.18807218352E+04  0.18807218352E+04  0.50400001928E-02 0.  1.
       -1   -1    0    0    0  501  0.00000000000E+00  0.00000000000E+00 -0.14502938421E+04  0.14502938421E+04  0.50400001928E-02 0. -1.
    10030    2    1    2    0    0  0.00000000000E+00  0.00000000000E+00  0.43042799316E+03  0.33310156773E+04  0.33030890368E+04 0.  0.
        5    1    3    3  502    0 -0.94181849916E+03  0.70756186314E+03  0.13825460907E+04  0.18163484408E+04  0.46999998093E+01 0.  1.
       -5    1    3    3    0  502  0.94181849916E+03 -0.70756186314E+03 -0.95211809759E+03  0.15146672365E+04  0.46999998093E+01 0. -1.
</event>
<event>
 5   0  0.6426079E-07  0.3300525E+04  0.7818609E-02  0.8162762E-01
       -2   -1    0    0    0  501  0.00000000000E+00  0.00000000000E+00  0.15983295428E+04  0.15983295428E+04  0.25500000920E-02 0. -1.
        2   -1    0    0  501    0  0.00000000000E+00  0.00000000000E+00 -0.17038824357E+04  0.17038824357E+04  0.25500000920E-02 0.  1.
    10030    2    1    2    0    0  0.00000000000E+00  0.00000000000E+00 -0.10555289294E+03  0.33022119786E+04  0.33005245853E+04 0.  0.
        4    1    3    3  502    0  0.15398868594E+04 -0.41373149291E+03 -0.47836285463E+03  0.16647095607E+04  0.12699999809E+01 0.  1.
       -4    1    3    3    0  502 -0.15398868594E+04  0.41373149291E+03  0.37280996170E+03  0.16375024178E+04  0.12699999809E+01 0. -1.
</event>
<event>
 5   0  0.6424183E-07  0.3260990E+04  0.7818609E-02  0.8172893E-01
        2   -1    0    0  501    0  0.00000000000E+00  0.00000000000E+00  0.24885755716E+04  0.24885755716E+04  0.25500000920E-02 0.  1.
       -2   -1    0    0    0  501  0.00000000000E+00  0.00000000000E+00 -0.10682871822E+04  0.10682871822E+04  0.25500000920E-02 0. -1.
    10030    2    1    2    0    0  0.00000000000E+00  0.00000000000E+00  0.14202883895E+04  0.35568627538E+04  0.32609896565E+04 0.  0.
        2    1    3    3  502    0 -0.11010093476E+04 -0.36165152235E+03 -0.54087251041E+03  0.12788887675E+04  0.25500000920E-02 0. -1.
       -2    1    3    3    0  502  0.11010093476E+04  0.36165152235E+03  0.19611608999E+04  0.22779739863E+04  0.25500000920E-02 0.  1.
</event>
<event>
 5   0  0.2087665E-07  0.3305696E+04  0.7818609E-02  0.8161447E-01
       -1   -1    0    0    0  501  0.00000000000E+00  0.00000000000E+00  0.13188080792E+04  0.13188080792E+04  0.50400001928E-02 0.  1.
        1   -1    0    0  501    0  0.00000000000E+00  0.00000000000E+00 -0.20714969942E+04  0.20714969942E+04  0.50400001928E-02 0. -1.
    10030    2    1    2    0    0  0.00000000000E+00  0.00000000000E+00 -0.75268891500E+03  0.33903050735E+04  0.33056962789E+04 0.  0.
        5    1    3    3  502    0 -0.15686139339E+04 -0.28032812259E+03 -0.82661604893E+03  0.17951183004E+04  0.46999998093E+01 0. -1.
       -5    1    3    3    0  502  0.15686139339E+04  0.28032812259E+03  0.73927133931E+02  0.15951867731E+04  0.46999998093E+01 0.  1.
</event>
<event>
 5   0  0.2080828E-07  0.3303867E+04  0.7818609E-02  0.8161912E-01
       -1   -1    0    0    0  501  0.00000000000E+00  0.00000000000E+00  0.13039110622E+04  0.13039110622E+04  0.50400001928E-02 0.  1.
        1   -1    0    0  501    0  0.00000000000E+00  0.00000000000E+00 -0.20928454338E+04  0.20928454338E+04  0.50400001928E-02 0. -1.
    10030    2    1    2    0    0  0.00000000000E+00  0.00000000000E+00 -0.78893437158E+03  0.33967564960E+04  0.33038670147E+04 0.  0.
        1    1    3    3  502    0  0.86110752522E+03  0.14022723767E+04 -0.24544249414E+03  0.16637656105E+04  0.50400001928E-02 0.  1.
       -1    1    3    3    0  502 -0.86110752522E+03 -0.14022723767E+04 -0.54349187744E+03  0.17329908856E+04  0.50400001928E-02 0. -1.
</event>
<event>
 5   0  0.6351753E-07  0.3299030E+04  0.7818609E-02  0.8163142E-01
       -2   -1    0    0    0  501  0.00000000000E+00  0.00000000000E+00  0.11342876021E+04  0.11342876021E+04  0.25500000920E-02 0. -1.
        2   -1    0    0  501    0  0.00000000000E+00  0.00000000000E+00 -0.23987740584E+04  0.23987740584E+04  0.25500000920E-02 0.  1.
    10030    2    1    2    0    0  0.00000000000E+00  0.00000000000E+00 -0.12644864563E+04  0.35330616605E+04  0.32990299633E+04 0.  0.
        3    1    3    3  502    0 -0.64369747339E+02  0.17813666323E+03 -0.23870892071E+04  0.23945920379E+04  0.10100000352E+00 0.  1.
       -3    1    3    3    0  502  0.64369747339E+02 -0.17813666323E+03  0.11226027508E+04  0.11384696226E+04  0.10100000352E+00 0. -1.
</event>
<event>
 5   0  0.6426079E-07  0.3300161E+04  0.7818609E-02  0.8162854E-01
       -2   -1    0    0    0  501  0.00000000000E+00  0.00000000000E+00  0.11999242989E+04  0.11999242989E+04  0.25500000920E-02 0. -1.
        2   -1    0    0  501    0  0.00000000000E+00  0.00000000000E+00 -0.22691143801E+04  0.22691143801E+04  0.25500000920E-02 0.  1.
    10030    2    1    2    0    0  0.00000000000E+00  0.00000000000E+00 -0.10691900812E+04  0.34690386789E+04  0.33001608940E+04 0.  0.
        4    1    3    3  502    0  0.76361152148E+03  0.43308973328E+03  0.93407575151E+03  0.12818613011E+04  0.12699999809E+01 0. -1.
       -4    1    3    3    0  502 -0.76361152148E+03 -0.43308973328E+03 -0.20032658327E+04  0.21871773778E+04  0.12699999809E+01 0.  1.
</event>
<event>
 5   0  0.6426079E-07  0.3318508E+04  0.7818609E-02  0.8158202E-01
       -2   -1    0    0    0  501  0.00000000000E+00  0.00000000000E+00  0.13809325465E+04  0.13809325466E+04  0.25500000920E-02 0.  1.
        2   -1    0    0  501    0  0.00000000000E+00  0.00000000000E+00 -0.19936699873E+04  0.19936699873E+04  0.25500000920E-02 0. -1.
    10030    2    1    2    0    0  0.00000000000E+00  0.00000000000E+00 -0.61273744074E+03  0.33746025338E+04  0.33185079614E+04 0.  0.
        4    1    3    3  502    0  0.63612829388E+03 -0.40666830957E+03  0.11961329785E+04  0.14144871988E+04  0.12699999809E+01 0.  1.
       -4    1    3    3    0  502 -0.63612829388E+03  0.40666830957E+03 -0.18088704192E+04  0.19601153351E+04  0.12699999809E+01 0. -1.
</event>
<event>
 5   0  0.2037333E-07  0.3283327E+04  0.7818609E-02  0.8167151E-01
       -1   -1    0    0    0  501  0.00000000000E+00  0.00000000000E+00  0.17379197141E+04  0.17379197141E+04  0.50400001928E-02 0. -1.
        1   -1    0    0  501    0  0.00000000000E+00  0.00000000000E+00 -0.15507382186E+04  0.15507382186E+04  0.50400001928E-02 0.  1.
    10030    2    1    2    0    0  0.00000000000E+00  0.00000000000E+00  0.18718149552E+03  0.32886579328E+04  0.32833266798E+04 0.  0.
        3    1    3    3  502    0  0.71778501863E+02 -0.15076239700E+04  0.74037629247E+03  0.16811422465E+04  0.10100000352E+00 0. -1.
       -3    1    3    3    0  502 -0.71778501863E+02  0.15076239700E+04 -0.55319479694E+03  0.16075156863E+04  0.10100000352E+00 0.  1.
</event>
<event>
 5   0  0.2087665E-07  0.3303275E+04  0.7818609E-02  0.8162063E-01
       -1   -1    0    0    0  501  0.00000000000E+00  0.00000000000E+00  0.22891344591E+04  0.22891344591E+04  0.50400001928E-02 0.  1.
        1   -1    0    0  501    0  0.00000000000E+00  0.00000000000E+00 -0.11916759730E+04  0.11916759731E+04  0.50400001928E-02 0. -1.
    10030    2    1    2    0    0  0.00000000000E+00  0.00000000000E+00  0.10974584860E+04  0.34808104321E+04  0.33032750621E+04 0.  0.
        5    1    3    3  502    0  0.15640025744E+04  0.26564846952E+03  0.10330066287E+04  0.18930921655E+04  0.46999998093E+01 0. -1.
       -5    1    3    3    0  502 -0.15640025744E+04 -0.26564846952E+03  0.64451857346E+02  0.15877182666E+04  0.46999998093E+01 0.  1.
</event>
<event>
 5   0  0.2037333E-07  0.3295639E+04  0.7818609E-02  0.8164006E-01
       -1   -1    0    0    0  501  0.00000000000E+00  0.00000000000E+00  0.12503545732E+04  0.12503545732E+04  0.50400001928E-02 0. -1.
        1   -1    0    0  501    0  0.00000000000E+00  0.00000000000E+00 -0.21716309257E+04  0.21716309257E+04  0.50400001928E-02 0.  1.
    10030    2    1    2    0    0  0.00000000000E+00  0.00000000000E+00 -0.92127635248E+03  0.34219854989E+04  0.32956387297E+04 0.  0.
        3    1    3    3  502    0 -0.90302833661E+03 -0.74389154718E+03 -0.16655007844E+04  0.20353691763E+04  0.10100000352E+00 0.  1.
       -3    1    3    3    0  502  0.90302833661E+03  0.74389154718E+03  0.74422443195E+03  0.13866163226E+04  0.10100000352E+00 0. -1.
</event>
<event>
 5   0  0.2057130E-07  0.3287175E+04  0.7818609E-02  0.8166167E-01
        1   -1    0    0  501    0  0.00000000000E+00  0.00000000000E+00  0.13853073685E+04  0.13853073685E+04  0.50400001928E-02 0. -1.
       -1   -1    0    0    0  501  0.00000000000E+00  0.00000000000E+00 -0.19500214489E+04  0.19500214489E+04  0.50400001928E-02 0.  1.
    10030    2    1    2    0    0  0.00000000000E+00  0.00000000000E+00 -0.56471408034E+03  0.33353288174E+04  0.32871745204E+04 0.  0.
        2    1    3    3  502    0  0.47597131580E+03 -0.57896242002E+03 -0.17665334619E+04  0.19189545720E+04  0.25500000920E-02 0.  1.
       -2    1    3    3    0  502 -0.47597131580E+03  0.57896242002E+03  0.12018193815E+04  0.14163742454E+04  0.25500000920E-02 0. -1.
</event>
<event>
 5   0  0.6351753E-07  0.3298479E+04  0.7818609E-02  0.8163283E-01
        2   -1    0    0  501    0  0.00000000000E+00  0.00000000000E+00  0.18637782388E+04  0.18637782388E+04  0.25500000920E-02 0. -1.
       -2   -1    0    0    0  501  0.00000000000E+00  0.00000000000E+00 -0.14593960629E+04  0.14593960629E+04  0.25500000920E-02 0.  1.
    10030    2    1    2    0    0  0.00000000000E+00  0.00000000000E+00  0.40438217585E+03  0.33231743017E+04  0.32984788154E+04 0.  0.
        3    1    3    3  502    0 -0.55564224697E+03 -0.81231481049E+03 -0.11311206942E+04  0.14993424202E+04  0.10100000352E+00 0.  1.
       -3    1    3    3    0  502  0.55564224697E+03  0.81231481049E+03  0.15355028700E+04  0.18238318815E+04  0.10100000352E+00 0. -1.
</event>
<event>
 5   0  0.6351753E-07  0.3299565E+04  0.7818609E-02  0.8163006E-01
       -2   -1    0    0    0  501  0.00000000000E+00  0.00000000000E+00  0.17512643765E+04  0.17512643765E+04  0.25500000920E-02 0. -1.
        2   -1    0    0  501    0  0.00000000000E+00  0.00000000000E+00 -0.15541811277E+04  0.15541811277E+04  0.25500000920E-02 0.  1.
    10030    2    1    2    0    0  0.00000000000E+00  0.00000000000E+00  0.19708324881E+03  0.33054455043E+04  0.32995648463E+04 0.  0.
        3    1    3    3  502    0 -0.67911372986E+03  0.14856832026E+04 -0.13280717834E+03  0.16389288555E+04  0.10100000352E+00 0. -1.
       -3    1    3    3    0  502  0.67911372986E+03 -0.14856832026E+04  0.32989042715E+03  0.16665166488E+04  0.10100000352E+00 0.  1.
</event>
<event>
 5   0  0.2037333E-07  0.3349539E+04  0.7818609E-02  0.8150403E-01
        1   -1    0    0  501    0  0.00000000000E+00  0.00000000000E+00  0.22013736447E+04  0.22013736447E+04  0.50400001928E-02 0.  1.
       -1   -1    0    0    0  501  0.00000000000E+00  0.00000000000E+00 -0.12741376196E+04  0.12741376196E+04  0.50400001928E-02 0. -1.
    10030    2    1    2    0    0  0.00000000000E+00  0.00000000000E+00  0.92723602514E+03  0.34755112643E+04  0.33495390581E+04 0.  0.
        3    1    3    3  502    0  0.70682861805E+03 -0.38287280368E+02  0.20385223870E+04  0.21579263527E+04  0.10100000352E+00 0.  1.
       -3    1    3    3    0  502 -0.70682861805E+03  0.38287280368E+02 -0.11112863618E+04  0.13175849116E+04  0.10100000352E+00 0. -1.
</event>
<event>
 5   0  0.6424183E-07  0.3277438E+04  0.7818609E-02  0.8168660E-01
        2   -1    0    0  501    0  0.00000000000E+00  0.00000000000E+00  0.22043517526E+04  0.22043517526E+04  0.25500000920E-02 0. -1.
       -2   -1    0    0    0  501  0.00000000000E+00  0.00000000000E+00 -0.12182268527E+04  0.12182268527E+04  0.25500000920E-02 0.  1.
    10030    2    1    2    0    0  0.00000000000E+00  0.00000000000E+00  0.98612489986E+03  0.34225786053E+04  0.32774383276E+04 0.  0.
        2    1    3    3  502    0 -0.11411969413E+04 -0.50486666717E+03 -0.61613290214E+03  0.13917041940E+04  0.25500000920E-02 0.  1.
       -2    1    3    3    0  502  0.11411969413E+04  0.50486666717E+03  0.16022578020E+04  0.20308744113E+04  0.25500000920E-02 0. -1.
</event>
<event>
 5   0  0.6377741E-07  0.3302918E+04  0.7818609E-02  0.8162153E-01
       -2   -1    0    0    0  501  0.00000000000E+00  0.00000000000E+00  0.18631807037E+04  0.18631807037E+04  0.25500000920E-02 0.  1.
        2   -1    0    0  501    0  0.00000000000E+00  0.00000000000E+00 -0.14637957843E+04  0.14637957843E+04  0.25500000920E-02 0. -1.
    10030    2    1    2    0    0  0.00000000000E+00  0.00000000000E+00  0.39938491945E+03  0.33269764880E+04  0.33029175342E+04 0.  0.
        1    1    3    3  502    0  0.34195572599E+03  0.15365571321E+04  0.70270410573E+03  0.17238719787E+04  0.50400001928E-02 0.  1.
       -1    1    3    3    0  502 -0.34195572599E+03 -0.15365571321E+04 -0.30331918628E+03  0.16031045093E+04  0.50400001928E-02 0. -1.
</event>
<event>
 5   0  0.6426079E-07  0.3281058E+04  0.7818609E-02  0.8167732E-01
        2   -1    0    0  501    0  0.00000000000E+00  0.00000000000E+00  0.24270683220E+04  0.24270683220E+04  0.25500000920E-02 0. -1.
       -2   -1    0    0    0  501  0.00000000000E+00  0.00000000000E+00 -0.11088833794E+04  0.11088833794E+04  0.25500000920E-02 0.  1.
    10030    2    1    2    0    0  0.00000000000E+00  0.00000000000E+00  0.13181849426E+04  0.35359517014E+04  0.32810581970E+04 0.  0.
        4    1    3    3  502    0  0.65769112570E+03  0.14776092450E+04  0.95510804827E+03  0.18783289633E+04  0.12699999809E+01 0. -1.
       -4    1    3    3    0  502 -0.65769112570E+03 -0.14776092450E+04  0.36307689431E+03  0.16576227381E+04  0.12699999809E+01 0.  1.
</event>
<event>
 5   0  0.2087665E-07  0.3288118E+04  0.7818609E-02  0.8165925E-01
        1   -1    0    0  501    0  0.00000000000E+00  0.00000000000E+00  0.20284417688E+04  0.20284417688E+04  0.50400001928E-02 0. -1.
       -1   -1    0    0    0  501  0.00000000000E+00  0.00000000000E+00 -0.13325152314E+04  0.13325152314E+04  0.50400001928E-02 0.  1.
    10030    2    1    2    0    0  0.00000000000E+00  0.00000000000E+00  0.69592653743E+03  0.33609570003E+04  0.32881177309E+04 0.  0.
        5    1    3    3  502    0 -0.70576494862E+03 -0.30327599733E+03  0.18337195093E+04  0.19881221849E+04  0.46999998093E+01 0. -1.
       -5    1    3    3    0  502  0.70576494862E+03  0.30327599733E+03 -0.11377929719E+04  0.13728348153E+04  0.46999998093E+01 0.  1.
</event>
<event>
 5   0  0.6377741E-07  0.3306691E+04  0.7818609E-02  0.8161195E-01
        2   -1    0    0  501    0  0.00000000000E+00  0.00000000000E+00  0.18406811647E+04  0.18406811647E+04  0.25500000920E-02 0. -1.
       -2   -1    0    0    0  501  0.00000000000E+00  0.00000000000E+00 -0.14850762016E+04  0.14850762016E+04  0.25500000920E-02 0.  1.
    10030    2    1    2    0    0  0.00000000000E+00  0.00000000000E+00  0.35560496312E+03  0.33257573663E+04  0.33066912722E+04 0.  0.
        1    1    3    3  502    0  0.49641970795E+03 -0.10563457713E+04 -0.99995450323E+03  0.15369475995E+04  0.50400001928E-02 0.  1.
       -1    1    3    3    0  502 -0.49641970795E+03  0.10563457713E+04  0.13555594664E+04  0.17888097668E+04  0.50400001928E-02 0. -1.
</event>
<event>
 5   0  0.6258718E-07  0.3286391E+04  0.7818609E-02  0.8166367E-01
        2   -1    0    0  501    0  0.00000000000E+00  0.00000000000E+00  0.29100366444E+04  0.29100366444E+04  0.25500000920E-02 0.  1.
       -2   -1    0    0    0  501  0.00000000000E+00  0.00000000000E+00 -0.92785493776E+03  0.92785493777E+03  0.25500000920E-02 0. -1.
    10030    2    1    2    0    0  0.00000000000E+00  0.00000000000E+00  0.19821817066E+04  0.38378915821E+04  0.32863912546E+04 0.  0.
        5    1    3    3  502    0  0.95271647347E+03 -0.78822002311E+03 -0.27269164126E+03  0.12662315368E+04  0.46999998093E+01 0. -1.
       -5    1    3    3    0  502 -0.95271647347E+03  0.78822002311E+03  0.22548733479E+04  0.25716600453E+04  0.46999998093E+01 0.  1.
</event>
<event>
 5   0  0.2080770E-07  0.3313333E+04  0.7818609E-02  0.8159511E-01
       -1   -1    0    0    0  501  0.00000000000E+00  0.00000000000E+00  0.18479621031E+04  0.18479621031E+04  0.50400001928E-02 0.  1.
        1   -1    0    0  501    0  0.00000000000E+00  0.00000000000E+00 -0.14851732173E+04  0.14851732174E+04  0.50400001928E-02 0. -1.
    10030    2    1    2    0    0  0.00000000000E+00  0.00000000000E+00  0.36278888579E+03  0.33331353205E+04  0.33133329578E+04 0.  0.
        4    1    3    3  502    0  0.98269447171E+03  0.23354861416E+03 -0.11395829686E+04  0.15227883422E+04  0.12699999809E+01 0. -1.
       -4    1    3    3    0  502 -0.98269447171E+03 -0.23354861416E+03  0.15023718544E+04  0.18103469783E+04  0.12699999809E+01 0.  1.
</event>
<event>
 5   0  0.6258718E-07  0.3313660E+04  0.7818609E-02  0.8159428E-01
       -2   -1    0    0    0  501  0.00000000000E+00  0.00000000000E+00  0.86986384900E+03  0.86986384900E+03  0.25500000920E-02 0.  1.
        2   -1    0    0  501    0  0.00000000000E+00  0.00000000000E+00 -0.31557652465E+04  0.31557652465E+04  0.25500000920E-02 0. -1.
    10030    2    1    2    0    0  0.00000000000E+00  0.00000000000E+00 -0.22859013975E+04  0.40256290955E+04  0.33136602746E+04 0.  0.
        5    1    3    3  502    0 -0.60514382476E+03  0.87473393552E+03 -0.26862064979E+04  0.28891323863E+04  0.46999998093E+01 0. -1.
       -5    1    3    3    0  502  0.60514382476E+03 -0.87473393552E+03  0.40030510035E+03  0.11364967092E+04  0.46999998093E+01 0.  1.
</event>
<event>
 5   0  0.6424183E-07  0.3360751E+04  0.7818609E-02  0.8147607E-01
        2   -1    0    0  501    0  0.00000000000E+00  0.00000000000E+00  0.22487213545E+04  0.22487213545E+04  0.25500000920E-02 0. -1.
       -2   -1    0    0    0  501  0.00000000000E+00  0.00000000000E+00 -0.12556741380E+04  0.12556741380E+04  0.25500000920E-02 0.  1.
    10030    2    1    2    0    0  0.00000000000E+00  0.00000000000E+00  0.99304721643E+03  0.35043954925E+04  0.33607506593E+04 0.  0.
        2    1    3    3  502    0 -0.19631838870E+03 -0.86388227919E+03 -0.99238173407E+03  0.13302838074E+04  0.25500000920E-02 0.  1.
       -2    1    3    3    0  502  0.19631838870E+03  0.86388227919E+03  0.19854289505E+04  0.21741116852E+04  0.25500000920E-02 0. -1.
</event>
<event>
 5   0  0.6424183E-07  0.3299246E+04  0.7818609E-02  0.8163087E-01
        2   -1    0    0  501    0  0.00000000000E+00  0.00000000000E+00  0.24014671793E+04  0.24014671793E+04  0.25500000920E-02 0.  1.
       -2   -1    0    0    0  501  0.00000000000E+00  0.00000000000E+00 -0.11331637954E+04  0.11331637954E+04  0.25500000920E-02 0. -1.
    10030    2    1    2    0    0  0.00000000000E+00  0.00000000000E+00  0.12683033839E+04  0.35346309748E+04  0.32992457705E+04 0.  0.
        2    1    3    3  502    0  0.13571791264E+04 -0.15913128833E+03  0.16242031433E+04  0.21225677372E+04  0.25500000920E-02 0.  1.
       -2    1    3    3    0  502 -0.13571791264E+04  0.15913128833E+03 -0.35589975941E+03  0.14120632376E+04  0.25500000920E-02 0. -1.
</event>
<event>
 5   0  0.2037333E-07  0.3292179E+04  0.7818609E-02  0.8164888E-01
        1   -1    0    0  501    0  0.00000000000E+00  0.00000000000E+00  0.17995788471E+04  0.17995788471E+04  0.50400001928E-02 0.  1.
       -1   -1    0    0    0  501  0.00000000000E+00  0.00000000000E+00 -0.15056918935E+04  0.15056918935E+04  0.50400001928E-02 0. -1.
    10030    2    1    2    0    0  0.00000000000E+00  0.00000000000E+00  0.29388695358E+03  0.33052707407E+04  0.32921793887E+04 0.  0.
        3    1    3    3  502    0  0.94894689042E+03  0.10106577933E+04 -0.74410017272E+03  0.15734085462E+04  0.10100000352E+00 0. -1.
       -3    1    3    3    0  502 -0.94894689042E+03 -0.10106577933E+04  0.10379871263E+04  0.17318621945E+04  0.10100000352E+00 0.  1.
</event>
<event>
 5   0  0.2057130E-07  0.3302891E+04  0.7818609E-02  0.8162160E-01
        1   -1    0    0  501    0  0.00000000000E+00  0.00000000000E+00  0.19468249730E+04  0.19468249730E+04  0.50400001928E-02 0.  1.
       -1   -1    0    0    0  501  0.00000000000E+00  0.00000000000E+00 -0.14008824531E+04  0.14008824531E+04  0.50400001928E-02 0. -1.
    10030    2    1    2    0    0  0.00000000000E+00  0.00000000000E+00  0.54594251993E+03  0.33477074261E+04  0.33028914265E+04 0.  0.
        2    1    3    3  502    0 -0.75493681484E+01  0.12487341333E+04 -0.82237675490E+03  0.14952248846E+04  0.25500000920E-02 0. -1.
       -2    1    3    3    0  502  0.75493681484E+01 -0.12487341333E+04  0.13683192748E+04  0.18524825415E+04  0.25500000920E-02 0.  1.
</event>
<event>
 5   0  0.6377741E-07  0.3298736E+04  0.7818609E-02  0.8163217E-01
        2   -1    0    0  501    0  0.00000000000E+00  0.00000000000E+00  0.18681695947E+04  0.18681695947E+04  0.25500000920E-02 0.  1.
       -2   -1    0    0    0  501  0.00000000000E+00  0.00000000000E+00 -0.14561929088E+04  0.14561929088E+04  0.25500000920E-02 0. -1.
    10030    2    1    2    0    0  0.00000000000E+00  0.00000000000E+00  0.41197668591E+03  0.33243625035E+04  0.32987363133E+04 0.  0.
        1    1    3    3  502    0  0.16018360456E+04 -0.69992211463E+02  0.59582374012E+03  0.17104921970E+04  0.50400001928E-02 0.  1.
       -1    1    3    3    0  502 -0.16018360456E+04  0.69992211463E+02 -0.18384705420E+03  0.16138703065E+04  0.50400001928E-02 0. -1.
</event>
<event>
 5   0  0.2057130E-07  0.3283287E+04  0.7818609E-02  0.8167161E-01
        1   -1    0    0  501    0  0.00000000000E+00  0.00000000000E+00  0.14198156385E+04  0.14198156385E+04  0.50400001928E-02 0. -1.
       -1   -1    0    0    0  501  0.00000000000E+00  0.00000000000E+00 -0.18981296236E+04  0.18981296236E+04  0.50400001928E-02 0.  1.
    10030    2    1    2    0    0  0.00000000000E+00  0.00000000000E+00 -0.47831398510E+03  0.33179452621E+04  0.32832874522E+04 0.  0.
        2    1    3    3  502    0 -0.12041119486E+04 -0.92033534175E+02 -0.13629379490E+04  0.18209765537E+04  0.25500000920E-02 0.  1.
       -2    1    3    3    0  502  0.12041119486E+04  0.92033534175E+02  0.88462396393E+03  0.14969687084E+04  0.25500000920E-02 0. -1.
</event>
<event>
 5   0  0.2087665E-07  0.3299246E+04  0.7818609E-02  0.8163087E-01
        1   -1    0    0  501    0  0.00000000000E+00  0.00000000000E+00  0.19029433419E+04  0.19029433419E+04  0.50400001928E-02 0.  1.
       -1   -1    0    0    0  501  0.00000000000E+00  0.00000000000E+00 -0.14300251126E+04  0.14300251126E+04  0.50400001928E-02 0. -1.
    10030    2    1    2    0    0  0.00000000000E+00  0.00000000000E+00  0.47291822925E+03  0.33329684545E+04  0.32992464393E+04 0.  0.
        5    1    3    3  502    0  0.15455716050E+04  0.43080124255E+03  0.62359053410E+03  0.17214146917E+04  0.46999998093E+01 0.  1.
       -5    1    3    3    0  502 -0.15455716050E+04 -0.43080124255E+03 -0.15067230485E+03  0.16115537627E+04  0.46999998093E+01 0. -1.
</event>
<event>
 5   0  0.6258718E-07  0.3301148E+04  0.7818609E-02  0.8162603E-01
        2   -1    0    0  501    0  0.00000000000E+00  0.00000000000E+00  0.13665734050E+04  0.13665734051E+04  0.25500000920E-02 0. -1.
       -2   -1    0    0    0  501  0.00000000000E+00  0.00000000000E+00 -0.19935959565E+04  0.19935959565E+04  0.25500000920E-02 0.  1.
    10030    2    1    2    0    0  0.00000000000E+00  0.00000000000E+00 -0.62702255149E+03  0.33601693616E+04  0.33011484151E+04 0.  0.
        5    1    3    3  502    0  0.53414469393E+03  0.40563708594E+03  0.12216043944E+04  0.13936252674E+04  0.46999998093E+01 0. -1.
       -5    1    3    3    0  502 -0.53414469393E+03 -0.40563708594E+03 -0.18486269459E+04  0.19665440942E+04  0.46999998093E+01 0.  1.
</event>
<event>
 5   0  0.2057130E-07  0.3303534E+04  0.7818609E-02  0.8161997E-01
        1   -1    0    0  501    0  0.00000000000E+00  0.00000000000E+00  0.15992690658E+04  0.15992690658E+04  0.50400001928E-02 0.  1.
       -1   -1    0    0    0  501  0.00000000000E+00  0.00000000000E+00 -0.17059879211E+04  0.17059879211E+04  0.50400001928E-02 0. -1.
    10030    2    1    2    0    0  0.00000000000E+00  0.00000000000E+00 -0.10671885531E+03  0.33052569869E+04  0.33035336891E+04 0.  0.
        2    1    3    3  502    0  0.15681197525E+04  0.37804633523E+02  0.46450594099E+03  0.16359078573E+04  0.25500000920E-02 0.  1.
       -2    1    3    3    0  502 -0.15681197525E+04 -0.37804633523E+02 -0.57122479630E+03  0.16693491296E+04  0.25500000920E-02 0. -1.
</event>
<event>
 5   0  0.2037333E-07  0.3301312E+04  0.7818609E-02  0.8162562E-01
       -1   -1    0    0    0  501  0.00000000000E+00  0.00000000000E+00  0.12849571935E+04  0.12849571935E+04  0.50400001928E-02 0. -1.
        1   -1    0    0  501    0  0.00000000000E+00  0.00000000000E+00 -0.21204331541E+04  0.21204331541E+04  0.50400001928E-02 0.  1.
    10030    2    1    2    0    0  0.00000000000E+00  0.00000000000E+00 -0.83547596058E+03  0.34053903476E+04  0.33013123662E+04 0.  0.
        3    1    3    3  502    0 -0.11255455414E+04 -0.84232043833E+03 -0.13100584677E+04  0.19216164252E+04  0.10100000352E+00 0.  1.
       -3    1    3    3    0  502  0.11255455414E+04  0.84232043833E+03  0.47458250715E+03  0.14837739224E+04  0.10100000352E+00 0. -1.
</event>
<event>
 5   0  0.2087665E-07  0.3306882E+04  0.7818609E-02  0.8161147E-01
        1   -1    0    0  501    0  0.00000000000E+00  0.00000000000E+00  0.21423217587E+04  0.21423217587E+04  0.50400001928E-02 0.  1.
       -1   -1    0    0    0  501  0.00000000000E+00  0.00000000000E+00 -0.12761233022E+04  0.12761233022E+04  0.50400001928E-02 0. -1.
    10030    2    1    2    0    0  0.00000000000E+00  0.00000000000E+00  0.86619845648E+03  0.34184450609E+04  0.33068817440E+04 0.  0.
        5    1    3    3  502    0 -0.10406895634E+04 -0.18806400616E+03 -0.88078045372E+03  0.13762990719E+04  0.46999998093E+01 0. -1.
       -5    1    3    3    0  502  0.10406895634E+04  0.18806400616E+03  0.17469789102E+04  0.20421459890E+04  0.46999998093E+01 0.  1.
</event>
<event>
 5   0  0.6424183E-07  0.3306920E+04  0.7818609E-02  0.8161137E-01
        2   -1    0    0  501    0  0.00000000000E+00  0.00000000000E+00  0.13604626445E+04  0.13604626445E+04  0.25500000920E-02 0.  1.
       -2   -1    0    0    0  501  0.00000000000E+00  0.00000000000E+00 -0.20095593340E+04  0.20095593340E+04  0.25500000920E-02 0. -1.
    10030    2    1    2    0    0  0.00000000000E+00  0.00000000000E+00 -0.64909668948E+03  0.33700219786E+04  0.33069202627E+04 0.  0.
        2    1    3    3  502    0 -0.11330924555E+04  0.29052887779E+03 -0.15154467612E+04  0.19143887870E+04  0.25500000920E-02 0. -1.
       -2    1    3    3    0  502  0.11330924555E+04 -0.29052887779E+03  0.86635007173E+03  0.14556331916E+04  0.25500000920E-02 0.  1.
</event>
<event>
 5   0  0.6351753E-07  0.3310227E+04  0.7818609E-02  0.8160298E-01
       -2   -1    0    0    0  501  0.00000000000E+00  0.00000000000E+00  0.11706328988E+04  0.11706328988E+04  0.25500000920E-02 0. -1.
        2   -1    0    0  501    0  0.00000000000E+00  0.00000000000E+00 -0.23401026681E+04  0.23401026681E+04  0.25500000920E-02 0.  1.
    10030    2    1    2    0    0  0.00000000000E+00  0.00000000000E+00 -0.11694697693E+04  0.35107355669E+04  0.33102272851E+04 0.  0.
        3    1    3    3  502    0 -0.85591416028E+03  0.11359698930E+04  0.31292826880E+03  0.14563450001E+04  0.10100000352E+00 0. -1.
       -3    1    3    3    0  502  0.85591416028E+03 -0.11359698930E+04 -0.14823980381E+04  0.20543905668E+04  0.10100000352E+00 0.  1.
</event>
<event>
 5   0  0.2037333E-07  0.3306823E+04  0.7818609E-02  0.8161161E-01
       -1   -1    0    0    0  501  0.00000000000E+00  0.00000000000E+00  0.25517712182E+04  0.25517712182E+04  0.50400001928E-02 0. -1.
        1   -1    0    0  501    0  0.00000000000E+00  0.00000000000E+00 -0.10713222722E+04  0.10713222722E+04  0.50400001928E-02 0.  1.
    10030    2    1    2    0    0  0.00000000000E+00  0.00000000000E+00  0.14804489460E+04  0.36230934905E+04  0.33068228496E+04 0.  0.
        3    1    3    3  502    0 -0.16483758645E+04  0.40543999303E+02  0.60611449602E+03  0.17567474488E+04  0.10100000352E+00 0.  1.
       -3    1    3    3    0  502  0.16483758645E+04 -0.40543999303E+02  0.87433445000E+03  0.18663460416E+04  0.10100000352E+00 0. -1.
</event>
<event>
 5   0  0.6377741E-07  0.3300397E+04  0.7818609E-02  0.8162794E-01
       -2   -1    0    0    0  501  0.00000000000E+00  0.00000000000E+00  0.12591276179E+04  0.12591276179E+04  0.25500000920E-02 0. -1.
        2   -1    0    0  501    0  0.00000000000E+00  0.00000000000E+00 -0.21627320574E+04  0.21627320574E+04  0.25500000920E-02 0.  1.
    10030    2    1    2    0    0  0.00000000000E+00  0.00000000000E+00 -0.90360443953E+03  0.34218596753E+04  0.33003973479E+04 0.  0.
        1    1    3    3  502    0 -0.28325903750E+03 -0.92766193081E+02  0.12309871913E+04  0.12665586106E+04  0.50400001928E-02 0. -1.
       -1    1    3    3    0  502  0.28325903750E+03  0.92766193081E+02 -0.21345916308E+04  0.21553010647E+04  0.50400001928E-02 0.  1.
</event>
<event>
 5   0  0.6377741E-07  0.3276613E+04  0.7818609E-02  0.8168872E-01
        2   -1    0    0  501    0  0.00000000000E+00  0.00000000000E+00  0.25373642152E+04  0.25373642152E+04  0.25500000920E-02 0.  1.
       -2   -1    0    0    0  501  0.00000000000E+00  0.00000000000E+00 -0.10578094926E+04  0.10578094926E+04  0.25500000920E-02 0. -1.
    10030    2    1    2    0    0  0.00000000000E+00  0.00000000000E+00  0.14795547226E+04  0.35951737079E+04  0.32766128567E+04 0.  0.
        1    1    3    3  502    0  0.81660936879E+03  0.90392688660E+03  0.19417812370E+04  0.22922585041E+04  0.50400001928E-02 0.  1.
       -1    1    3    3    0  502 -0.81660936879E+03 -0.90392688660E+03 -0.46222651434E+03  0.13029152037E+04  0.50400001928E-02 0. -1.
</event>
<event>
 5   0  0.6258718E-07  0.3303707E+04  0.7818609E-02  0.8161953E-01
        2   -1    0    0  501    0  0.00000000000E+00  0.00000000000E+00  0.15934750877E+04  0.15934750877E+04  0.25500000920E-02 0. -1.
       -2   -1    0    0    0  501  0.00000000000E+00  0.00000000000E+00 -0.17123708046E+04  0.17123708046E+04  0.25500000920E-02 0.  1.
    10030    2    1    2    0    0  0.00000000000E+00  0.00000000000E+00 -0.11889571688E+03  0.33058458923E+04  0.33037071408E+04 0.  0.
        5    1    3    3  502    0 -0.75532694716E+03  0.11010547773E+04 -0.10325781850E+04  0.16879218637E+04  0.46999998093E+01 0. -1.
       -5    1    3    3    0  502  0.75532694716E+03 -0.11010547773E+04  0.91368246812E+03  0.16179240286E+04  0.46999998093E+01 0.  1.
</event>
<event>
 5   0  0.6351753E-07  0.3302816E+04  0.7818609E-02  0.8162179E-01
        2   -1    0    0  501    0  0.00000000000E+00  0.00000000000E+00  0.21277853605E+04  0.21277853605E+04  0.25500000920E-02 0. -1.
       -2   -1    0    0    0  501  0.00000000000E+00  0.00000000000E+00 -0.12816841105E+04  0.12816841105E+04  0.25500000920E-02 0.  1.
    10030    2    1    2    0    0  0.00000000000E+00  0.00000000000E+00  0.84610125006E+03  0.34094694710E+04  0.33028161845E+04 0.  0.
        3    1    3    3  502    0 -0.16400938218E+04  0.19159846291E+03  0.39926394070E+03  0.16988317810E+04  0.10100000352E+00 0. -1.
       -3    1    3    3    0  502  0.16400938218E+04 -0.19159846291E+03  0.44683730936E+03  0.17106376901E+04  0.10100000352E+00 0.  1.
</event>
<event>
 5   0  0.2080828E-07  0.3295559E+04  0.7818609E-02  0.8164026E-01
        1   -1    0    0  501    0  0.00000000000E+00  0.00000000000E+00  0.19621462272E+04  0.19621462272E+04  0.50400001928E-02 0.  1.
       -1   -1    0    0    0  501  0.00000000000E+00  0.00000000000E+00 -0.13837791327E+04  0.13837791327E+04  0.50400001928E-02 0. -1.
    10030    2    1    2    0    0  0.00000000000E+00  0.00000000000E+00  0.57836709446E+03  0.33459253599E+04  0.32955588324E+04 0.  0.
        1    1    3    3  502    0  0.41884654984E+03  0.59377858932E+03  0.17906948456E+04  0.19325096314E+04  0.50400001928E-02 0.  1.
       -1    1    3    3    0  502 -0.41884654984E+03 -0.59377858932E+03 -0.12123277511E+04  0.14134157285E+04  0.50400001928E-02 0. -1.
</event>
<event>
 5   0  0.2080828E-07  0.3306294E+04  0.7818609E-02  0.8161296E-01
       -1   -1    0    0    0  501  0.00000000000E+00  0.00000000000E+00  0.22811797657E+04  0.22811797657E+04  0.50400001928E-02 0. -1.
        1   -1    0    0  501    0  0.00000000000E+00  0.00000000000E+00 -0.11980185814E+04  0.11980185814E+04  0.50400001928E-02 0.  1.
    10030    2    1    2    0    0  0.00000000000E+00  0.00000000000E+00  0.10831611844E+04  0.34791983471E+04  0.33062944496E+04 0.  0.
        1    1    3    3  502    0  0.45955590977E+03  0.64686435557E+03  0.20676884825E+04  0.22147146068E+04  0.50400001928E-02 0. -1.
       -1    1    3    3    0  502 -0.45955590977E+03 -0.64686435557E+03 -0.98452729816E+03  0.12644837403E+04  0.50400001928E-02 0.  1.
</event>
<event>
 5   0  0.2037333E-07  0.3289883E+04  0.7818609E-02  0.8165474E-01
       -1   -1    0    0    0  501  0.00000000000E+00  0.00000000000E+00  0.13375741705E+04  0.13375741705E+04  0.50400001928E-02 0.  1.
        1   -1    0    0  501    0  0.00000000000E+00  0.00000000000E+00 -0.20229398711E+04  0.20229398711E+04  0.50400001928E-02 0. -1.
    10030    2    1    2    0    0  0.00000000000E+00  0.00000000000E+00 -0.68536570060E+03  0.33605140416E+04  0.32898827457E+04 0.  0.
        3    1    3    3  502    0  0.93181127822E+02  0.92509049539E+03  0.10434162735E+04  0.13975666986E+04  0.10100000352E+00 0.  1.
       -3    1    3    3    0  502 -0.93181127822E+02 -0.92509049539E+03 -0.17287819741E+04  0.19629473430E+04  0.10100000352E+00 0. -1.
</event>
<event>
 5   0  0.6258718E-07  0.3302524E+04  0.7818609E-02  0.8162253E-01
        2   -1    0    0  501    0  0.00000000000E+00  0.00000000000E+00  0.10825451394E+04  0.10825451394E+04  0.25500000920E-02 0.  1.
       -2   -1    0    0    0  501  0.00000000000E+00  0.00000000000E+00 -0.25187550839E+04  0.25187550839E+04  0.25500000920E-02 0. -1.
    10030    2    1    2    0    0  0.00000000000E+00  0.00000000000E+00 -0.14362099445E+04  0.36013002233E+04  0.33025239278E+04 0.  0.
        5    1    3    3  502    0  0.15731852078E+04 -0.14434485814E+03 -0.12420941974E+04  0.20096186756E+04  0.46999998093E+01 0.  1.
       -5    1    3    3    0  502 -0.15731852078E+04  0.14434485814E+03 -0.19411574709E+03  0.15916815477E+04  0.46999998093E+01 0. -1.
</event>
<event>
 5   0  0.6377741E-07  0.3301566E+04  0.7818609E-02  0.8162497E-01
        2   -1    0    0  501    0  0.00000000000E+00  0.00000000000E+00  0.13243890534E+04  0.13243890534E+04  0.25500000920E-02 0. -1.
       -2   -1    0    0    0  501  0.00000000000E+00  0.00000000000E+00 -0.20576163697E+04  0.20576163697E+04  0.25500000920E-02 0.  1.
    10030    2    1    2    0    0  0.00000000000E+00  0.00000000000E+00 -0.73322731625E+03  0.33820054231E+04  0.33015660503E+04 0.  0.
        1    1    3    3  502    0  0.27856786753E+03 -0.43845158242E+03 -0.19717122178E+04  0.20389921326E+04  0.50400001928E-02 0.  1.
       -1    1    3    3    0  502 -0.27856786753E+03  0.43845158242E+03  0.12384849016E+04  0.13430132905E+04  0.50400001928E-02 0. -1.
</event>
<event>
 5   0  0.2087665E-07  0.3316273E+04  0.7818609E-02  0.8158767E-01
        1   -1    0    0  501    0  0.00000000000E+00  0.00000000000E+00  0.21668794777E+04  0.21668794777E+04  0.50400001928E-02 0. -1.
       -1   -1    0    0    0  501  0.00000000000E+00  0.00000000000E+00 -0.12688366575E+04  0.12688366575E+04  0.50400001928E-02 0.  1.
    10030    2    1    2    0    0  0.00000000000E+00  0.00000000000E+00  0.89804282018E+03  0.34357161352E+04  0.33162726750E+04 0.  0.
        5    1    3    3  502    0 -0.16175615654E+04  0.24603345823E+03  0.72770073310E+03  0.17907005131E+04  0.46999998093E+01 0. -1.
       -5    1    3    3    0  502  0.16175615654E+04 -0.24603345823E+03  0.17034208708E+03  0.16450156222E+04  0.46999998093E+01 0.  1.
</event>
<event>
 5   0  0.2087665E-07  0.3297689E+04  0.7818609E-02  0.8163484E-01
        1   -1    0    0  501    0  0.00000000000E+00  0.00000000000E+00  0.20393177280E+04  0.20393177280E+04  0.50400001928E-02 0. -1.
       -1   -1    0    0    0  501  0.00000000000E+00  0.00000000000E+00 -0.13331358722E+04  0.13331358722E+04  0.50400001928E-02 0.  1.
    10030    2    1    2    0    0  0.00000000000E+00  0.00000000000E+00  0.70618185583E+03  0.33724536001E+04  0.32976886560E+04 0.  0.
        5    1    3    3  502    0  0.10454855367E+04  0.50692051763E+03  0.15495109206E+04  0.19367536244E+04  0.46999998093E+01 0. -1.
       -5    1    3    3    0  502 -0.10454855367E+04 -0.50692051763E+03 -0.84332906478E+03  0.14356999757E+04  0.46999998093E+01 0.  1.
</event>
<event>
 5   0  0.6377741E-07  0.3287313E+04  0.7818609E-02  0.8166131E-01
       -2   -1    0    0    0  501  0.00000000000E+00  0.00000000000E+00  0.15557700601E+04  0.15557700601E+04  0.25500000920E-02 0.  1.
        2   -1    0    0  501    0  0.00000000000E+00  0.00000000000E+00 -0.17365071827E+04  0.17365071827E+04  0.25500000920E-02 0. -1.
    10030    2    1    2    0    0  0.00000000000E+00  0.00000000000E+00 -0.18073712265E+03  0.32922772428E+04  0.32873125096E+04 0.  0.
        1    1    3    3  502    0 -0.60617770153E+03 -0.11972580523E+04 -0.10408686269E+04  0.16983185061E+04  0.50400001928E-02 0. -1.
       -1    1    3    3    0  502  0.60617770153E+03  0.11972580523E+04  0.86013150423E+03  0.15939587367E+04  0.50400001928E-02 0.  1.
</event>
<event>
 5   0  0.2037333E-07  0.3290559E+04  0.7818609E-02  0.8165302E-01
       -1   -1    0    0    0  501  0.00000000000E+00  0.00000000000E+00  0.12112632950E+04  0.12112632950E+04  0.50400001928E-02 0. -1.
        1   -1    0    0  501    0  0.00000000000E+00  0.00000000000E+00 -0.22348108160E+04  0.22348108160E+04  0.50400001928E-02 0.  1.
    10030    2    1    2    0    0  0.00000000000E+00  0.00000000000E+00 -0.10235475210E+04  0.34460741110E+04  0.32905588053E+04 0.  0.
        3    1    3    3  502    0  0.28173461490E+03  0.59100857022E+03 -0.20925062847E+04  0.21925437476E+04  0.10100000352E+00 0.  1.
       -3    1    3    3    0  502 -0.28173461490E+03 -0.59100857022E+03  0.10689587637E+04  0.12535303634E+04  0.10100000352E+00 0. -1.
</event>
<event>
 5   0  0.2057130E-07  0.3090403E+04  0.7818609E-02  0.8218377E-01
       -1   -1    0    0    0  501  0.00000000000E+00  0.00000000000E+00  0.98265915271E+03  0.98265915273E+03  0.50400001928E-02 0. -1.
        1   -1    0    0  501    0  0.00000000000E+00  0.00000000000E+00 -0.24297829327E+04  0.24297829327E+04  0.50400001928E-02 0.  1.
    10030    2    1    2    0    0  0.00000000000E+00  0.00000000000E+00 -0.14471237800E+04  0.34124420854E+04  0.30904034934E+04 0.  0.
        2    1    3    3  502    0  0.13445182284E+04 -0.68300852520E+03 -0.10954327112E+04  0.18639213333E+04  0.25500000920E-02 0.  1.
       -2    1    3    3    0  502 -0.13445182284E+04  0.68300852520E+03 -0.35169106877E+03  0.15485207521E+04  0.25500000920E-02 0. -1.
</event>
<event>
 5   0  0.2080770E-07  0.3324439E+04  0.7818609E-02  0.8156705E-01
       -1   -1    0    0    0  501  0.00000000000E+00  0.00000000000E+00  0.13018328558E+04  0.13018328559E+04  0.50400001928E-02 0.  1.
        1   -1    0    0  501    0  0.00000000000E+00  0.00000000000E+00 -0.21223714228E+04  0.21223714228E+04  0.50400001928E-02 0. -1.
    10030    2    1    2    0    0  0.00000000000E+00  0.00000000000E+00 -0.82053856693E+03  0.34242042786E+04  0.33244385093E+04 0.  0.
        4    1    3    3  502    0 -0.43681137970E+03 -0.16002062698E+04 -0.29977966287E+03  0.16856256246E+04  0.12699999809E+01 0.  1.
       -4    1    3    3    0  502  0.43681137970E+03  0.16002062698E+04 -0.52075890406E+03  0.17385786540E+04  0.12699999809E+01 0. -1.
</event>
<event>
 5   0  0.2080770E-07  0.3310484E+04  0.7818609E-02  0.8160233E-01
        1   -1    0    0  501    0  0.00000000000E+00  0.00000000000E+00  0.23597597742E+04  0.23597597742E+04  0.50400001928E-02 0. -1.
       -1   -1    0    0    0  501  0.00000000000E+00  0.00000000000E+00 -0.11610615449E+04  0.11610615450E+04  0.50400001928E-02 0.  1.
    10030    2    1    2    0    0  0.00000000000E+00  0.00000000000E+00  0.11986982293E+04  0.35208213192E+04  0.33104841514E+04 0.  0.
        4    1    3    3  502    0  0.97916409678E+02 -0.18143703455E+03 -0.11473517007E+04  0.11657291962E+04  0.12699999809E+01 0.  1.
       -4    1    3    3    0  502 -0.97916409678E+02  0.18143703455E+03  0.23460499300E+04  0.23550921230E+04  0.12699999809E+01 0. -1.
</event>
<event>
 5   0  0.2080828E-07  0.3311453E+04  0.7818609E-02  0.8159987E-01
        1   -1    0    0  501    0  0.00000000000E+00  0.00000000000E+00  0.21204027623E+04  0.21204027623E+04  0.50400001928E-02 0. -1.
       -1   -1    0    0    0  501  0.00000000000E+00  0.00000000000E+00 -0.12928818173E+04  0.12928818173E+04  0.50400001928E-02 0.  1.
    10030    2    1    2    0    0  0.00000000000E+00  0.00000000000E+00  0.82752094502E+03  0.34132845796E+04  0.33114529601E+04 0.  0.
        1    1    3    3  502    0 -0.48728474736E+02 -0.26709681272E+03  0.20973011891E+04  0.21148019883E+04  0.50400001928E-02 0. -1.
       -1    1    3    3    0  502  0.48728474736E+02  0.26709681272E+03 -0.12697802441E+04  0.12984825913E+04  0.50400001928E-02 0.  1.
</event>
<event>
 5   0  0.2037333E-07  0.3311148E+04  0.7818609E-02  0.8160065E-01
       -1   -1    0    0    0  501  0.00000000000E+00  0.00000000000E+00  0.14328320436E+04  0.14328320436E+04  0.50400001928E-02 0. -1.
        1   -1    0    0  501    0  0.00000000000E+00  0.00000000000E+00 -0.19129425467E+04  0.19129425467E+04  0.50400001928E-02 0.  1.
    10030    2    1    2    0    0  0.00000000000E+00  0.00000000000E+00 -0.48011050304E+03  0.33457745903E+04  0.33111480658E+04 0.  0.
        3    1    3    3  502    0 -0.16639235929E+03 -0.12416812952E+04 -0.13337169833E+04  0.18298250894E+04  0.10100000352E+00 0.  1.
       -3    1    3    3    0  502  0.16639235929E+03  0.12416812952E+04  0.85360648024E+03  0.15159495009E+04  0.10100000352E+00 0. -1.
</event>
<event>
 5   0  0.2080770E-07  0.3432096E+04  0.7818609E-02  0.8130074E-01
       -1   -1    0    0    0  501  0.00000000000E+00  0.00000000000E+00  0.12878710816E+04  0.12878710816E+04  0.50400001928E-02 0.  1.
        1   -1    0    0  501    0  0.00000000000E+00  0.00000000000E+00 -0.22865802734E+04  0.22865802734E+04  0.50400001928E-02 0. -1.
    10030    2    1    2    0    0  0.00000000000E+00  0.00000000000E+00 -0.99870919186E+03  0.35744513550E+04  0.34320959251E+04 0.  0.
        4    1    3    3  502    0  0.96153621506E+03  0.22593010733E+03  0.96214058994E+03  0.13788808629E+04  0.12699999809E+01 0.  1.
       -4    1    3    3    0  502 -0.96153621506E+03 -0.22593010733E+03 -0.19608497818E+04  0.21955704921E+04  0.12699999809E+01 0. -1.
</event>
<event>
 5   0  0.6258718E-07  0.3303282E+04  0.7818609E-02  0.8162061E-01
        2   -1    0    0  501    0  0.00000000000E+00  0.00000000000E+00  0.14523981678E+04  0.14523981678E+04  0.25500000920E-02 0.  1.
       -2   -1    0    0    0  501  0.00000000000E+00  0.00000000000E+00 -0.18782162983E+04  0.18782162983E+04  0.25500000920E-02 0. -1.
    10030    2    1    2    0    0  0.00000000000E+00  0.00000000000E+00 -0.42581813050E+03  0.33306144661E+04  0.33032819501E+04 0.  0.
        5    1    3    3  502    0 -0.11763541000E+04 -0.11400459081E+04 -0.42532301382E+03  0.16924642971E+04  0.46999998093E+01 0. -1.
       -5    1    3    3    0  502  0.11763541000E+04  0.11400459081E+04 -0.49511667622E+00  0.16381501690E+04  0.46999998093E+01 0.  1.
</event>
<event>
 5   0  0.2080770E-07  0.3314540E+04  0.7818609E-02  0.8159206E-01
       -1   -1    0    0    0  501  0.00000000000E+00  0.00000000000E+00  0.12561644923E+04  0.12561644923E+04  0.50400001928E-02 0.  1.
        1   -1    0    0  501    0  0.00000000000E+00  0.00000000000E+00 -0.21864524503E+04  0.21864524503E+04  0.50400001928E-02 0. -1.
    10030    2    1    2    0    0  0.00000000000E+00  0.00000000000E+00 -0.93028795806E+03  0.34426169426E+04  0.33145400478E+04 0.  0.
        4    1    3    3  502    0 -0.11937710472E+03 -0.15024857507E+04 -0.11808482174E+04  0.19147110617E+04  0.12699999809E+01 0. -1.
       -4    1    3    3    0  502  0.11937710472E+03  0.15024857507E+04  0.25056025939E+03  0.15279058809E+04  0.12699999809E+01 0.  1.
</event>
<event>
 5   0  0.2037333E-07  0.3296689E+04  0.7818609E-02  0.8163738E-01
       -1   -1    0    0    0  501  0.00000000000E+00  0.00000000000E+00  0.10762502610E+04  0.10762502610E+04  0.50400001928E-02 0. -1.
        1   -1    0    0  501    0  0.00000000000E+00  0.00000000000E+00 -0.25245431930E+04  0.25245431930E+04  0.50400001928E-02 0.  1.
    10030    2    1    2    0    0  0.00000000000E+00  0.00000000000E+00 -0.14482929320E+04  0.36007934540E+04  0.32966894124E+04 0.  0.
        3    1    3    3  502    0 -0.21975357729E+03  0.15123305699E+04 -0.49420951911E+02  0.15290120432E+04  0.10100000352E+00 0. -1.
       -3    1    3    3    0  502  0.21975357729E+03 -0.15123305699E+04 -0.13988719801E+04  0.20717814109E+04  0.10100000352E+00 0.  1.
</event>
<event>
 5   0  0.2057130E-07  0.3292932E+04  0.7818609E-02  0.8164696E-01
       -1   -1    0    0    0  501  0.00000000000E+00  0.00000000000E+00  0.14177205806E+04  0.14177205806E+04  0.50400001928E-02 0.  1.
        1   -1    0    0  501    0  0.00000000000E+00  0.00000000000E+00 -0.19121192848E+04  0.19121192849E+04  0.50400001928E-02 0. -1.
    10030    2    1    2    0    0  0.00000000000E+00  0.00000000000E+00 -0.49439870420E+03  0.33298398655E+04  0.32929323484E+04 0.  0.
        2    1    3    3  502    0 -0.15624218273E+03 -0.55186604638E+03  0.13134335634E+04  0.14332046184E+04  0.25500000920E-02 0.  1.
       -2    1    3    3    0  502  0.15624218273E+03  0.55186604638E+03 -0.18078322676E+04  0.18966352471E+04  0.25500000920E-02 0. -1.
</event>
<event>
 5   0  0.6377741E-07  0.3298420E+04  0.7818609E-02  0.8163298E-01
        2   -1    0    0  501    0  0.00000000000E+00  0.00000000000E+00  0.20630752203E+04  0.20630752203E+04  0.25500000920E-02 0.  1.
       -2   -1    0    0    0  501  0.00000000000E+00  0.00000000000E+00 -0.13183683819E+04  0.13183683819E+04  0.25500000920E-02 0. -1.
    10030    2    1    2    0    0  0.00000000000E+00  0.00000000000E+00  0.74470683840E+03  0.33814436023E+04  0.32984197065E+04 0.  0.
        1    1    3    3  502    0 -0.22305888585E+03 -0.36137907806E+03  0.20060598565E+04  0.20505185326E+04  0.50400001928E-02 0.  1.
       -1    1    3    3    0  502  0.22305888585E+03  0.36137907806E+03 -0.12613530181E+04  0.13309250696E+04  0.50400001928E-02 0. -1.
</event>
<event>
 5   0  0.2080828E-07  0.3294777E+04  0.7818609E-02  0.8164226E-01
        1   -1    0    0  501    0  0.00000000000E+00  0.00000000000E+00  0.22621491454E+04  0.22621491454E+04  0.50400001928E-02 0. -1.
       -1   -1    0    0    0  501  0.00000000000E+00  0.00000000000E+00 -0.11996946052E+04  0.11996946052E+04  0.50400001928E-02 0.  1.
    10030    2    1    2    0    0  0.00000000000E+00  0.00000000000E+00  0.10624545402E+04  0.34618437506E+04  0.32947765483E+04 0.  0.
        1    1    3    3  502    0  0.49434762949E+03  0.12672113444E+04 -0.44524276827E+03  0.14312390761E+04  0.50400001928E-02 0.  1.
       -1    1    3    3    0  502 -0.49434762949E+03 -0.12672113444E+04  0.15076973085E+04  0.20306046745E+04  0.50400001928E-02 0. -1.
</event>
<event>
 5   0  0.6424183E-07  0.3297029E+04  0.7818609E-02  0.8163652E-01
       -2   -1    0    0    0  501  0.00000000000E+00  0.00000000000E+00  0.14299746423E+04  0.14299746423E+04  0.25500000920E-02 0.  1.
        2   -1    0    0  501    0  0.00000000000E+00  0.00000000000E+00 -0.19004530829E+04  0.19004530829E+04  0.25500000920E-02 0. -1.
    10030    2    1    2    0    0  0.00000000000E+00  0.00000000000E+00 -0.47047844060E+03  0.33304277253E+04  0.32970287943E+04 0.  0.
        2    1    3    3  502    0  0.21461031162E+03  0.14670359222E+04 -0.96319733930E+03  0.17680500834E+04  0.25500000920E-02 0. -1.
       -2    1    3    3    0  502 -0.21461031162E+03 -0.14670359222E+04  0.49271889870E+03  0.15623776419E+04  0.25500000920E-02 0.  1.
</event>
<event>
 5   0  0.1994250E-07  0.3291569E+04  0.7818609E-02  0.8165044E-01
        3   -1    0    0  501    0  0.00000000000E+00  0.00000000000E+00  0.17146298636E+04  0.17146298666E+04  0.10100000352E+00 0.  1.
       -3   -1    0    0    0  501  0.00000000000E+00  0.00000000000E+00 -0.15797031319E+04  0.15797031351E+04  0.10100000352E+00 0. -1.
    10030    2    1    2    0    0  0.00000000000E+00  0.00000000000E+00  0.13492673173E+03  0.32943330017E+04  0.32915687298E+04 0.  0.
        3    1    3    3  502    0  0.10803113761E+04  0.86675390155E+03  0.95718190177E+03  0.16836069014E+04  0.10100000352E+00 0.  1.
       -3    1    3    3    0  502 -0.10803113761E+04 -0.86675390155E+03 -0.82225517004E+03  0.16107261003E+04  0.10100000352E+00 0. -1.
</event>
<event>
 5   0  0.2080828E-07  0.3314819E+04  0.7818609E-02  0.8159135E-01
       -1   -1    0    0    0  501  0.00000000000E+00  0.00000000000E+00  0.12409468954E+04  0.12409468955E+04  0.50400001928E-02 0.  1.
        1   -1    0    0  501    0  0.00000000000E+00  0.00000000000E+00 -0.22136373823E+04  0.22136373823E+04  0.50400001928E-02 0. -1.
    10030    2    1    2    0    0  0.00000000000E+00  0.00000000000E+00 -0.97269048688E+03  0.34545842778E+04  0.33148191126E+04 0.  0.
        1    1    3    3  502    0 -0.13893401713E+04 -0.89833233800E+03 -0.38349611085E+03  0.16983334090E+04  0.50400001928E-02 0. -1.
       -1    1    3    3    0  502  0.13893401713E+04  0.89833233800E+03 -0.58919437604E+03  0.17562508688E+04  0.50400001928E-02 0.  1.
</event>
<event>
 5   0  0.2037333E-07  0.3302833E+04  0.7818609E-02  0.8162175E-01
       -1   -1    0    0    0  501  0.00000000000E+00  0.00000000000E+00  0.17260251006E+04  0.17260251006E+04  0.50400001928E-02 0. -1.
        1   -1    0    0  501    0  0.00000000000E+00  0.00000000000E+00 -0.15800324771E+04  0.15800324771E+04  0.50400001928E-02 0.  1.
    10030    2    1    2    0    0  0.00000000000E+00  0.00000000000E+00  0.14599262352E+03  0.33060575777E+04  0.33028325512E+04 0.  0.
        3    1    3    3  502    0  0.15219860270E+04  0.52068166816E+03 -0.30103262237E+03  0.16365119969E+04  0.10100000352E+00 0. -1.
       -3    1    3    3    0  502 -0.15219860270E+04 -0.52068166816E+03  0.44702524590E+03  0.16695455809E+04  0.10100000352E+00 0.  1.
</event>
<event>
 5   0  0.6258718E-07  0.3292593E+04  0.7818609E-02  0.8164783E-01
        2   -1    0    0  501    0  0.00000000000E+00  0.00000000000E+00  0.15236187870E+04  0.15236187870E+04  0.25500000920E-02 0. -1.
       -2   -1    0    0    0  501  0.00000000000E+00  0.00000000000E+00 -0.17788516948E+04  0.17788516948E+04  0.25500000920E-02 0.  1.
    10030    2    1    2    0    0  0.00000000000E+00  0.00000000000E+00 -0.25523290779E+03  0.33024704818E+04  0.32925928151E+04 0.  0.
        5    1    3    3  502    0 -0.13778388169E+04 -0.35165551828E+03  0.70443133293E+03  0.15869300557E+04  0.46999998093E+01 0. -1.
       -5    1    3    3    0  502  0.13778388169E+04  0.35165551828E+03 -0.95966424072E+03  0.17155404262E+04  0.46999998093E+01 0.  1.
</event>
<event>
 5   0  0.6426079E-07  0.3303576E+04  0.7818609E-02  0.8161986E-01
       -2   -1    0    0    0  501  0.00000000000E+00  0.00000000000E+00  0.16649992755E+04  0.16649992755E+04  0.25500000920E-02 0.  1.
        2   -1    0    0  501    0  0.00000000000E+00  0.00000000000E+00 -0.16386811628E+04  0.16386811628E+04  0.25500000920E-02 0. -1.
    10030    2    1    2    0    0  0.00000000000E+00  0.00000000000E+00  0.26318112766E+02  0.33036804383E+04  0.33035756076E+04 0.  0.
        4    1    3    3  502    0  0.55672501717E+03 -0.22227291119E+03  0.15523808398E+04  0.16641021232E+04  0.12699999809E+01 0.  1.
       -4    1    3    3    0  502 -0.55672501717E+03  0.22227291119E+03 -0.15260627270E+04  0.16395783151E+04  0.12699999809E+01 0. -1.
</event>
<event>
 5   0  0.2080828E-07  0.3305420E+04  0.7818609E-02  0.8161518E-01
       -1   -1    0    0    0  501  0.00000000000E+00  0.00000000000E+00  0.12907394800E+04  0.12907394800E+04  0.50400001928E-02 0.  1.
        1   -1    0    0  501    0  0.00000000000E+00  0.00000000000E+00 -0.21161905415E+04  0.21161905415E+04  0.50400001928E-02 0. -1.
    10030    2    1    2    0    0  0.00000000000E+00  0.00000000000E+00 -0.82545106157E+03  0.34069300215E+04  0.33054202027E+04 0.  0.
        1    1    3    3  502    0  0.53573756202E+03 -0.64494325873E+03  0.10552619232E+04  0.13477923686E+04  0.50400001928E-02 0.  1.
       -1    1    3    3    0  502 -0.53573756202E+03  0.64494325873E+03 -0.18807129848E+04  0.20591376529E+04  0.50400001928E-02 0. -1.
</event>
<event>
 5   0  0.2087665E-07  0.3302118E+04  0.7818609E-02  0.8162357E-01
       -1   -1    0    0    0  501  0.00000000000E+00  0.00000000000E+00  0.24744281142E+04  0.24744281142E+04  0.50400001928E-02 0. -1.
        1   -1    0    0  501    0  0.00000000000E+00  0.00000000000E+00 -0.11016668776E+04  0.11016668776E+04  0.50400001928E-02 0.  1.
    10030    2    1    2    0    0  0.00000000000E+00  0.00000000000E+00  0.13727612366E+04  0.35760949918E+04  0.33021178019E+04 0.  0.
        5    1    3    3  502    0  0.12347733122E+04  0.59900846551E+03  0.16804133817E+04  0.21696284239E+04  0.46999998093E+01 0. -1.
       -5    1    3    3    0  502 -0.12347733122E+04 -0.59900846551E+03 -0.30765214510E+03  0.14064665679E+04  0.46999998093E+01 0.  1.
</event>
<event>
 5   0  0.6351753E-07  0.3272187E+04  0.7818609E-02  0.8170009E-01
        2   -1    0    0  501    0  0.00000000000E+00  0.00000000000E+00  0.27944709692E+04  0.27944709692E+04  0.25500000920E-02 0.  1.
       -2   -1    0    0    0  501  0.00000000000E+00  0.00000000000E+00 -0.95789213949E+03  0.95789213949E+03  0.25500000920E-02 0. -1.
    10030    2    1    2    0    0  0.00000000000E+00  0.00000000000E+00  0.18365788297E+04  0.37523631086E+04  0.32721868989E+04 0.  0.
        3    1    3    3  502    0 -0.38670223302E+02  0.30178730218E+03  0.27617438410E+04  0.27784528097E+04  0.10100000352E+00 0.  1.
       -3    1    3    3    0  502  0.38670223302E+02 -0.30178730218E+03 -0.92516501138E+03  0.97391029896E+03  0.10100000352E+00 0. -1.
</event>
<event>
 5   0  0.2080770E-07  0.3307777E+04  0.7818609E-02  0.8160919E-01
       -1   -1    0    0    0  501  0.00000000000E+00  0.00000000000E+00  0.14724419285E+04  0.14724419286E+04  0.50400001928E-02 0.  1.
        1   -1    0    0  501    0  0.00000000000E+00  0.00000000000E+00 -0.18576944078E+04  0.18576944078E+04  0.50400001928E-02 0. -1.
    10030    2    1    2    0    0  0.00000000000E+00  0.00000000000E+00 -0.38525247924E+03  0.33301363363E+04  0.33077769795E+04 0.  0.
        4    1    3    3  502    0 -0.10963688739E+04 -0.11312871996E+04  0.31427507380E+03  0.16064264286E+04  0.12699999809E+01 0.  1.
       -4    1    3    3    0  502  0.10963688739E+04  0.11312871996E+04 -0.69952755304E+03  0.17237099077E+04  0.12699999809E+01 0. -1.
</event>
<event>
 5   0  0.6351753E-07  0.3289264E+04  0.7818609E-02  0.8165633E-01
        2   -1    0    0  501    0  0.00000000000E+00  0.00000000000E+00  0.14798569991E+04  0.14798569991E+04  0.25500000920E-02 0. -1.
       -2   -1    0    0    0  501  0.00000000000E+00  0.00000000000E+00 -0.18277535217E+04  0.18277535217E+04  0.25500000920E-02 0.  1.
    10030    2    1    2    0    0  0.00000000000E+00  0.00000000000E+00 -0.34789652255E+03  0.33076105208E+04  0.32892636511E+04 0.  0.
        3    1    3    3  502    0 -0.54239968321E+03 -0.14268903333E+04 -0.78940820460E+03  0.17185397183E+04  0.10100000352E+00 0.  1.
       -3    1    3    3    0  502  0.54239968321E+03  0.14268903333E+04  0.44151168204E+03  0.15890708025E+04  0.10100000352E+00 0. -1.
</event>
<event>
 5   0  0.1994250E-07  0.3313361E+04  0.7818609E-02  0.8159504E-01
        3   -1    0    0  501    0  0.00000000000E+00  0.00000000000E+00  0.18502496329E+04  0.18502496357E+04  0.10100000352E+00 0. -1.
       -3   -1    0    0    0  501  0.00000000000E+00  0.00000000000E+00 -0.14833619655E+04  0.14833619690E+04  0.10100000352E+00 0.  1.
    10030    2    1    2    0    0  0.00000000000E+00  0.00000000000E+00  0.36688766738E+03  0.33336116046E+04  0.33133607968E+04 0.  0.
        1    1    3    3  502    0 -0.11301568073E+04 -0.93692409353E+03  0.95593123897E+03  0.17518235356E+04  0.50400001928E-02 0.  1.
       -1    1    3    3    0  502  0.11301568073E+04  0.93692409353E+03 -0.58904357159E+03  0.15817880690E+04  0.50400001928E-02 0. -1.
</event>
<event>
 5   0  0.2057130E-07  0.3311634E+04  0.7818609E-02  0.8159941E-01
        1   -1    0    0  501    0  0.00000000000E+00  0.00000000000E+00  0.25209237513E+04  0.25209237513E+04  0.50400001928E-02 0.  1.
       -1   -1    0    0    0  501  0.00000000000E+00  0.00000000000E+00 -0.10875892583E+04  0.10875892583E+04  0.50400001928E-02 0. -1.
    10030    2    1    2    0    0  0.00000000000E+00  0.00000000000E+00  0.14333344930E+04  0.36085130096E+04  0.33116337919E+04 0.  0.
        2    1    3    3  502    0  0.12067590715E+04 -0.11429026123E+03  0.19457971319E+04  0.22924781785E+04  0.25500000920E-02 0.  1.
       -2    1    3    3    0  502 -0.12067590715E+04  0.11429026123E+03 -0.51246263893E+03  0.13160348311E+04  0.25500000920E-02 0. -1.
</event>
<event>
 5   0  0.6258718E-07  0.3266405E+04  0.7818609E-02  0.8171497E-01
        2   -1    0    0  501    0  0.00000000000E+00  0.00000000000E+00  0.19533532749E+04  0.19533532749E+04  0.25500000920E-02 0. -1.
       -2   -1    0    0    0  501  0.00000000000E+00  0.00000000000E+00 -0.13655240942E+04  0.13655240942E+04  0.25500000920E-02 0.  1.
    10030    2    1    2    0    0  0.00000000000E+00  0.00000000000E+00  0.58782918066E+03  0.33188773691E+04  0.32664053400E+04 0.  0.
        5    1    3    3  502    0  0.64479765848E+02 -0.12342375584E+04 -0.79086363037E+03  0.14673061585E+04  0.46999998093E+01 0.  1.
       -5    1    3    3    0  502 -0.64479765848E+02  0.12342375584E+04  0.13786928110E+04  0.18515712106E+04  0.46999998093E+01 0. -1.
</event>
<event>
 5   0  0.2080828E-07  0.3304639E+04  0.7818609E-02  0.8161716E-01
        1   -1    0    0  501    0  0.00000000000E+00  0.00000000000E+00  0.22688787283E+04  0.22688787283E+04  0.50400001928E-02 0. -1.
       -1   -1    0    0    0  501  0.00000000000E+00  0.00000000000E+00 -0.12033080141E+04  0.12033080141E+04  0.50400001928E-02 0.  1.
    10030    2    1    2    0    0  0.00000000000E+00  0.00000000000E+00  0.10655707142E+04  0.34721867425E+04  0.33046391373E+04 0.  0.
        1    1    3    3  502    0  0.15311482965E+04  0.18929848497E+03  0.11543091944E+04  0.19268312688E+04  0.50400001928E-02 0. -1.
       -1    1    3    3    0  502 -0.15311482965E+04 -0.18929848497E+03 -0.88738480138E+02  0.15453554737E+04  0.50400001928E-02 0.  1.
</event>
<event>
 5   0  0.2080828E-07  0.3305887E+04  0.7818609E-02  0.8161399E-01
        1   -1    0    0  501    0  0.00000000000E+00  0.00000000000E+00  0.23031175871E+04  0.23031175871E+04  0.50400001928E-02 0. -1.
       -1   -1    0    0    0  501  0.00000000000E+00  0.00000000000E+00 -0.11863147471E+04  0.11863147471E+04  0.50400001928E-02 0.  1.
    10030    2    1    2    0    0  0.00000000000E+00  0.00000000000E+00  0.11168028401E+04  0.34894323342E+04  0.33058870869E+04 0.  0.
        1    1    3    3  502    0 -0.38939088486E+02  0.64053651926E+03 -0.10494650484E+04  0.12301138862E+04  0.50400001928E-02 0.  1.
       -1    1    3    3    0  502  0.38939088486E+02 -0.64053651926E+03  0.21662678885E+04  0.22593184481E+04  0.50400001928E-02 0. -1.
</event>
<event>
 5   0  0.6258718E-07  0.3270873E+04  0.7818609E-02  0.8170347E-01
       -2   -1    0    0    0  501  0.00000000000E+00  0.00000000000E+00  0.16927926651E+04  0.16927926651E+04  0.25500000920E-02 0. -1.
        2   -1    0    0  501    0  0.00000000000E+00  0.00000000000E+00 -0.15800237857E+04  0.15800237857E+04  0.25500000920E-02 0.  1.
    10030    2    1    2    0    0  0.00000000000E+00  0.00000000000E+00  0.11276887941E+03  0.32728164507E+04  0.32708730792E+04 0.  0.
        5    1    3    3  502    0 -0.70355630929E+03  0.12159972287E+04 -0.78136437144E+03  0.16075425691E+04  0.46999998093E+01 0. -1.
       -5    1    3    3    0  502  0.70355630929E+03 -0.12159972287E+04  0.89413325085E+03  0.16652738816E+04  0.46999998093E+01 0.  1.
</event>
<event>
 5   0  0.2080770E-07  0.3290361E+04  0.7818609E-02  0.8165352E-01
        1   -1    0    0  501    0  0.00000000000E+00  0.00000000000E+00  0.18339928816E+04  0.18339928816E+04  0.50400001928E-02 0.  1.
       -1   -1    0    0    0  501  0.00000000000E+00  0.00000000000E+00 -0.14758065892E+04  0.14758065892E+04  0.50400001928E-02 0. -1.
    10030    2    1    2    0    0  0.00000000000E+00  0.00000000000E+00  0.35818629234E+03  0.33097994708E+04  0.32903609402E+04 0.  0.
        4    1    3    3  502    0  0.47186543643E+03  0.48444420861E+03  0.16877112716E+04  0.18181622948E+04  0.12699999809E+01 0.  1.
       -4    1    3    3    0  502 -0.47186543643E+03 -0.48444420861E+03 -0.13295249792E+04  0.14916371759E+04  0.12699999809E+01 0. -1.
</event>
<event>
 5   0  0.2080828E-07  0.3340417E+04  0.7818609E-02  0.8152687E-01
       -1   -1    0    0    0  501  0.00000000000E+00  0.00000000000E+00  0.19361097790E+04  0.19361097791E+04  0.50400001928E-02 0. -1.
        1   -1    0    0  501    0  0.00000000000E+00  0.00000000000E+00 -0.14408259298E+04  0.14408259298E+04  0.50400001928E-02 0.  1.
    10030    2    1    2    0    0  0.00000000000E+00  0.00000000000E+00  0.49528384929E+03  0.33769357088E+04  0.33404174425E+04 0.  0.
        1    1    3    3  502    0 -0.75752139935E+03  0.35160627989E+02  0.17520375853E+04  0.19091125270E+04  0.50400001928E-02 0. -1.
       -1    1    3    3    0  502  0.75752139935E+03 -0.35160627989E+02 -0.12567537360E+04  0.14678231819E+04  0.50400001928E-02 0.  1.
</event>
<event>
 5   0  0.6258718E-07  0.3295035E+04  0.7818609E-02  0.8164160E-01
       -2   -1    0    0    0  501  0.00000000000E+00  0.00000000000E+00  0.11457798186E+04  0.11457798186E+04  0.25500000920E-02 0. -1.
        2   -1    0    0  501    0  0.00000000000E+00  0.00000000000E+00 -0.23689660576E+04  0.23689660576E+04  0.25500000920E-02 0.  1.
    10030    2    1    2    0    0  0.00000000000E+00  0.00000000000E+00 -0.12231862390E+04  0.35147458762E+04  0.32950347493E+04 0.  0.
        5    1    3    3  502    0 -0.64524173352E+03 -0.13728170688E+04 -0.12973674816E+04  0.19960330837E+04  0.46999998093E+01 0.  1.
       -5    1    3    3    0  502  0.64524173352E+03  0.13728170688E+04  0.74181242589E+02  0.15187127924E+04  0.46999998093E+01 0. -1.
</event>
<event>
 5   0  0.2087665E-07  0.3277915E+04  0.7818609E-02  0.8168538E-01
       -1   -1    0    0    0  501  0.00000000000E+00  0.00000000000E+00  0.11246020706E+04  0.11246020706E+04  0.50400001928E-02 0.  1.
        1   -1    0    0  501    0  0.00000000000E+00  0.00000000000E+00 -0.23885618960E+04  0.23885618960E+04  0.50400001928E-02 0. -1.
    10030    2    1    2    0    0  0.00000000000E+00  0.00000000000E+00 -0.12639598254E+04  0.35131639665E+04  0.32779149799E+04 0.  0.
        5    1    3    3  502    0 -0.14321917148E+04  0.73155526484E+03 -0.29337359909E+03  0.16347588116E+04  0.46999998093E+01 0. -1.
       -5    1    3    3    0  502  0.14321917148E+04 -0.73155526484E+03 -0.97058622629E+03  0.18784051549E+04  0.46999998093E+01 0.  1.
</event>
<event>
 5   0  0.6351753E-07  0.3250594E+04  0.7818609E-02  0.8175582E-01
       -2   -1    0    0    0  501  0.00000000000E+00  0.00000000000E+00  0.90077196255E+03  0.90077196256E+03  0.25500000920E-02 0.  1.
        2   -1    0    0  501    0  0.00000000000E+00  0.00000000000E+00 -0.29325849298E+04  0.29325849298E+04  0.25500000920E-02 0. -1.
    10030    2    1    2    0    0  0.00000000000E+00  0.00000000000E+00 -0.20318129673E+04  0.38333568924E+04  0.32505939658E+04 0.  0.
        3    1    3    3  502    0 -0.11183341415E+04 -0.89144992445E+03 -0.19265022911E+04  0.23993260111E+04  0.10100000352E+00 0. -1.
       -3    1    3    3    0  502  0.11183341415E+04  0.89144992445E+03 -0.10531067620E+03  0.14340308813E+04  0.10100000352E+00 0.  1.
</event>
<event>
 5   0  0.2057130E-07  0.3303985E+04  0.7818609E-02  0.8161882E-01
        1   -1    0    0  501    0  0.00000000000E+00  0.00000000000E+00  0.14567872970E+04  0.14567872970E+04  0.50400001928E-02 0.  1.
       -1   -1    0    0    0  501  0.00000000000E+00  0.00000000000E+00 -0.18733543097E+04  0.18733543097E+04  0.50400001928E-02 0. -1.
    10030    2    1    2    0    0  0.00000000000E+00  0.00000000000E+00 -0.41656701273E+03  0.33301416067E+04  0.33039847222E+04 0.  0.
        2    1    3    3  502    0  0.15463525027E+04 -0.21367482666E+03 -0.75313292687E+03  0.17332259518E+04  0.25500000920E-02 0. -1.
       -2    1    3    3    0  502 -0.15463525027E+04  0.21367482666E+03  0.33656591414E+03  0.15969156549E+04  0.25500000920E-02 0.  1.
</event>
<event>
 5   0  0.2080770E-07  0.3309899E+04  0.7818609E-02  0.8160381E-01
       -1   -1    0    0    0  501  0.00000000000E+00  0.00000000000E+00  0.19686524443E+04  0.19686524443E+04  0.50400001928E-02 0.  1.
        1   -1    0    0  501    0  0.00000000000E+00  0.00000000000E+00 -0.13912345922E+04  0.13912345922E+04  0.50400001928E-02 0. -1.
    10030    2    1    2    0    0  0.00000000000E+00  0.00000000000E+00  0.57741785213E+03  0.33598870365E+04  0.33098987178E+04 0.  0.
        4    1    3    3  502    0 -0.75126633246E+03 -0.13819659664E+04 -0.23347703064E+03  0.15902025567E+04  0.12699999809E+01 0. -1.
       -4    1    3    3    0  502  0.75126633246E+03  0.13819659664E+04  0.81089488277E+03  0.17696844799E+04  0.12699999809E+01 0.  1.
</event>
<event>
 5   0  0.2080828E-07  0.3303052E+04  0.7818609E-02  0.8162119E-01
        1   -1    0    0  501    0  0.00000000000E+00  0.00000000000E+00  0.11561725955E+04  0.11561725955E+04  0.50400001928E-02 0.  1.
       -1   -1    0    0    0  501  0.00000000000E+00  0.00000000000E+00 -0.23591094337E+04  0.23591094337E+04  0.50400001928E-02 0. -1.
    10030    2    1    2    0    0  0.00000000000E+00  0.00000000000E+00 -0.12029368382E+04  0.35152820292E+04  0.33030517266E+04 0.  0.
        1    1    3    3  502    0 -0.13314920685E+04  0.79942540625E+03 -0.11993337449E+04  0.19622317754E+04  0.50400001928E-02 0. -1.
       -1    1    3    3    0  502  0.13314920685E+04 -0.79942540625E+03 -0.36030932509E+01  0.15530502538E+04  0.50400001928E-02 0.  1.
</event>
<event>
 5   0  0.2080770E-07  0.3282387E+04  0.7818609E-02  0.8167392E-01
        1   -1    0    0  501    0  0.00000000000E+00  0.00000000000E+00  0.25616950721E+04  0.25616950721E+04  0.50400001928E-02 0.  1.
       -1   -1    0    0    0  501  0.00000000000E+00  0.00000000000E+00 -0.10514585016E+04  0.10514585016E+04  0.50400001928E-02 0. -1.
    10030    2    1    2    0    0  0.00000000000E+00  0.00000000000E+00  0.15102365705E+04  0.36131535737E+04  0.32823869742E+04 0.  0.
        4    1    3    3  502    0  0.10858695117E+04 -0.10160193391E+04 -0.91892813709E+01  0.14871092595E+04  0.12699999809E+01 0.  1.
       -4    1    3    3    0  502 -0.10858695117E+04  0.10160193391E+04  0.15194258519E+04  0.21260443142E+04  0.12699999809E+01 0. -1.
</event>
<event>
 5   0  0.6424183E-07  0.3278698E+04  0.7818609E-02  0.8168337E-01
       -2   -1    0    0    0  501  0.00000000000E+00  0.00000000000E+00  0.21256507072E+04  0.21256507072E+04  0.25500000920E-02 0.  1.
        2   -1    0    0  501    0  0.00000000000E+00  0.00000000000E+00 -0.12643023284E+04  0.12643023284E+04  0.25500000920E-02 0. -1.
    10030    2    1    2    0    0  0.00000000000E+00  0.00000000000E+00  0.86134837878E+03  0.33899530356E+04  0.32786979968E+04 0.  0.
        2    1    3    3  502    0  0.21389128568E+03 -0.14866129449E+04  0.11100062128E+04  0.18675870321E+04  0.25500000920E-02 0.  1.
       -2    1    3    3    0  502 -0.21389128568E+03  0.14866129449E+04 -0.24865783405E+03  0.15223660035E+04  0.25500000920E-02 0. -1.
</event>
<event>
 5   0  0.6377741E-07  0.3299630E+04  0.7818609E-02  0.8162990E-01
       -2   -1    0    0    0  501  0.00000000000E+00  0.00000000000E+00  0.10996892642E+04  0.10996892642E+04  0.25500000920E-02 0.  1.
        2   -1    0    0  501    0  0.00000000000E+00  0.00000000000E+00 -0.24751435201E+04  0.24751435201E+04  0.25500000920E-02 0. -1.
    10030    2    1    2    0    0  0.00000000000E+00  0.00000000000E+00 -0.13754542559E+04  0.35748327843E+04  0.32996295285E+04 0.  0.
        1    1    3    3  502    0 -0.11624224616E+04  0.61566641845E+03  0.39112686233E+03  0.13723160498E+04  0.50400001928E-02 0.  1.
       -1    1    3    3    0  502  0.11624224616E+04 -0.61566641845E+03 -0.17665811183E+04  0.22025167345E+04  0.50400001928E-02 0. -1.
</event>
<event>
 5   0  0.6351753E-07  0.3302595E+04  0.7818609E-02  0.8162235E-01
       -2   -1    0    0    0  501  0.00000000000E+00  0.00000000000E+00  0.12743586615E+04  0.12743586615E+04  0.25500000920E-02 0.  1.
        2   -1    0    0  501    0  0.00000000000E+00  0.00000000000E+00 -0.21397299789E+04  0.21397299789E+04  0.25500000920E-02 0. -1.
    10030    2    1    2    0    0  0.00000000000E+00  0.00000000000E+00 -0.86537131734E+03  0.34140886404E+04  0.33025949991E+04 0.  0.
        3    1    3    3  502    0  0.17424905710E+03 -0.13765991792E+04  0.49274288983E+03  0.14724753308E+04  0.10100000352E+00 0.  1.
       -3    1    3    3    0  502 -0.17424905710E+03  0.13765991792E+04 -0.13581142072E+04  0.19416133096E+04  0.10100000352E+00 0. -1.
</event>
<event>
 5   0  0.6377741E-07  0.3294546E+04  0.7818609E-02  0.8164285E-01
       -2   -1    0    0    0  501  0.00000000000E+00  0.00000000000E+00  0.18108479777E+04  0.18108479777E+04  0.25500000920E-02 0. -1.
        2   -1    0    0  501    0  0.00000000000E+00  0.00000000000E+00 -0.14984735066E+04  0.14984735066E+04  0.25500000920E-02 0.  1.
    10030    2    1    2    0    0  0.00000000000E+00  0.00000000000E+00  0.31237447105E+03  0.33093214843E+04  0.32945456252E+04 0.  0.
        1    1    3    3  502    0  0.16109998781E+02 -0.98155983557E+03 -0.11725411364E+04  0.15292390132E+04  0.50400001928E-02 0.  1.
       -1    1    3    3    0  502 -0.16109998781E+02  0.98155983557E+03  0.14849156074E+04  0.17800824712E+04  0.50400001928E-02 0. -1.
</event>
<event>
 5   0  0.6426079E-07  0.3286633E+04  0.7818609E-02  0.8166305E-01
        2   -1    0    0  501    0  0.00000000000E+00  0.00000000000E+00  0.20536690174E+04  0.20536690174E+04  0.25500000920E-02 0. -1.
       -2   -1    0    0    0  501  0.00000000000E+00  0.00000000000E+00 -0.13149584653E+04  0.13149584653E+04  0.25500000920E-02 0.  1.
    10030    2    1    2    0    0  0.00000000000E+00  0.00000000000E+00  0.73871055215E+03  0.33686274827E+04  0.32866332070E+04 0.  0.
        4    1    3    3  502    0 -0.13961079911E+04 -0.69469418384E+03  0.90071960736E+03  0.18008372930E+04  0.12699999809E+01 0.  1.
       -4    1    3    3    0  502  0.13961079911E+04  0.69469418384E+03 -0.16200905521E+03  0.15677901897E+04  0.12699999809E+01 0. -1.
</event>
<event>
 5   0  0.2037333E-07  0.3297229E+04  0.7818609E-02  0.8163601E-01
        1   -1    0    0  501    0  0.00000000000E+00  0.00000000000E+00  0.75769079276E+03  0.75769079278E+03  0.50400001928E-02 0.  1.
       -1   -1    0    0    0  501  0.00000000000E+00  0.00000000000E+00 -0.35871230260E+04  0.35871230260E+04  0.50400001928E-02 0. -1.
    10030    2    1    2    0    0  0.00000000000E+00  0.00000000000E+00 -0.28294322332E+04  0.43448138188E+04  0.32972291939E+04 0.  0.
        3    1    3    3  502    0 -0.13158789731E+04  0.42246694448E+03 -0.23029898900E+03  0.14010900847E+04  0.10100000352E+00 0.  1.
       -3    1    3    3    0  502  0.13158789731E+04 -0.42246694448E+03 -0.25991332442E+04  0.29437237340E+04  0.10100000352E+00 0. -1.
</event>
<event>
 5   0  0.2080828E-07  0.3317492E+04  0.7818609E-02  0.8158459E-01
        1   -1    0    0  501    0  0.00000000000E+00  0.00000000000E+00  0.15734929441E+04  0.15734929441E+04  0.50400001928E-02 0.  1.
       -1   -1    0    0    0  501  0.00000000000E+00  0.00000000000E+00 -0.17486179091E+04  0.17486179091E+04  0.50400001928E-02 0. -1.
    10030    2    1    2    0    0  0.00000000000E+00  0.00000000000E+00 -0.17512496499E+03  0.33221108532E+04  0.33174917886E+04 0.  0.
        1    1    3    3  502    0  0.99283449216E+03  0.14314605774E+03  0.12353472227E+04  0.15913182847E+04  0.50400001928E-02 0.  1.
       -1    1    3    3    0  502 -0.99283449216E+03 -0.14314605774E+03 -0.14104721877E+04  0.17307925684E+04  0.50400001928E-02 0. -1.
</event>
<event>
 5   0  0.1994250E-07  0.3297033E+04  0.7818609E-02  0.8163651E-01
       -3   -1    0    0    0  501  0.00000000000E+00  0.00000000000E+00  0.24081074536E+04  0.24081074557E+04  0.10100000352E+00 0.  1.
        3   -1    0    0  501    0  0.00000000000E+00  0.00000000000E+00 -0.11285240681E+04  0.11285240726E+04  0.10100000352E+00 0. -1.
    10030    2    1    2    0    0  0.00000000000E+00  0.00000000000E+00  0.12795833855E+04  0.35366315283E+04  0.32970333524E+04 0.  0.
        5    1    3    3  502    0 -0.14200281184E+04 -0.56945231357E+02 -0.25629785710E+03  0.14441029388E+04  0.46999998093E+01 0. -1.
       -5    1    3    3    0  502  0.14200281184E+04  0.56945231357E+02  0.15358812426E+04  0.20925285895E+04  0.46999998093E+01 0.  1.
</event>
<event>
 5   0  0.2080828E-07  0.3296399E+04  0.7818609E-02  0.8163812E-01
        1   -1    0    0  501    0  0.00000000000E+00  0.00000000000E+00  0.14106771125E+04  0.14106771125E+04  0.50400001928E-02 0. -1.
       -1   -1    0    0    0  501  0.00000000000E+00  0.00000000000E+00 -0.19257146211E+04  0.19257146211E+04  0.50400001928E-02 0.  1.
    10030    2    1    2    0    0  0.00000000000E+00  0.00000000000E+00 -0.51503750854E+03  0.33363917336E+04  0.32963989693E+04 0.  0.
        1    1    3    3  502    0  0.37063766222E+03  0.41831987519E+03 -0.18268779615E+04  0.19104572440E+04  0.50400001928E-02 0.  1.
       -1    1    3    3    0  502 -0.37063766222E+03 -0.41831987519E+03  0.13118404530E+04  0.14259344897E+04  0.50400001928E-02 0. -1.
</event>
<event>
 5   0  0.2080770E-07  0.3249006E+04  0.7818609E-02  0.8175993E-01
        1   -1    0    0  501    0  0.00000000000E+00  0.00000000000E+00  0.16982183969E+04  0.16982183969E+04  0.50400001928E-02 0. -1.
       -1   -1    0    0    0  501  0.00000000000E+00  0.00000000000E+00 -0.15539872075E+04  0.15539872076E+04  0.50400001928E-02 0.  1.
    10030    2    1    2    0    0  0.00000000000E+00  0.00000000000E+00  0.14423118932E+03  0.32522056044E+04  0.32490057952E+04 0.  0.
        4    1    3    3  502    0 -0.13147297616E+04 -0.78100689364E+03 -0.47662311543E+03  0.16017669371E+04  0.12699999809E+01 0.  1.
       -4    1    3    3    0  502  0.13147297616E+04  0.78100689364E+03  0.62085430475E+03  0.16504386673E+04  0.12699999809E+01 0. -1.
</event>
<event>
 5   0  0.2037333E-07  0.3298977E+04  0.7818609E-02  0.8163156E-01
       -1   -1    0    0    0  501  0.00000000000E+00  0.00000000000E+00  0.98640707381E+03  0.98640707382E+03  0.50400001928E-02 0. -1.
        1   -1    0    0  501    0  0.00000000000E+00  0.00000000000E+00 -0.27583057111E+04  0.27583057111E+04  0.50400001928E-02 0.  1.
    10030    2    1    2    0    0  0.00000000000E+00  0.00000000000E+00 -0.17718986373E+04  0.37447127850E+04  0.32989769719E+04 0.  0.
        3    1    3    3  502    0 -0.44566634155E+03 -0.14058893195E+04 -0.17244508609E+04  0.22691130532E+04  0.10100000352E+00 0.  1.
       -3    1    3    3    0  502  0.44566634155E+03  0.14058893195E+04 -0.47447776445E+02  0.14755997317E+04  0.10100000352E+00 0. -1.
</event>
<event>
 5   0  0.6426079E-07  0.3286890E+04  0.7818609E-02  0.8166239E-01
        2   -1    0    0  501    0  0.00000000000E+00  0.00000000000E+00  0.15245531791E+04  0.15245531791E+04  0.25500000920E-02 0.  1.
       -2   -1    0    0    0  501  0.00000000000E+00  0.00000000000E+00 -0.17716085867E+04  0.17716085867E+04  0.25500000920E-02 0. -1.
    10030    2    1    2    0    0  0.00000000000E+00  0.00000000000E+00 -0.24705540759E+03  0.32961617659E+04  0.32868900213E+04 0.  0.
        4    1    3    3  502    0 -0.41888116073E+03 -0.19484380069E+03 -0.17051527132E+04  0.17666275560E+04  0.12699999809E+01 0. -1.
       -4    1    3    3    0  502  0.41888116073E+03  0.19484380069E+03  0.14580973056E+04  0.15295342098E+04  0.12699999809E+01 0.  1.
</event>
<event>
 5   0  0.2057130E-07  0.3299384E+04  0.7818609E-02  0.8163052E-01
       -1   -1    0    0    0  501  0.00000000000E+00  0.00000000000E+00  0.17537246483E+04  0.17537246483E+04  0.50400001928E-02 0.  1.
        1   -1    0    0  501    0  0.00000000000E+00  0.00000000000E+00 -0.15518308779E+04  0.15518308779E+04  0.50400001928E-02 0. -1.
    10030    2    1    2    0    0  0.00000000000E+00  0.00000000000E+00  0.20189377038E+03  0.33055555263E+04  0.32993842218E+04 0.  0.
        2    1    3    3  502    0  0.14258554761E+03 -0.14953434673E+04  0.78420587994E+03  0.16945092462E+04  0.25500000920E-02 0.  1.
       -2    1    3    3    0  502 -0.14258554761E+03  0.14953434673E+04 -0.58231210957E+03  0.16110462800E+04  0.25500000920E-02 0. -1.
</event>
<event>
 5   0  0.2037333E-07  0.3329671E+04  0.7818609E-02  0.8155386E-01
        1   -1    0    0  501    0  0.00000000000E+00  0.00000000000E+00  0.14977560532E+04  0.14977560532E+04  0.50400001928E-02 0. -1.
       -1   -1    0    0    0  501  0.00000000000E+00  0.00000000000E+00 -0.18505527779E+04  0.18505527779E+04  0.50400001928E-02 0.  1.
    10030    2    1    2    0    0  0.00000000000E+00  0.00000000000E+00 -0.35279672469E+03  0.33483088312E+04  0.33296706293E+04 0.  0.
        3    1    3    3  502    0  0.34320434597E+03 -0.33528481262E+03  0.14267246702E+04  0.15052403208E+04  0.10100000352E+00 0. -1.
       -3    1    3    3    0  502 -0.34320434597E+03  0.33528481262E+03 -0.17795213949E+04  0.18430685103E+04  0.10100000352E+00 0.  1.
</event>
<event>
 5   0  0.6258718E-07  0.3316414E+04  0.7818609E-02  0.8158731E-01
        2   -1    0    0  501    0  0.00000000000E+00  0.00000000000E+00  0.28012989442E+04  0.28012989442E+04  0.25500000920E-02 0. -1.
       -2   -1    0    0    0  501  0.00000000000E+00  0.00000000000E+00 -0.98156279911E+03  0.98156279911E+03  0.25500000920E-02 0.  1.
    10030    2    1    2    0    0  0.00000000000E+00  0.00000000000E+00  0.18197361451E+04  0.37828617433E+04  0.33164142279E+04 0.  0.
        5    1    3    3  502    0  0.48146373218E+03  0.76521584139E+02  0.27177021393E+04  0.27610849111E+04  0.46999998093E+01 0. -1.
       -5    1    3    3    0  502 -0.48146373218E+03 -0.76521584139E+02 -0.89796599418E+03  0.10217768323E+04  0.46999998093E+01 0.  1.
</event>
<event>
 5   0  0.2057130E-07  0.3299195E+04  0.7818609E-02  0.8163100E-01
       -1   -1    0    0    0  501  0.00000000000E+00  0.00000000000E+00  0.15999838465E+04  0.15999838465E+04  0.50400001928E-02 0. -1.
        1   -1    0    0  501    0  0.00000000000E+00  0.00000000000E+00 -0.17007491340E+04  0.17007491340E+04  0.50400001928E-02 0.  1.
    10030    2    1    2    0    0  0.00000000000E+00  0.00000000000E+00 -0.10076528748E+03  0.33007329805E+04  0.32991945328E+04 0.  0.
        2    1    3    3  502    0 -0.21970458222E+03  0.16096250865E+04  0.23612149080E+03  0.16416200477E+04  0.25500000920E-02 0. -1.
       -2    1    3    3    0  502  0.21970458222E+03 -0.16096250865E+04 -0.33688677829E+03  0.16591129328E+04  0.25500000920E-02 0.  1.
</event>
<event>
 5   0  0.2087665E-07  0.3297995E+04  0.7818609E-02  0.8163406E-01
        1   -1    0    0  501    0  0.00000000000E+00  0.00000000000E+00  0.18417246739E+04  0.18417246739E+04  0.50400001928E-02 0.  1.
       -1   -1    0    0    0  501  0.00000000000E+00  0.00000000000E+00 -0.14764380097E+04  0.14764380097E+04  0.50400001928E-02 0. -1.
    10030    2    1    2    0    0  0.00000000000E+00  0.00000000000E+00  0.36528666426E+03  0.33181626836E+04  0.32979947313E+04 0.  0.
        5    1    3    3  502    0 -0.10973150626E+04 -0.29318632560E+03 -0.10201217120E+04  0.15266725142E+04  0.46999998093E+01 0. -1.
       -5    1    3    3    0  502  0.10973150626E+04  0.29318632560E+03  0.13854083763E+04  0.17914901694E+04  0.46999998093E+01 0.  1.
</event>
<event>
 5   0  0.2087665E-07  0.3298221E+04  0.7818609E-02  0.8163348E-01
        1   -1    0    0  501    0  0.00000000000E+00  0.00000000000E+00  0.16461573302E+04  0.16461573302E+04  0.50400001928E-02 0.  1.
       -1   -1    0    0    0  501  0.00000000000E+00  0.00000000000E+00 -0.16520689270E+04  0.16520689270E+04  0.50400001928E-02 0. -1.
    10030    2    1    2    0    0  0.00000000000E+00  0.00000000000E+00 -0.59115968158E+01  0.32982262572E+04  0.32982209594E+04 0.  0.
        5    1    3    3  502    0  0.83452154794E+03  0.24512432007E+03  0.13981285831E+04  0.16466018861E+04  0.46999998093E+01 0.  1.
       -5    1    3    3    0  502 -0.83452154794E+03 -0.24512432007E+03 -0.14040401800E+04  0.16516243711E+04  0.46999998093E+01 0. -1.
</event>
<event>
 5   0  0.6424183E-07  0.3265192E+04  0.7818609E-02  0.8171809E-01
       -2   -1    0    0    0  501  0.00000000000E+00  0.00000000000E+00  0.15758918226E+04  0.15758918226E+04  0.25500000920E-02 0.  1.
        2   -1    0    0  501    0  0.00000000000E+00  0.00000000000E+00 -0.16913401663E+04  0.16913401663E+04  0.25500000920E-02 0. -1.
    10030    2    1    2    0    0  0.00000000000E+00  0.00000000000E+00 -0.11544834372E+03  0.32672319889E+04  0.32651916559E+04 0.  0.
        2    1    3    3  502    0 -0.94643362209E+03 -0.76012810311E+03  0.10346712535E+04  0.15950159676E+04  0.25500000920E-02 0.  1.
       -2    1    3    3    0  502  0.94643362209E+03  0.76012810311E+03 -0.11501195972E+04  0.16722160213E+04  0.25500000920E-02 0. -1.
</event>
<event>
 5   0  0.6424183E-07  0.3293933E+04  0.7818609E-02  0.8164441E-01
       -2   -1    0    0    0  501  0.00000000000E+00  0.00000000000E+00  0.10908261076E+04  0.10908261076E+04  0.25500000920E-02 0.  1.
        2   -1    0    0  501    0  0.00000000000E+00  0.00000000000E+00 -0.24866455207E+04  0.24866455207E+04  0.25500000920E-02 0. -1.
    10030    2    1    2    0    0  0.00000000000E+00  0.00000000000E+00 -0.13958194131E+04  0.35774716284E+04  0.32939325157E+04 0.  0.
        2    1    3    3  502    0 -0.17481671853E+03  0.13379461815E+03 -0.24705945973E+04  0.24803829440E+04  0.25500000920E-02 0. -1.
       -2    1    3    3    0  502  0.17481671853E+03 -0.13379461815E+03  0.10747751841E+04  0.10970886844E+04  0.25500000920E-02 0.  1.
</event>
<event>
 5   0  0.6258718E-07  0.3294558E+04  0.7818609E-02  0.8164282E-01
       -2   -1    0    0    0  501  0.00000000000E+00  0.00000000000E+00  0.17213424542E+04  0.17213424542E+04  0.25500000920E-02 0. -1.
        2   -1    0    0  501    0  0.00000000000E+00  0.00000000000E+00 -0.15764020474E+04  0.15764020474E+04  0.25500000920E-02 0.  1.
    10030    2    1    2    0    0  0.00000000000E+00  0.00000000000E+00  0.14494040675E+03  0.32977445016E+04  0.32945577968E+04 0.  0.
        5    1    3    3  502    0  0.13577873506E+04 -0.76097874331E+03 -0.46733849726E+03  0.16251469159E+04  0.46999998093E+01 0.  1.
       -5    1    3    3    0  502 -0.13577873506E+04  0.76097874331E+03  0.61227890402E+03  0.16725975857E+04  0.46999998093E+01 0. -1.
</event>
<event>
 5   0  0.6426079E-07  0.3303860E+04  0.7818609E-02  0.8161914E-01
        2   -1    0    0  501    0  0.00000000000E+00  0.00000000000E+00  0.14894265562E+04  0.14894265562E+04  0.25500000920E-02 0. -1.
       -2   -1    0    0    0  501  0.00000000000E+00  0.00000000000E+00 -0.18321637805E+04  0.18321637805E+04  0.25500000920E-02 0.  1.
    10030    2    1    2    0    0  0.00000000000E+00  0.00000000000E+00 -0.34273722432E+03  0.33215903368E+04  0.33038604027E+04 0.  0.
        4    1    3    3  502    0 -0.12158181818E+04  0.95111440327E+03  0.42003926285E+03  0.15997709381E+04  0.12699999809E+01 0. -1.
       -4    1    3    3    0  502  0.12158181818E+04 -0.95111440327E+03 -0.76277648717E+03  0.17218193986E+04  0.12699999809E+01 0.  1.
</event>
<event>
 5   0  0.2080828E-07  0.3302877E+04  0.7818609E-02  0.8162164E-01
        1   -1    0    0  501    0  0.00000000000E+00  0.00000000000E+00  0.15987102961E+04  0.15987102961E+04  0.50400001928E-02 0. -1.
       -1   -1    0    0    0  501  0.00000000000E+00  0.00000000000E+00 -0.17059053934E+04  0.17059053934E+04  0.50400001928E-02 0.  1.
    10030    2    1    2    0    0  0.00000000000E+00  0.00000000000E+00 -0.10719509732E+03  0.33046156895E+04  0.33028766351E+04 0.  0.
        1    1    3    3  502    0 -0.91696603531E+02 -0.92980381860E+03 -0.14160432565E+04  0.16965028477E+04  0.50400001928E-02 0.  1.
       -1    1    3    3    0  502  0.91696603531E+02  0.92980381860E+03  0.13088481591E+04  0.16081128418E+04  0.50400001928E-02 0. -1.
</event>
<event>
 5   0  0.6426079E-07  0.3305652E+04  0.7818609E-02  0.8161459E-01
        2   -1    0    0  501    0  0.00000000000E+00  0.00000000000E+00  0.14925364008E+04  0.14925364008E+04  0.25500000920E-02 0.  1.
       -2   -1    0    0    0  501  0.00000000000E+00  0.00000000000E+00 -0.18303297605E+04  0.18303297605E+04  0.25500000920E-02 0. -1.
    10030    2    1    2    0    0  0.00000000000E+00  0.00000000000E+00 -0.33779335970E+03  0.33228661613E+04  0.33056520040E+04 0.  0.
        4    1    3    3  502    0 -0.14404865453E+04  0.61883424247E+03 -0.69495247780E+03  0.17149104543E+04  0.12699999809E+01 0. -1.
       -4    1    3    3    0  502  0.14404865453E+04 -0.61883424247E+03  0.35715911810E+03  0.16079557070E+04  0.12699999809E+01 0.  1.
</event>
<event>
 5   0  0.2080770E-07  0.3277073E+04  0.7818609E-02  0.8168754E-01
        1   -1    0    0  501    0  0.00000000000E+00  0.00000000000E+00  0.98364511910E+03  0.98364511911E+03  0.50400001928E-02 0. -1.
       -1   -1    0    0    0  501  0.00000000000E+00  0.00000000000E+00 -0.27294415410E+04  0.27294415410E+04  0.50400001928E-02 0.  1.
    10030    2    1    2    0    0  0.00000000000E+00  0.00000000000E+00 -0.17457964219E+04  0.37130866601E+04  0.32770729926E+04 0.  0.
        4    1    3    3  502    0 -0.43653652843E+03  0.70402240599E+02  0.91476545133E+03  0.10160305409E+04  0.12699999809E+01 0. -1.
       -4    1    3    3    0  502  0.43653652843E+03 -0.70402240599E+02 -0.26605618732E+04  0.26970561192E+04  0.12699999809E+01 0.  1.
</event>
<event>
 5   0  0.6377741E-07  0.3309382E+04  0.7818609E-02  0.8160512E-01
       -2   -1    0    0    0  501  0.00000000000E+00  0.00000000000E+00  0.22564947045E+04  0.22564947045E+04  0.25500000920E-02 0. -1.
        2   -1    0    0  501    0  0.00000000000E+00  0.00000000000E+00 -0.12133876822E+04  0.12133876822E+04  0.25500000920E-02 0.  1.
    10030    2    1    2    0    0  0.00000000000E+00  0.00000000000E+00  0.10431070223E+04  0.34698823867E+04  0.33093823468E+04 0.  0.
        1    1    3    3  502    0  0.94943136896E+03  0.81484501785E+02 -0.89680695291E+03  0.13085573580E+04  0.50400001928E-02 0.  1.
       -1    1    3    3    0  502 -0.94943136896E+03 -0.81484501785E+02  0.19399139752E+04  0.21613250287E+04  0.50400001928E-02 0. -1.
</event>
<event>
 5   0  0.2037333E-07  0.3229223E+04  0.7818609E-02  0.8181142E-01
       -1   -1    0    0    0  501  0.00000000000E+00  0.00000000000E+00  0.20799213665E+04  0.20799213665E+04  0.50400001928E-02 0. -1.
        1   -1    0    0  501    0  0.00000000000E+00  0.00000000000E+00 -0.12533982546E+04  0.12533982547E+04  0.50400001928E-02 0.  1.
    10030    2    1    2    0    0  0.00000000000E+00  0.00000000000E+00  0.82652311181E+03  0.33333196211E+04  0.32292226994E+04 0.  0.
        3    1    3    3  502    0  0.77401301645E+03  0.13060953737E+04 -0.15398802410E+03  0.15260057655E+04  0.10100000352E+00 0.  1.
       -3    1    3    3    0  502 -0.77401301645E+03 -0.13060953737E+04  0.98051113591E+03  0.18073138556E+04  0.10100000352E+00 0. -1.
</event>
<event>
 5   0  0.6351753E-07  0.3307375E+04  0.7818609E-02  0.8161021E-01
       -2   -1    0    0    0  501  0.00000000000E+00  0.00000000000E+00  0.14356502022E+04  0.14356502022E+04  0.25500000920E-02 0.  1.
        2   -1    0    0  501    0  0.00000000000E+00  0.00000000000E+00 -0.19048385137E+04  0.19048385137E+04  0.25500000920E-02 0. -1.
    10030    2    1    2    0    0  0.00000000000E+00  0.00000000000E+00 -0.46918831143E+03  0.33404887159E+04  0.33073746673E+04 0.  0.
        3    1    3    3  502    0  0.32252293911E+03  0.93022191291E+03  0.11073726401E+04  0.14817584242E+04  0.10100000352E+00 0.  1.
       -3    1    3    3    0  502 -0.32252293911E+03 -0.93022191291E+03 -0.15765609515E+04  0.18587302917E+04  0.10100000352E+00 0. -1.
</event>
<event>
 5   0  0.2087665E-07  0.3304962E+04  0.7818609E-02  0.8161634E-01
       -1   -1    0    0    0  501  0.00000000000E+00  0.00000000000E+00  0.22924364621E+04  0.22924364621E+04  0.50400001928E-02 0. -1.
        1   -1    0    0  501    0  0.00000000000E+00  0.00000000000E+00 -0.11911753008E+04  0.11911753008E+04  0.50400001928E-02 0.  1.
    10030    2    1    2    0    0  0.00000000000E+00  0.00000000000E+00  0.11012611613E+04  0.34836117629E+04  0.33049621434E+04 0.  0.
        5    1    3    3  502    0 -0.46005659828E+03 -0.89020937293E+03  0.19356390741E+04  0.21796434379E+04  0.46999998093E+01 0. -1.
       -5    1    3    3    0  502  0.46005659828E+03  0.89020937293E+03 -0.83437791282E+03  0.13039683250E+04  0.46999998093E+01 0.  1.
</event>
<event>
 5   0  0.6377741E-07  0.3310227E+04  0.7818609E-02  0.8160298E-01
        2   -1    0    0  501    0  0.00000000000E+00  0.00000000000E+00  0.18945693668E+04  0.18945693668E+04  0.25500000920E-02 0. -1.
       -2   -1    0    0    0  501  0.00000000000E+00  0.00000000000E+00 -0.14459227082E+04  0.14459227082E+04  0.25500000920E-02 0.  1.
    10030    2    1    2    0    0  0.00000000000E+00  0.00000000000E+00  0.44864665855E+03  0.33404920750E+04  0.33102271038E+04 0.  0.
        1    1    3    3  502    0  0.14274432467E+04 -0.25335492980E+03  0.10301338157E+04  0.17784708661E+04  0.50400001928E-02 0. -1.
       -1    1    3    3    0  502 -0.14274432467E+04  0.25335492980E+03 -0.58148715720E+03  0.15620212089E+04  0.50400001928E-02 0.  1.
</event>
<event>
 5   0  0.6351753E-07  0.3304664E+04  0.7818609E-02  0.8161710E-01
        2   -1    0    0  501    0  0.00000000000E+00  0.00000000000E+00  0.24460218338E+04  0.24460218338E+04  0.25500000920E-02 0. -1.
       -2   -1    0    0    0  501  0.00000000000E+00  0.00000000000E+00 -0.11161798667E+04  0.11161798667E+04  0.25500000920E-02 0.  1.
    10030    2    1    2    0    0  0.00000000000E+00  0.00000000000E+00  0.13298419671E+04  0.35622017005E+04  0.33046635680E+04 0.  0.
        3    1    3    3  502    0 -0.68779701408E+03  0.28953578058E+03  0.22540221811E+04  0.23743444788E+04  0.10100000352E+00 0. -1.
       -3    1    3    3    0  502  0.68779701408E+03 -0.28953578058E+03 -0.92418021405E+03  0.11878572217E+04  0.10100000352E+00 0.  1.
</event>
<event>
 5   0  0.1994250E-07  0.3288604E+04  0.7818609E-02  0.8165801E-01
       -3   -1    0    0    0  501  0.00000000000E+00  0.00000000000E+00  0.98588055887E+03  0.98588056404E+03  0.10100000352E+00 0.  1.
        3   -1    0    0  501    0  0.00000000000E+00  0.00000000000E+00 -0.27424508192E+04  0.27424508210E+04  0.10100000352E+00 0. -1.
    10030    2    1    2    0    0  0.00000000000E+00  0.00000000000E+00 -0.17565702603E+04  0.37283313851E+04  0.32886039344E+04 0.  0.
        5    1    3    3  502    0  0.81266420513E+03  0.72944015374E+03 -0.22719682026E+04  0.25207871096E+04  0.46999998093E+01 0. -1.
       -5    1    3    3    0  502 -0.81266420513E+03 -0.72944015374E+03  0.51539794235E+03  0.12075442754E+04  0.46999998093E+01 0.  1.
</event>
<event>
 5   0  0.2080770E-07  0.3291201E+04  0.7818609E-02  0.8165138E-01
        1   -1    0    0  501    0  0.00000000000E+00  0.00000000000E+00  0.16679217138E+04  0.16679217138E+04  0.50400001928E-02 0.  1.
       -1   -1    0    0    0  501  0.00000000000E+00  0.00000000000E+00 -0.16235778290E+04  0.16235778290E+04  0.50400001928E-02 0. -1.
    10030    2    1    2    0    0  0.00000000000E+00  0.00000000000E+00  0.44343884729E+02  0.32914995428E+04  0.32912008234E+04 0.  0.
        4    1    3    3  502    0  0.14666078018E+04 -0.67480237099E+03  0.34110905266E+03  0.16500465700E+04  0.12699999809E+01 0.  1.
       -4    1    3    3    0  502 -0.14666078018E+04  0.67480237099E+03 -0.29676516793E+03  0.16414529729E+04  0.12699999809E+01 0. -1.
</event>
<event>
 5   0  0.2080770E-07  0.3303071E+04  0.7818609E-02  0.8162114E-01
        1   -1    0    0  501    0  0.00000000000E+00  0.00000000000E+00  0.14643214170E+04  0.14643214170E+04  0.50400001928E-02 0. -1.
       -1   -1    0    0    0  501  0.00000000000E+00  0.00000000000E+00 -0.18626853821E+04  0.18626853821E+04  0.50400001928E-02 0.  1.
    10030    2    1    2    0    0  0.00000000000E+00  0.00000000000E+00 -0.39836396514E+03  0.33270067991E+04  0.33030713575E+04 0.  0.
        4    1    3    3  502    0  0.40357324546E+03  0.31420912309E+03 -0.17809019771E+04  0.18528929280E+04  0.12699999809E+01 0.  1.
       -4    1    3    3    0  502 -0.40357324546E+03 -0.31420912309E+03  0.13825380120E+04  0.14741138711E+04  0.12699999809E+01 0. -1.
</event>
<event>
 5   0  0.6426079E-07  0.3304886E+04  0.7818609E-02  0.8161653E-01
        2   -1    0    0  501    0  0.00000000000E+00  0.00000000000E+00  0.12494631665E+04  0.12494631665E+04  0.25500000920E-02 0. -1.
       -2   -1    0    0    0  501  0.00000000000E+00  0.00000000000E+00 -0.21853928101E+04  0.21853928101E+04  0.25500000920E-02 0.  1.
    10030    2    1    2    0    0  0.00000000000E+00  0.00000000000E+00 -0.93592964364E+03  0.34348559767E+04  0.33048859712E+04 0.  0.
        4    1    3    3  502    0  0.14970639727E+04 -0.65717558470E+03 -0.71715607625E+03  0.17853276277E+04  0.12699999809E+01 0. -1.
       -4    1    3    3    0  502 -0.14970639727E+04  0.65717558470E+03 -0.21877356739E+03  0.16495283490E+04  0.12699999809E+01 0.  1.
</event>
<event>
 5   0  0.6377741E-07  0.3297358E+04  0.7818609E-02  0.8163568E-01
       -2   -1    0    0    0  501  0.00000000000E+00  0.00000000000E+00  0.17875223230E+04  0.17875223230E+04  0.25500000920E-02 0.  1.
        2   -1    0    0  501    0  0.00000000000E+00  0.00000000000E+00 -0.15206197679E+04  0.15206197679E+04  0.25500000920E-02 0. -1.
    10030    2    1    2    0    0  0.00000000000E+00  0.00000000000E+00  0.26690255515E+03  0.33081420909E+04  0.32973575965E+04 0.  0.
        1    1    3    3  502    0  0.35522297440E+03  0.16076494223E+04  0.21988264031E+03  0.16610443709E+04  0.50400001928E-02 0. -1.
       -1    1    3    3    0  502 -0.35522297440E+03 -0.16076494223E+04  0.47019914838E+02  0.16470977199E+04  0.50400001928E-02 0.  1.
</event>
<event>
 5   0  0.2080828E-07  0.3196852E+04  0.7818609E-02  0.8189649E-01
        1   -1    0    0  501    0  0.00000000000E+00  0.00000000000E+00  0.21283262921E+04  0.21283262921E+04  0.50400001928E-02 0. -1.
       -1   -1    0    0    0  501  0.00000000000E+00  0.00000000000E+00 -0.12004579030E+04  0.12004579030E+04  0.50400001928E-02 0.  1.
    10030    2    1    2    0    0  0.00000000000E+00  0.00000000000E+00  0.92786838910E+03  0.33287841951E+04  0.31968522753E+04 0.  0.
        1    1    3    3  502    0 -0.28279388774E+03  0.31130038210E+03 -0.11418117468E+04  0.12168049869E+04  0.50400001928E-02 0.  1.
       -1    1    3    3    0  502  0.28279388774E+03 -0.31130038210E+03  0.20696801359E+04  0.21119792082E+04  0.50400001928E-02 0. -1.
</event>
<event>
 5   0  0.6258718E-07  0.3300415E+04  0.7818609E-02  0.8162790E-01
        2   -1    0    0  501    0  0.00000000000E+00  0.00000000000E+00  0.18950536213E+04  0.18950536213E+04  0.25500000920E-02 0.  1.
       -2   -1    0    0    0  501  0.00000000000E+00  0.00000000000E+00 -0.14369958277E+04  0.14369958277E+04  0.25500000920E-02 0. -1.
    10030    2    1    2    0    0  0.00000000000E+00  0.00000000000E+00  0.45805779352E+03  0.33320494490E+04  0.33004146086E+04 0.  0.
        5    1    3    3  502    0  0.78855730227E+03  0.13152402596E+04  0.84436460127E+03  0.17506151003E+04  0.46999998093E+01 0.  1.
       -5    1    3    3    0  502 -0.78855730227E+03 -0.13152402596E+04 -0.38630680776E+03  0.15814343487E+04  0.46999998093E+01 0. -1.
</event>
<event>
 5   0  0.2080770E-07  0.3303347E+04  0.7818609E-02  0.8162044E-01
        1   -1    0    0  501    0  0.00000000000E+00  0.00000000000E+00  0.17113971652E+04  0.17113971653E+04  0.50400001928E-02 0. -1.
       -1   -1    0    0    0  501  0.00000000000E+00  0.00000000000E+00 -0.15940338109E+04  0.15940338109E+04  0.50400001928E-02 0.  1.
    10030    2    1    2    0    0  0.00000000000E+00  0.00000000000E+00  0.11736335431E+03  0.33054309762E+04  0.33033467547E+04 0.  0.
        4    1    3    3  502    0  0.44588373402E+03  0.52252025055E+03  0.15616891814E+04  0.17060816009E+04  0.12699999809E+01 0. -1.
       -4    1    3    3    0  502 -0.44588373402E+03 -0.52252025055E+03 -0.14443258271E+04  0.15993493753E+04  0.12699999809E+01 0.  1.
</event>
<event>
 5   0  0.2087665E-07  0.3119112E+04  0.7818609E-02  0.8210512E-01
       -1   -1    0    0    0  501  0.00000000000E+00  0.00000000000E+00  0.14191699226E+04  0.14191699226E+04  0.50400001928E-02 0.  1.
        1   -1    0    0  501    0  0.00000000000E+00  0.00000000000E+00 -0.17138287411E+04  0.17138287411E+04  0.50400001928E-02 0. -1.
    10030    2    1    2    0    0  0.00000000000E+00  0.00000000000E+00 -0.29465881854E+03  0.31329986637E+04  0.31191115414E+04 0.  0.
        5    1    3    3  502    0 -0.39139318185E+03 -0.14954350569E+04 -0.35483446687E+03  0.15860152020E+04  0.46999998093E+01 0.  1.
       -5    1    3    3    0  502  0.39139318185E+03  0.14954350569E+04  0.60175648329E+02  0.15469834617E+04  0.46999998093E+01 0. -1.
</event>
<event>
 5   0  0.2057130E-07  0.3304212E+04  0.7818609E-02  0.8161824E-01
       -1   -1    0    0    0  501  0.00000000000E+00  0.00000000000E+00  0.15837448103E+04  0.15837448103E+04  0.50400001928E-02 0. -1.
        1   -1    0    0  501    0  0.00000000000E+00  0.00000000000E+00 -0.17234178943E+04  0.17234178943E+04  0.50400001928E-02 0.  1.
    10030    2    1    2    0    0  0.00000000000E+00  0.00000000000E+00 -0.13967308405E+03  0.33071627046E+04  0.33042119460E+04 0.  0.
        2    1    3    3  502    0  0.46379235575E+03 -0.95532558448E+03 -0.13365511268E+04  0.17070791534E+04  0.25500000920E-02 0.  1.
       -2    1    3    3    0  502 -0.46379235575E+03  0.95532558448E+03  0.11968780427E+04  0.16000835512E+04  0.25500000920E-02 0. -1.
</event>
<event>
 5   0  0.6426079E-07  0.3305288E+04  0.7818609E-02  0.8161551E-01
       -2   -1    0    0    0  501  0.00000000000E+00  0.00000000000E+00  0.10966254879E+04  0.10966254879E+04  0.25500000920E-02 0.  1.
        2   -1    0    0  501    0  0.00000000000E+00  0.00000000000E+00 -0.24905787124E+04  0.24905787124E+04  0.25500000920E-02 0. -1.
    10030    2    1    2    0    0  0.00000000000E+00  0.00000000000E+00 -0.13939532245E+04  0.35872042002E+04  0.33052879424E+04 0.  0.
        4    1    3    3  502    0  0.35669685232E+02 -0.12852986466E+04 -0.18237828436E+04  0.22314682187E+04  0.12699999809E+01 0. -1.
       -4    1    3    3    0  502 -0.35669685232E+02  0.12852986466E+04  0.42982961909E+03  0.13557359816E+04  0.12699999809E+01 0.  1.
</event>
<event>
 5   0  0.2080828E-07  0.3364091E+04  0.7818609E-02  0.8146776E-01
       -1   -1    0    0    0  501  0.00000000000E+00  0.00000000000E+00  0.31344849720E+04  0.31344849720E+04  0.50400001928E-02 0. -1.
        1   -1    0    0  501    0  0.00000000000E+00  0.00000000000E+00 -0.90262926466E+03  0.90262926467E+03  0.50400001928E-02 0.  1.
    10030    2    1    2    0    0  0.00000000000E+00  0.00000000000E+00  0.22318557073E+04  0.40371142366E+04  0.33640914764E+04 0.  0.
        1    1    3    3  502    0 -0.49909469177E+02  0.13174449076E+03  0.31273923574E+04  0.31305639305E+04  0.50400001928E-02 0. -1.
       -1    1    3    3    0  502  0.49909469177E+02 -0.13174449076E+03 -0.89553665006E+03  0.90655030615E+03  0.50400001928E-02 0.  1.
</event>
<event>
 5   0  0.2037333E-07  0.3302950E+04  0.7818609E-02  0.8162145E-01
       -1   -1    0    0    0  501  0.00000000000E+00  0.00000000000E+00  0.15213519565E+04  0.15213519565E+04  0.50400001928E-02 0.  1.
        1   -1    0    0  501    0  0.00000000000E+00  0.00000000000E+00 -0.17927271207E+04  0.17927271207E+04  0.50400001928E-02 0. -1.
    10030    2    1    2    0    0  0.00000000000E+00  0.00000000000E+00 -0.27137516419E+03  0.33140790773E+04  0.33029495380E+04 0.  0.
        3    1    3    3  502    0  0.54002111286E+03 -0.35707505454E+03 -0.16600974079E+04  0.17818666647E+04  0.10100000352E+00 0. -1.
       -3    1    3    3    0  502 -0.54002111286E+03  0.35707505454E+03  0.13887222437E+04  0.15322124126E+04  0.10100000352E+00 0.  1.
</event>
<event>
 5   0  0.6424183E-07  0.3302763E+04  0.7818609E-02  0.8162193E-01
        2   -1    0    0  501    0  0.00000000000E+00  0.00000000000E+00  0.23124165433E+04  0.23124165433E+04  0.25500000920E-02 0.  1.
       -2   -1    0    0    0  501  0.00000000000E+00  0.00000000000E+00 -0.11793120612E+04  0.11793120612E+04  0.25500000920E-02 0. -1.
    10030    2    1    2    0    0  0.00000000000E+00  0.00000000000E+00  0.11331044821E+04  0.34917286044E+04  0.33027629160E+04 0.  0.
        2    1    3    3  502    0  0.73873047684E+03  0.14767605756E+04  0.59057230225E+03  0.17536590773E+04  0.25500000920E-02 0.  1.
       -2    1    3    3    0  502 -0.73873047684E+03 -0.14767605756E+04  0.54253217985E+03  0.17380695272E+04  0.25500000920E-02 0. -1.
</event>
<event>
 5   0  0.6426079E-07  0.3325619E+04  0.7818609E-02  0.8156407E-01
        2   -1    0    0  501    0  0.00000000000E+00  0.00000000000E+00  0.19965333020E+04  0.19965333020E+04  0.25500000920E-02 0.  1.
       -2   -1    0    0    0  501  0.00000000000E+00  0.00000000000E+00 -0.13848677907E+04  0.13848677907E+04  0.25500000920E-02 0. -1.
    10030    2    1    2    0    0  0.00000000000E+00  0.00000000000E+00  0.61166551134E+03  0.33814010927E+04  0.33256185368E+04 0.  0.
        4    1    3    3  502    0  0.88114280811E+03  0.11239467362E+04  0.11717419631E+04  0.18473358533E+04  0.12699999809E+01 0.  1.
       -4    1    3    3    0  502 -0.88114280811E+03 -0.11239467362E+04 -0.56007645176E+03  0.15340652394E+04  0.12699999809E+01 0. -1.
</event>
<event>
 5   0  0.2087665E-07  0.3286243E+04  0.7818609E-02  0.8166405E-01
        1   -1    0    0  501    0  0.00000000000E+00  0.00000000000E+00  0.18372653256E+04  0.18372653256E+04  0.50400001928E-02 0.  1.
       -1   -1    0    0    0  501  0.00000000000E+00  0.00000000000E+00 -0.14694925630E+04  0.14694925630E+04  0.50400001928E-02 0. -1.
    10030    2    1    2    0    0  0.00000000000E+00  0.00000000000E+00  0.36777276261E+03  0.33067578886E+04  0.32862426765E+04 0.  0.
        5    1    3    3  502    0  0.12471663997E+04 -0.10588549819E+04  0.33724431704E+03  0.16704351890E+04  0.46999998093E+01 0.  1.
       -5    1    3    3    0  502 -0.12471663997E+04  0.10588549819E+04  0.30528445562E+02  0.16363226996E+04  0.46999998093E+01 0. -1.
</event>
<event>
 5   0  0.6426079E-07  0.3231532E+04  0.7818609E-02  0.8180539E-01
        2   -1    0    0  501    0  0.00000000000E+00  0.00000000000E+00  0.29473920924E+04  0.29473920924E+04  0.25500000920E-02 0. -1.
       -2   -1    0    0    0  501  0.00000000000E+00  0.00000000000E+00 -0.88576629335E+03  0.88576629335E+03  0.25500000920E-02 0.  1.
    10030    2    1    2    0    0  0.00000000000E+00  0.00000000000E+00  0.20616257991E+04  0.38331583858E+04  0.32315324964E+04 0.  0.
        4    1    3    3  502    0  0.11811004986E+04  0.27572499254E+02  0.23382647697E+04  0.26197790702E+04  0.12699999809E+01 0. -1.
       -4    1    3    3    0  502 -0.11811004986E+04 -0.27572499254E+02 -0.27663897064E+03  0.12133793156E+04  0.12699999809E+01 0.  1.
</event>
<event>
 5   0  0.2057130E-07  0.3296567E+04  0.7818609E-02  0.8163770E-01
        1   -1    0    0  501    0  0.00000000000E+00  0.00000000000E+00  0.22877986491E+04  0.22877986491E+04  0.50400001928E-02 0.  1.
       -1   -1    0    0    0  501  0.00000000000E+00  0.00000000000E+00 -0.11875336521E+04  0.11875336521E+04  0.50400001928E-02 0. -1.
    10030    2    1    2    0    0  0.00000000000E+00  0.00000000000E+00  0.11002649970E+04  0.34753323012E+04  0.32965666291E+04 0.  0.
        2    1    3    3  502    0 -0.12172048184E+04  0.11094927040E+04  0.48119329499E+03  0.17158404988E+04  0.25500000920E-02 0. -1.
       -2    1    3    3    0  502  0.12172048184E+04 -0.11094927040E+04  0.61907170205E+03  0.17594918023E+04  0.25500000920E-02 0.  1.
</event>
<event>
 5   0  0.6258718E-07  0.3262655E+04  0.7818609E-02  0.8172463E-01
        2   -1    0    0  501    0  0.00000000000E+00  0.00000000000E+00  0.20039688895E+04  0.20039688895E+04  0.25500000920E-02 0.  1.
       -2   -1    0    0    0  501  0.00000000000E+00  0.00000000000E+00 -0.13279792896E+04  0.13279792896E+04  0.25500000920E-02 0. -1.
    10030    2    1    2    0    0  0.00000000000E+00  0.00000000000E+00  0.67598959991E+03  0.33319481792E+04  0.32626548591E+04 0.  0.
        5    1    3    3  502    0 -0.73369403979E+03 -0.79896033208E+03  0.15822983850E+04  0.19184198773E+04  0.46999998093E+01 0.  1.
       -5    1    3    3    0  502  0.73369403979E+03  0.79896033208E+03 -0.90630878513E+03  0.14135283019E+04  0.46999998093E+01 0. -1.
</event>
<event>
 5   0  0.2080770E-07  0.3318494E+04  0.7818609E-02  0.8158205E-01
       -1   -1    0    0    0  501  0.00000000000E+00  0.00000000000E+00  0.15338487386E+04  0.15338487386E+04  0.50400001928E-02 0. -1.
        1   -1    0    0  501    0  0.00000000000E+00  0.00000000000E+00 -0.17948974916E+04  0.17948974916E+04  0.50400001928E-02 0.  1.
    10030    2    1    2    0    0  0.00000000000E+00  0.00000000000E+00 -0.26104875302E+03  0.33287462302E+04  0.33184943896E+04 0.  0.
        4    1    3    3  502    0 -0.74964010031E+03 -0.82087888118E+03 -0.13661159316E+04  0.17612713502E+04  0.12699999809E+01 0.  1.
       -4    1    3    3    0  502  0.74964010031E+03  0.82087888118E+03  0.11050671785E+04  0.15674748800E+04  0.12699999809E+01 0. -1.
</event>
<event>
 5   0  0.6351753E-07  0.3295571E+04  0.7818609E-02  0.8164023E-01
       -2   -1    0    0    0  501  0.00000000000E+00  0.00000000000E+00  0.16073969308E+04  0.16073969308E+04  0.25500000920E-02 0.  1.
        2   -1    0    0  501    0  0.00000000000E+00  0.00000000000E+00 -0.16891884243E+04  0.16891884243E+04  0.25500000920E-02 0. -1.
    10030    2    1    2    0    0  0.00000000000E+00  0.00000000000E+00 -0.81791493528E+02  0.32965853551E+04  0.32955705356E+04 0.  0.
        3    1    3    3  502    0 -0.35799887219E+03 -0.10506598817E+04  0.11773244564E+04  0.16180674478E+04  0.10100000352E+00 0.  1.
       -3    1    3    3    0  502  0.35799887219E+03  0.10506598817E+04 -0.12591159499E+04  0.16785179073E+04  0.10100000352E+00 0. -1.
</event>
<event>
 5   0  0.2057130E-07  0.3286285E+04  0.7818609E-02  0.8166394E-01
       -1   -1    0    0    0  501  0.00000000000E+00  0.00000000000E+00  0.12868861223E+04  0.12868861223E+04  0.50400001928E-02 0. -1.
        1   -1    0    0  501    0  0.00000000000E+00  0.00000000000E+00 -0.20980234574E+04  0.20980234574E+04  0.50400001928E-02 0.  1.
    10030    2    1    2    0    0  0.00000000000E+00  0.00000000000E+00 -0.81113733511E+03  0.33849095797E+04  0.32862849977E+04 0.  0.
        2    1    3    3  502    0 -0.50713105258E+03 -0.26699787842E+03 -0.19917345529E+04  0.20725530876E+04  0.25500000920E-02 0.  1.
       -2    1    3    3    0  502  0.50713105258E+03  0.26699787842E+03  0.11805972178E+04  0.13123564921E+04  0.25500000920E-02 0. -1.
</event>
<event>
 5   0  0.6424183E-07  0.3301413E+04  0.7818609E-02  0.8162536E-01
        2   -1    0    0  501    0  0.00000000000E+00  0.00000000000E+00  0.13732908945E+04  0.13732908945E+04  0.25500000920E-02 0.  1.
       -2   -1    0    0    0  501  0.00000000000E+00  0.00000000000E+00 -0.19841628237E+04  0.19841628237E+04  0.25500000920E-02 0. -1.
    10030    2    1    2    0    0  0.00000000000E+00  0.00000000000E+00 -0.61087192915E+03  0.33574537182E+04  0.33014134785E+04 0.  0.
        2    1    3    3  502    0 -0.33519440001E+03  0.98165067382E+03  0.10004320785E+04  0.14411306932E+04  0.25500000920E-02 0.  1.
       -2    1    3    3    0  502  0.33519440001E+03 -0.98165067382E+03 -0.16113040076E+04  0.19163230250E+04  0.25500000920E-02 0. -1.
</event>
<event>
 5   0  0.6426079E-07  0.3321578E+04  0.7818609E-02  0.8157427E-01
       -2   -1    0    0    0  501  0.00000000000E+00  0.00000000000E+00  0.11073156573E+04  0.11073156573E+04  0.25500000920E-02 0. -1.
        2   -1    0    0  501    0  0.00000000000E+00  0.00000000000E+00 -0.24909065166E+04  0.24909065166E+04  0.25500000920E-02 0.  1.
    10030    2    1    2    0    0  0.00000000000E+00  0.00000000000E+00 -0.13835908593E+04  0.35982221739E+04  0.33215778098E+04 0.  0.
        4    1    3    3  502    0  0.85954060284E+03  0.70111565963E+03  0.64721261948E+03  0.12842347931E+04  0.12699999809E+01 0. -1.
       -4    1    3    3    0  502 -0.85954060284E+03 -0.70111565963E+03 -0.20308034788E+04  0.23139873808E+04  0.12699999809E+01 0.  1.
</event>
<event>
 5   0  0.6258718E-07  0.3294912E+04  0.7818609E-02  0.8164191E-01
       -2   -1    0    0    0  501  0.00000000000E+00  0.00000000000E+00  0.26046240442E+04  0.26046240442E+04  0.25500000920E-02 0. -1.
        2   -1    0    0  501    0  0.00000000000E+00  0.00000000000E+00 -0.10420359024E+04  0.10420359024E+04  0.25500000920E-02 0.  1.
    10030    2    1    2    0    0  0.00000000000E+00  0.00000000000E+00  0.15625881418E+04  0.36466599465E+04  0.32949123000E+04 0.  0.
        5    1    3    3  502    0  0.15238775626E+04 -0.15759490759E+03  0.11076990728E+03  0.15360114072E+04  0.46999998093E+01 0.  1.
       -5    1    3    3    0  502 -0.15238775626E+04  0.15759490759E+03  0.14518182345E+04  0.21106485394E+04  0.46999998093E+01 0. -1.
</event>
<event>
 5   0  0.2080828E-07  0.3302625E+04  0.7818609E-02  0.8162228E-01
       -1   -1    0    0    0  501  0.00000000000E+00  0.00000000000E+00  0.11402349745E+04  0.11402349746E+04  0.50400001928E-02 0. -1.
        1   -1    0    0  501    0  0.00000000000E+00  0.00000000000E+00 -0.23914653423E+04  0.23914653423E+04  0.50400001928E-02 0.  1.
    10030    2    1    2    0    0  0.00000000000E+00  0.00000000000E+00 -0.12512303678E+04  0.35317003169E+04  0.33026246676E+04 0.  0.
        1    1    3    3  502    0 -0.79868319854E+03 -0.17217267764E+03 -0.21601749799E+04  0.23095225105E+04  0.50400001928E-02 0.  1.
       -1    1    3    3    0  502  0.79868319854E+03  0.17217267764E+03  0.90894461213E+03  0.12221778064E+04  0.50400001928E-02 0. -1.
</event>
<event>
 5   0  0.2057130E-07  0.3297292E+04  0.7818609E-02  0.8163585E-01
       -1   -1    0    0    0  501  0.00000000000E+00  0.00000000000E+00  0.11756775194E+04  0.11756775194E+04  0.50400001928E-02 0.  1.
        1   -1    0    0  501    0  0.00000000000E+00  0.00000000000E+00 -0.23118871278E+04  0.23118871279E+04  0.50400001928E-02 0. -1.
    10030    2    1    2    0    0  0.00000000000E+00  0.00000000000E+00 -0.11362096084E+04  0.34875646473E+04  0.32972920548E+04 0.  0.
        2    1    3    3  502    0  0.84213308051E+03 -0.10588198712E+04  0.42846846000E+03  0.14191098852E+04  0.25500000920E-02 0.  1.
       -2    1    3    3    0  502 -0.84213308051E+03  0.10588198712E+04 -0.15646780684E+04  0.20684547621E+04  0.25500000920E-02 0. -1.
</event>
<event>
 5   0  0.6258718E-07  0.3297850E+04  0.7818609E-02  0.8163443E-01
        2   -1    0    0  501    0  0.00000000000E+00  0.00000000000E+00  0.19923502755E+04  0.19923502755E+04  0.25500000920E-02 0.  1.
       -2   -1    0    0    0  501  0.00000000000E+00  0.00000000000E+00 -0.13646967130E+04  0.13646967130E+04  0.25500000920E-02 0. -1.
    10030    2    1    2    0    0  0.00000000000E+00  0.00000000000E+00  0.62765356247E+03  0.33570469885E+04  0.32978501313E+04 0.  0.
        5    1    3    3  502    0 -0.36229274538E+03 -0.70956706156E+03 -0.11557598524E+04  0.14037607968E+04  0.46999998093E+01 0. -1.
       -5    1    3    3    0  502  0.36229274538E+03  0.70956706156E+03  0.17834134149E+04  0.19532861917E+04  0.46999998093E+01 0.  1.
</event>
<event>
 5   0  0.2037333E-07  0.3272803E+04  0.7818609E-02  0.8169850E-01
       -1   -1    0    0    0  501  0.00000000000E+00  0.00000000000E+00  0.26688733668E+04  0.26688733668E+04  0.50400001928E-02 0. -1.
        1   -1    0    0  501    0  0.00000000000E+00  0.00000000000E+00 -0.10033481843E+04  0.10033481844E+04  0.50400001928E-02 0.  1.
    10030    2    1    2    0    0  0.00000000000E+00  0.00000000000E+00  0.16655251824E+04  0.36722215512E+04  0.32728026197E+04 0.  0.
        3    1    3    3  502    0  0.10336359109E+04 -0.97957541941E+03 -0.71743769860E+02  0.14258746008E+04  0.10100000352E+00 0.  1.
       -3    1    3    3    0  502 -0.10336359109E+04  0.97957541941E+03  0.17372689523E+04  0.22463469503E+04  0.10100000352E+00 0. -1.
</event>
<event>
 5   0  0.6377741E-07  0.3119497E+04  0.7818609E-02  0.8210408E-01
        2   -1    0    0  501    0  0.00000000000E+00  0.00000000000E+00  0.12888597664E+04  0.12888597664E+04  0.25500000920E-02 0. -1.
       -2   -1    0    0    0  501  0.00000000000E+00  0.00000000000E+00 -0.18875714444E+04  0.18875714444E+04  0.25500000920E-02 0.  1.
    10030    2    1    2    0    0  0.00000000000E+00  0.00000000000E+00 -0.59871167804E+03  0.31764312108E+04  0.31194966843E+04 0.  0.
        1    1    3    3  502    0  0.15547405725E+04  0.12087875470E+03 -0.33131286572E+03  0.15942390461E+04  0.50400001928E-02 0. -1.
       -1    1    3    3    0  502 -0.15547405725E+04 -0.12087875470E+03 -0.26739881232E+03  0.15821921647E+04  0.50400001928E-02 0.  1.
</event>
<event>
 5   0  0.2080828E-07  0.3298931E+04  0.7818609E-02  0.8163168E-01
        1   -1    0    0  501    0  0.00000000000E+00  0.00000000000E+00  0.13379419622E+04  0.13379419622E+04  0.50400001928E-02 0. -1.
       -1   -1    0    0    0  501  0.00000000000E+00  0.00000000000E+00 -0.20335230405E+04  0.20335230405E+04  0.50400001928E-02 0.  1.
    10030    2    1    2    0    0  0.00000000000E+00  0.00000000000E+00 -0.69558107835E+03  0.33714650027E+04  0.32989306188E+04 0.  0.
        1    1    3    3  502    0 -0.89680594888E+03 -0.67074175233E+03  0.88986107376E+03  0.14303874087E+04  0.50400001928E-02 0. -1.
       -1    1    3    3    0  502  0.89680594888E+03  0.67074175233E+03 -0.15854421521E+04  0.19410775940E+04  0.50400001928E-02 0.  1.
</event>
<event>
 5   0  0.6377741E-07  0.3299627E+04  0.7818609E-02  0.8162990E-01
       -2   -1    0    0    0  501  0.00000000000E+00  0.00000000000E+00  0.12502162542E+04  0.12502162542E+04  0.25500000920E-02 0.  1.
        2   -1    0    0  501    0  0.00000000000E+00  0.00000000000E+00 -0.21771310928E+04  0.21771310928E+04  0.25500000920E-02 0. -1.
    10030    2    1    2    0    0  0.00000000000E+00  0.00000000000E+00 -0.92691483864E+03  0.34273473470E+04  0.32996270576E+04 0.  0.
        1    1    3    3  502    0 -0.15433612199E+04  0.53540438597E+03 -0.70317834506E+03  0.17785054109E+04  0.50400001928E-02 0. -1.
       -1    1    3    3    0  502  0.15433612199E+04 -0.53540438597E+03 -0.22373649358E+03  0.16488419361E+04  0.50400001928E-02 0.  1.
</event>
<event>
 5   0  0.6351753E-07  0.3302706E+04  0.7818609E-02  0.8162207E-01
        2   -1    0    0  501    0  0.00000000000E+00  0.00000000000E+00  0.26245484605E+04  0.26245484605E+04  0.25500000920E-02 0. -1.
       -2   -1    0    0    0  501  0.00000000000E+00  0.00000000000E+00 -0.10390230641E+04  0.10390230641E+04  0.25500000920E-02 0.  1.
    10030    2    1    2    0    0  0.00000000000E+00  0.00000000000E+00  0.15855253964E+04  0.36635715246E+04  0.33027057897E+04 0.  0.
        3    1    3    3  502    0  0.42678927838E+03 -0.23199620816E+03 -0.95797554572E+03  0.10740989178E+04  0.10100000352E+00 0.  1.
       -3    1    3    3    0  502 -0.42678927838E+03  0.23199620816E+03  0.25435009421E+04  0.25894726068E+04  0.10100000352E+00 0. -1.
</event>
<event>
 5   0  0.6258718E-07  0.3308782E+04  0.7818609E-02  0.8160664E-01
        2   -1    0    0  501    0  0.00000000000E+00  0.00000000000E+00  0.20394513330E+04  0.20394513330E+04  0.25500000920E-02 0.  1.
       -2   -1    0    0    0  501  0.00000000000E+00  0.00000000000E+00 -0.13420324288E+04  0.13420324288E+04  0.25500000920E-02 0. -1.
    10030    2    1    2    0    0  0.00000000000E+00  0.00000000000E+00  0.69741890417E+03  0.33814837618E+04  0.33087821480E+04 0.  0.
        5    1    3    3  502    0  0.90746800764E+03  0.66699119402E+03  0.15872000462E+04  0.19461761263E+04  0.46999998093E+01 0.  1.
       -5    1    3    3    0  502 -0.90746800764E+03 -0.66699119402E+03 -0.88978114203E+03  0.14353076355E+04  0.46999998093E+01 0. -1.
</event>
<event>
 5   0  0.6351753E-07  0.3296522E+04  0.7818609E-02  0.8163781E-01
       -2   -1    0    0    0  501  0.00000000000E+00  0.00000000000E+00  0.13429363262E+04  0.13429363262E+04  0.25500000920E-02 0.  1.
        2   -1    0    0  501    0  0.00000000000E+00  0.00000000000E+00 -0.20230036247E+04  0.20230036247E+04  0.25500000920E-02 0. -1.
    10030    2    1    2    0    0  0.00000000000E+00  0.00000000000E+00 -0.68006729842E+03  0.33659399509E+04  0.32965224438E+04 0.  0.
        3    1    3    3  502    0  0.62798436018E+03  0.76043360103E+03  0.10084359992E+04  0.14105200434E+04  0.10100000352E+00 0.  1.
       -3    1    3    3    0  502 -0.62798436018E+03 -0.76043360103E+03 -0.16885032976E+04  0.19554199075E+04  0.10100000352E+00 0. -1.
</event>
<event>
 5   0  0.2080770E-07  0.3285950E+04  0.7818609E-02  0.8166480E-01
       -1   -1    0    0    0  501  0.00000000000E+00  0.00000000000E+00  0.24308574418E+04  0.24308574418E+04  0.50400001928E-02 0. -1.
        1   -1    0    0  501    0  0.00000000000E+00  0.00000000000E+00 -0.11104590184E+04  0.11104590184E+04  0.50400001928E-02 0.  1.
    10030    2    1    2    0    0  0.00000000000E+00  0.00000000000E+00  0.13203984234E+04  0.35413164602E+04  0.32859504370E+04 0.  0.
        4    1    3    3  502    0  0.15930871008E+04  0.14340356677E+03  0.10647010332E+04  0.19214788566E+04  0.12699999809E+01 0. -1.
       -4    1    3    3    0  502 -0.15930871008E+04 -0.14340356677E+03  0.25569739020E+03  0.16198376035E+04  0.12699999809E+01 0.  1.
</event>
<event>
 5   0  0.2037333E-07  0.3245798E+04  0.7818609E-02  0.8176826E-01
        1   -1    0    0  501    0  0.00000000000E+00  0.00000000000E+00  0.23282025833E+04  0.23282025834E+04  0.50400001928E-02 0.  1.
       -1   -1    0    0    0  501  0.00000000000E+00  0.00000000000E+00 -0.11312595785E+04  0.11312595785E+04  0.50400001928E-02 0. -1.
    10030    2    1    2    0    0  0.00000000000E+00  0.00000000000E+00  0.11969430049E+04  0.34594621618E+04  0.32457981903E+04 0.  0.
        3    1    3    3  502    0 -0.12259384429E+04 -0.31142665414E+03  0.16822092587E+04  0.21046946637E+04  0.10100000352E+00 0.  1.
       -3    1    3    3    0  502  0.12259384429E+04  0.31142665414E+03 -0.48526625387E+03  0.13547674982E+04  0.10100000352E+00 0. -1.
</event>
<event>
 5   0  0.2057130E-07  0.3259300E+04  0.7818609E-02  0.8173330E-01
        1   -1    0    0  501    0  0.00000000000E+00  0.00000000000E+00  0.16925985548E+04  0.16925985548E+04  0.50400001928E-02 0. -1.
       -1   -1    0    0    0  501  0.00000000000E+00  0.00000000000E+00 -0.15690421424E+04  0.15690421424E+04  0.50400001928E-02 0.  1.
    10030    2    1    2    0    0  0.00000000000E+00  0.00000000000E+00  0.12355641241E+03  0.32616406972E+04  0.32592995951E+04 0.  0.
        2    1    3    3  502    0  0.12949013190E+04  0.60254159525E+03  0.84715570104E+03  0.16605717635E+04  0.25500000920E-02 0. -1.
       -2    1    3    3    0  502 -0.12949013190E+04 -0.60254159525E+03 -0.72359928863E+03  0.16010689337E+04  0.25500000920E-02 0.  1.
</event>
<event>
 5   0  0.2080828E-07  0.3279804E+04  0.7818609E-02  0.8168053E-01
        1   -1    0    0  501    0  0.00000000000E+00  0.00000000000E+00  0.24050867504E+04  0.24050867504E+04  0.50400001928E-02 0.  1.
       -1   -1    0    0    0  501  0.00000000000E+00  0.00000000000E+00 -0.11181630429E+04  0.11181630430E+04  0.50400001928E-02 0. -1.
    10030    2    1    2    0    0  0.00000000000E+00  0.00000000000E+00  0.12869237074E+04  0.35232497933E+04  0.32798043353E+04 0.  0.
        1    1    3    3  502    0 -0.10049120915E+04  0.23601036322E+03 -0.72537722636E+03  0.12616343859E+04  0.50400001928E-02 0. -1.
       -1    1    3    3    0  502  0.10049120915E+04 -0.23601036322E+03  0.20123009338E+04  0.22616154075E+04  0.50400001928E-02 0.  1.
</event>
<event>
 5   0  0.6377741E-07  0.3275569E+04  0.7818609E-02  0.8169140E-01
        2   -1    0    0  501    0  0.00000000000E+00  0.00000000000E+00  0.21818599034E+04  0.21818599034E+04  0.25500000920E-02 0.  1.
       -2   -1    0    0    0  501  0.00000000000E+00  0.00000000000E+00 -0.12293817751E+04  0.12293817751E+04  0.25500000920E-02 0. -1.
    10030    2    1    2    0    0  0.00000000000E+00  0.00000000000E+00  0.95247812832E+03  0.34112416785E+04  0.32755694474E+04 0.  0.
        1    1    3    3  502    0  0.28672287906E+03 -0.77302526003E+03  0.19499711070E+04  0.21171125101E+04  0.50400001928E-02 0.  1.
       -1    1    3    3    0  502 -0.28672287906E+03  0.77302526003E+03 -0.99749297873E+03  0.12941291685E+04  0.50400001928E-02 0. -1.
</event>
<event>
 5   0  0.2037333E-07  0.3283992E+04  0.7818609E-02  0.8166981E-01
        1   -1    0    0  501    0  0.00000000000E+00  0.00000000000E+00  0.19046422987E+04  0.19046422987E+04  0.50400001928E-02 0.  1.
       -1   -1    0    0    0  501  0.00000000000E+00  0.00000000000E+00 -0.14155679654E+04  0.14155679654E+04  0.50400001928E-02 0. -1.
    10030    2    1    2    0    0  0.00000000000E+00  0.00000000000E+00  0.48907433326E+03  0.33202102641E+04  0.32839918536E+04 0.  0.
        3    1    3    3  502    0  0.11815295401E+04 -0.99106539505E+03 -0.32553241239E+03  0.15761326191E+04  0.10100000352E+00 0.  1.
       -3    1    3    3    0  502 -0.11815295401E+04  0.99106539505E+03  0.81460674565E+03  0.17440776450E+04  0.10100000352E+00 0. -1.
</event>
<event>
 5   0  0.6424183E-07  0.3310779E+04  0.7818609E-02  0.8160158E-01
        2   -1    0    0  501    0  0.00000000000E+00  0.00000000000E+00  0.10988535408E+04  0.10988535408E+04  0.25500000920E-02 0. -1.
       -2   -1    0    0    0  501  0.00000000000E+00  0.00000000000E+00 -0.24937946286E+04  0.24937946286E+04  0.25500000920E-02 0.  1.
    10030    2    1    2    0    0  0.00000000000E+00  0.00000000000E+00 -0.13949410878E+04  0.35926481694E+04  0.33107793993E+04 0.  0.
        2    1    3    3  502    0  0.16240936050E+04 -0.58552479689E+02 -0.10392569505E+04  0.19290317364E+04  0.25500000920E-02 0.  1.
       -2    1    3    3    0  502 -0.16240936050E+04  0.58552479689E+02 -0.35568413728E+03  0.16636164330E+04  0.25500000920E-02 0. -1.
</event>
<event>
 5   0  0.2087665E-07  0.3300918E+04  0.7818609E-02  0.8162662E-01
       -1   -1    0    0    0  501  0.00000000000E+00  0.00000000000E+00  0.16697291799E+04  0.16697291799E+04  0.50400001928E-02 0.  1.
        1   -1    0    0  501    0  0.00000000000E+00  0.00000000000E+00 -0.16314112808E+04  0.16314112808E+04  0.50400001928E-02 0. -1.
    10030    2    1    2    0    0  0.00000000000E+00  0.00000000000E+00  0.38317899108E+02  0.33011404606E+04  0.33009180662E+04 0.  0.
        5    1    3    3  502    0 -0.68248529428E+03 -0.86942253519E+03  0.12449295835E+04  0.16647983300E+04  0.46999998093E+01 0.  1.
       -5    1    3    3    0  502  0.68248529428E+03  0.86942253519E+03 -0.12066116844E+04  0.16363421307E+04  0.46999998093E+01 0. -1.
</event>
<event>
 5   0  0.6426079E-07  0.3340956E+04  0.7818609E-02  0.8152552E-01
       -2   -1    0    0    0  501  0.00000000000E+00  0.00000000000E+00  0.30780214906E+04  0.30780214906E+04  0.25500000920E-02 0.  1.
        2   -1    0    0  501    0  0.00000000000E+00  0.00000000000E+00 -0.90658777938E+03  0.90658777938E+03  0.25500000920E-02 0. -1.
    10030    2    1    2    0    0  0.00000000000E+00  0.00000000000E+00  0.21714337112E+04  0.39846092699E+04  0.33409559518E+04 0.  0.
        4    1    3    3  502    0  0.18655364637E+02  0.12725424644E+04 -0.20476867975E+03  0.12890477770E+04  0.12699999809E+01 0. -1.
       -4    1    3    3    0  502 -0.18655364637E+02 -0.12725424644E+04  0.23762023909E+04  0.26955614929E+04  0.12699999809E+01 0.  1.
</event>
<event>
 5   0  0.6377741E-07  0.3298603E+04  0.7818609E-02  0.8163251E-01
        2   -1    0    0  501    0  0.00000000000E+00  0.00000000000E+00  0.15876574442E+04  0.15876574442E+04  0.25500000920E-02 0. -1.
       -2   -1    0    0    0  501  0.00000000000E+00  0.00000000000E+00 -0.17133388069E+04  0.17133388069E+04  0.25500000920E-02 0.  1.
    10030    2    1    2    0    0  0.00000000000E+00  0.00000000000E+00 -0.12568136273E+03  0.33009962511E+04  0.32986028019E+04 0.  0.
        1    1    3    3  502    0 -0.89503090906E+03  0.13524593434E+04 -0.36300582931E+03  0.16619265435E+04  0.50400001928E-02 0.  1.
       -1    1    3    3    0  502  0.89503090906E+03 -0.13524593434E+04  0.23732446658E+03  0.16390697076E+04  0.50400001928E-02 0. -1.
</event>
<event>
 5   0  0.6351753E-07  0.3306133E+04  0.7818609E-02  0.8161336E-01
       -2   -1    0    0    0  501  0.00000000000E+00  0.00000000000E+00  0.17446978507E+04  0.17446978507E+04  0.25500000920E-02 0.  1.
        2   -1    0    0  501    0  0.00000000000E+00  0.00000000000E+00 -0.15662479851E+04  0.15662479851E+04  0.25500000920E-02 0. -1.
    10030    2    1    2    0    0  0.00000000000E+00  0.00000000000E+00  0.17844986561E+03  0.33109458358E+04  0.33061333870E+04 0.  0.
        3    1    3    3  502    0  0.35279898116E+02 -0.14457745897E+03 -0.15595257263E+04  0.15666102943E+04  0.10100000352E+00 0. -1.
       -3    1    3    3    0  502 -0.35279898116E+02  0.14457745897E+03  0.17379755919E+04  0.17443355415E+04  0.10100000352E+00 0.  1.
</event>
<event>
 5   0  0.2080770E-07  0.3296879E+04  0.7818609E-02  0.8163690E-01
       -1   -1    0    0    0  501  0.00000000000E+00  0.00000000000E+00  0.12450095789E+04  0.12450095789E+04  0.50400001928E-02 0. -1.
        1   -1    0    0  501    0  0.00000000000E+00  0.00000000000E+00 -0.21825953658E+04  0.21825953658E+04  0.50400001928E-02 0.  1.
    10030    2    1    2    0    0  0.00000000000E+00  0.00000000000E+00 -0.93758578688E+03  0.34276049447E+04  0.32968786070E+04 0.  0.
        4    1    3    3  502    0  0.14772505002E+04 -0.73142319318E+03 -0.47927207036E+03  0.17166689425E+04  0.12699999809E+01 0.  1.
       -4    1    3    3    0  502 -0.14772505002E+04  0.73142319318E+03 -0.45831371653E+03  0.17109360022E+04  0.12699999809E+01 0. -1.
</event>
<event>
 5   0  0.6426079E-07  0.3305732E+04  0.7818609E-02  0.8161439E-01
        2   -1    0    0  501    0  0.00000000000E+00  0.00000000000E+00  0.15046673167E+04  0.15046673167E+04  0.25500000920E-02 0. -1.
       -2   -1    0    0    0  501  0.00000000000E+00  0.00000000000E+00 -0.18156606920E+04  0.18156606920E+04  0.25500000920E-02 0.  1.
    10030    2    1    2    0    0  0.00000000000E+00  0.00000000000E+00 -0.31099337530E+03  0.33203280086E+04  0.33057315689E+04 0.  0.
        4    1    3    3  502    0 -0.25032757195E+03 -0.53309326854E+03 -0.17066964673E+04  0.18054547268E+04  0.12699999809E+01 0.  1.
       -4    1    3    3    0  502  0.25032757195E+03  0.53309326854E+03  0.13957030920E+04  0.15148732818E+04  0.12699999809E+01 0. -1.
</event>
<event>
 5   0  0.6426079E-07  0.3305351E+04  0.7818609E-02  0.8161535E-01
        2   -1    0    0  501    0  0.00000000000E+00  0.00000000000E+00  0.11056266116E+04  0.11056266116E+04  0.25500000920E-02 0.  1.
       -2   -1    0    0    0  501  0.00000000000E+00  0.00000000000E+00 -0.24703972303E+04  0.24703972303E+04  0.25500000920E-02 0. -1.
    10030    2    1    2    0    0  0.00000000000E+00  0.00000000000E+00 -0.13647706187E+04  0.35760238420E+04  0.33053513696E+04 0.  0.
        4    1    3    3  502    0  0.13204171757E+04 -0.82359367823E+03 -0.80474405094E+02  0.15582958023E+04  0.12699999809E+01 0. -1.
       -4    1    3    3    0  502 -0.13204171757E+04  0.82359367823E+03 -0.12842962136E+04  0.20177280396E+04  0.12699999809E+01 0.  1.
</event>
<event>
 5   0  0.2057130E-07  0.3358671E+04  0.7818609E-02  0.8148125E-01
        1   -1    0    0  501    0  0.00000000000E+00  0.00000000000E+00  0.14974304017E+04  0.14974304017E+04  0.50400001928E-02 0. -1.
       -1   -1    0    0    0  501  0.00000000000E+00  0.00000000000E+00 -0.18833379058E+04  0.18833379058E+04  0.50400001928E-02 0.  1.
    10030    2    1    2    0    0  0.00000000000E+00  0.00000000000E+00 -0.38590750412E+03  0.33807683075E+04  0.33586708305E+04 0.  0.
        2    1    3    3  502    0  0.95308798245E+03  0.54000550583E+02  0.11977565574E+04  0.15316375330E+04  0.25500000920E-02 0. -1.
       -2    1    3    3    0  502 -0.95308798245E+03 -0.54000550583E+02 -0.15836640615E+04  0.18491307745E+04  0.25500000920E-02 0.  1.
</event>
<event>
 5   0  0.6377741E-07  0.3319562E+04  0.7818609E-02  0.8157936E-01
        2   -1    0    0  501    0  0.00000000000E+00  0.00000000000E+00  0.15842834017E+04  0.15842834017E+04  0.25500000920E-02 0.  1.
       -2   -1    0    0    0  501  0.00000000000E+00  0.00000000000E+00 -0.17388763011E+04  0.17388763012E+04  0.25500000920E-02 0. -1.
    10030    2    1    2    0    0  0.00000000000E+00  0.00000000000E+00 -0.15459289948E+03  0.33231597028E+04  0.33195619358E+04 0.  0.
        1    1    3    3  502    0 -0.78619341253E+03  0.26059279642E+03  0.13626171262E+04  0.15945952841E+04  0.50400001928E-02 0.  1.
       -1    1    3    3    0  502  0.78619341253E+03 -0.26059279642E+03 -0.15172100257E+04  0.17285644187E+04  0.50400001928E-02 0. -1.
</event>
<event>
 5   0  0.2087665E-07  0.3299886E+04  0.7818609E-02  0.8162924E-01
        1   -1    0    0  501    0  0.00000000000E+00  0.00000000000E+00  0.15507012752E+04  0.15507012752E+04  0.50400001928E-02 0. -1.
       -1   -1    0    0    0  501  0.00000000000E+00  0.00000000000E+00 -0.17555364398E+04  0.17555364398E+04  0.50400001928E-02 0.  1.
    10030    2    1    2    0    0  0.00000000000E+00  0.00000000000E+00 -0.20483516458E+03  0.33062377150E+04  0.32998864198E+04 0.  0.
        5    1    3    3  502    0  0.35065773477E+03  0.25143880944E+03 -0.16979990060E+04  0.17519717567E+04  0.46999998093E+01 0.  1.
       -5    1    3    3    0  502 -0.35065773477E+03 -0.25143880944E+03  0.14931638414E+04  0.15542659583E+04  0.46999998093E+01 0. -1.
</event>
<event>
 5   0  0.2087665E-07  0.3302983E+04  0.7818609E-02  0.8162137E-01
        1   -1    0    0  501    0  0.00000000000E+00  0.00000000000E+00  0.24407904241E+04  0.24407904241E+04  0.50400001928E-02 0.  1.
       -1   -1    0    0    0  501  0.00000000000E+00  0.00000000000E+00 -0.11174349297E+04  0.11174349297E+04  0.50400001928E-02 0. -1.
    10030    2    1    2    0    0  0.00000000000E+00  0.00000000000E+00  0.13233554943E+04  0.35582253538E+04  0.33029831825E+04 0.  0.
        5    1    3    3  502    0  0.57499943611E+03  0.85489560386E+00  0.23294660716E+04  0.23993872866E+04  0.46999998093E+01 0.  1.
       -5    1    3    3    0  502 -0.57499943611E+03 -0.85489560386E+00 -0.10061105772E+04  0.11588380672E+04  0.46999998093E+01 0. -1.
</event>
<event>
 5   0  0.2087665E-07  0.3308127E+04  0.7818609E-02  0.8160831E-01
       -1   -1    0    0    0  501  0.00000000000E+00  0.00000000000E+00  0.19062432031E+04  0.19062432031E+04  0.50400001928E-02 0.  1.
        1   -1    0    0  501    0  0.00000000000E+00  0.00000000000E+00 -0.14352450568E+04  0.14352450568E+04  0.50400001928E-02 0. -1.
    10030    2    1    2    0    0  0.00000000000E+00  0.00000000000E+00  0.47099814630E+03  0.33414882599E+04  0.33081270437E+04 0.  0.
        5    1    3    3  502    0  0.18813472290E+02  0.41077373613E+03  0.18537842169E+04  0.18988488676E+04  0.46999998093E+01 0.  1.
       -5    1    3    3    0  502 -0.18813472290E+02 -0.41077373613E+03 -0.13827860706E+04  0.14426393923E+04  0.46999998093E+01 0. -1.
</event>
<event>
 5   0  0.2057130E-07  0.3302328E+04  0.7818609E-02  0.8162303E-01
       -1   -1    0    0    0  501  0.00000000000E+00  0.00000000000E+00  0.30930372411E+04  0.30930372411E+04  0.50400001928E-02 0. -1.
        1   -1    0    0  501    0  0.00000000000E+00  0.00000000000E+00 -0.88144522135E+03  0.88144522136E+03  0.50400001928E-02 0.  1.
    10030    2    1    2    0    0  0.00000000000E+00  0.00000000000E+00  0.22115920198E+04  0.39744824625E+04  0.33023282064E+04 0.  0.
        2    1    3    3  502    0  0.22184426770E+03 -0.56519729571E+03  0.29537994859E+04  0.30155586986E+04  0.25500000920E-02 0. -1.
       -2    1    3    3    0  502 -0.22184426770E+03  0.56519729571E+03 -0.74220746608E+03  0.95892376387E+03  0.25500000920E-02 0.  1.
</event>
<event>
 5   0  0.6351753E-07  0.3297954E+04  0.7818609E-02  0.8163416E-01
       -2   -1    0    0    0  501  0.00000000000E+00  0.00000000000E+00  0.17904442582E+04  0.17904442582E+04  0.25500000920E-02 0.  1.
        2   -1    0    0  501    0  0.00000000000E+00  0.00000000000E+00 -0.15186871690E+04  0.15186871690E+04  0.25500000920E-02 0. -1.
    10030    2    1    2    0    0  0.00000000000E+00  0.00000000000E+00  0.27175708919E+03  0.33091314271E+04  0.32979537423E+04 0.  0.
        3    1    3    3  502    0  0.16039121229E+04 -0.32674746355E+03 -0.64364142644E+02  0.16381211054E+04  0.10100000352E+00 0. -1.
       -3    1    3    3    0  502 -0.16039121229E+04  0.32674746355E+03  0.33612123184E+03  0.16710103218E+04  0.10100000352E+00 0.  1.
</event>
<event>
 5   0  0.6258718E-07  0.3299861E+04  0.7818609E-02  0.8162931E-01
       -2   -1    0    0    0  501  0.00000000000E+00  0.00000000000E+00  0.10020388431E+04  0.10020388431E+04  0.25500000920E-02 0.  1.
        2   -1    0    0  501    0  0.00000000000E+00  0.00000000000E+00 -0.27167323602E+04  0.27167323602E+04  0.25500000920E-02 0. -1.
    10030    2    1    2    0    0  0.00000000000E+00  0.00000000000E+00 -0.17146935171E+04  0.37187712033E+04  0.32998614221E+04 0.  0.
        5    1    3    3  502    0  0.15085156967E+03  0.45432746513E+03  0.92204605188E+03  0.10389228332E+04  0.46999998093E+01 0.  1.
       -5    1    3    3    0  502 -0.15085156967E+03 -0.45432746513E+03 -0.26367395690E+04  0.26798483701E+04  0.46999998093E+01 0. -1.
</event>
<event>
 5   0  0.6424183E-07  0.3305271E+04  0.7818609E-02  0.8161555E-01
        2   -1    0    0  501    0  0.00000000000E+00  0.00000000000E+00  0.18968537339E+04  0.18968537339E+04  0.25500000920E-02 0.  1.
       -2   -1    0    0    0  501  0.00000000000E+00  0.00000000000E+00 -0.14398601492E+04  0.14398601492E+04  0.25500000920E-02 0. -1.
    10030    2    1    2    0    0  0.00000000000E+00  0.00000000000E+00  0.45699358472E+03  0.33367138830E+04  0.33052710026E+04 0.  0.
        2    1    3    3  502    0  0.10686903546E+03  0.13599479455E+04 -0.71328989684E+03  0.15393706124E+04  0.25500000920E-02 0. -1.
       -2    1    3    3    0  502 -0.10686903546E+03 -0.13599479455E+04  0.11702834816E+04  0.17973432707E+04  0.25500000920E-02 0.  1.
</event>
<event>
 5   0  0.2080770E-07  0.3296135E+04  0.7818609E-02  0.8163880E-01
       -1   -1    0    0    0  501  0.00000000000E+00  0.00000000000E+00  0.19165417517E+04  0.19165417517E+04  0.50400001928E-02 0. -1.
        1   -1    0    0  501    0  0.00000000000E+00  0.00000000000E+00 -0.14172015987E+04  0.14172015987E+04  0.50400001928E-02 0.  1.
    10030    2    1    2    0    0  0.00000000000E+00  0.00000000000E+00  0.49934015294E+03  0.33337433504E+04  0.32961347269E+04 0.  0.
        4    1    3    3  502    0 -0.82193468466E+03  0.15985011581E+03 -0.11860318177E+04  0.14518270458E+04  0.12699999809E+01 0.  1.
       -4    1    3    3    0  502  0.82193468466E+03 -0.15985011581E+03  0.16853719706E+04  0.18819163046E+04  0.12699999809E+01 0. -1.
</event>
<event>
 5   0  0.6377741E-07  0.3294209E+04  0.7818609E-02  0.8164370E-01
       -2   -1    0    0    0  501  0.00000000000E+00  0.00000000000E+00  0.18059817585E+04  0.18059817585E+04  0.25500000920E-02 0. -1.
        2   -1    0    0  501    0  0.00000000000E+00  0.00000000000E+00 -0.15022042478E+04  0.15022042478E+04  0.25500000920E-02 0.  1.
    10030    2    1    2    0    0  0.00000000000E+00  0.00000000000E+00  0.30377751067E+03  0.33081860063E+04  0.32942091427E+04 0.  0.
        1    1    3    3  502    0  0.84468894046E+03  0.14138120697E+04  0.12750623244E+03  0.16518540534E+04  0.50400001928E-02 0.  1.
       -1    1    3    3    0  502 -0.84468894046E+03 -0.14138120697E+04  0.17627127823E+03  0.16563319528E+04  0.50400001928E-02 0. -1.
</event>
<event>
 5   0  0.2057130E-07  0.3254726E+04  0.7818609E-02  0.8174512E-01
        1   -1    0    0  501    0  0.00000000000E+00  0.00000000000E+00  0.15755213969E+04  0.15755213969E+04  0.50400001928E-02 0.  1.
       -1   -1    0    0    0  501  0.00000000000E+00  0.00000000000E+00 -0.16809099610E+04  0.16809099610E+04  0.50400001928E-02 0. -1.
    10030    2    1    2    0    0  0.00000000000E+00  0.00000000000E+00 -0.10538856415E+03  0.32564313579E+04  0.32547255551E+04 0.  0.
        2    1    3    3  502    0 -0.11457296485E+04  0.99226377685E+03 -0.64547908403E+03  0.16474000966E+04  0.25500000920E-02 0. -1.
       -2    1    3    3    0  502  0.11457296485E+04 -0.99226377685E+03  0.54009051988E+03  0.16090312613E+04  0.25500000920E-02 0.  1.
</event>
<event>
 5   0  0.2080828E-07  0.3314172E+04  0.7818609E-02  0.8159299E-01
        1   -1    0    0  501    0  0.00000000000E+00  0.00000000000E+00  0.23976786040E+04  0.23976786040E+04  0.50400001928E-02 0.  1.
       -1   -1    0    0    0  501  0.00000000000E+00  0.00000000000E+00 -0.11452469309E+04  0.11452469310E+04  0.50400001928E-02 0. -1.
    10030    2    1    2    0    0  0.00000000000E+00  0.00000000000E+00  0.12524316731E+04  0.35429255350E+04  0.33141720310E+04 0.  0.
        1    1    3    3  502    0 -0.15182891780E+04 -0.18191131140E+03 -0.56320124132E+02  0.15301848612E+04  0.50400001928E-02 0.  1.
       -1    1    3    3    0  502  0.15182891780E+04  0.18191131140E+03  0.13087517972E+04  0.20127406738E+04  0.50400001928E-02 0. -1.
</event>
<event>
 5   0  0.2037333E-07  0.3311412E+04  0.7818609E-02  0.8159998E-01
        1   -1    0    0  501    0  0.00000000000E+00  0.00000000000E+00  0.15707777913E+04  0.15707777913E+04  0.50400001928E-02 0.  1.
       -1   -1    0    0    0  501  0.00000000000E+00  0.00000000000E+00 -0.17452263172E+04  0.17452263172E+04  0.50400001928E-02 0. -1.
    10030    2    1    2    0    0  0.00000000000E+00  0.00000000000E+00 -0.17444852597E+03  0.33160041085E+04  0.33114122304E+04 0.  0.
        3    1    3    3  502    0 -0.28889952123E+03  0.12774286361E+04  0.92713441731E+03  0.16046386172E+04  0.10100000352E+00 0.  1.
       -3    1    3    3    0  502  0.28889952123E+03 -0.12774286361E+04 -0.11015829433E+04  0.17113654913E+04  0.10100000352E+00 0. -1.
</event>
<event>
 5   0  0.2057130E-07  0.3289246E+04  0.7818609E-02  0.8165637E-01
       -1   -1    0    0    0  501  0.00000000000E+00  0.00000000000E+00  0.17358376502E+04  0.17358376502E+04  0.50400001928E-02 0. -1.
        1   -1    0    0  501    0  0.00000000000E+00  0.00000000000E+00 -0.15582014633E+04  0.15582014633E+04  0.50400001928E-02 0.  1.
    10030    2    1    2    0    0  0.00000000000E+00  0.00000000000E+00  0.17763618697E+03  0.32940391135E+04  0.32892459723E+04 0.  0.
        2    1    3    3  502    0 -0.59633405144E+03  0.27543756954E+03 -0.14211272132E+04  0.15655934056E+04  0.25500000920E-02 0.  1.
       -2    1    3    3    0  502  0.59633405144E+03 -0.27543756954E+03  0.15987634001E+04  0.17284457079E+04  0.25500000920E-02 0. -1.
</event>
<event>
 5   0  0.2037333E-07  0.3277744E+04  0.7818609E-02  0.8168582E-01
        1   -1    0    0  501    0  0.00000000000E+00  0.00000000000E+00  0.14376317347E+04  0.14376317347E+04  0.50400001928E-02 0.  1.
       -1   -1    0    0    0  501  0.00000000000E+00  0.00000000000E+00 -0.18682823185E+04  0.18682823185E+04  0.50400001928E-02 0. -1.
    10030    2    1    2    0    0  0.00000000000E+00  0.00000000000E+00 -0.43065058378E+03  0.33059140531E+04  0.32777443161E+04 0.  0.
        3    1    3    3  502    0 -0.64223185136E+03 -0.12497126250E+04  0.63552336886E+03  0.15421197614E+04  0.10100000352E+00 0. -1.
       -3    1    3    3    0  502  0.64223185136E+03  0.12497126250E+04 -0.10661739526E+04  0.17637942917E+04  0.10100000352E+00 0.  1.
</event>
<event>
 5   0  0.2080828E-07  0.3335132E+04  0.7818609E-02  0.8154013E-01
        1   -1    0    0  501    0  0.00000000000E+00  0.00000000000E+00  0.19724369220E+04  0.19724369220E+04  0.50400001928E-02 0. -1.
       -1   -1    0    0    0  501  0.00000000000E+00  0.00000000000E+00 -0.14098179374E+04  0.14098179375E+04  0.50400001928E-02 0.  1.
    10030    2    1    2    0    0  0.00000000000E+00  0.00000000000E+00  0.56261898455E+03  0.33822548595E+04  0.33351323531E+04 0.  0.
        1    1    3    3  502    0 -0.12213689970E+04 -0.33067737564E+03  0.13827896791E+04  0.18743524349E+04  0.50400001928E-02 0. -1.
       -1    1    3    3    0  502  0.12213689970E+04  0.33067737564E+03 -0.82017069453E+03  0.15079024245E+04  0.50400001928E-02 0.  1.
</event>
<event>
 5   0  0.2057130E-07  0.3291140E+04  0.7818609E-02  0.8165154E-01
       -1   -1    0    0    0  501  0.00000000000E+00  0.00000000000E+00  0.10897629863E+04  0.10897629863E+04  0.50400001928E-02 0.  1.
        1   -1    0    0  501    0  0.00000000000E+00  0.00000000000E+00 -0.24848522058E+04  0.24848522058E+04  0.50400001928E-02 0. -1.
    10030    2    1    2    0    0  0.00000000000E+00  0.00000000000E+00 -0.13950892195E+04  0.35746151920E+04  0.32911395961E+04 0.  0.
        2    1    3    3  502    0  0.50651389045E+03 -0.71553323934E+03  0.81501236428E+03  0.11969917676E+04  0.25500000920E-02 0.  1.
       -2    1    3    3    0  502 -0.50651389045E+03  0.71553323934E+03 -0.22101015838E+04  0.23776234244E+04  0.25500000920E-02 0. -1.
</event>
<event>
 5   0  0.6424183E-07  0.3292763E+04  0.7818609E-02  0.8164739E-01
       -2   -1    0    0    0  501  0.00000000000E+00  0.00000000000E+00  0.17497406691E+04  0.17497406691E+04  0.25500000920E-02 0.  1.
        2   -1    0    0  501    0  0.00000000000E+00  0.00000000000E+00 -0.15491283234E+04  0.15491283234E+04  0.25500000920E-02 0. -1.
    10030    2    1    2    0    0  0.00000000000E+00  0.00000000000E+00  0.20061234564E+03  0.32988689925E+04  0.32927634772E+04 0.  0.
        2    1    3    3  502    0  0.38291521761E+03  0.14003362311E+04 -0.67766908201E+03  0.16021239055E+04  0.25500000920E-02 0. -1.
       -2    1    3    3    0  502 -0.38291521761E+03 -0.14003362311E+04  0.87828142765E+03  0.16967450870E+04  0.25500000920E-02 0.  1.
</event>
<event>
 5   0  0.2057130E-07  0.3302767E+04  0.7818609E-02  0.8162192E-01
       -1   -1    0    0    0  501  0.00000000000E+00  0.00000000000E+00  0.12946856966E+04  0.12946856966E+04  0.50400001928E-02 0.  1.
        1   -1    0    0  501    0  0.00000000000E+00  0.00000000000E+00 -0.21063547113E+04  0.21063547114E+04  0.50400001928E-02 0. -1.
    10030    2    1    2    0    0  0.00000000000E+00  0.00000000000E+00 -0.81166901478E+03  0.34010404079E+04  0.33027669108E+04 0.  0.
        2    1    3    3  502    0  0.54376195347E+03  0.79324601273E+03  0.97655190896E+03  0.13706093279E+04  0.25500000920E-02 0.  1.
       -2    1    3    3    0  502 -0.54376195347E+03 -0.79324601273E+03 -0.17882209237E+04  0.20304310801E+04  0.25500000920E-02 0. -1.
</event>
<event>
 5   0  0.2087665E-07  0.3305662E+04  0.7818609E-02  0.8161456E-01
       -1   -1    0    0    0  501  0.00000000000E+00  0.00000000000E+00  0.13681459299E+04  0.13681459299E+04  0.50400001928E-02 0.  1.
        1   -1    0    0  501    0  0.00000000000E+00  0.00000000000E+00 -0.19967531232E+04  0.19967531232E+04  0.50400001928E-02 0. -1.
    10030    2    1    2    0    0  0.00000000000E+00  0.00000000000E+00 -0.62860719330E+03  0.33648990531E+04  0.33056616031E+04 0.  0.
        5    1    3    3  502    0  0.12911956831E+04 -0.78691622971E+03  0.36504199804E+03  0.15555388761E+04  0.46999998093E+01 0. -1.
       -5    1    3    3    0  502 -0.12911956831E+04  0.78691622971E+03 -0.99364919134E+03  0.18093601770E+04  0.46999998093E+01 0.  1.
</event>
<event>
 5   0  0.6351753E-07  0.3287719E+04  0.7818609E-02  0.8166027E-01
        2   -1    0    0  501    0  0.00000000000E+00  0.00000000000E+00  0.20314401832E+04  0.20314401832E+04  0.25500000920E-02 0.  1.
       -2   -1    0    0    0  501  0.00000000000E+00  0.00000000000E+00 -0.13302254450E+04  0.13302254450E+04  0.25500000920E-02 0. -1.
    10030    2    1    2    0    0  0.00000000000E+00  0.00000000000E+00  0.70121473821E+03  0.33616656282E+04  0.32877186143E+04 0.  0.
        3    1    3    3  502    0 -0.67613143431E+03  0.12686373605E+04 -0.46462006432E+03  0.15107833343E+04  0.10100000352E+00 0. -1.
       -3    1    3    3    0  502  0.67613143431E+03 -0.12686373605E+04  0.11658348025E+04  0.18508822939E+04  0.10100000352E+00 0.  1.
</event>
<event>
 5   0  0.6351753E-07  0.3281546E+04  0.7818609E-02  0.8167607E-01
       -2   -1    0    0    0  501  0.00000000000E+00  0.00000000000E+00  0.11170662262E+04  0.11170662262E+04  0.25500000920E-02 0.  1.
        2   -1    0    0  501    0  0.00000000000E+00  0.00000000000E+00 -0.24100050408E+04  0.24100050408E+04  0.25500000920E-02 0. -1.
    10030    2    1    2    0    0  0.00000000000E+00  0.00000000000E+00 -0.12929388146E+04  0.35270712670E+04  0.32815455115E+04 0.  0.
        3    1    3    3  502    0 -0.31362909015E+03  0.15720536491E+04 -0.27040621608E+03  0.16256799850E+04  0.10100000352E+00 0.  1.
       -3    1    3    3    0  502  0.31362909015E+03 -0.15720536491E+04 -0.10225325985E+04  0.19013912819E+04  0.10100000352E+00 0. -1.
</event>
<event>
 5   0  0.6426079E-07  0.3294066E+04  0.7818609E-02  0.8164407E-01
       -2   -1    0    0    0  501  0.00000000000E+00  0.00000000000E+00  0.13026668806E+04  0.13026668806E+04  0.25500000920E-02 0. -1.
        2   -1    0    0  501    0  0.00000000000E+00  0.00000000000E+00 -0.20824345394E+04  0.20824345394E+04  0.25500000920E-02 0.  1.
    10030    2    1    2    0    0  0.00000000000E+00  0.00000000000E+00 -0.77976765880E+03  0.33851014199E+04  0.32940664871E+04 0.  0.
        4    1    3    3  502    0 -0.84917388029E+02  0.99903146624E+03 -0.17326868572E+04  0.20018691744E+04  0.12699999809E+01 0.  1.
       -4    1    3    3    0  502  0.84917388029E+02 -0.99903146624E+03  0.95291919844E+03  0.13832322455E+04  0.12699999809E+01 0. -1.
</event>
<event>
 5   0  0.6351753E-07  0.3282469E+04  0.7818609E-02  0.8167371E-01
        2   -1    0    0  501    0  0.00000000000E+00  0.00000000000E+00  0.12357045605E+04  0.12357045605E+04  0.25500000920E-02 0. -1.
       -2   -1    0    0    0  501  0.00000000000E+00  0.00000000000E+00 -0.21798496703E+04  0.21798496703E+04  0.25500000920E-02 0.  1.
    10030    2    1    2    0    0  0.00000000000E+00  0.00000000000E+00 -0.94414510977E+03  0.34155542309E+04  0.32824686923E+04 0.  0.
        3    1    3    3  502    0  0.15800438852E+04 -0.41908744338E+03 -0.62456540049E+03  0.17499299740E+04  0.10100000352E+00 0. -1.
       -3    1    3    3    0  502 -0.15800438852E+04  0.41908744338E+03 -0.31957970927E+03  0.16656242568E+04  0.10100000352E+00 0.  1.
</event>
<event>
 5   0  0.6377741E-07  0.3288108E+04  0.7818609E-02  0.8165928E-01
       -2   -1    0    0    0  501  0.00000000000E+00  0.00000000000E+00  0.22491614557E+04  0.22491614557E+04  0.25500000920E-02 0.  1.
        2   -1    0    0  501    0  0.00000000000E+00  0.00000000000E+00 -0.12017425428E+04  0.12017425428E+04  0.25500000920E-02 0. -1.
    10030    2    1    2    0    0  0.00000000000E+00  0.00000000000E+00  0.10474189129E+04  0.34509039985E+04  0.32881076667E+04 0.  0.
        1    1    3    3  502    0 -0.36198518813E+03 -0.10673561403E+02 -0.11593620077E+04  0.12146058893E+04  0.50400001928E-02 0. -1.
       -1    1    3    3    0  502  0.36198518813E+03  0.10673561403E+02  0.22067809206E+04  0.22362981092E+04  0.50400001928E-02 0.  1.
</event>
<event>
 5   0  0.6258718E-07  0.3306345E+04  0.7818609E-02  0.8161283E-01
       -2   -1    0    0    0  501  0.00000000000E+00  0.00000000000E+00  0.17858040339E+04  0.17858040339E+04  0.25500000920E-02 0.  1.
        2   -1    0    0  501    0  0.00000000000E+00  0.00000000000E+00 -0.15303918829E+04  0.15303918829E+04  0.25500000920E-02 0. -1.
    10030    2    1    2    0    0  0.00000000000E+00  0.00000000000E+00  0.25541215101E+03  0.33161959167E+04  0.33063454132E+04 0.  0.
        5    1    3    3  502    0 -0.14482921647E+03  0.23247624615E+03 -0.15074692150E+04  0.15321573780E+04  0.46999998093E+01 0. -1.
       -5    1    3    3    0  502  0.14482921647E+03 -0.23247624615E+03  0.17628813660E+04  0.17840385387E+04  0.46999998093E+01 0.  1.
</event>
<event>
 5   0  0.6258718E-07  0.3296569E+04  0.7818609E-02  0.8163769E-01
       -2   -1    0    0    0  501  0.00000000000E+00  0.00000000000E+00  0.28516181165E+04  0.28516181165E+04  0.25500000920E-02 0. -1.
        2   -1    0    0  501    0  0.00000000000E+00  0.00000000000E+00 -0.95273714237E+03  0.95273714237E+03  0.25500000920E-02 0.  1.
    10030    2    1    2    0    0  0.00000000000E+00  0.00000000000E+00  0.18988809742E+04  0.38043552589E+04  0.32965694262E+04 0.  0.
        5    1    3    3  502    0 -0.15999838262E+03 -0.11936413764E+04  0.22481479980E+04  0.25504059929E+04  0.46999998093E+01 0. -1.
       -5    1    3    3    0  502  0.15999838262E+03  0.11936413764E+04 -0.34926702380E+03  0.12539492660E+04  0.46999998093E+01 0.  1.
</event>
<event>
 5   0  0.2087665E-07  0.3299782E+04  0.7818609E-02  0.8162951E-01
        1   -1    0    0  501    0  0.00000000000E+00  0.00000000000E+00  0.19078568155E+04  0.19078568155E+04  0.50400001928E-02 0.  1.
       -1   -1    0    0    0  501  0.00000000000E+00  0.00000000000E+00 -0.14268051038E+04  0.14268051038E+04  0.50400001928E-02 0. -1.
    10030    2    1    2    0    0  0.00000000000E+00  0.00000000000E+00  0.48105171167E+03  0.33346619193E+04  0.32997817150E+04 0.  0.
        5    1    3    3  502    0 -0.61237357179E+03 -0.15296808413E+04  0.32623321807E+03  0.16796949337E+04  0.46999998093E+01 0.  1.
       -5    1    3    3    0  502  0.61237357179E+03  0.15296808413E+04  0.15481849360E+03  0.16549669856E+04  0.46999998093E+01 0. -1.
</event>
<event>
 5   0  0.2080828E-07  0.3286256E+04  0.7818609E-02  0.8166401E-01
       -1   -1    0    0    0  501  0.00000000000E+00  0.00000000000E+00  0.10406682272E+04  0.10406682272E+04  0.50400001928E-02 0. -1.
        1   -1    0    0  501    0  0.00000000000E+00  0.00000000000E+00 -0.25943617527E+04  0.25943617527E+04  0.50400001928E-02 0.  1.
    10030    2    1    2    0    0  0.00000000000E+00  0.00000000000E+00 -0.15536935255E+04  0.36350299799E+04  0.32862561348E+04 0.  0.
        1    1    3    3  502    0 -0.36855878273E+03 -0.84701426927E+02  0.99187718664E+03  0.10615226147E+04  0.50400001928E-02 0. -1.
       -1    1    3    3    0  502  0.36855878273E+03  0.84701426927E+02 -0.25455707122E+04  0.25735073652E+04  0.50400001928E-02 0.  1.
</event>
<event>
 5   0  0.2037333E-07  0.3299189E+04  0.7818609E-02  0.8163102E-01
        1   -1    0    0  501    0  0.00000000000E+00  0.00000000000E+00  0.19758461988E+04  0.19758461988E+04  0.50400001928E-02 0. -1.
       -1   -1    0    0    0  501  0.00000000000E+00  0.00000000000E+00 -0.13772136000E+04  0.13772136001E+04  0.50400001928E-02 0.  1.
    10030    2    1    2    0    0  0.00000000000E+00  0.00000000000E+00  0.59863259872E+03  0.33530597988E+04  0.32991891468E+04 0.  0.
        3    1    3    3  502    0  0.36633426190E+03 -0.14497487417E+04  0.10072458201E+04  0.18029188439E+04  0.10100000352E+00 0. -1.
       -3    1    3    3    0  502 -0.36633426190E+03  0.14497487417E+04 -0.40861322135E+03  0.15501409550E+04  0.10100000352E+00 0.  1.
</event>
<event>
 5   0  0.2080828E-07  0.3277344E+04  0.7818609E-02  0.8168684E-01
       -1   -1    0    0    0  501  0.00000000000E+00  0.00000000000E+00  0.14292185996E+04  0.14292185996E+04  0.50400001928E-02 0.  1.
        1   -1    0    0  501    0  0.00000000000E+00  0.00000000000E+00 -0.18788208206E+04  0.18788208206E+04  0.50400001928E-02 0. -1.
    10030    2    1    2    0    0  0.00000000000E+00  0.00000000000E+00 -0.44960222101E+03  0.33080394202E+04  0.32773438405E+04 0.  0.
        1    1    3    3  502    0 -0.14994049966E+04  0.41923098438E+03  0.29113767708E+03  0.15838974427E+04  0.50400001928E-02 0.  1.
       -1    1    3    3    0  502  0.14994049966E+04 -0.41923098438E+03 -0.74073989809E+03  0.17241419775E+04  0.50400001928E-02 0. -1.
</event>
<event>
 5   0  0.2080770E-07  0.3289080E+04  0.7818609E-02  0.8165679E-01
        1   -1    0    0  501    0  0.00000000000E+00  0.00000000000E+00  0.26524160608E+04  0.26524160608E+04  0.50400001928E-02 0. -1.
       -1   -1    0    0    0  501  0.00000000000E+00  0.00000000000E+00 -0.10196411471E+04  0.10196411471E+04  0.50400001928E-02 0.  1.
    10030    2    1    2    0    0  0.00000000000E+00  0.00000000000E+00  0.16327749137E+04  0.36720572080E+04  0.32890804520E+04 0.  0.
        4    1    3    3  502    0  0.65799451151E+03  0.13608284649E+04  0.15396641231E+04  0.21576325250E+04  0.12699999809E+01 0.  1.
       -4    1    3    3    0  502 -0.65799451151E+03 -0.13608284649E+04  0.93110790562E+02  0.15144246829E+04  0.12699999809E+01 0. -1.
</event>
<event>
 5   0  0.6426079E-07  0.3306278E+04  0.7818609E-02  0.8161300E-01
       -2   -1    0    0    0  501  0.00000000000E+00  0.00000000000E+00  0.19978457065E+04  0.19978457065E+04  0.25500000920E-02 0.  1.
        2   -1    0    0  501    0  0.00000000000E+00  0.00000000000E+00 -0.13679076777E+04  0.13679076777E+04  0.25500000920E-02 0. -1.
    10030    2    1    2    0    0  0.00000000000E+00  0.00000000000E+00  0.62993802887E+03  0.33657533842E+04  0.33062779561E+04 0.  0.
        4    1    3    3  502    0 -0.12589294553E+04  0.72824703142E+03  0.11149939421E+04  0.18326102193E+04  0.12699999809E+01 0. -1.
       -4    1    3    3    0  502  0.12589294553E+04 -0.72824703142E+03 -0.48505591323E+03  0.15331431649E+04  0.12699999809E+01 0.  1.
</event>
<event>
 5   0  0.6258718E-07  0.3296991E+04  0.7818609E-02  0.8163661E-01
       -2   -1    0    0    0  501  0.00000000000E+00  0.00000000000E+00  0.12513979447E+04  0.12513979447E+04  0.25500000920E-02 0.  1.
        2   -1    0    0  501    0  0.00000000000E+00  0.00000000000E+00 -0.21716012778E+04  0.21716012778E+04  0.25500000920E-02 0. -1.
    10030    2    1    2    0    0  0.00000000000E+00  0.00000000000E+00 -0.92020333311E+03  0.34229992224E+04  0.32969909770E+04 0.  0.
        5    1    3    3  502    0 -0.80153329558E+03 -0.13817232307E+04 -0.37225714826E+02  0.15978180603E+04  0.46999998093E+01 0.  1.
       -5    1    3    3    0  502  0.80153329558E+03  0.13817232307E+04 -0.88297761828E+03  0.18251811621E+04  0.46999998093E+01 0. -1.
</event>
<event>
 5   0  0.2080828E-07  0.3284180E+04  0.7818609E-02  0.8166933E-01
        1   -1    0    0  501    0  0.00000000000E+00  0.00000000000E+00  0.23621909825E+04  0.23621909825E+04  0.50400001928E-02 0.  1.
       -1   -1    0    0    0  501  0.00000000000E+00  0.00000000000E+00 -0.11415077632E+04  0.11415077632E+04  0.50400001928E-02 0. -1.
    10030    2    1    2    0    0  0.00000000000E+00  0.00000000000E+00  0.12206832192E+04  0.35036987457E+04  0.32841798640E+04 0.  0.
        1    1    3    3  502    0 -0.70089588497E+03  0.98444168537E+02 -0.97042529560E+03  0.12011126301E+04  0.50400001928E-02 0. -1.
       -1    1    3    3    0  502  0.70089588497E+03 -0.98444168537E+02  0.21911085148E+04  0.23025861156E+04  0.50400001928E-02 0.  1.
</event>
<event>
 5   0  0.6351753E-07  0.3306614E+04  0.7818609E-02  0.8161215E-01
       -2   -1    0    0    0  501  0.00000000000E+00  0.00000000000E+00  0.12902124714E+04  0.12902124714E+04  0.25500000920E-02 0.  1.
        2   -1    0    0  501    0  0.00000000000E+00  0.00000000000E+00 -0.21185838337E+04  0.21185838337E+04  0.25500000920E-02 0. -1.
    10030    2    1    2    0    0  0.00000000000E+00  0.00000000000E+00 -0.82837136232E+03  0.34087963050E+04  0.33066135449E+04 0.  0.
        3    1    3    3  502    0 -0.12120132134E+04 -0.10685936598E+04 -0.53289045370E+02  0.16166966852E+04  0.10100000352E+00 0. -1.
       -3    1    3    3    0  502  0.12120132134E+04  0.10685936598E+04 -0.77508231695E+03  0.17920996199E+04  0.10100000352E+00 0.  1.
</event>
<event>
 5   0  0.6377741E-07  0.3301123E+04  0.7818609E-02  0.8162610E-01
       -2   -1    0    0    0  501  0.00000000000E+00  0.00000000000E+00  0.13308555429E+04  0.13308555429E+04  0.25500000920E-02 0. -1.
        2   -1    0    0  501    0  0.00000000000E+00  0.00000000000E+00 -0.20470688596E+04  0.20470688596E+04  0.25500000920E-02 0.  1.
    10030    2    1    2    0    0  0.00000000000E+00  0.00000000000E+00 -0.71621331671E+03  0.33779244025E+04  0.33011228020E+04 0.  0.
        1    1    3    3  502    0  0.42533756403E+03 -0.12219191508E+04 -0.14068185495E+04  0.19113181016E+04  0.50400001928E-02 0.  1.
       -1    1    3    3    0  502 -0.42533756403E+03  0.12219191508E+04  0.69060523275E+03  0.14666063009E+04  0.50400001928E-02 0. -1.
</event>
<event>
 5   0  0.6424183E-07  0.3291846E+04  0.7818609E-02  0.8164973E-01
       -2   -1    0    0    0  501  0.00000000000E+00  0.00000000000E+00  0.11764741356E+04  0.11764741356E+04  0.25500000920E-02 0. -1.
        2   -1    0    0  501    0  0.00000000000E+00  0.00000000000E+00 -0.23026960628E+04  0.23026960628E+04  0.25500000920E-02 0.  1.
    10030    2    1    2    0    0  0.00000000000E+00  0.00000000000E+00 -0.11262219272E+04  0.34791701984E+04  0.32918459016E+04 0.  0.
        2    1    3    3  502    0 -0.12333666825E+04  0.86568347150E+03 -0.12629557300E+04  0.19661277736E+04  0.25500000920E-02 0.  1.
       -2    1    3    3    0  502  0.12333666825E+04 -0.86568347150E+03  0.13673380280E+03  0.15130424248E+04  0.25500000920E-02 0. -1.
</event>
<event>
 5   0  0.2057130E-07  0.3288677E+04  0.7818609E-02  0.8165782E-01
       -1   -1    0    0    0  501  0.00000000000E+00  0.00000000000E+00  0.13205724186E+04  0.13205724186E+04  0.50400001928E-02 0.  1.
        1   -1    0    0  501    0  0.00000000000E+00  0.00000000000E+00 -0.20474828219E+04  0.20474828219E+04  0.50400001928E-02 0. -1.
    10030    2    1    2    0    0  0.00000000000E+00  0.00000000000E+00 -0.72691040336E+03  0.33680552405E+04  0.32886771457E+04 0.  0.
        2    1    3    3  502    0 -0.11884519572E+04  0.52653569000E+02  0.79913578758E+03  0.14331114611E+04  0.25500000920E-02 0.  1.
       -2    1    3    3    0  502  0.11884519572E+04 -0.52653569000E+02 -0.15260461909E+04  0.19349437795E+04  0.25500000920E-02 0. -1.
</event>
<event>
 5   0  0.2080770E-07  0.3253749E+04  0.7818609E-02  0.8174765E-01
       -1   -1    0    0    0  501  0.00000000000E+00  0.00000000000E+00  0.15275515665E+04  0.15275515665E+04  0.50400001928E-02 0.  1.
        1   -1    0    0  501    0  0.00000000000E+00  0.00000000000E+00 -0.17326550801E+04  0.17326550801E+04  0.50400001928E-02 0. -1.
    10030    2    1    2    0    0  0.00000000000E+00  0.00000000000E+00 -0.20510351362E+03  0.32602066466E+04  0.32537485962E+04 0.  0.
        4    1    3    3  502    0 -0.13230784880E+04  0.42105002988E+03  0.74700997268E+03  0.15766563751E+04  0.12699999809E+01 0.  1.
       -4    1    3    3    0  502  0.13230784880E+04 -0.42105002988E+03 -0.95211348630E+03  0.16835502715E+04  0.12699999809E+01 0. -1.
</event>
<event>
 5   0  0.6258718E-07  0.3335990E+04  0.7818609E-02  0.8153798E-01
        2   -1    0    0  501    0  0.00000000000E+00  0.00000000000E+00  0.15005997506E+04  0.15005997506E+04  0.25500000920E-02 0. -1.
       -2   -1    0    0    0  501  0.00000000000E+00  0.00000000000E+00 -0.18540634110E+04  0.18540634110E+04  0.25500000920E-02 0.  1.
    10030    2    1    2    0    0  0.00000000000E+00  0.00000000000E+00 -0.35346366044E+03  0.33546631616E+04  0.33359898634E+04 0.  0.
        5    1    3    3  502    0 -0.94762529241E+03 -0.53059011254E+03  0.10963186738E+04  0.15431967752E+04  0.46999998093E+01 0. -1.
       -5    1    3    3    0  502  0.94762529241E+03  0.53059011254E+03 -0.14497823343E+04  0.18114663864E+04  0.46999998093E+01 0.  1.
</event>
<event>
 5   0  0.2057130E-07  0.3310543E+04  0.7818609E-02  0.8160218E-01
        1   -1    0    0  501    0  0.00000000000E+00  0.00000000000E+00  0.20973390851E+04  0.20973390852E+04  0.50400001928E-02 0. -1.
       -1   -1    0    0    0  501  0.00000000000E+00  0.00000000000E+00 -0.13063805188E+04  0.13063805188E+04  0.50400001928E-02 0.  1.
    10030    2    1    2    0    0  0.00000000000E+00  0.00000000000E+00  0.79095856631E+03  0.34037196040E+04  0.33105425068E+04 0.  0.
        2    1    3    3  502    0  0.33557405281E+03  0.94444310277E+03 -0.95892064369E+03  0.13871234697E+04  0.25500000920E-02 0.  1.
       -2    1    3    3    0  502 -0.33557405281E+03 -0.94444310277E+03  0.17498792100E+04  0.20165961343E+04  0.25500000920E-02 0. -1.
</event>
<event>
 5   0  0.2087665E-07  0.3301039E+04  0.7818609E-02  0.8162631E-01
        1   -1    0    0  501    0  0.00000000000E+00  0.00000000000E+00  0.27137267176E+04  0.27137267176E+04  0.50400001928E-02 0.  1.
       -1   -1    0    0    0  501  0.00000000000E+00  0.00000000000E+00 -0.10038647025E+04  0.10038647025E+04  0.50400001928E-02 0. -1.
    10030    2    1    2    0    0  0.00000000000E+00  0.00000000000E+00  0.17098620151E+04  0.37175914201E+04  0.33010389056E+04 0.  0.
        5    1    3    3  502    0  0.19846048057E+03 -0.16233446902E+04  0.11056384051E+04  0.19741055996E+04  0.46999998093E+01 0.  1.
       -5    1    3    3    0  502 -0.19846048057E+03  0.16233446902E+04  0.60422360993E+03  0.17434858205E+04  0.46999998093E+01 0. -1.
</event>
<event>
 5   0  0.2080770E-07  0.3301729E+04  0.7818609E-02  0.8162456E-01
        1   -1    0    0  501    0  0.00000000000E+00  0.00000000000E+00  0.17054039750E+04  0.17054039750E+04  0.50400001928E-02 0. -1.
       -1   -1    0    0    0  501  0.00000000000E+00  0.00000000000E+00 -0.15980695171E+04  0.15980695171E+04  0.50400001928E-02 0.  1.
    10030    2    1    2    0    0  0.00000000000E+00  0.00000000000E+00  0.10733445794E+03  0.33034734921E+04  0.33017293086E+04 0.  0.
        4    1    3    3  502    0 -0.11753390484E+04  0.72374039361E+03  0.95975617436E+03  0.16811768387E+04  0.12699999809E+01 0. -1.
       -4    1    3    3    0  502  0.11753390484E+04 -0.72374039361E+03 -0.85242171642E+03  0.16222966534E+04  0.12699999809E+01 0.  1.
</event>
<event>
 5   0  0.2037333E-07  0.3295467E+04  0.7818609E-02  0.8164050E-01
       -1   -1    0    0    0  501  0.00000000000E+00  0.00000000000E+00  0.11335785458E+04  0.11335785458E+04  0.50400001928E-02 0.  1.
        1   -1    0    0  501    0  0.00000000000E+00  0.00000000000E+00 -0.23950920479E+04  0.23950920479E+04  0.50400001928E-02 0. -1.
    10030    2    1    2    0    0  0.00000000000E+00  0.00000000000E+00 -0.12615135021E+04  0.35286705937E+04  0.32954665592E+04 0.  0.
        3    1    3    3  502    0 -0.12810246178E+04  0.27676112168E+02 -0.17400378295E+04  0.21609076095E+04  0.10100000352E+00 0. -1.
       -3    1    3    3    0  502  0.12810246178E+04 -0.27676112168E+02  0.47852432744E+03  0.13677629841E+04  0.10100000352E+00 0.  1.
</event>
<event>
 5   0  0.2087665E-07  0.3268786E+04  0.7818609E-02  0.8170884E-01
       -1   -1    0    0    0  501  0.00000000000E+00  0.00000000000E+00  0.20511413028E+04  0.20511413028E+04  0.50400001928E-02 0.  1.
        1   -1    0    0  501    0  0.00000000000E+00  0.00000000000E+00 -0.13023190700E+04  0.13023190700E+04  0.50400001928E-02 0. -1.
    10030    2    1    2    0    0  0.00000000000E+00  0.00000000000E+00  0.74882223279E+03  0.33534603727E+04  0.32687859727E+04 0.  0.
        5    1    3    3  502    0  0.98403435068E+03 -0.60390686858E+03 -0.81235676348E+03  0.14117268540E+04  0.46999998093E+01 0. -1.
       -5    1    3    3    0  502 -0.98403435068E+03  0.60390686858E+03  0.15611789963E+04  0.19417335187E+04  0.46999998093E+01 0.  1.
</event>
<event>
 5   0  0.2080828E-07  0.3291936E+04  0.7818609E-02  0.8164950E-01
       -1   -1    0    0    0  501  0.00000000000E+00  0.00000000000E+00  0.13704491114E+04  0.13704491115E+04  0.50400001928E-02 0.  1.
        1   -1    0    0  501    0  0.00000000000E+00  0.00000000000E+00 -0.19768775250E+04  0.19768775251E+04  0.50400001928E-02 0. -1.
    10030    2    1    2    0    0  0.00000000000E+00  0.00000000000E+00 -0.60642841360E+03  0.33473266365E+04  0.32919356298E+04 0.  0.
        1    1    3    3  502    0  0.26636938462E+03  0.33518201515E+02  0.13480358750E+04  0.13745096723E+04  0.50400001928E-02 0.  1.
       -1    1    3    3    0  502 -0.26636938462E+03 -0.33518201515E+02 -0.19544642886E+04  0.19728169642E+04  0.50400001928E-02 0. -1.
</event>
<event>
 5   0  0.6377741E-07  0.3241215E+04  0.7818609E-02  0.8178016E-01
        2   -1    0    0  501    0  0.00000000000E+00  0.00000000000E+00  0.18877145777E+04  0.18877145777E+04  0.25500000920E-02 0.  1.
       -2   -1    0    0    0  501  0.00000000000E+00  0.00000000000E+00 -0.13912952175E+04  0.13912952175E+04  0.25500000920E-02 0. -1.
    10030    2    1    2    0    0  0.00000000000E+00  0.00000000000E+00  0.49641936026E+03  0.32790097952E+04  0.32412147501E+04 0.  0.
        1    1    3    3  502    0 -0.86699740667E+03  0.10885797163E+04 -0.59194273819E+03  0.15123116435E+04  0.50400001928E-02 0. -1.
       -1    1    3    3    0  502  0.86699740667E+03 -0.10885797163E+04  0.10883620984E+04  0.17666981517E+04  0.50400001928E-02 0.  1.
</event>
<event>
 5   0  0.2080828E-07  0.3306788E+04  0.7818609E-02  0.8161170E-01
       -1   -1    0    0    0  501  0.00000000000E+00  0.00000000000E+00  0.16947256222E+04  0.16947256222E+04  0.50400001928E-02 0.  1.
        1   -1    0    0  501    0  0.00000000000E+00  0.00000000000E+00 -0.16130705384E+04  0.16130705384E+04  0.50400001928E-02 0. -1.
    10030    2    1    2    0    0  0.00000000000E+00  0.00000000000E+00  0.81655083725E+02  0.33077961606E+04  0.33067881528E+04 0.  0.
        1    1    3    3  502    0  0.39878983341E+03  0.15135033700E+04  0.57389353317E+03  0.16670571584E+04  0.50400001928E-02 0.  1.
       -1    1    3    3    0  502 -0.39878983341E+03 -0.15135033700E+04 -0.49223844945E+03  0.16407390022E+04  0.50400001928E-02 0. -1.
</event>
<event>
 5   0  0.6377741E-07  0.3290272E+04  0.7818609E-02  0.8165375E-01
        2   -1    0    0  501    0  0.00000000000E+00  0.00000000000E+00  0.19235555841E+04  0.19235555841E+04  0.25500000920E-02 0.  1.
       -2   -1    0    0    0  501  0.00000000000E+00  0.00000000000E+00 -0.14070152554E+04  0.14070152554E+04  0.25500000920E-02 0. -1.
    10030    2    1    2    0    0  0.00000000000E+00  0.00000000000E+00  0.51654032871E+03  0.33305708396E+04  0.32902717526E+04 0.  0.
        1    1    3    3  502    0 -0.10760754644E+04 -0.40387868580E+03 -0.93318293540E+03  0.14805022083E+04  0.50400001928E-02 0. -1.
       -1    1    3    3    0  502  0.10760754644E+04  0.40387868580E+03  0.14497232641E+04  0.18500686313E+04  0.50400001928E-02 0.  1.
</event>
<event>
 5   0  0.6258718E-07  0.3287042E+04  0.7818609E-02  0.8166200E-01
       -2   -1    0    0    0  501  0.00000000000E+00  0.00000000000E+00  0.12189632554E+04  0.12189632554E+04  0.25500000920E-02 0. -1.
        2   -1    0    0  501    0  0.00000000000E+00  0.00000000000E+00 -0.22159496679E+04  0.22159496679E+04  0.25500000920E-02 0.  1.
    10030    2    1    2    0    0  0.00000000000E+00  0.00000000000E+00 -0.99698641253E+03  0.34349129233E+04  0.32870419657E+04 0.  0.
        5    1    3    3  502    0 -0.40398349233E+03 -0.11685860011E+04  0.63296332204E+03  0.13890502370E+04  0.46999998093E+01 0. -1.
       -5    1    3    3    0  502  0.40398349233E+03  0.11685860011E+04 -0.16299497346E+04  0.20458626863E+04  0.46999998093E+01 0.  1.
</event>
<event>
 5   0  0.2057130E-07  0.3305303E+04  0.7818609E-02  0.8161547E-01
        1   -1    0    0  501    0  0.00000000000E+00  0.00000000000E+00  0.28748372203E+04  0.28748372203E+04  0.50400001928E-02 0. -1.
       -1   -1    0    0    0  501  0.00000000000E+00  0.00000000000E+00 -0.95005593952E+03  0.95005593953E+03  0.50400001928E-02 0.  1.
    10030    2    1    2    0    0  0.00000000000E+00  0.00000000000E+00  0.19247812808E+04  0.38248931598E+04  0.33053025134E+04 0.  0.
        2    1    3    3  502    0  0.21066961505E+03 -0.13667285014E+04 -0.84812349557E+02  0.13854680140E+04  0.25500000920E-02 0.  1.
       -2    1    3    3    0  502 -0.21066961505E+03  0.13667285014E+04  0.20095936303E+04  0.24394251458E+04  0.25500000920E-02 0. -1.
</event>
<event>
 5   0  0.2080828E-07  0.3289857E+04  0.7818609E-02  0.8165481E-01
        1   -1    0    0  501    0  0.00000000000E+00  0.00000000000E+00  0.18685472744E+04  0.18685472744E+04  0.50400001928E-02 0.  1.
       -1   -1    0    0    0  501  0.00000000000E+00  0.00000000000E+00 -0.14480715619E+04  0.14480715619E+04  0.50400001928E-02 0. -1.
    10030    2    1    2    0    0  0.00000000000E+00  0.00000000000E+00  0.42047571247E+03  0.33166188363E+04  0.32898572432E+04 0.  0.
        1    1    3    3  502    0 -0.31588386879E+03 -0.62349442962E+03 -0.12909223426E+04  0.14679946924E+04  0.50400001928E-02 0. -1.
       -1    1    3    3    0  502  0.31588386879E+03  0.62349442962E+03  0.17113980551E+04  0.18486241439E+04  0.50400001928E-02 0.  1.
</event>
<event>
 5   0  0.6424183E-07  0.3302842E+04  0.7818609E-02  0.8162173E-01
        2   -1    0    0  501    0  0.00000000000E+00  0.00000000000E+00  0.21888755766E+04  0.21888755766E+04  0.25500000920E-02 0. -1.
       -2   -1    0    0    0  501  0.00000000000E+00  0.00000000000E+00 -0.12459325838E+04  0.12459325838E+04  0.25500000920E-02 0.  1.
    10030    2    1    2    0    0  0.00000000000E+00  0.00000000000E+00  0.94294299277E+03  0.34348081604E+04  0.33028420506E+04 0.  0.
        2    1    3    3  502    0  0.13155629868E+04 -0.95546083495E+03  0.17081823111E+03  0.16348670428E+04  0.25500000920E-02 0. -1.
       -2    1    3    3    0  502 -0.13155629868E+04  0.95546083495E+03  0.77212476167E+03  0.17999411177E+04  0.25500000920E-02 0.  1.
</event>
<event>
 5   0  0.2037333E-07  0.3304120E+04  0.7818609E-02  0.8161848E-01
        1   -1    0    0  501    0  0.00000000000E+00  0.00000000000E+00  0.19851365327E+04  0.19851365327E+04  0.50400001928E-02 0. -1.
       -1   -1    0    0    0  501  0.00000000000E+00  0.00000000000E+00 -0.13748684411E+04  0.13748684412E+04  0.50400001928E-02 0.  1.
    10030    2    1    2    0    0  0.00000000000E+00  0.00000000000E+00  0.61026809151E+03  0.33600049738E+04  0.33041195924E+04 0.  0.
        3    1    3    3  502    0  0.62654019940E+03  0.14682800487E+04  0.73765446077E+03  0.17585599326E+04  0.10100000352E+00 0. -1.
       -3    1    3    3    0  502 -0.62654019940E+03 -0.14682800487E+04 -0.12738636926E+03  0.16014450412E+04  0.10100000352E+00 0.  1.
</event>
<event>
 5   0  0.2037333E-07  0.3299413E+04  0.7818609E-02  0.8163045E-01
        1   -1    0    0  501    0  0.00000000000E+00  0.00000000000E+00  0.18903786802E+04  0.18903786802E+04  0.50400001928E-02 0. -1.
       -1   -1    0    0    0  501  0.00000000000E+00  0.00000000000E+00 -0.14396750087E+04  0.14396750087E+04  0.50400001928E-02 0.  1.
    10030    2    1    2    0    0  0.00000000000E+00  0.00000000000E+00  0.45070367152E+03  0.33300536889E+04  0.32994126403E+04 0.  0.
        3    1    3    3  502    0 -0.90194686318E+02 -0.33266009102E+03  0.18536330803E+04  0.18854053740E+04  0.10100000352E+00 0. -1.
       -3    1    3    3    0  502  0.90194686318E+02  0.33266009102E+03 -0.14029294088E+04  0.14446483149E+04  0.10100000352E+00 0.  1.
</event>
<event>
 5   0  0.6424183E-07  0.3223545E+04  0.7818609E-02  0.8182627E-01
        2   -1    0    0  501    0  0.00000000000E+00  0.00000000000E+00  0.27112416996E+04  0.27112416996E+04  0.25500000920E-02 0. -1.
       -2   -1    0    0    0  501  0.00000000000E+00  0.00000000000E+00 -0.95816266524E+03  0.95816266524E+03  0.25500000920E-02 0.  1.
    10030    2    1    2    0    0  0.00000000000E+00  0.00000000000E+00  0.17530790344E+04  0.36694043649E+04  0.32235449884E+04 0.  0.
        2    1    3    3  502    0 -0.88012765869E+03 -0.49249993351E+03 -0.55458329879E+03  0.11509750281E+04  0.25500000920E-02 0.  1.
       -2    1    3    3    0  502  0.88012765869E+03  0.49249993351E+03  0.23076623332E+04  0.25184293367E+04  0.25500000920E-02 0. -1.
</event>
<event>
 5   0  0.2087665E-07  0.3300757E+04  0.7818609E-02  0.8162703E-01
       -1   -1    0    0    0  501  0.00000000000E+00  0.00000000000E+00  0.14553726672E+04  0.14553726672E+04  0.50400001928E-02 0.  1.
        1   -1    0    0  501    0  0.00000000000E+00  0.00000000000E+00 -0.18715136257E+04  0.18715136257E+04  0.50400001928E-02 0. -1.
    10030    2    1    2    0    0  0.00000000000E+00  0.00000000000E+00 -0.41614095852E+03  0.33268862929E+04  0.33007573538E+04 0.  0.
        5    1    3    3  502    0  0.11824566531E+04 -0.86512565820E+03  0.55760184863E+03  0.15676696248E+04  0.46999998093E+01 0.  1.
       -5    1    3    3    0  502 -0.11824566531E+04  0.86512565820E+03 -0.97374280715E+03  0.17592166681E+04  0.46999998093E+01 0. -1.
</event>
<event>
 5   0  0.6351753E-07  0.3297707E+04  0.7818609E-02  0.8163479E-01
        2   -1    0    0  501    0  0.00000000000E+00  0.00000000000E+00  0.29675275469E+04  0.29675275469E+04  0.25500000920E-02 0. -1.
       -2   -1    0    0    0  501  0.00000000000E+00  0.00000000000E+00 -0.91615577538E+03  0.91615577538E+03  0.25500000920E-02 0.  1.
    10030    2    1    2    0    0  0.00000000000E+00  0.00000000000E+00  0.20513717715E+04  0.38836833223E+04  0.32977067794E+04 0.  0.
        3    1    3    3  502    0  0.46104692230E+03 -0.14351296051E+04  0.23869472339E+03  0.15261508540E+04  0.10100000352E+00 0.  1.
       -3    1    3    3    0  502 -0.46104692230E+03  0.14351296051E+04  0.18126770482E+04  0.23575324683E+04  0.10100000352E+00 0. -1.
</event>
<event>
 5   0  0.6351753E-07  0.3302969E+04  0.7818609E-02  0.8162140E-01
        2   -1    0    0  501    0  0.00000000000E+00  0.00000000000E+00  0.20419306041E+04  0.20419306041E+04  0.25500000920E-02 0. -1.
       -2   -1    0    0    0  501  0.00000000000E+00  0.00000000000E+00 -0.13356972326E+04  0.13356972326E+04  0.25500000920E-02 0.  1.
    10030    2    1    2    0    0  0.00000000000E+00  0.00000000000E+00  0.70623337158E+03  0.33776278367E+04  0.33029690020E+04 0.  0.
        3    1    3    3  502    0  0.10991091717E+04 -0.94874379232E+03  0.11578253068E+04  0.18570716750E+04  0.10100000352E+00 0. -1.
       -3    1    3    3    0  502 -0.10991091717E+04  0.94874379232E+03 -0.45159193525E+03  0.15205561617E+04  0.10100000352E+00 0.  1.
</event>
<event>
 5   0  0.6424183E-07  0.3304304E+04  0.7818609E-02  0.8161801E-01
       -2   -1    0    0    0  501  0.00000000000E+00  0.00000000000E+00  0.23489288402E+04  0.23489288402E+04  0.25500000920E-02 0.  1.
        2   -1    0    0  501    0  0.00000000000E+00  0.00000000000E+00 -0.11620642497E+04  0.11620642497E+04  0.25500000920E-02 0. -1.
    10030    2    1    2    0    0  0.00000000000E+00  0.00000000000E+00  0.11868645905E+04  0.35109930899E+04  0.33043039995E+04 0.  0.
        2    1    3    3  502    0 -0.56488658526E+03 -0.27734345369E+03  0.22165957452E+04  0.23041946409E+04  0.25500000920E-02 0.  1.
       -2    1    3    3    0  502  0.56488658526E+03  0.27734345369E+03 -0.10297311547E+04  0.12067984490E+04  0.25500000920E-02 0. -1.
</event>
<event>
 5   0  0.2080770E-07  0.3305570E+04  0.7818609E-02  0.8161479E-01
        1   -1    0    0  501    0  0.00000000000E+00  0.00000000000E+00  0.16440007822E+04  0.16440007822E+04  0.50400001928E-02 0.  1.
       -1   -1    0    0    0  501  0.00000000000E+00  0.00000000000E+00 -0.16616166538E+04  0.16616166539E+04  0.50400001928E-02 0. -1.
    10030    2    1    2    0    0  0.00000000000E+00  0.00000000000E+00 -0.17615871636E+02  0.33056174361E+04  0.33055704976E+04 0.  0.
        4    1    3    3  502    0 -0.52757741579E+03 -0.15609266234E+04 -0.13868515322E+03  0.16535008430E+04  0.12699999809E+01 0.  1.
       -4    1    3    3    0  502  0.52757741579E+03  0.15609266234E+04  0.12106928159E+03  0.16521165931E+04  0.12699999809E+01 0. -1.
</event>
<event>
 5   0  0.6377741E-07  0.3310968E+04  0.7818609E-02  0.8160110E-01
       -2   -1    0    0    0  501  0.00000000000E+00  0.00000000000E+00  0.11288675178E+04  0.11288675178E+04  0.25500000920E-02 0. -1.
        2   -1    0    0  501    0  0.00000000000E+00  0.00000000000E+00 -0.24277671800E+04  0.24277671800E+04  0.25500000920E-02 0.  1.
    10030    2    1    2    0    0  0.00000000000E+00  0.00000000000E+00 -0.12988996622E+04  0.35566346978E+04  0.33109681426E+04 0.  0.
        1    1    3    3  502    0  0.45583812974E+03  0.49519968861E+03 -0.22741598462E+04  0.23716690617E+04  0.50400001928E-02 0.  1.
       -1    1    3    3    0  502 -0.45583812974E+03 -0.49519968861E+03  0.97526018403E+03  0.11849656361E+04  0.50400001928E-02 0. -1.
</event>
<event>
 5   0  0.6424183E-07  0.3290441E+04  0.7818609E-02  0.8165332E-01
       -2   -1    0    0    0  501  0.00000000000E+00  0.00000000000E+00  0.11255535905E+04  0.11255535905E+04  0.25500000920E-02 0. -1.
        2   -1    0    0  501    0  0.00000000000E+00  0.00000000000E+00 -0.24048178007E+04  0.24048178007E+04  0.25500000920E-02 0.  1.
    10030    2    1    2    0    0  0.00000000000E+00  0.00000000000E+00 -0.12792642101E+04  0.35303713912E+04  0.32904414963E+04 0.  0.
        2    1    3    3  502    0  0.78272807906E+03 -0.12384429065E+04  0.16351451669E+03  0.14741577513E+04  0.25500000920E-02 0. -1.
       -2    1    3    3    0  502 -0.78272807906E+03  0.12384429065E+04 -0.14427787268E+04  0.20562136399E+04  0.25500000920E-02 0.  1.
</event>
<event>
 5   0  0.6377741E-07  0.3287992E+04  0.7818609E-02  0.8165958E-01
        2   -1    0    0  501    0  0.00000000000E+00  0.00000000000E+00  0.20118438848E+04  0.20118438848E+04  0.25500000920E-02 0.  1.
       -2   -1    0    0    0  501  0.00000000000E+00  0.00000000000E+00 -0.13434058035E+04  0.13434058035E+04  0.25500000920E-02 0. -1.
    10030    2    1    2    0    0  0.00000000000E+00  0.00000000000E+00  0.66843808126E+03  0.33552496883E+04  0.32879919407E+04 0.  0.
        1    1    3    3  502    0  0.12963827503E+04  0.22099531204E+03 -0.67250865249E+03  0.14770629814E+04  0.50400001928E-02 0. -1.
       -1    1    3    3    0  502 -0.12963827503E+04 -0.22099531204E+03  0.13409467338E+04  0.18781867069E+04  0.50400001928E-02 0.  1.
</event>
<event>
 5   0  0.6351753E-07  0.3293699E+04  0.7818609E-02  0.8164501E-01
        2   -1    0    0  501    0  0.00000000000E+00  0.00000000000E+00  0.22555530446E+04  0.22555530446E+04  0.25500000920E-02 0.  1.
       -2   -1    0    0    0  501  0.00000000000E+00  0.00000000000E+00 -0.12024157790E+04  0.12024157790E+04  0.25500000920E-02 0. -1.
    10030    2    1    2    0    0  0.00000000000E+00  0.00000000000E+00  0.10531372656E+04  0.34579688236E+04  0.32936985723E+04 0.  0.
        3    1    3    3  502    0  0.19413764888E+02  0.30412951705E+03 -0.11725548576E+04  0.12115100337E+04  0.10100000352E+00 0. -1.
       -3    1    3    3    0  502 -0.19413764888E+02 -0.30412951705E+03  0.22256921232E+04  0.22464587899E+04  0.10100000352E+00 0.  1.
</event>
<event>
 5   0  0.2057130E-07  0.3285854E+04  0.7818609E-02  0.8166504E-01
        1   -1    0    0  501    0  0.00000000000E+00  0.00000000000E+00  0.31747717545E+04  0.31747717545E+04  0.50400001928E-02 0. -1.
       -1   -1    0    0    0  501  0.00000000000E+00  0.00000000000E+00 -0.85020566746E+03  0.85020566748E+03  0.50400001928E-02 0.  1.
    10030    2    1    2    0    0  0.00000000000E+00  0.00000000000E+00  0.23245660870E+04  0.40249774219E+04  0.32858538851E+04 0.  0.
        2    1    3    3  502    0  0.51564085530E+03 -0.39804212344E+03 -0.68526190069E+03  0.94546649662E+03  0.25500000920E-02 0.  1.
       -2    1    3    3    0  502 -0.51564085530E+03  0.39804212344E+03  0.30098279877E+04  0.30795109253E+04  0.25500000920E-02 0. -1.
</event>
<event>
 5   0  0.6351753E-07  0.3300948E+04  0.7818609E-02  0.8162654E-01
        2   -1    0    0  501    0  0.00000000000E+00  0.00000000000E+00  0.25580461057E+04  0.25580461057E+04  0.25500000920E-02 0.  1.
       -2   -1    0    0    0  501  0.00000000000E+00  0.00000000000E+00 -0.10649004059E+04  0.10649004059E+04  0.25500000920E-02 0. -1.
    10030    2    1    2    0    0  0.00000000000E+00  0.00000000000E+00  0.14931456998E+04  0.36229465116E+04  0.33009479464E+04 0.  0.
        3    1    3    3  502    0 -0.91815845030E+03  0.12173925369E+04  0.14398586500E+04  0.20972011041E+04  0.10100000352E+00 0.  1.
       -3    1    3    3    0  502  0.91815845030E+03 -0.12173925369E+04  0.53287049754E+02  0.15257454075E+04  0.10100000352E+00 0. -1.
</event>
<event>
 5   0  0.6426079E-07  0.3296930E+04  0.7818609E-02  0.8163677E-01
       -2   -1    0    0    0  501  0.00000000000E+00  0.00000000000E+00  0.92455183672E+03  0.92455183672E+03  0.25500000920E-02 0.  1.
        2   -1    0    0  501    0  0.00000000000E+00  0.00000000000E+00 -0.29391938406E+04  0.29391938406E+04  0.25500000920E-02 0. -1.
    10030    2    1    2    0    0  0.00000000000E+00  0.00000000000E+00 -0.20146420039E+04  0.38637456774E+04  0.32969301259E+04 0.  0.
        4    1    3    3  502    0 -0.13036653360E+04 -0.26322489354E+03  0.13408840576E+03  0.13367168609E+04  0.12699999809E+01 0.  1.
       -4    1    3    3    0  502  0.13036653360E+04  0.26322489354E+03 -0.21487304097E+04  0.25270288164E+04  0.12699999809E+01 0. -1.
</event>
<event>
 5   0  0.2080828E-07  0.3293449E+04  0.7818609E-02  0.8164564E-01
       -1   -1    0    0    0  501  0.00000000000E+00  0.00000000000E+00  0.24177887695E+04  0.24177887696E+04  0.50400001928E-02 0. -1.
        1   -1    0    0  501    0  0.00000000000E+00  0.00000000000E+00 -0.11215629695E+04  0.11215629696E+04  0.50400001928E-02 0.  1.
    10030    2    1    2    0    0  0.00000000000E+00  0.00000000000E+00  0.12962258000E+04  0.35393517391E+04  0.32934494696E+04 0.  0.
        1    1    3    3  502    0  0.14020514283E+04  0.62654114791E+03  0.12869736372E+04  0.20036474641E+04  0.50400001928E-02 0. -1.
       -1    1    3    3    0  502 -0.14020514283E+04 -0.62654114791E+03  0.92521627872E+01  0.15357042750E+04  0.50400001928E-02 0.  1.
</event>
<event>
 5   0  0.2057130E-07  0.3300308E+04  0.7818609E-02  0.8162817E-01
       -1   -1    0    0    0  501  0.00000000000E+00  0.00000000000E+00  0.12705904856E+04  0.12705904857E+04  0.50400001928E-02 0. -1.
        1   -1    0    0  501    0  0.00000000000E+00  0.00000000000E+00 -0.21431039865E+04  0.21431039865E+04  0.50400001928E-02 0.  1.
    10030    2    1    2    0    0  0.00000000000E+00  0.00000000000E+00 -0.87251350084E+03  0.34136944722E+04  0.33003075826E+04 0.  0.
        2    1    3    3  502    0 -0.14037718449E+04 -0.17847500171E+02  0.46078355138E+03  0.14775707790E+04  0.25500000920E-02 0. -1.
       -2    1    3    3    0  502  0.14037718449E+04  0.17847500171E+02 -0.13332970522E+04  0.19361236932E+04  0.25500000920E-02 0.  1.
</event>
<event>
 5   0  0.2087665E-07  0.3307073E+04  0.7818609E-02  0.8161098E-01
        1   -1    0    0  501    0  0.00000000000E+00  0.00000000000E+00  0.20239247781E+04  0.20239247781E+04  0.50400001928E-02 0. -1.
       -1   -1    0    0    0  501  0.00000000000E+00  0.00000000000E+00 -0.13509313525E+04  0.13509313525E+04  0.50400001928E-02 0.  1.
    10030    2    1    2    0    0  0.00000000000E+00  0.00000000000E+00  0.67299342562E+03  0.33748561306E+04  0.33070732909E+04 0.  0.
        5    1    3    3  502    0 -0.83729776179E+03 -0.13487980118E+04  0.80840066110E+03  0.17815323004E+04  0.46999998093E+01 0. -1.
       -5    1    3    3    0  502  0.83729776179E+03  0.13487980118E+04 -0.13540723548E+03  0.15933238302E+04  0.46999998093E+01 0.  1.
</event>
<event>
 5   0  0.2037333E-07  0.3297131E+04  0.7818609E-02  0.8163626E-01
       -1   -1    0    0    0  501  0.00000000000E+00  0.00000000000E+00  0.13752592587E+04  0.13752592587E+04  0.50400001928E-02 0. -1.
        1   -1    0    0  501    0  0.00000000000E+00  0.00000000000E+00 -0.19761865955E+04  0.19761865955E+04  0.50400001928E-02 0.  1.
    10030    2    1    2    0    0  0.00000000000E+00  0.00000000000E+00 -0.60092733680E+03  0.33514458541E+04  0.32971314273E+04 0.  0.
        3    1    3    3  502    0 -0.29000343704E+03  0.12972543619E+03 -0.19447762713E+04  0.19705546016E+04  0.10100000352E+00 0.  1.
       -3    1    3    3    0  502  0.29000343704E+03 -0.12972543619E+03  0.13438489345E+04  0.13808912525E+04  0.10100000352E+00 0. -1.
</event>
<event>
 5   0  0.6426079E-07  0.3302746E+04  0.7818609E-02  0.8162197E-01
       -2   -1    0    0    0  501  0.00000000000E+00  0.00000000000E+00  0.19834738284E+04  0.19834738284E+04  0.25500000920E-02 0.  1.
        2   -1    0    0  501    0  0.00000000000E+00  0.00000000000E+00 -0.13748771450E+04  0.13748771450E+04  0.25500000920E-02 0. -1.
    10030    2    1    2    0    0  0.00000000000E+00  0.00000000000E+00  0.60859668348E+03  0.33583509734E+04  0.33027460298E+04 0.  0.
        4    1    3    3  502    0 -0.24472777994E+03  0.57394510734E+03 -0.12504058039E+04  0.13974337050E+04  0.12699999809E+01 0. -1.
       -4    1    3    3    0  502  0.24472777994E+03 -0.57394510734E+03  0.18590024874E+04  0.19609172684E+04  0.12699999809E+01 0.  1.
</event>
<event>
 5   0  0.2080828E-07  0.3301450E+04  0.7818609E-02  0.8162527E-01
       -1   -1    0    0    0  501  0.00000000000E+00  0.00000000000E+00  0.19411719647E+04  0.19411719647E+04  0.50400001928E-02 0.  1.
        1   -1    0    0  501    0  0.00000000000E+00  0.00000000000E+00 -0.14037360664E+04  0.14037360664E+04  0.50400001928E-02 0. -1.
    10030    2    1    2    0    0  0.00000000000E+00  0.00000000000E+00  0.53743589824E+03  0.33449080311E+04  0.33014500438E+04 0.  0.
        1    1    3    3  502    0 -0.11238238565E+04  0.12059454147E+04  0.35709398519E+03  0.16866536449E+04  0.50400001928E-02 0.  1.
       -1    1    3    3    0  502  0.11238238565E+04 -0.12059454147E+04  0.18034191304E+03  0.16582543862E+04  0.50400001928E-02 0. -1.
</event>
<event>
 5   0  0.6258718E-07  0.3303691E+04  0.7818609E-02  0.8161957E-01
       -2   -1    0    0    0  501  0.00000000000E+00  0.00000000000E+00  0.17514990670E+04  0.17514990670E+04  0.25500000920E-02 0.  1.
        2   -1    0    0  501    0  0.00000000000E+00  0.00000000000E+00 -0.15578614169E+04  0.15578614169E+04  0.25500000920E-02 0. -1.
    10030    2    1    2    0    0  0.00000000000E+00  0.00000000000E+00  0.19363765010E+03  0.33093604839E+04  0.33036905534E+04 0.  0.
        5    1    3    3  502    0 -0.46865713073E+03 -0.15838903246E+04  0.11176628346E+03  0.16555548492E+04  0.46999998093E+01 0. -1.
       -5    1    3    3    0  502  0.46865713073E+03  0.15838903246E+04  0.81871366638E+02  0.16538056347E+04  0.46999998093E+01 0.  1.
</event>
<event>
 5   0  0.6258718E-07  0.3292302E+04  0.7818609E-02  0.8164857E-01
        2   -1    0    0  501    0  0.00000000000E+00  0.00000000000E+00  0.11338066942E+04  0.11338066942E+04  0.25500000920E-02 0.  1.
       -2   -1    0    0    0  501  0.00000000000E+00  0.00000000000E+00 -0.23900132636E+04  0.23900132636E+04  0.25500000920E-02 0. -1.
    10030    2    1    2    0    0  0.00000000000E+00  0.00000000000E+00 -0.12562065694E+04  0.35238199578E+04  0.32923019531E+04 0.  0.
        5    1    3    3  502    0  0.12088380784E+04  0.79317864945E+03 -0.14704459740E+04  0.20621967224E+04  0.46999998093E+01 0.  1.
       -5    1    3    3    0  502 -0.12088380784E+04 -0.79317864945E+03  0.21423940461E+03  0.14616232354E+04  0.46999998093E+01 0. -1.
</event>
<event>
 5   0  0.6258718E-07  0.3302266E+04  0.7818609E-02  0.8162319E-01
        2   -1    0    0  501    0  0.00000000000E+00  0.00000000000E+00  0.14380192885E+04  0.14380192885E+04  0.25500000920E-02 0. -1.
       -2   -1    0    0    0  501  0.00000000000E+00  0.00000000000E+00 -0.18958302794E+04  0.18958302794E+04  0.25500000920E-02 0.  1.
    10030    2    1    2    0    0  0.00000000000E+00  0.00000000000E+00 -0.45781099090E+03  0.33338495680E+04  0.33022661974E+04 0.  0.
        5    1    3    3  502    0  0.55216571425E+03 -0.47726200851E+03  0.12663242528E+04  0.14615967994E+04  0.46999998093E+01 0. -1.
       -5    1    3    3    0  502 -0.55216571425E+03  0.47726200851E+03 -0.17241352437E+04  0.18722527686E+04  0.46999998093E+01 0.  1.
</event>
<event>
 5   0  0.6424183E-07  0.3304372E+04  0.7818609E-02  0.8161784E-01
        2   -1    0    0  501    0  0.00000000000E+00  0.00000000000E+00  0.24446839158E+04  0.24446839158E+04  0.25500000920E-02 0.  1.
       -2   -1    0    0    0  501  0.00000000000E+00  0.00000000000E+00 -0.11165933492E+04  0.11165933492E+04  0.25500000920E-02 0. -1.
    10030    2    1    2    0    0  0.00000000000E+00  0.00000000000E+00  0.13280905666E+04  0.35612772650E+04  0.33043715295E+04 0.  0.
        2    1    3    3  502    0 -0.11972209867E+04  0.65680186993E+03 -0.33831237637E+03  0.14068340525E+04  0.25500000920E-02 0. -1.
       -2    1    3    3    0  502  0.11972209867E+04 -0.65680186993E+03  0.16664029429E+04  0.21544432124E+04  0.25500000920E-02 0.  1.
</event>
<event>
 5   0  0.2080770E-07  0.3299483E+04  0.7818609E-02  0.8163027E-01
       -1   -1    0    0    0  501  0.00000000000E+00  0.00000000000E+00  0.18549797463E+04  0.18549797463E+04  0.50400001928E-02 0.  1.
        1   -1    0    0  501    0  0.00000000000E+00  0.00000000000E+00 -0.14672109010E+04  0.14672109010E+04  0.50400001928E-02 0. -1.
    10030    2    1    2    0    0  0.00000000000E+00  0.00000000000E+00  0.38776884523E+03  0.33221906473E+04  0.32994826897E+04 0.  0.
        4    1    3    3  502    0  0.10826297948E+04  0.86957189568E+03  0.10907460334E+04  0.17657777540E+04  0.12699999809E+01 0.  1.
       -4    1    3    3    0  502 -0.10826297948E+04 -0.86957189568E+03 -0.70297718812E+03  0.15564128933E+04  0.12699999809E+01 0. -1.
</event>
<event>
 5   0  0.6377741E-07  0.3313635E+04  0.7818609E-02  0.8159435E-01
       -2   -1    0    0    0  501  0.00000000000E+00  0.00000000000E+00  0.15292356548E+04  0.15292356548E+04  0.25500000920E-02 0.  1.
        2   -1    0    0  501    0  0.00000000000E+00  0.00000000000E+00 -0.17950434089E+04  0.17950434089E+04  0.25500000920E-02 0. -1.
    10030    2    1    2    0    0  0.00000000000E+00  0.00000000000E+00 -0.26580775415E+03  0.33242790637E+04  0.33136350933E+04 0.  0.
        1    1    3    3  502    0  0.14692806652E+03 -0.14413171020E+04 -0.93926528930E+03  0.17266158023E+04  0.50400001928E-02 0. -1.
       -1    1    3    3    0  502 -0.14692806652E+03  0.14413171020E+04  0.67345753515E+03  0.15976632614E+04  0.50400001928E-02 0.  1.
</event>
<event>
 5   0  0.6258718E-07  0.3302752E+04  0.7818609E-02  0.8162195E-01
       -2   -1    0    0    0  501  0.00000000000E+00  0.00000000000E+00  0.21791632672E+04  0.21791632672E+04  0.25500000920E-02 0. -1.
        2   -1    0    0  501    0  0.00000000000E+00  0.00000000000E+00 -0.12514174100E+04  0.12514174100E+04  0.25500000920E-02 0.  1.
    10030    2    1    2    0    0  0.00000000000E+00  0.00000000000E+00  0.92774585720E+03  0.34305806771E+04  0.33027520959E+04 0.  0.
        5    1    3    3  502    0 -0.11209941128E+04  0.11606473645E+04  0.82859054598E+03  0.18139224042E+04  0.46999998093E+01 0.  1.
       -5    1    3    3    0  502  0.11209941128E+04 -0.11606473645E+04  0.99155311219E+02  0.16166582729E+04  0.46999998093E+01 0. -1.
</event>
<event>
 5   0  0.6426079E-07  0.3284067E+04  0.7818609E-02  0.8166961E-01
       -2   -1    0    0    0  501  0.00000000000E+00  0.00000000000E+00  0.17784253636E+04  0.17784253636E+04  0.25500000920E-02 0.  1.
        2   -1    0    0  501    0  0.00000000000E+00  0.00000000000E+00 -0.15161021051E+04  0.15161021051E+04  0.25500000920E-02 0. -1.
    10030    2    1    2    0    0  0.00000000000E+00  0.00000000000E+00  0.26232325853E+03  0.32945274686E+04  0.32840672572E+04 0.  0.
        4    1    3    3  502    0  0.83907996112E+02 -0.53067808721E+03  0.16877523370E+04  0.17712056199E+04  0.12699999809E+01 0.  1.
       -4    1    3    3    0  502 -0.83907996112E+02  0.53067808721E+03 -0.14254290785E+04  0.15233218487E+04  0.12699999809E+01 0. -1.
</event>
<event>
 5   0  0.6258718E-07  0.3298370E+04  0.7818609E-02  0.8163310E-01
       -2   -1    0    0    0  501  0.00000000000E+00  0.00000000000E+00  0.10758549721E+04  0.10758549721E+04  0.25500000920E-02 0.  1.
        2   -1    0    0  501    0  0.00000000000E+00  0.00000000000E+00 -0.25280459825E+04  0.25280459825E+04  0.25500000920E-02 0. -1.
    10030    2    1    2    0    0  0.00000000000E+00  0.00000000000E+00 -0.14521910104E+04  0.36039009547E+04  0.32983698035E+04 0.  0.
        5    1    3    3  502    0  0.11116720344E+03 -0.81760448579E+03  0.83409331852E+03  0.11732727715E+04  0.46999998093E+01 0.  1.
       -5    1    3    3    0  502 -0.11116720344E+03  0.81760448579E+03 -0.22862843289E+04  0.24306281832E+04  0.46999998093E+01 0. -1.
</event>
<event>
 5   0  0.6258718E-07  0.3277548E+04  0.7818609E-02  0.8168632E-01
       -2   -1    0    0    0  501  0.00000000000E+00  0.00000000000E+00  0.15683624645E+04  0.15683624645E+04  0.25500000920E-02 0.  1.
        2   -1    0    0  501    0  0.00000000000E+00  0.00000000000E+00 -0.17123464725E+04  0.17123464725E+04  0.25500000920E-02 0. -1.
    10030    2    1    2    0    0  0.00000000000E+00  0.00000000000E+00 -0.14398400801E+03  0.32807089370E+04  0.32775478234E+04 0.  0.
        5    1    3    3  502    0 -0.62302591239E+03  0.90175746600E+03  0.11474728030E+04  0.15868345026E+04  0.46999998093E+01 0.  1.
       -5    1    3    3    0  502  0.62302591239E+03 -0.90175746600E+03 -0.12914568110E+04  0.16938744344E+04  0.46999998093E+01 0. -1.
</event>
<event>
 5   0  0.2080770E-07  0.3379108E+04  0.7818609E-02  0.8143053E-01
        1   -1    0    0  501    0  0.00000000000E+00  0.00000000000E+00  0.83909302149E+03  0.83909302151E+03  0.50400001928E-02 0. -1.
       -1   -1    0    0    0  501  0.00000000000E+00  0.00000000000E+00 -0.34019973871E+04  0.34019973871E+04  0.50400001928E-02 0.  1.
    10030    2    1    2    0    0  0.00000000000E+00  0.00000000000E+00 -0.25629043656E+04  0.42410904086E+04  0.33791077323E+04 0.  0.
        4    1    3    3  502    0 -0.24354534350E+02  0.13189570475E+04  0.43457473961E+02  0.13198981027E+04  0.12699999809E+01 0. -1.
       -4    1    3    3    0  502  0.24354534350E+02 -0.13189570475E+04 -0.26063618396E+04  0.29211923059E+04  0.12699999809E+01 0.  1.
</event>
<event>
 5   0  0.2037333E-07  0.3313353E+04  0.7818609E-02  0.8159506E-01
       -1   -1    0    0    0  501  0.00000000000E+00  0.00000000000E+00  0.16292423455E+04  0.16292423456E+04  0.50400001928E-02 0. -1.
        1   -1    0    0  501    0  0.00000000000E+00  0.00000000000E+00 -0.16845726873E+04  0.16845726873E+04  0.50400001928E-02 0.  1.
    10030    2    1    2    0    0  0.00000000000E+00  0.00000000000E+00 -0.55330341759E+02  0.33138150329E+04  0.33133530789E+04 0.  0.
        3    1    3    3  502    0 -0.51214027971E+03  0.15755258642E+04 -0.30446081511E+02  0.16569539489E+04  0.10100000352E+00 0.  1.
       -3    1    3    3    0  502  0.51214027971E+03 -0.15755258642E+04 -0.24884260248E+02  0.16568610839E+04  0.10100000352E+00 0. -1.
</event>
<event>
 5   0  0.2087665E-07  0.3305400E+04  0.7818609E-02  0.8161523E-01
        1   -1    0    0  501    0  0.00000000000E+00  0.00000000000E+00  0.22594078969E+04  0.22594078969E+04  0.50400001928E-02 0. -1.
       -1   -1    0    0    0  501  0.00000000000E+00  0.00000000000E+00 -0.12089085069E+04  0.12089085070E+04  0.50400001928E-02 0.  1.
    10030    2    1    2    0    0  0.00000000000E+00  0.00000000000E+00  0.10504993900E+04  0.34683164039E+04  0.33054000831E+04 0.  0.
        5    1    3    3  502    0 -0.87249815902E+03 -0.10073102009E+04  0.15509083611E+04  0.20448143468E+04  0.46999998093E+01 0. -1.
       -5    1    3    3    0  502  0.87249815902E+03  0.10073102009E+04 -0.50040897110E+03  0.14235020571E+04  0.46999998093E+01 0.  1.
</event>
<event>
 5   0  0.6377741E-07  0.3300965E+04  0.7818609E-02  0.8162650E-01
       -2   -1    0    0    0  501  0.00000000000E+00  0.00000000000E+00  0.12145827546E+04  0.12145827546E+04  0.25500000920E-02 0.  1.
        2   -1    0    0  501    0  0.00000000000E+00  0.00000000000E+00 -0.22428221863E+04  0.22428221863E+04  0.25500000920E-02 0. -1.
    10030    2    1    2    0    0  0.00000000000E+00  0.00000000000E+00 -0.10282394317E+04  0.34574049410E+04  0.33009654038E+04 0.  0.
        1    1    3    3  502    0 -0.13929209349E+04  0.88521367894E+03 -0.53104606981E+03  0.17337364034E+04  0.50400001928E-02 0. -1.
       -1    1    3    3    0  502  0.13929209349E+04 -0.88521367894E+03 -0.49719336188E+03  0.17236685376E+04  0.50400001928E-02 0.  1.
</event>
<event>
 5   0  0.6258718E-07  0.3293707E+04  0.7818609E-02  0.8164499E-01
        2   -1    0    0  501    0  0.00000000000E+00  0.00000000000E+00  0.19181550228E+04  0.19181550228E+04  0.25500000920E-02 0.  1.
       -2   -1    0    0    0  501  0.00000000000E+00  0.00000000000E+00 -0.14139243714E+04  0.14139243714E+04  0.25500000920E-02 0. -1.
    10030    2    1    2    0    0  0.00000000000E+00  0.00000000000E+00  0.50423065137E+03  0.33320793943E+04  0.32937068084E+04 0.  0.
        5    1    3    3  502    0 -0.24729397883E+03 -0.87589949762E+03 -0.11363722990E+04  0.14559252501E+04  0.46999998093E+01 0. -1.
       -5    1    3    3    0  502  0.24729397883E+03  0.87589949762E+03  0.16406029504E+04  0.18761541442E+04  0.46999998093E+01 0.  1.
</event>
<event>
 5   0  0.2087665E-07  0.3293700E+04  0.7818609E-02  0.8164500E-01
        1   -1    0    0  501    0  0.00000000000E+00  0.00000000000E+00  0.11209616829E+04  0.11209616829E+04  0.50400001928E-02 0. -1.
       -1   -1    0    0    0  501  0.00000000000E+00  0.00000000000E+00 -0.24194540856E+04  0.24194540856E+04  0.50400001928E-02 0.  1.
    10030    2    1    2    0    0  0.00000000000E+00  0.00000000000E+00 -0.12984924027E+04  0.35404157685E+04  0.32937002435E+04 0.  0.
        5    1    3    3  502    0  0.72574487178E+03 -0.48527488936E+03 -0.21502296631E+04  0.23207126128E+04  0.46999998093E+01 0.  1.
       -5    1    3    3    0  502 -0.72574487178E+03  0.48527488936E+03  0.85173726043E+03  0.12197031557E+04  0.46999998093E+01 0. -1.
</event>
<event>
 5   0  0.2080828E-07  0.3307925E+04  0.7818609E-02  0.8160882E-01
       -1   -1    0    0    0  501  0.00000000000E+00  0.00000000000E+00  0.15603989132E+04  0.15603989132E+04  0.50400001928E-02 0. -1.
        1   -1    0    0  501    0  0.00000000000E+00  0.00000000000E+00 -0.17531367504E+04  0.17531367504E+04  0.50400001928E-02 0.  1.
    10030    2    1    2    0    0  0.00000000000E+00  0.00000000000E+00 -0.19273783715E+03  0.33135356636E+04  0.33079254405E+04 0.  0.
        1    1    3    3  502    0 -0.62184402904E+03 -0.86774956785E+03  0.11690682714E+04  0.15831613728E+04  0.50400001928E-02 0. -1.
       -1    1    3    3    0  502  0.62184402904E+03  0.86774956785E+03 -0.13618061086E+04  0.17303742908E+04  0.50400001928E-02 0.  1.
</event>
<event>
 5   0  0.6426079E-07  0.3294954E+04  0.7818609E-02  0.8164181E-01
        2   -1    0    0  501    0  0.00000000000E+00  0.00000000000E+00  0.18471445572E+04  0.18471445572E+04  0.25500000920E-02 0. -1.
       -2   -1    0    0    0  501  0.00000000000E+00  0.00000000000E+00 -0.14693925571E+04  0.14693925571E+04  0.25500000920E-02 0.  1.
    10030    2    1    2    0    0  0.00000000000E+00  0.00000000000E+00  0.37775200001E+03  0.33165371143E+04  0.32949539992E+04 0.  0.
        4    1    3    3  502    0  0.11127612551E+04  0.11448807692E+04 -0.22022111423E+03  0.16116725904E+04  0.12699999809E+01 0.  1.
       -4    1    3    3    0  502 -0.11127612551E+04 -0.11448807692E+04  0.59797311424E+03  0.17048645239E+04  0.12699999809E+01 0. -1.
</event>
<event>
 5   0  0.2080828E-07  0.3290582E+04  0.7818609E-02  0.8165296E-01
       -1   -1    0    0    0  501  0.00000000000E+00  0.00000000000E+00  0.19464854686E+04  0.19464854686E+04  0.50400001928E-02 0. -1.
        1   -1    0    0  501    0  0.00000000000E+00  0.00000000000E+00 -0.13907022438E+04  0.13907022438E+04  0.50400001928E-02 0.  1.
    10030    2    1    2    0    0  0.00000000000E+00  0.00000000000E+00  0.55578322487E+03  0.33371877124E+04  0.32905815344E+04 0.  0.
        1    1    3    3  502    0  0.70881535139E+03 -0.70860312821E+03  0.16011492568E+04  0.18889723498E+04  0.50400001928E-02 0. -1.
       -1    1    3    3    0  502 -0.70881535139E+03  0.70860312821E+03 -0.10453660320E+04  0.14482153626E+04  0.50400001928E-02 0.  1.
</event>
<event>
 5   0  0.6426079E-07  0.3304721E+04  0.7818609E-02  0.8161695E-01
        2   -1    0    0  501    0  0.00000000000E+00  0.00000000000E+00  0.16862542369E+04  0.16862542369E+04  0.25500000920E-02 0.  1.
       -2   -1    0    0    0  501  0.00000000000E+00  0.00000000000E+00 -0.16191483141E+04  0.16191483141E+04  0.25500000920E-02 0. -1.
    10030    2    1    2    0    0  0.00000000000E+00  0.00000000000E+00  0.67105922762E+02  0.33054025510E+04  0.33047212922E+04 0.  0.
        4    1    3    3  502    0 -0.11759055305E+04  0.48504307702E+03 -0.10213082237E+04  0.16312855985E+04  0.12699999809E+01 0. -1.
       -4    1    3    3    0  502  0.11759055305E+04 -0.48504307702E+03  0.10884141465E+04  0.16741169524E+04  0.12699999809E+01 0.  1.
</event>
<event>
 5   0  0.6377741E-07  0.3312326E+04  0.7818609E-02  0.8159766E-01
       -2   -1    0    0    0  501  0.00000000000E+00  0.00000000000E+00  0.16385974223E+04  0.16385974223E+04  0.25500000920E-02 0.  1.
        2   -1    0    0  501    0  0.00000000000E+00  0.00000000000E+00 -0.16739167586E+04  0.16739167586E+04  0.25500000920E-02 0. -1.
    10030    2    1    2    0    0  0.00000000000E+00  0.00000000000E+00 -0.35319336274E+02  0.33125141809E+04  0.33123258812E+04 0.  0.
        1    1    3    3  502    0 -0.48875934429E+03  0.93674156758E+03 -0.12930773086E+04  0.16698560978E+04  0.50400001928E-02 0. -1.
       -1    1    3    3    0  502  0.48875934429E+03 -0.93674156758E+03  0.12577579724E+04  0.16426580831E+04  0.50400001928E-02 0.  1.
</event>
<event>
 5   0  0.2057130E-07  0.3314295E+04  0.7818609E-02  0.8159267E-01
        1   -1    0    0  501    0  0.00000000000E+00  0.00000000000E+00  0.23420799545E+04  0.23420799545E+04  0.50400001928E-02 0.  1.
       -1   -1    0    0    0  501  0.00000000000E+00  0.00000000000E+00 -0.11725212989E+04  0.11725212989E+04  0.50400001928E-02 0. -1.
    10030    2    1    2    0    0  0.00000000000E+00  0.00000000000E+00  0.11695586556E+04  0.35146012534E+04  0.33142954789E+04 0.  0.
        2    1    3    3  502    0 -0.10135636142E+04  0.43665192845E+03  0.18956794612E+04  0.21935306531E+04  0.25500000920E-02 0.  1.
       -2    1    3    3    0  502  0.10135636142E+04 -0.43665192845E+03 -0.72612080557E+03  0.13210706003E+04  0.25500000920E-02 0. -1.
</event>
<event>
 5   0  0.2080828E-07  0.3286489E+04  0.7818609E-02  0.8166342E-01
       -1   -1    0    0    0  501  0.00000000000E+00  0.00000000000E+00  0.24210104888E+04  0.24210104888E+04  0.50400001928E-02 0. -1.
        1   -1    0    0  501    0  0.00000000000E+00  0.00000000000E+00 -0.11153408473E+04  0.11153408473E+04  0.50400001928E-02 0.  1.
    10030    2    1    2    0    0  0.00000000000E+00  0.00000000000E+00  0.13056696415E+04  0.35363513361E+04  0.32864886367E+04 0.  0.
        1    1    3    3  502    0 -0.56730525568E+03  0.87873915541E+03  0.20165626273E+04  0.22716827653E+04  0.50400001928E-02 0. -1.
       -1    1    3    3    0  502  0.56730525568E+03 -0.87873915541E+03 -0.71089298587E+03  0.12646685707E+04  0.50400001928E-02 0.  1.
</event>
<event>
 5   0  0.6426079E-07  0.3300511E+04  0.7818609E-02  0.8162765E-01
       -2   -1    0    0    0  501  0.00000000000E+00  0.00000000000E+00  0.10850729506E+04  0.10850729506E+04  0.25500000920E-02 0.  1.
        2   -1    0    0  501    0  0.00000000000E+00  0.00000000000E+00 -0.25098251347E+04  0.25098251347E+04  0.25500000920E-02 0. -1.
    10030    2    1    2    0    0  0.00000000000E+00  0.00000000000E+00 -0.14247521841E+04  0.35948980853E+04  0.33005110903E+04 0.  0.
        4    1    3    3  502    0  0.97882574424E+03 -0.12273074007E+04 -0.12666448970E+04  0.20171202744E+04  0.12699999809E+01 0. -1.
       -4    1    3    3    0  502 -0.97882574424E+03  0.12273074007E+04 -0.15810728710E+03  0.15777778109E+04  0.12699999809E+01 0.  1.
</event>
<event>
 5   0  0.2080770E-07  0.3297434E+04  0.7818609E-02  0.8163549E-01
       -1   -1    0    0    0  501  0.00000000000E+00  0.00000000000E+00  0.98466708441E+03  0.98466708442E+03  0.50400001928E-02 0. -1.
        1   -1    0    0  501    0  0.00000000000E+00  0.00000000000E+00 -0.27605951250E+04  0.27605951250E+04  0.50400001928E-02 0.  1.
    10030    2    1    2    0    0  0.00000000000E+00  0.00000000000E+00 -0.17759280405E+04  0.37452622094E+04  0.32974336402E+04 0.  0.
        4    1    3    3  502    0  0.34977183987E+03  0.15929880107E+04 -0.61368407027E+03  0.17425730668E+04  0.12699999809E+01 0. -1.
       -4    1    3    3    0  502 -0.34977183987E+03 -0.15929880107E+04 -0.11622439703E+04  0.20026891425E+04  0.12699999809E+01 0.  1.
</event>
<event>
 5   0  0.6426079E-07  0.3314943E+04  0.7818609E-02  0.8159104E-01
        2   -1    0    0  501    0  0.00000000000E+00  0.00000000000E+00  0.19468930775E+04  0.19468930775E+04  0.25500000920E-02 0.  1.
       -2   -1    0    0    0  501  0.00000000000E+00  0.00000000000E+00 -0.14110744588E+04  0.14110744588E+04  0.25500000920E-02 0. -1.
    10030    2    1    2    0    0  0.00000000000E+00  0.00000000000E+00  0.53581861862E+03  0.33579675363E+04  0.33149425912E+04 0.  0.
        4    1    3    3  502    0 -0.74312855032E+03 -0.93656357872E+03  0.14307714095E+04  0.18645374275E+04  0.12699999809E+01 0.  1.
       -4    1    3    3    0  502  0.74312855032E+03  0.93656357872E+03 -0.89495279085E+03  0.14934301089E+04  0.12699999809E+01 0. -1.
</event>
<event>
 5   0  0.2057130E-07  0.3294233E+04  0.7818609E-02  0.8164364E-01
       -1   -1    0    0    0  501  0.00000000000E+00  0.00000000000E+00  0.13947280359E+04  0.13947280359E+04  0.50400001928E-02 0.  1.
        1   -1    0    0  501    0  0.00000000000E+00  0.00000000000E+00 -0.19451770136E+04  0.19451770136E+04  0.50400001928E-02 0. -1.
    10030    2    1    2    0    0  0.00000000000E+00  0.00000000000E+00 -0.55044897767E+03  0.33399050495E+04  0.32942330917E+04 0.  0.
        2    1    3    3  502    0  0.27737173888E+03  0.29921395556E+02  0.13705999213E+04  0.13987045849E+04  0.25500000920E-02 0.  1.
       -2    1    3    3    0  502 -0.27737173888E+03 -0.29921395556E+02 -0.19210488990E+04  0.19412004646E+04  0.25500000920E-02 0. -1.
</event>
<event>
 5   0  0.6377741E-07  0.3296324E+04  0.7818609E-02  0.8163831E-01
        2   -1    0    0  501    0  0.00000000000E+00  0.00000000000E+00  0.16146999734E+04  0.16146999734E+04  0.25500000920E-02 0. -1.
       -2   -1    0    0    0  501  0.00000000000E+00  0.00000000000E+00 -0.16823170668E+04  0.16823170668E+04  0.25500000920E-02 0.  1.
    10030    2    1    2    0    0  0.00000000000E+00  0.00000000000E+00 -0.67617093479E+02  0.32970170402E+04  0.32963236025E+04 0.  0.
        1    1    3    3  502    0 -0.28759476237E+03 -0.70205027276E+03 -0.14972814075E+04  0.16785222507E+04  0.50400001928E-02 0.  1.
       -1    1    3    3    0  502  0.28759476237E+03  0.70205027276E+03  0.14296643140E+04  0.16184947895E+04  0.50400001928E-02 0. -1.
</event>
<event>
 5   0  0.2037333E-07  0.3286524E+04  0.7818609E-02  0.8166333E-01
        1   -1    0    0  501    0  0.00000000000E+00  0.00000000000E+00  0.12002687252E+04  0.12002687252E+04  0.50400001928E-02 0.  1.
       -1   -1    0    0    0  501  0.00000000000E+00  0.00000000000E+00 -0.22497549687E+04  0.22497549687E+04  0.50400001928E-02 0. -1.
    10030    2    1    2    0    0  0.00000000000E+00  0.00000000000E+00 -0.10494862436E+04  0.34500236939E+04  0.32865243211E+04 0.  0.
        3    1    3    3  502    0  0.30907299149E+03  0.12087586604E+04 -0.16473786995E+04  0.20665140220E+04  0.10100000352E+00 0. -1.
       -3    1    3    3    0  502 -0.30907299149E+03 -0.12087586604E+04  0.59789245595E+03  0.13835096719E+04  0.10100000352E+00 0.  1.
</event>
<event>
 5   0  0.2080828E-07  0.3168794E+04  0.7818609E-02  0.8197108E-01
        1   -1    0    0  501    0  0.00000000000E+00  0.00000000000E+00  0.20696338440E+04  0.20696338440E+04  0.50400001928E-02 0. -1.
       -1   -1    0    0    0  501  0.00000000000E+00  0.00000000000E+00 -0.12129264306E+04  0.12129264306E+04  0.50400001928E-02 0.  1.
    10030    2    1    2    0    0  0.00000000000E+00  0.00000000000E+00  0.85670741341E+03  0.32825602746E+04  0.31687938343E+04 0.  0.
        1    1    3    3  502    0  0.70464115982E+03  0.18849843719E+03 -0.10286501908E+04  0.12610202377E+04  0.50400001928E-02 0.  1.
       -1    1    3    3    0  502 -0.70464115982E+03 -0.18849843719E+03  0.18853576042E+04  0.20215400369E+04  0.50400001928E-02 0. -1.
</event>
<event>
 5   0  0.2037333E-07  0.3295521E+04  0.7818609E-02  0.8164036E-01
       -1   -1    0    0    0  501  0.00000000000E+00  0.00000000000E+00  0.20900147861E+04  0.20900147861E+04  0.50400001928E-02 0.  1.
        1   -1    0    0  501    0  0.00000000000E+00  0.00000000000E+00 -0.12990889229E+04  0.12990889229E+04  0.50400001928E-02 0. -1.
    10030    2    1    2    0    0  0.00000000000E+00  0.00000000000E+00  0.79092586315E+03  0.33891037090E+04  0.32955212379E+04 0.  0.
        3    1    3    3  502    0  0.90371263507E+03  0.52572975774E+03  0.17052169785E+04  0.20002133034E+04  0.10100000352E+00 0.  1.
       -3    1    3    3    0  502 -0.90371263507E+03 -0.52572975774E+03 -0.91429111539E+03  0.13888904056E+04  0.10100000352E+00 0. -1.
</event>
<event>
 5   0  0.6351753E-07  0.3293429E+04  0.7818609E-02  0.8164569E-01
       -2   -1    0    0    0  501  0.00000000000E+00  0.00000000000E+00  0.13724498897E+04  0.13724498897E+04  0.25500000920E-02 0. -1.
        2   -1    0    0  501    0  0.00000000000E+00  0.00000000000E+00 -0.19757865090E+04  0.19757865090E+04  0.25500000920E-02 0.  1.
    10030    2    1    2    0    0  0.00000000000E+00  0.00000000000E+00 -0.60333661928E+03  0.33482363987E+04  0.32934285943E+04 0.  0.
        3    1    3    3  502    0 -0.11266501520E+04  0.11324183166E+04 -0.70826921638E+03  0.17473857908E+04  0.10100000352E+00 0. -1.
       -3    1    3    3    0  502  0.11266501520E+04 -0.11324183166E+04  0.10493259709E+03  0.16008506079E+04  0.10100000352E+00 0.  1.
</event>
<event>
 5   0  0.6424183E-07  0.3389952E+04  0.7818609E-02  0.8140377E-01
       -2   -1    0    0    0  501  0.00000000000E+00  0.00000000000E+00  0.12866645356E+04  0.12866645356E+04  0.25500000920E-02 0.  1.
        2   -1    0    0  501    0  0.00000000000E+00  0.00000000000E+00 -0.22328610130E+04  0.22328610130E+04  0.25500000920E-02 0. -1.
    10030    2    1    2    0    0  0.00000000000E+00  0.00000000000E+00 -0.94619647741E+03  0.35195255486E+04  0.33899516683E+04 0.  0.
        2    1    3    3  502    0  0.11331601932E+04 -0.36906634559E+03  0.77824299931E+03  0.14233496257E+04  0.25500000920E-02 0.  1.
       -2    1    3    3    0  502 -0.11331601932E+04  0.36906634559E+03 -0.17244394767E+04  0.20961759229E+04  0.25500000920E-02 0. -1.
</event>
<event>
 5   0  0.2080770E-07  0.3304329E+04  0.7818609E-02  0.8161795E-01
        1   -1    0    0  501    0  0.00000000000E+00  0.00000000000E+00  0.19762650794E+04  0.19762650794E+04  0.50400001928E-02 0.  1.
       -1   -1    0    0    0  501  0.00000000000E+00  0.00000000000E+00 -0.13812156402E+04  0.13812156402E+04  0.50400001928E-02 0. -1.
    10030    2    1    2    0    0  0.00000000000E+00  0.00000000000E+00  0.59504943918E+03  0.33574807197E+04  0.33043294248E+04 0.  0.
        4    1    3    3  502    0 -0.75709746938E+03  0.36149422561E+03  0.17437151004E+04  0.19350500298E+04  0.12699999809E+01 0.  1.
       -4    1    3    3    0  502  0.75709746938E+03 -0.36149422561E+03 -0.11486656613E+04  0.14224306899E+04  0.12699999809E+01 0. -1.
</event>
<event>
 5   0  0.6377741E-07  0.3284341E+04  0.7818609E-02  0.8166891E-01
        2   -1    0    0  501    0  0.00000000000E+00  0.00000000000E+00  0.12128239282E+04  0.12128239282E+04  0.25500000920E-02 0.  1.
       -2   -1    0    0    0  501  0.00000000000E+00  0.00000000000E+00 -0.22235079970E+04  0.22235079970E+04  0.25500000920E-02 0. -1.
    10030    2    1    2    0    0  0.00000000000E+00  0.00000000000E+00 -0.10106840688E+04  0.34363319252E+04  0.32843408491E+04 0.  0.
        1    1    3    3  502    0  0.15724250161E+03  0.12903414375E+04 -0.15552842265E+04  0.20269719423E+04  0.50400001928E-02 0. -1.
       -1    1    3    3    0  502 -0.15724250161E+03 -0.12903414375E+04  0.54460015766E+03  0.14093599829E+04  0.50400001928E-02 0.  1.
</event>
<event>
 5   0  0.2057130E-07  0.3244743E+04  0.7818609E-02  0.8177100E-01
       -1   -1    0    0    0  501  0.00000000000E+00  0.00000000000E+00  0.95070709509E+03  0.95070709510E+03  0.50400001928E-02 0.  1.
        1   -1    0    0  501    0  0.00000000000E+00  0.00000000000E+00 -0.27685598594E+04  0.27685598594E+04  0.50400001928E-02 0. -1.
    10030    2    1    2    0    0  0.00000000000E+00  0.00000000000E+00 -0.18178527643E+04  0.37192669545E+04  0.32447431341E+04 0.  0.
        2    1    3    3  502    0 -0.73448123062E+03  0.70030693565E+03  0.54196529365E+03  0.11504863588E+04  0.25500000920E-02 0.  1.
       -2    1    3    3    0  502  0.73448123062E+03 -0.70030693565E+03 -0.23598180580E+04  0.25687805957E+04  0.25500000920E-02 0. -1.
</event>
<event>
 5   0  0.2080770E-07  0.3288909E+04  0.7818609E-02  0.8165723E-01
       -1   -1    0    0    0  501  0.00000000000E+00  0.00000000000E+00  0.20707655440E+04  0.20707655440E+04  0.50400001928E-02 0.  1.
        1   -1    0    0  501    0  0.00000000000E+00  0.00000000000E+00 -0.13059088423E+04  0.13059088423E+04  0.50400001928E-02 0. -1.
    10030    2    1    2    0    0  0.00000000000E+00  0.00000000000E+00  0.76485670170E+03  0.33766743862E+04  0.32889092624E+04 0.  0.
        4    1    3    3  502    0  0.13717206116E+00  0.13076922048E+04 -0.64125992088E+03  0.14564596872E+04  0.12699999809E+01 0. -1.
       -4    1    3    3    0  502 -0.13717206116E+00 -0.13076922048E+04  0.14061166226E+04  0.19202146991E+04  0.12699999809E+01 0.  1.
</event>
<event>
 5   0  0.6377741E-07  0.3301046E+04  0.7818609E-02  0.8162629E-01
        2   -1    0    0  501    0  0.00000000000E+00  0.00000000000E+00  0.19479722023E+04  0.19479722024E+04  0.25500000920E-02 0.  1.
       -2   -1    0    0    0  501  0.00000000000E+00  0.00000000000E+00 -0.13984933291E+04  0.13984933291E+04  0.25500000920E-02 0. -1.
    10030    2    1    2    0    0  0.00000000000E+00  0.00000000000E+00  0.54947887324E+03  0.33464655315E+04  0.33010459738E+04 0.  0.
        1    1    3    3  502    0 -0.54314051815E+03  0.90811420321E+03 -0.10093989560E+04  0.14623813733E+04  0.50400001928E-02 0. -1.
       -1    1    3    3    0  502  0.54314051815E+03 -0.90811420321E+03  0.15588778293E+04  0.18840841582E+04  0.50400001928E-02 0.  1.
</event>
<event>
 5   0  0.2080828E-07  0.3230224E+04  0.7818609E-02  0.8180880E-01
       -1   -1    0    0    0  501  0.00000000000E+00  0.00000000000E+00  0.13065221604E+04  0.13065221604E+04  0.50400001928E-02 0. -1.
        1   -1    0    0  501    0  0.00000000000E+00  0.00000000000E+00 -0.19965879495E+04  0.19965879495E+04  0.50400001928E-02 0.  1.
    10030    2    1    2    0    0  0.00000000000E+00  0.00000000000E+00 -0.69006578909E+03  0.33031101099E+04  0.32302237701E+04 0.  0.
        1    1    3    3  502    0 -0.18041918487E+03 -0.13593825204E+04  0.52751701370E+03  0.14692672047E+04  0.50400001928E-02 0. -1.
       -1    1    3    3    0  502  0.18041918487E+03  0.13593825204E+04 -0.12175828028E+04  0.18338429052E+04  0.50400001928E-02 0.  1.
</event>
<event>
 5   0  0.6377741E-07  0.3297952E+04  0.7818609E-02  0.8163417E-01
       -2   -1    0    0    0  501  0.00000000000E+00  0.00000000000E+00  0.14220785665E+04  0.14220785665E+04  0.25500000920E-02 0. -1.
        2   -1    0    0  501    0  0.00000000000E+00  0.00000000000E+00 -0.19120751498E+04  0.19120751498E+04  0.25500000920E-02 0.  1.
    10030    2    1    2    0    0  0.00000000000E+00  0.00000000000E+00 -0.48999658324E+03  0.33341537163E+04  0.32979515388E+04 0.  0.
        1    1    3    3  502    0  0.27001519986E+03 -0.66348052988E+03 -0.17465653751E+04  0.18877513690E+04  0.50400001928E-02 0.  1.
       -1    1    3    3    0  502 -0.27001519986E+03  0.66348052988E+03  0.12565687918E+04  0.14464023473E+04  0.50400001928E-02 0. -1.
</event>
<event>
 5   0  0.2080770E-07  0.3265785E+04  0.7818609E-02  0.8171656E-01
        1   -1    0    0  501    0  0.00000000000E+00  0.00000000000E+00  0.27021399042E+04  0.27021399042E+04  0.50400001928E-02 0.  1.
       -1   -1    0    0    0  501  0.00000000000E+00  0.00000000000E+00 -0.98675064826E+03  0.98675064827E+03  0.50400001928E-02 0. -1.
    10030    2    1    2    0    0  0.00000000000E+00  0.00000000000E+00  0.17153892559E+04  0.36888905525E+04  0.32657852361E+04 0.  0.
        4    1    3    3  502    0  0.10219807808E+04 -0.10853219297E+04  0.16103291257E+04  0.21944315696E+04  0.12699999809E+01 0.  1.
       -4    1    3    3    0  502 -0.10219807808E+04  0.10853219297E+04  0.10506013019E+03  0.14944589829E+04  0.12699999809E+01 0. -1.
</event>
<event>
 5   0  0.6424183E-07  0.3300238E+04  0.7818609E-02  0.8162835E-01
       -2   -1    0    0    0  501  0.00000000000E+00  0.00000000000E+00  0.12846622107E+04  0.12846622107E+04  0.25500000920E-02 0. -1.
        2   -1    0    0  501    0  0.00000000000E+00  0.00000000000E+00 -0.21195392337E+04  0.21195392337E+04  0.25500000920E-02 0.  1.
    10030    2    1    2    0    0  0.00000000000E+00  0.00000000000E+00 -0.83487702297E+03  0.34042014443E+04  0.33002375415E+04 0.  0.
        2    1    3    3  502    0  0.11330986650E+04 -0.11756422775E+04 -0.17150671057E+03  0.16417861923E+04  0.25500000920E-02 0. -1.
       -2    1    3    3    0  502 -0.11330986650E+04  0.11756422775E+04 -0.66337031240E+03  0.17624152521E+04  0.25500000920E-02 0.  1.
</event>
<event>
 5   0  0.6424183E-07  0.3303655E+04  0.7818609E-02  0.8161966E-01
        2   -1    0    0  501    0  0.00000000000E+00  0.00000000000E+00  0.22923303663E+04  0.22923303663E+04  0.25500000920E-02 0. -1.
       -2   -1    0    0    0  501  0.00000000000E+00  0.00000000000E+00 -0.11902886250E+04  0.11902886250E+04  0.25500000920E-02 0.  1.
    10030    2    1    2    0    0  0.00000000000E+00  0.00000000000E+00  0.11020417413E+04  0.34826189913E+04  0.33036554056E+04 0.  0.
        2    1    3    3  502    0 -0.37044879497E+02 -0.85284520937E+03 -0.93973457195E+03  0.12695740782E+04  0.25500000920E-02 0.  1.
       -2    1    3    3    0  502  0.37044879497E+02  0.85284520937E+03  0.20417763133E+04  0.22130449132E+04  0.25500000920E-02 0. -1.
</event>
<event>
 5   0  0.2080828E-07  0.3301592E+04  0.7818609E-02  0.8162490E-01
        1   -1    0    0  501    0  0.00000000000E+00  0.00000000000E+00  0.29891085195E+04  0.29891085195E+04  0.50400001928E-02 0.  1.
       -1   -1    0    0    0  501  0.00000000000E+00  0.00000000000E+00 -0.91168574592E+03  0.91168574593E+03  0.50400001928E-02 0. -1.
    10030    2    1    2    0    0  0.00000000000E+00  0.00000000000E+00  0.20774227736E+04  0.39007942654E+04  0.33015921191E+04 0.  0.
        1    1    3    3  502    0  0.58008016996E+03 -0.12441824344E+04 -0.44556490520E+02  0.13734876099E+04  0.50400001928E-02 0. -1.
       -1    1    3    3    0  502 -0.58008016996E+03  0.12441824344E+04  0.21219792641E+04  0.25273066555E+04  0.50400001928E-02 0.  1.
</event>
<event>
 5   0  0.2087665E-07  0.3302185E+04  0.7818609E-02  0.8162340E-01
        1   -1    0    0  501    0  0.00000000000E+00  0.00000000000E+00  0.14581378272E+04  0.14581378272E+04  0.50400001928E-02 0.  1.
       -1   -1    0    0    0  501  0.00000000000E+00  0.00000000000E+00 -0.18695802640E+04  0.18695802640E+04  0.50400001928E-02 0. -1.
    10030    2    1    2    0    0  0.00000000000E+00  0.00000000000E+00 -0.41144243683E+03  0.33277180912E+04  0.33021845521E+04 0.  0.
        5    1    3    3  502    0 -0.11152686031E+04  0.62535959730E+03  0.84695392047E+03  0.15337052248E+04  0.46999998093E+01 0.  1.
       -5    1    3    3    0  502  0.11152686031E+04 -0.62535959730E+03 -0.12583963573E+04  0.17940128665E+04  0.46999998093E+01 0. -1.
</event>
<event>
 5   0  0.2057130E-07  0.3302163E+04  0.7818609E-02  0.8162345E-01
        1   -1    0    0  501    0  0.00000000000E+00  0.00000000000E+00  0.17185237128E+04  0.17185237128E+04  0.50400001928E-02 0.  1.
       -1   -1    0    0    0  501  0.00000000000E+00  0.00000000000E+00 -0.15862857306E+04  0.15862857306E+04  0.50400001928E-02 0. -1.
    10030    2    1    2    0    0  0.00000000000E+00  0.00000000000E+00  0.13223798217E+03  0.33048094434E+04  0.33021627115E+04 0.  0.
        2    1    3    3  502    0  0.80132621038E+03  0.64848422067E+02 -0.13771674848E+04  0.15946533462E+04  0.25500000920E-02 0. -1.
       -2    1    3    3    0  502 -0.80132621038E+03 -0.64848422067E+02  0.15094054669E+04  0.17101560972E+04  0.25500000920E-02 0.  1.
</event>
<event>
 5   0  0.6351753E-07  0.3293692E+04  0.7818609E-02  0.8164502E-01
       -2   -1    0    0    0  501  0.00000000000E+00  0.00000000000E+00  0.10999521747E+04  0.10999521747E+04  0.25500000920E-02 0.  1.
        2   -1    0    0  501    0  0.00000000000E+00  0.00000000000E+00 -0.24656537824E+04  0.24656537824E+04  0.25500000920E-02 0. -1.
    10030    2    1    2    0    0  0.00000000000E+00  0.00000000000E+00 -0.13657016077E+04  0.35656059571E+04  0.32936916916E+04 0.  0.
        3    1    3    3  502    0  0.14659833212E+04  0.63079696893E+03 -0.11227061613E+04  0.19512767740E+04  0.10100000352E+00 0. -1.
       -3    1    3    3    0  502 -0.14659833212E+04 -0.63079696893E+03 -0.24299544642E+03  0.16143291830E+04  0.10100000352E+00 0.  1.
</event>
<event>
 5   0  0.2057130E-07  0.3297749E+04  0.7818609E-02  0.8163468E-01
        1   -1    0    0  501    0  0.00000000000E+00  0.00000000000E+00  0.16298183105E+04  0.16298183105E+04  0.50400001928E-02 0. -1.
       -1   -1    0    0    0  501  0.00000000000E+00  0.00000000000E+00 -0.16681536254E+04  0.16681536254E+04  0.50400001928E-02 0.  1.
    10030    2    1    2    0    0  0.00000000000E+00  0.00000000000E+00 -0.38335314894E+02  0.32979719360E+04  0.32977491254E+04 0.  0.
        2    1    3    3  502    0  0.25985387873E+02  0.16440278236E+04 -0.14280690634E+03  0.16504231390E+04  0.25500000920E-02 0.  1.
       -2    1    3    3    0  502 -0.25985387873E+02 -0.16440278236E+04  0.10447159144E+03  0.16475487970E+04  0.25500000920E-02 0. -1.
</event>
<event>
 5   0  0.2080828E-07  0.3290235E+04  0.7818609E-02  0.8165385E-01
       -1   -1    0    0    0  501  0.00000000000E+00  0.00000000000E+00  0.23318293511E+04  0.23318293511E+04  0.50400001928E-02 0. -1.
        1   -1    0    0  501    0  0.00000000000E+00  0.00000000000E+00 -0.11606384856E+04  0.11606384856E+04  0.50400001928E-02 0.  1.
    10030    2    1    2    0    0  0.00000000000E+00  0.00000000000E+00  0.11711908654E+04  0.34924678367E+04  0.32902345732E+04 0.  0.
        1    1    3    3  502    0 -0.48317061537E+03  0.77887246387E+03 -0.86450471025E+03  0.12599462499E+04  0.50400001928E-02 0.  1.
       -1    1    3    3    0  502  0.48317061537E+03 -0.77887246387E+03  0.20356955757E+04  0.22325215868E+04  0.50400001928E-02 0. -1.
</event>
<event>
 5   0  0.6377741E-07  0.3303743E+04  0.7818609E-02  0.8161944E-01
       -2   -1    0    0    0  501  0.00000000000E+00  0.00000000000E+00  0.12965513698E+04  0.12965513698E+04  0.25500000920E-02 0.  1.
        2   -1    0    0  501    0  0.00000000000E+00  0.00000000000E+00 -0.21045666061E+04  0.21045666061E+04  0.25500000920E-02 0. -1.
    10030    2    1    2    0    0  0.00000000000E+00  0.00000000000E+00 -0.80801523625E+03  0.34011179759E+04  0.33037425541E+04 0.  0.
        1    1    3    3  502    0  0.10706281047E+03  0.11414481102E+04  0.82029333208E+03  0.14096976216E+04  0.50400001928E-02 0.  1.
       -1    1    3    3    0  502 -0.10706281047E+03 -0.11414481102E+04 -0.16283085683E+04  0.19914203543E+04  0.50400001928E-02 0. -1.
</event>
<event>
 5   0  0.1994250E-07  0.3160775E+04  0.7818609E-02  0.8199254E-01
        3   -1    0    0  501    0  0.00000000000E+00  0.00000000000E+00  0.20944410948E+04  0.20944410972E+04  0.10100000352E+00 0.  1.
       -3   -1    0    0    0  501  0.00000000000E+00  0.00000000000E+00 -0.11925016092E+04  0.11925016135E+04  0.10100000352E+00 0. -1.
    10030    2    1    2    0    0  0.00000000000E+00  0.00000000000E+00  0.90193948554E+03  0.32869427107E+04  0.31607748334E+04 0.  0.
        1    1    3    3  502    0  0.29717825366E+03  0.12527246562E+04 -0.50212426559E+03  0.13819416619E+04  0.50400001928E-02 0. -1.
       -1    1    3    3    0  502 -0.29717825366E+03 -0.12527246562E+04  0.14040637511E+04  0.19050010488E+04  0.50400001928E-02 0.  1.
</event>
<event>
 5   0  0.2087665E-07  0.3316718E+04  0.7818609E-02  0.8158654E-01
        1   -1    0    0  501    0  0.00000000000E+00  0.00000000000E+00  0.24543175718E+04  0.24543175718E+04  0.50400001928E-02 0.  1.
       -1   -1    0    0    0  501  0.00000000000E+00  0.00000000000E+00 -0.11205373421E+04  0.11205373421E+04  0.50400001928E-02 0. -1.
    10030    2    1    2    0    0  0.00000000000E+00  0.00000000000E+00  0.13337802296E+04  0.35748549139E+04  0.33167179492E+04 0.  0.
        5    1    3    3  502    0  0.13611511660E+03 -0.13802138207E+04 -0.31305440756E+03  0.14218096454E+04  0.46999998093E+01 0. -1.
       -5    1    3    3    0  502 -0.13611511660E+03  0.13802138207E+04  0.16468346372E+04  0.21530452685E+04  0.46999998093E+01 0.  1.
</event>
<event>
 5   0  0.6424183E-07  0.3202511E+04  0.7818609E-02  0.8188154E-01
       -2   -1    0    0    0  501  0.00000000000E+00  0.00000000000E+00  0.14746537980E+04  0.14746537980E+04  0.25500000920E-02 0. -1.
        2   -1    0    0  501    0  0.00000000000E+00  0.00000000000E+00 -0.17387264820E+04  0.17387264820E+04  0.25500000920E-02 0.  1.
    10030    2    1    2    0    0  0.00000000000E+00  0.00000000000E+00 -0.26407268405E+03  0.32133802800E+04  0.32025112711E+04 0.  0.
        2    1    3    3  502    0 -0.19554506836E+03  0.11113822470E+03 -0.17227970570E+04  0.17374174163E+04  0.25500000920E-02 0.  1.
       -2    1    3    3    0  502  0.19554506836E+03 -0.11113822470E+03  0.14587243730E+04  0.14759628637E+04  0.25500000920E-02 0. -1.
</event>
<event>
 5   0  0.6424183E-07  0.3291293E+04  0.7818609E-02  0.8165114E-01
        2   -1    0    0  501    0  0.00000000000E+00  0.00000000000E+00  0.17053230986E+04  0.17053230986E+04  0.25500000920E-02 0.  1.
       -2   -1    0    0    0  501  0.00000000000E+00  0.00000000000E+00 -0.15880586910E+04  0.15880586910E+04  0.25500000920E-02 0. -1.
    10030    2    1    2    0    0  0.00000000000E+00  0.00000000000E+00  0.11726440769E+03  0.32933817896E+04  0.32912934647E+04 0.  0.
        2    1    3    3  502    0  0.49592549867E+03  0.47812801415E+03  0.15541053771E+04  0.16999388287E+04  0.25500000920E-02 0.  1.
       -2    1    3    3    0  502 -0.49592549867E+03 -0.47812801415E+03 -0.14368409694E+04  0.15934429609E+04  0.25500000920E-02 0. -1.
</event>
<event>
 5   0  0.2037333E-07  0.3280907E+04  0.7818609E-02  0.8167771E-01
       -1   -1    0    0    0  501  0.00000000000E+00  0.00000000000E+00  0.29278396523E+04  0.29278396523E+04  0.50400001928E-02 0. -1.
        1   -1    0    0  501    0  0.00000000000E+00  0.00000000000E+00 -0.91913784527E+03  0.91913784529E+03  0.50400001928E-02 0.  1.
    10030    2    1    2    0    0  0.00000000000E+00  0.00000000000E+00  0.20087018070E+04  0.38469774976E+04  0.32809073314E+04 0.  0.
        3    1    3    3  502    0 -0.67877604294E+03  0.14908163523E+04  0.90067664975E+03  0.18693551696E+04  0.10100000352E+00 0. -1.
       -3    1    3    3    0  502  0.67877604294E+03 -0.14908163523E+04  0.11080251573E+04  0.19776223279E+04  0.10100000352E+00 0.  1.
</event>
<event>
 5   0  0.6258718E-07  0.3283711E+04  0.7818609E-02  0.8167053E-01
        2   -1    0    0  501    0  0.00000000000E+00  0.00000000000E+00  0.30254665583E+04  0.30254665583E+04  0.25500000920E-02 0. -1.
       -2   -1    0    0    0  501  0.00000000000E+00  0.00000000000E+00 -0.89099950708E+03  0.89099950708E+03  0.25500000920E-02 0.  1.
    10030    2    1    2    0    0  0.00000000000E+00  0.00000000000E+00  0.21344670512E+04  0.39164660654E+04  0.32837108351E+04 0.  0.
        5    1    3    3  502    0  0.12558087098E+04  0.54573042309E+03  0.21477850165E+04  0.25471316765E+04  0.46999998093E+01 0. -1.
       -5    1    3    3    0  502 -0.12558087098E+04 -0.54573042309E+03 -0.13317965284E+02  0.13693343889E+04  0.46999998093E+01 0.  1.
</event>
<event>
 5   0  0.2080770E-07  0.3344506E+04  0.7818609E-02  0.8151662E-01
       -1   -1    0    0    0  501  0.00000000000E+00  0.00000000000E+00  0.17597598167E+04  0.17597598167E+04  0.50400001928E-02 0. -1.
        1   -1    0    0  501    0  0.00000000000E+00  0.00000000000E+00 -0.15890979730E+04  0.15890979730E+04  0.50400001928E-02 0.  1.
    10030    2    1    2    0    0  0.00000000000E+00  0.00000000000E+00  0.17066184367E+03  0.33488577897E+04  0.33445063957E+04 0.  0.
        4    1    3    3  502    0  0.50004229960E+03 -0.70474501911E+00 -0.15124852896E+04  0.15930022480E+04  0.12699999809E+01 0.  1.
       -4    1    3    3    0  502 -0.50004229960E+03  0.70474501911E+00  0.16831471333E+04  0.17558555417E+04  0.12699999809E+01 0. -1.
</event>
<event>
 5   0  0.6424183E-07  0.3301870E+04  0.7818609E-02  0.8162420E-01
       -2   -1    0    0    0  501  0.00000000000E+00  0.00000000000E+00  0.12515413103E+04  0.12515413103E+04  0.25500000920E-02 0.  1.
        2   -1    0    0  501    0  0.00000000000E+00  0.00000000000E+00 -0.21777836524E+04  0.21777836524E+04  0.25500000920E-02 0. -1.
    10030    2    1    2    0    0  0.00000000000E+00  0.00000000000E+00 -0.92624234211E+03  0.34293249627E+04  0.33018698981E+04 0.  0.
        2    1    3    3  502    0  0.10696145020E+04 -0.38107876759E+03 -0.17078356791E+04  0.20508532168E+04  0.25500000920E-02 0. -1.
       -2    1    3    3    0  502 -0.10696145020E+04  0.38107876759E+03  0.78159333698E+03  0.13784717460E+04  0.25500000920E-02 0.  1.
</event>
<event>
 5   0  0.2087665E-07  0.3300965E+04  0.7818609E-02  0.8162650E-01
       -1   -1    0    0    0  501  0.00000000000E+00  0.00000000000E+00  0.17577265468E+04  0.17577265468E+04  0.50400001928E-02 0.  1.
        1   -1    0    0  501    0  0.00000000000E+00  0.00000000000E+00 -0.15497812657E+04  0.15497812657E+04  0.50400001928E-02 0. -1.
    10030    2    1    2    0    0  0.00000000000E+00  0.00000000000E+00  0.20794528105E+03  0.33075078125E+04  0.33009645090E+04 0.  0.
        5    1    3    3  502    0  0.47384794853E+03  0.14195594978E+04  0.80133251050E+03  0.16975973988E+04  0.46999998093E+01 0. -1.
       -5    1    3    3    0  502 -0.47384794853E+03 -0.14195594978E+04 -0.59338722944E+03  0.16099104137E+04  0.46999998093E+01 0.  1.
</event>
<event>
 5   0  0.1994250E-07  0.3276673E+04  0.7818609E-02  0.8168857E-01
        3   -1    0    0  501    0  0.00000000000E+00  0.00000000000E+00  0.17687004113E+04  0.17687004142E+04  0.10100000352E+00 0.  1.
       -3   -1    0    0    0  501  0.00000000000E+00  0.00000000000E+00 -0.15175807750E+04  0.15175807783E+04  0.10100000352E+00 0. -1.
    10030    2    1    2    0    0  0.00000000000E+00  0.00000000000E+00  0.25111963632E+03  0.32862811925E+04  0.32766725507E+04 0.  0.
        1    1    3    3  502    0 -0.14931012502E+04 -0.38337235110E+03 -0.43088247195E+03  0.16006203196E+04  0.50400001928E-02 0. -1.
       -1    1    3    3    0  502  0.14931012502E+04  0.38337235110E+03  0.68200210827E+03  0.16856608729E+04  0.50400001928E-02 0.  1.
</event>
<event>
 5   0  0.2057130E-07  0.3293418E+04  0.7818609E-02  0.8164572E-01
        1   -1    0    0  501    0  0.00000000000E+00  0.00000000000E+00  0.19298374906E+04  0.19298374906E+04  0.50400001928E-02 0. -1.
       -1   -1    0    0    0  501  0.00000000000E+00  0.00000000000E+00 -0.14051188158E+04  0.14051188158E+04  0.50400001928E-02 0.  1.
    10030    2    1    2    0    0  0.00000000000E+00  0.00000000000E+00  0.52471867486E+03  0.33349563064E+04  0.32934182665E+04 0.  0.
        2    1    3    3  502    0  0.39076099851E+03  0.14352223979E+04 -0.45301640003E+03  0.15549216534E+04  0.25500000920E-02 0.  1.
       -2    1    3    3    0  502 -0.39076099851E+03 -0.14352223979E+04  0.97773507489E+03  0.17800346531E+04  0.25500000920E-02 0. -1.
</event>
<event>
 5   0  0.2087665E-07  0.3303701E+04  0.7818609E-02  0.8161954E-01
       -1   -1    0    0    0  501  0.00000000000E+00  0.00000000000E+00  0.13589294572E+04  0.13589294573E+04  0.50400001928E-02 0.  1.
        1   -1    0    0  501    0  0.00000000000E+00  0.00000000000E+00 -0.20079115952E+04  0.20079115952E+04  0.50400001928E-02 0. -1.
    10030    2    1    2    0    0  0.00000000000E+00  0.00000000000E+00 -0.64898213797E+03  0.33668410525E+04  0.33037010847E+04 0.  0.
        5    1    3    3  502    0  0.72925044475E+03  0.53145677795E+03  0.10855472224E+04  0.14116257932E+04  0.46999998093E+01 0.  1.
       -5    1    3    3    0  502 -0.72925044475E+03 -0.53145677795E+03 -0.17345293604E+04  0.19552152593E+04  0.46999998093E+01 0. -1.
</event>
<event>
 5   0  0.6424183E-07  0.3300250E+04  0.7818609E-02  0.8162832E-01
       -2   -1    0    0    0  501  0.00000000000E+00  0.00000000000E+00  0.16068112323E+04  0.16068112323E+04  0.25500000920E-02 0.  1.
        2   -1    0    0  501    0  0.00000000000E+00  0.00000000000E+00 -0.16946064890E+04  0.16946064890E+04  0.25500000920E-02 0. -1.
    10030    2    1    2    0    0  0.00000000000E+00  0.00000000000E+00 -0.87795256677E+02  0.33014177213E+04  0.33002501365E+04 0.  0.
        2    1    3    3  502    0 -0.70122619742E+03  0.14545179151E+04  0.29618175328E+03  0.16416650622E+04  0.25500000920E-02 0.  1.
       -2    1    3    3    0  502  0.70122619742E+03 -0.14545179151E+04 -0.38397700996E+03  0.16597526591E+04  0.25500000920E-02 0. -1.
</event>
<event>
 5   0  0.6424183E-07  0.3307399E+04  0.7818609E-02  0.8161015E-01
       -2   -1    0    0    0  501  0.00000000000E+00  0.00000000000E+00  0.13245481582E+04  0.13245481582E+04  0.25500000920E-02 0. -1.
        2   -1    0    0  501    0  0.00000000000E+00  0.00000000000E+00 -0.20646453410E+04  0.20646453410E+04  0.25500000920E-02 0.  1.
    10030    2    1    2    0    0  0.00000000000E+00  0.00000000000E+00 -0.74009718279E+03  0.33891934992E+04  0.33073990891E+04 0.  0.
        2    1    3    3  502    0 -0.11664892031E+04  0.37294868646E+03  0.76871010462E+03  0.14459263497E+04  0.25500000920E-02 0. -1.
       -2    1    3    3    0  502  0.11664892031E+04 -0.37294868646E+03 -0.15088072874E+04  0.19432671495E+04  0.25500000920E-02 0.  1.
</event>
<event>
 5   0  0.2080770E-07  0.3306277E+04  0.7818609E-02  0.8161300E-01
        1   -1    0    0  501    0  0.00000000000E+00  0.00000000000E+00  0.12578147540E+04  0.12578147540E+04  0.50400001928E-02 0. -1.
       -1   -1    0    0    0  501  0.00000000000E+00  0.00000000000E+00 -0.21727099743E+04  0.21727099743E+04  0.50400001928E-02 0.  1.
    10030    2    1    2    0    0  0.00000000000E+00  0.00000000000E+00 -0.91489522024E+03  0.34305247283E+04  0.33062768558E+04 0.  0.
        4    1    3    3  502    0  0.64461004869E+03  0.14521437178E+04 -0.93136312653E+03  0.18416520786E+04  0.12699999809E+01 0.  1.
       -4    1    3    3    0  502 -0.64461004869E+03 -0.14521437178E+04  0.16467906285E+02  0.15888726497E+04  0.12699999809E+01 0. -1.
</event>
<event>
 5   0  0.6426079E-07  0.3280260E+04  0.7818609E-02  0.8167937E-01
       -2   -1    0    0    0  501  0.00000000000E+00  0.00000000000E+00  0.20063364529E+04  0.20063364529E+04  0.25500000920E-02 0. -1.
        2   -1    0    0  501    0  0.00000000000E+00  0.00000000000E+00 -0.13407650113E+04  0.13407650113E+04  0.25500000920E-02 0.  1.
    10030    2    1    2    0    0  0.00000000000E+00  0.00000000000E+00  0.66557144156E+03  0.33471014642E+04  0.32802595733E+04 0.  0.
        4    1    3    3  502    0 -0.42515342931E+03 -0.12465388339E+04 -0.66458236381E+03  0.14752239945E+04  0.12699999809E+01 0.  1.
       -4    1    3    3    0  502  0.42515342931E+03  0.12465388339E+04  0.13301538054E+04  0.18718774697E+04  0.12699999809E+01 0. -1.
</event>
<event>
 5   0  0.1994250E-07  0.3188917E+04  0.7818609E-02  0.8191750E-01
        3   -1    0    0  501    0  0.00000000000E+00  0.00000000000E+00  0.21471896862E+04  0.21471896886E+04  0.10100000352E+00 0.  1.
       -3   -1    0    0    0  501  0.00000000000E+00  0.00000000000E+00 -0.11840114515E+04  0.11840114558E+04  0.10100000352E+00 0. -1.
    10030    2    1    2    0    0  0.00000000000E+00  0.00000000000E+00  0.96317823468E+03  0.33312011444E+04  0.31889165484E+04 0.  0.
        1    1    3    3  502    0  0.28558502219E+03 -0.45161148939E+03  0.20508777865E+04  0.21193422181E+04  0.50400001928E-02 0.  1.
       -1    1    3    3    0  502 -0.28558502219E+03  0.45161148939E+03 -0.10876995518E+04  0.12118589263E+04  0.50400001928E-02 0. -1.
</event>
<event>
 5   0  0.2087665E-07  0.3284899E+04  0.7818609E-02  0.8166748E-01
       -1   -1    0    0    0  501  0.00000000000E+00  0.00000000000E+00  0.10614387489E+04  0.10614387489E+04  0.50400001928E-02 0. -1.
        1   -1    0    0  501    0  0.00000000000E+00  0.00000000000E+00 -0.25414944870E+04  0.25414944870E+04  0.50400001928E-02 0.  1.
    10030    2    1    2    0    0  0.00000000000E+00  0.00000000000E+00 -0.14800557382E+04  0.36029332359E+04  0.32848992244E+04 0.  0.
        5    1    3    3  502    0 -0.37138285904E+03 -0.12489752320E+04  0.35665434461E+03  0.13509584633E+04  0.46999998093E+01 0. -1.
       -5    1    3    3    0  502  0.37138285904E+03  0.12489752320E+04 -0.18367100828E+04  0.22519747726E+04  0.46999998093E+01 0.  1.
</event>
<event>
 5   0  0.6424183E-07  0.3303733E+04  0.7818609E-02  0.8161946E-01
        2   -1    0    0  501    0  0.00000000000E+00  0.00000000000E+00  0.20009775439E+04  0.20009775439E+04  0.25500000920E-02 0. -1.
       -2   -1    0    0    0  501  0.00000000000E+00  0.00000000000E+00 -0.13636652671E+04  0.13636652671E+04  0.25500000920E-02 0.  1.
    10030    2    1    2    0    0  0.00000000000E+00  0.00000000000E+00  0.63731227679E+03  0.33646428110E+04  0.33037333893E+04 0.  0.
        2    1    3    3  502    0 -0.10882375126E+04 -0.14866335151E+03  0.15752194312E+04  0.19203327660E+04  0.25500000920E-02 0. -1.
       -2    1    3    3    0  502  0.10882375126E+04  0.14866335151E+03 -0.93790715438E+03  0.14443100450E+04  0.25500000920E-02 0.  1.
</event>
<event>
 5   0  0.2080828E-07  0.3264609E+04  0.7818609E-02  0.8171960E-01
       -1   -1    0    0    0  501  0.00000000000E+00  0.00000000000E+00  0.26823263661E+04  0.26823263661E+04  0.50400001928E-02 0.  1.
        1   -1    0    0  501    0  0.00000000000E+00  0.00000000000E+00 -0.99332327765E+03  0.99332327766E+03  0.50400001928E-02 0. -1.
    10030    2    1    2    0    0  0.00000000000E+00  0.00000000000E+00  0.16890030885E+04  0.36756496438E+04  0.32646085326E+04 0.  0.
        1    1    3    3  502    0 -0.86718521213E+03 -0.85311122409E+03  0.20699368155E+04  0.24009263573E+04  0.50400001928E-02 0.  1.
       -1    1    3    3    0  502  0.86718521213E+03  0.85311122409E+03 -0.38093372703E+03  0.12747232865E+04  0.50400001928E-02 0. -1.
</event>
<event>
 5   0  0.6424183E-07  0.3307155E+04  0.7818609E-02  0.8161077E-01
       -2   -1    0    0    0  501  0.00000000000E+00  0.00000000000E+00  0.13055974517E+04  0.13055974517E+04  0.25500000920E-02 0.  1.
        2   -1    0    0  501    0  0.00000000000E+00  0.00000000000E+00 -0.20943047834E+04  0.20943047834E+04  0.25500000920E-02 0. -1.
    10030    2    1    2    0    0  0.00000000000E+00  0.00000000000E+00 -0.78870733170E+03  0.33999022351E+04  0.33071552660E+04 0.  0.
        2    1    3    3  502    0 -0.90112998947E+03  0.11669092054E+04 -0.11640881822E+04  0.18785136804E+04  0.25500000920E-02 0. -1.
       -2    1    3    3    0  502  0.90112998947E+03 -0.11669092054E+04  0.37538085053E+03  0.15213885547E+04  0.25500000920E-02 0.  1.
</event>
<event>
 5   0  0.6424183E-07  0.3288242E+04  0.7818609E-02  0.8165894E-01
        2   -1    0    0  501    0  0.00000000000E+00  0.00000000000E+00  0.18365443914E+04  0.18365443914E+04  0.25500000920E-02 0.  1.
       -2   -1    0    0    0  501  0.00000000000E+00  0.00000000000E+00 -0.14718591576E+04  0.14718591576E+04  0.25500000920E-02 0. -1.
    10030    2    1    2    0    0  0.00000000000E+00  0.00000000000E+00  0.36468523381E+03  0.33084035490E+04  0.32882424976E+04 0.  0.
        2    1    3    3  502    0 -0.69744828754E+03  0.10771819754E+04  0.12164476088E+04  0.17681911398E+04  0.25500000920E-02 0.  1.
       -2    1    3    3    0  502  0.69744828754E+03 -0.10771819754E+04 -0.85176237499E+03  0.15402124092E+04  0.25500000920E-02 0. -1.
</event>
<event>
 5   0  0.2037333E-07  0.3310055E+04  0.7818609E-02  0.8160342E-01
       -1   -1    0    0    0  501  0.00000000000E+00  0.00000000000E+00  0.17334048185E+04  0.17334048185E+04  0.50400001928E-02 0.  1.
        1   -1    0    0  501    0  0.00000000000E+00  0.00000000000E+00 -0.15801939862E+04  0.15801939862E+04  0.50400001928E-02 0. -1.
    10030    2    1    2    0    0  0.00000000000E+00  0.00000000000E+00  0.15321083227E+03  0.33135988047E+04  0.33100549058E+04 0.  0.
        3    1    3    3  502    0  0.39270156972E+03  0.14114906941E+04 -0.69402092445E+03  0.16211679605E+04  0.10100000352E+00 0. -1.
       -3    1    3    3    0  502 -0.39270156972E+03 -0.14114906941E+04  0.84723175673E+03  0.16924308442E+04  0.10100000352E+00 0.  1.
</event>
<event>
 5   0  0.2080828E-07  0.3320857E+04  0.7818609E-02  0.8157609E-01
        1   -1    0    0  501    0  0.00000000000E+00  0.00000000000E+00  0.15666872816E+04  0.15666872816E+04  0.50400001928E-02 0. -1.
       -1   -1    0    0    0  501  0.00000000000E+00  0.00000000000E+00 -0.17597784228E+04  0.17597784228E+04  0.50400001928E-02 0.  1.
    10030    2    1    2    0    0  0.00000000000E+00  0.00000000000E+00 -0.19309114122E+03  0.33264657044E+04  0.33208568012E+04 0.  0.
        1    1    3    3  502    0  0.13136668204E+04 -0.10150362858E+04 -0.64817207015E+02  0.16613911179E+04  0.50400001928E-02 0. -1.
       -1    1    3    3    0  502 -0.13136668204E+04  0.10150362858E+04 -0.12827393421E+03  0.16650745865E+04  0.50400001928E-02 0.  1.
</event>
<event>
 5   0  0.2037333E-07  0.3302889E+04  0.7818609E-02  0.8162161E-01
        1   -1    0    0  501    0  0.00000000000E+00  0.00000000000E+00  0.19292073132E+04  0.19292073132E+04  0.50400001928E-02 0.  1.
       -1   -1    0    0    0  501  0.00000000000E+00  0.00000000000E+00 -0.14136734759E+04  0.14136734759E+04  0.50400001928E-02 0. -1.
    10030    2    1    2    0    0  0.00000000000E+00  0.00000000000E+00  0.51553383723E+03  0.33428807891E+04  0.33028891645E+04 0.  0.
        3    1    3    3  502    0 -0.14303183570E+04  0.12537114582E+03 -0.56804174354E+03  0.15440854767E+04  0.10100000352E+00 0. -1.
       -3    1    3    3    0  502  0.14303183570E+04 -0.12537114582E+03  0.10835755808E+04  0.17987953124E+04  0.10100000352E+00 0.  1.
</event>
<event>
 5   0  0.2080770E-07  0.3300472E+04  0.7818609E-02  0.8162775E-01
        1   -1    0    0  501    0  0.00000000000E+00  0.00000000000E+00  0.19738724714E+04  0.19738724714E+04  0.50400001928E-02 0. -1.
       -1   -1    0    0    0  501  0.00000000000E+00  0.00000000000E+00 -0.13796627729E+04  0.13796627730E+04  0.50400001928E-02 0.  1.
    10030    2    1    2    0    0  0.00000000000E+00  0.00000000000E+00  0.59420969848E+03  0.33535352444E+04  0.33004717041E+04 0.  0.
        4    1    3    3  502    0 -0.40609393113E+03  0.11036963691E+04  0.14733956857E+04  0.18851934691E+04  0.12699999809E+01 0. -1.
       -4    1    3    3    0  502  0.40609393113E+03 -0.11036963691E+04 -0.87918598724E+03  0.14683417753E+04  0.12699999809E+01 0.  1.
</event>
<event>
 5   0  0.2080770E-07  0.3238522E+04  0.7818609E-02  0.8178717E-01
        1   -1    0    0  501    0  0.00000000000E+00  0.00000000000E+00  0.29680139695E+04  0.29680139695E+04  0.50400001928E-02 0.  1.
       -1   -1    0    0    0  501  0.00000000000E+00  0.00000000000E+00 -0.88342091634E+03  0.88342091635E+03  0.50400001928E-02 0. -1.
    10030    2    1    2    0    0  0.00000000000E+00  0.00000000000E+00  0.20845930532E+04  0.38514348859E+04  0.32385216508E+04 0.  0.
        4    1    3    3  502    0  0.49272081232E+03  0.15163934026E+04  0.13782090487E+04  0.21075304375E+04  0.12699999809E+01 0.  1.
       -4    1    3    3    0  502 -0.49272081232E+03 -0.15163934026E+04  0.70638400447E+03  0.17439044483E+04  0.12699999809E+01 0. -1.
</event>
<event>
 5   0  0.6377741E-07  0.3147942E+04  0.7818609E-02  0.8202703E-01
       -2   -1    0    0    0  501  0.00000000000E+00  0.00000000000E+00  0.69281903703E+03  0.69281903703E+03  0.25500000920E-02 0.  1.
        2   -1    0    0  501    0  0.00000000000E+00  0.00000000000E+00 -0.35758023396E+04  0.35758023396E+04  0.25500000920E-02 0. -1.
    10030    2    1    2    0    0  0.00000000000E+00  0.00000000000E+00 -0.28829833026E+04  0.42686213766E+04  0.31479415074E+04 0.  0.
        1    1    3    3  502    0 -0.62182800314E+02  0.47345097256E+03  0.59222573247E+03  0.76075872805E+03  0.50400001928E-02 0.  1.
       -1    1    3    3    0  502  0.62182800314E+02 -0.47345097256E+03 -0.34752090350E+04  0.35078626486E+04  0.50400001928E-02 0. -1.
</event>
<event>
 5   0  0.6351753E-07  0.3374726E+04  0.7818609E-02  0.8144137E-01
        2   -1    0    0  501    0  0.00000000000E+00  0.00000000000E+00  0.20455227512E+04  0.20455227512E+04  0.25500000920E-02 0.  1.
       -2   -1    0    0    0  501  0.00000000000E+00  0.00000000000E+00 -0.13919153056E+04  0.13919153056E+04  0.25500000920E-02 0. -1.
    10030    2    1    2    0    0  0.00000000000E+00  0.00000000000E+00  0.65360744561E+03  0.34374380569E+04  0.33747263151E+04 0.  0.
        3    1    3    3  502    0  0.12321537386E+04  0.11520185601E+04  0.37055320950E+03  0.17270377210E+04  0.10100000352E+00 0.  1.
       -3    1    3    3    0  502 -0.12321537386E+04 -0.11520185601E+04  0.28305423611E+03  0.17104003359E+04  0.10100000352E+00 0. -1.
</event>
<event>
 5   0  0.1994250E-07  0.3292349E+04  0.7818609E-02  0.8164845E-01
       -3   -1    0    0    0  501  0.00000000000E+00  0.00000000000E+00  0.17710942410E+04  0.17710942439E+04  0.10100000352E+00 0.  1.
        3   -1    0    0  501    0  0.00000000000E+00  0.00000000000E+00 -0.15300655473E+04  0.15300655506E+04  0.10100000352E+00 0. -1.
    10030    2    1    2    0    0  0.00000000000E+00  0.00000000000E+00  0.24102869372E+03  0.33011597944E+04  0.32923488815E+04 0.  0.
        1    1    3    3  502    0 -0.28911193619E+03  0.15750100909E+04 -0.26214528425E+03  0.16226406405E+04  0.50400001928E-02 0.  1.
       -1    1    3    3    0  502  0.28911193619E+03 -0.15750100909E+04  0.50317397797E+03  0.16785191540E+04  0.50400001928E-02 0. -1.
</event>
<event>
 5   0  0.6424183E-07  0.3301470E+04  0.7818609E-02  0.8162521E-01
        2   -1    0    0  501    0  0.00000000000E+00  0.00000000000E+00  0.19995585985E+04  0.19995585985E+04  0.25500000920E-02 0.  1.
       -2   -1    0    0    0  501  0.00000000000E+00  0.00000000000E+00 -0.13627638015E+04  0.13627638015E+04  0.25500000920E-02 0. -1.
    10030    2    1    2    0    0  0.00000000000E+00  0.00000000000E+00  0.63679479704E+03  0.33623224000E+04  0.33014700223E+04 0.  0.
        2    1    3    3  502    0 -0.89405240169E+03  0.17664002268E+03  0.17201366309E+04  0.19466384933E+04  0.25500000920E-02 0.  1.
       -2    1    3    3    0  502  0.89405240169E+03 -0.17664002268E+03 -0.10833418339E+04  0.14156839067E+04  0.25500000920E-02 0. -1.
</event>
<event>
 5   0  0.6426079E-07  0.3303419E+04  0.7818609E-02  0.8162026E-01
        2   -1    0    0  501    0  0.00000000000E+00  0.00000000000E+00  0.11481670017E+04  0.11481670017E+04  0.25500000920E-02 0.  1.
       -2   -1    0    0    0  501  0.00000000000E+00  0.00000000000E+00 -0.23760861322E+04  0.23760861322E+04  0.25500000920E-02 0. -1.
    10030    2    1    2    0    0  0.00000000000E+00  0.00000000000E+00 -0.12279191305E+04  0.35242531339E+04  0.33034186476E+04 0.  0.
        4    1    3    3  502    0 -0.10426028739E+04 -0.38265617154E+03  0.69034752042E+03  0.13076803165E+04  0.12699999809E+01 0.  1.
       -4    1    3    3    0  502  0.10426028739E+04  0.38265617154E+03 -0.19182666510E+04  0.22165728175E+04  0.12699999809E+01 0. -1.
</event>
<event>
 5   0  0.2080770E-07  0.3309185E+04  0.7818609E-02  0.8160562E-01
       -1   -1    0    0    0  501  0.00000000000E+00  0.00000000000E+00  0.11838004225E+04  0.11838004225E+04  0.50400001928E-02 0. -1.
        1   -1    0    0  501    0  0.00000000000E+00  0.00000000000E+00 -0.23126166353E+04  0.23126166354E+04  0.50400001928E-02 0.  1.
    10030    2    1    2    0    0  0.00000000000E+00  0.00000000000E+00 -0.11288162128E+04  0.34964170579E+04  0.33091851263E+04 0.  0.
        4    1    3    3  502    0 -0.14035092523E+04  0.83851057578E+03 -0.83323799168E+03  0.18350001010E+04  0.12699999809E+01 0.  1.
       -4    1    3    3    0  502  0.14035092523E+04 -0.83851057578E+03 -0.29557822114E+03  0.16614169569E+04  0.12699999809E+01 0. -1.
</event>
<event>
 5   0  0.6258718E-07  0.3291774E+04  0.7818609E-02  0.8164992E-01
       -2   -1    0    0    0  501  0.00000000000E+00  0.00000000000E+00  0.12422902192E+04  0.12422902192E+04  0.25500000920E-02 0.  1.
        2   -1    0    0  501    0  0.00000000000E+00  0.00000000000E+00 -0.21806052314E+04  0.21806052314E+04  0.25500000920E-02 0. -1.
    10030    2    1    2    0    0  0.00000000000E+00  0.00000000000E+00 -0.93831501220E+03  0.34228954505E+04  0.32917743245E+04 0.  0.
        5    1    3    3  502    0 -0.92627469272E+03  0.28982053493E+03  0.91305459971E+03  0.13325432604E+04  0.46999998093E+01 0.  1.
       -5    1    3    3    0  502  0.92627469272E+03 -0.28982053493E+03 -0.18513696119E+04  0.20903521901E+04  0.46999998093E+01 0. -1.
</event>
<event>
 5   0  0.6351753E-07  0.3296673E+04  0.7818609E-02  0.8163743E-01
        2   -1    0    0  501    0  0.00000000000E+00  0.00000000000E+00  0.23999954606E+04  0.23999954606E+04  0.25500000920E-02 0.  1.
       -2   -1    0    0    0  501  0.00000000000E+00  0.00000000000E+00 -0.11320906813E+04  0.11320906813E+04  0.25500000920E-02 0. -1.
    10030    2    1    2    0    0  0.00000000000E+00  0.00000000000E+00  0.12679047793E+04  0.35320861419E+04  0.32966725625E+04 0.  0.
        3    1    3    3  502    0  0.13843949541E+04 -0.88302664453E+03  0.47970275824E+03  0.17106724381E+04  0.10100000352E+00 0. -1.
       -3    1    3    3    0  502 -0.13843949541E+04  0.88302664453E+03  0.78820202110E+03  0.18214137038E+04  0.10100000352E+00 0.  1.
</event>
<event>
 5   0  0.2080770E-07  0.3318042E+04  0.7818609E-02  0.8158320E-01
        1   -1    0    0  501    0  0.00000000000E+00  0.00000000000E+00  0.12889675150E+04  0.12889675150E+04  0.50400001928E-02 0.  1.
       -1   -1    0    0    0  501  0.00000000000E+00  0.00000000000E+00 -0.21353145053E+04  0.21353145053E+04  0.50400001928E-02 0. -1.
    10030    2    1    2    0    0  0.00000000000E+00  0.00000000000E+00 -0.84634699024E+03  0.34242820203E+04  0.33180422129E+04 0.  0.
        4    1    3    3  502    0  0.23661723493E+03  0.14698051920E+04 -0.11787595771E+04  0.18988919853E+04  0.12699999809E+01 0. -1.
       -4    1    3    3    0  502 -0.23661723493E+03 -0.14698051920E+04  0.33241258690E+03  0.15253900350E+04  0.12699999809E+01 0.  1.
</event>
<event>
 5   0  0.2037333E-07  0.3350066E+04  0.7818609E-02  0.8150272E-01
       -1   -1    0    0    0  501  0.00000000000E+00  0.00000000000E+00  0.14220962860E+04  0.14220962860E+04  0.50400001928E-02 0.  1.
        1   -1    0    0  501    0  0.00000000000E+00  0.00000000000E+00 -0.19729570830E+04  0.19729570831E+04  0.50400001928E-02 0. -1.
    10030    2    1    2    0    0  0.00000000000E+00  0.00000000000E+00 -0.55086079705E+03  0.33950533691E+04  0.33500656353E+04 0.  0.
        3    1    3    3  502    0 -0.52233608357E+03 -0.10853022709E+04  0.90425436543E+03  0.15061181797E+04  0.10100000352E+00 0.  1.
       -3    1    3    3    0  502  0.52233608357E+03  0.10853022709E+04 -0.14551151625E+04  0.18889351894E+04  0.10100000352E+00 0. -1.
</event>
<event>
 5   0  0.6426079E-07  0.3232189E+04  0.7818609E-02  0.8180367E-01
        2   -1    0    0  501    0  0.00000000000E+00  0.00000000000E+00  0.18914275484E+04  0.18914275484E+04  0.25500000920E-02 0. -1.
       -2   -1    0    0    0  501  0.00000000000E+00  0.00000000000E+00 -0.13808416816E+04  0.13808416816E+04  0.25500000920E-02 0.  1.
    10030    2    1    2    0    0  0.00000000000E+00  0.00000000000E+00  0.51058586683E+03  0.32722692300E+04  0.32321893487E+04 0.  0.
        4    1    3    3  502    0 -0.47660599522E+03 -0.38084089009E+03  0.17703685024E+04  0.18725381986E+04  0.12699999809E+01 0. -1.
       -4    1    3    3    0  502  0.47660599522E+03  0.38084089009E+03 -0.12597826356E+04  0.13997310313E+04  0.12699999809E+01 0.  1.
</event>
<event>
 5   0  0.6258718E-07  0.3310876E+04  0.7818609E-02  0.8160134E-01
        2   -1    0    0  501    0  0.00000000000E+00  0.00000000000E+00  0.15536337132E+04  0.15536337132E+04  0.25500000920E-02 0. -1.
       -2   -1    0    0    0  501  0.00000000000E+00  0.00000000000E+00 -0.17639128832E+04  0.17639128832E+04  0.25500000920E-02 0.  1.
    10030    2    1    2    0    0  0.00000000000E+00  0.00000000000E+00 -0.21027917003E+03  0.33175465965E+04  0.33108757286E+04 0.  0.
        5    1    3    3  502    0 -0.11031969410E+04 -0.13141633767E+03  0.11245815394E+04  0.15808287299E+04  0.46999998093E+01 0. -1.
       -5    1    3    3    0  502  0.11031969410E+04  0.13141633767E+03 -0.13348607094E+04  0.17367178666E+04  0.46999998093E+01 0.  1.
</event>
<event>
 5   0  0.6424183E-07  0.3346963E+04  0.7818609E-02  0.8151047E-01
       -2   -1    0    0    0  501  0.00000000000E+00  0.00000000000E+00  0.17985267564E+04  0.17985267564E+04  0.25500000920E-02 0.  1.
        2   -1    0    0  501    0  0.00000000000E+00  0.00000000000E+00 -0.15571304295E+04  0.15571304295E+04  0.25500000920E-02 0. -1.
    10030    2    1    2    0    0  0.00000000000E+00  0.00000000000E+00  0.24139632687E+03  0.33556571859E+04  0.33469632449E+04 0.  0.
        2    1    3    3  502    0  0.11314123294E+04 -0.38829380663E+03 -0.10526729077E+04  0.15934196528E+04  0.25500000920E-02 0. -1.
       -2    1    3    3    0  502 -0.11314123294E+04  0.38829380663E+03  0.12940692345E+04  0.17622375331E+04  0.25500000920E-02 0.  1.
</event>
<event>
 5   0  0.6424183E-07  0.3273650E+04  0.7818609E-02  0.8169633E-01
       -2   -1    0    0    0  501  0.00000000000E+00  0.00000000000E+00  0.12263188550E+04  0.12263188550E+04  0.25500000920E-02 0.  1.
        2   -1    0    0  501    0  0.00000000000E+00  0.00000000000E+00 -0.21847469309E+04  0.21847469309E+04  0.25500000920E-02 0. -1.
    10030    2    1    2    0    0  0.00000000000E+00  0.00000000000E+00 -0.95842807587E+03  0.34110657859E+04  0.32736501675E+04 0.  0.
        2    1    3    3  502    0 -0.12975188502E+04  0.95190516625E+03 -0.79096829256E+03  0.17931283981E+04  0.25500000920E-02 0.  1.
       -2    1    3    3    0  502  0.12975188502E+04 -0.95190516625E+03 -0.16745978330E+03  0.16179373879E+04  0.25500000920E-02 0. -1.
</event>
<event>
 5   0  0.6426079E-07  0.3290572E+04  0.7818609E-02  0.8165298E-01
       -2   -1    0    0    0  501  0.00000000000E+00  0.00000000000E+00  0.13284091411E+04  0.13284091411E+04  0.25500000920E-02 0. -1.
        2   -1    0    0  501    0  0.00000000000E+00  0.00000000000E+00 -0.20377501902E+04  0.20377501902E+04  0.25500000920E-02 0.  1.
    10030    2    1    2    0    0  0.00000000000E+00  0.00000000000E+00 -0.70934104908E+03  0.33661593313E+04  0.32905719745E+04 0.  0.
        4    1    3    3  502    0 -0.55960722264E+03 -0.14466103895E+04  0.20668096699E+03  0.15647876846E+04  0.12699999809E+01 0.  1.
       -4    1    3    3    0  502  0.55960722264E+03  0.14466103895E+04 -0.91602201608E+03  0.18013716467E+04  0.12699999809E+01 0. -1.
</event>
<event>
 5   0  0.6258718E-07  0.3292836E+04  0.7818609E-02  0.8164721E-01
        2   -1    0    0  501    0  0.00000000000E+00  0.00000000000E+00  0.27385583518E+04  0.27385583518E+04  0.25500000920E-02 0. -1.
       -2   -1    0    0    0  501  0.00000000000E+00  0.00000000000E+00 -0.98982454332E+03  0.98982454332E+03  0.25500000920E-02 0.  1.
    10030    2    1    2    0    0  0.00000000000E+00  0.00000000000E+00  0.17487338085E+04  0.37283828951E+04  0.32928360238E+04 0.  0.
        5    1    3    3  502    0  0.16116361857E+04  0.60326769819E+02  0.49941646936E+03  0.16883274013E+04  0.46999998093E+01 0.  1.
       -5    1    3    3    0  502 -0.16116361857E+04 -0.60326769819E+02  0.12493173391E+04  0.20400554938E+04  0.46999998093E+01 0. -1.
</event>
<event>
 5   0  0.6258718E-07  0.3290100E+04  0.7818609E-02  0.8165419E-01
       -2   -1    0    0    0  501  0.00000000000E+00  0.00000000000E+00  0.10537196695E+04  0.10537196695E+04  0.25500000920E-02 0.  1.
        2   -1    0    0  501    0  0.00000000000E+00  0.00000000000E+00 -0.25682246295E+04  0.25682246295E+04  0.25500000920E-02 0. -1.
    10030    2    1    2    0    0  0.00000000000E+00  0.00000000000E+00 -0.15145049600E+04  0.36219442991E+04  0.32900995778E+04 0.  0.
        5    1    3    3  502    0 -0.97826092115E+03 -0.12118687334E+04 -0.17416311283E+03  0.15671551094E+04  0.46999998093E+01 0.  1.
       -5    1    3    3    0  502  0.97826092115E+03  0.12118687334E+04 -0.13403418472E+04  0.20547891897E+04  0.46999998093E+01 0. -1.
</event>
<event>
 5   0  0.6351753E-07  0.3307330E+04  0.7818609E-02  0.8161033E-01
        2   -1    0    0  501    0  0.00000000000E+00  0.00000000000E+00  0.15845279735E+04  0.15845279736E+04  0.25500000920E-02 0.  1.
       -2   -1    0    0    0  501  0.00000000000E+00  0.00000000000E+00 -0.17258184337E+04  0.17258184337E+04  0.25500000920E-02 0. -1.
    10030    2    1    2    0    0  0.00000000000E+00  0.00000000000E+00 -0.14129046012E+03  0.33103464072E+04  0.33073297903E+04 0.  0.
        3    1    3    3  502    0 -0.95056078724E+03  0.17943690794E+03 -0.14130785098E+04  0.17124702331E+04  0.10100000352E+00 0. -1.
       -3    1    3    3    0  502  0.95056078724E+03 -0.17943690794E+03  0.12717880497E+04  0.15978761741E+04  0.10100000352E+00 0.  1.
</event>
<event>
 5   0  0.2080828E-07  0.3289307E+04  0.7818609E-02  0.8165621E-01
       -1   -1    0    0    0  501  0.00000000000E+00  0.00000000000E+00  0.27254039625E+04  0.27254039625E+04  0.50400001928E-02 0.  1.
        1   -1    0    0  501    0  0.00000000000E+00  0.00000000000E+00 -0.99247154645E+03  0.99247154646E+03  0.50400001928E-02 0. -1.
    10030    2    1    2    0    0  0.00000000000E+00  0.00000000000E+00  0.17329324161E+04  0.37178755090E+04  0.32893074562E+04 0.  0.
        1    1    3    3  502    0 -0.11311674241E+01  0.41581559265E+02  0.27248092896E+04  0.27251267806E+04  0.50400001928E-02 0.  1.
       -1    1    3    3    0  502  0.11311674241E+01 -0.41581559265E+02 -0.99187687349E+03  0.99274872843E+03  0.50400001928E-02 0. -1.
</event>
<event>
 5   0  0.2080828E-07  0.3303707E+04  0.7818609E-02  0.8161953E-01
        1   -1    0    0  501    0  0.00000000000E+00  0.00000000000E+00  0.19126257646E+04  0.19126257646E+04  0.50400001928E-02 0.  1.
       -1   -1    0    0    0  501  0.00000000000E+00  0.00000000000E+00 -0.14266354637E+04  0.14266354637E+04  0.50400001928E-02 0. -1.
    10030    2    1    2    0    0  0.00000000000E+00  0.00000000000E+00  0.48599030082E+03  0.33392612283E+04  0.33037068542E+04 0.  0.
        1    1    3    3  502    0  0.58407483410E+01  0.15541396507E+04 -0.32270257384E+03  0.15872999463E+04  0.50400001928E-02 0. -1.
       -1    1    3    3    0  502 -0.58407483410E+01 -0.15541396507E+04  0.80869287466E+03  0.17519612820E+04  0.50400001928E-02 0.  1.
</event>
<event>
 5   0  0.6424183E-07  0.3301091E+04  0.7818609E-02  0.8162618E-01
       -2   -1    0    0    0  501  0.00000000000E+00  0.00000000000E+00  0.10958225554E+04  0.10958225554E+04  0.25500000920E-02 0. -1.
        2   -1    0    0  501    0  0.00000000000E+00  0.00000000000E+00 -0.24860783138E+04  0.24860783138E+04  0.25500000920E-02 0.  1.
    10030    2    1    2    0    0  0.00000000000E+00  0.00000000000E+00 -0.13902557584E+04  0.35819008692E+04  0.33010911474E+04 0.  0.
        2    1    3    3  502    0 -0.65547971675E+03 -0.72345559521E+03  0.74897151413E+03  0.12304470677E+04  0.25500000920E-02 0. -1.
       -2    1    3    3    0  502  0.65547971675E+03  0.72345559521E+03 -0.21392272726E+04  0.23514538016E+04  0.25500000920E-02 0.  1.
</event>
<event>
 5   0  0.6426079E-07  0.3292155E+04  0.7818609E-02  0.8164895E-01
        2   -1    0    0  501    0  0.00000000000E+00  0.00000000000E+00  0.14730114902E+04  0.14730114902E+04  0.25500000920E-02 0. -1.
       -2   -1    0    0    0  501  0.00000000000E+00  0.00000000000E+00 -0.18394767950E+04  0.18394767950E+04  0.25500000920E-02 0.  1.
    10030    2    1    2    0    0  0.00000000000E+00  0.00000000000E+00 -0.36646530479E+03  0.33124882851E+04  0.32921545862E+04 0.  0.
        4    1    3    3  502    0 -0.52786667739E+03 -0.10478170017E+04  0.97845679399E+03  0.15277247818E+04  0.12699999809E+01 0. -1.
       -4    1    3    3    0  502  0.52786667739E+03  0.10478170017E+04 -0.13449220988E+04  0.17847635034E+04  0.12699999809E+01 0.  1.
</event>
<event>
 5   0  0.2087665E-07  0.3309728E+04  0.7818609E-02  0.8160425E-01
       -1   -1    0    0    0  501  0.00000000000E+00  0.00000000000E+00  0.30269847083E+04  0.30269847083E+04  0.50400001928E-02 0.  1.
        1   -1    0    0  501    0  0.00000000000E+00  0.00000000000E+00 -0.90472037001E+03  0.90472037002E+03  0.50400001928E-02 0. -1.
    10030    2    1    2    0    0  0.00000000000E+00  0.00000000000E+00  0.21222643383E+04  0.39317050784E+04  0.33097279196E+04 0.  0.
        5    1    3    3  502    0  0.89296605885E+03  0.13760947422E+04  0.13201091640E+04  0.21056437061E+04  0.46999998093E+01 0.  1.
       -5    1    3    3    0  502 -0.89296605885E+03 -0.13760947422E+04  0.80215517429E+03  0.18260613723E+04  0.46999998093E+01 0. -1.
</event>
<event>
 5   0  0.6377741E-07  0.3302788E+04  0.7818609E-02  0.8162186E-01
        2   -1    0    0  501    0  0.00000000000E+00  0.00000000000E+00  0.27775627567E+04  0.27775627567E+04  0.25500000920E-02 0.  1.
       -2   -1    0    0    0  501  0.00000000000E+00  0.00000000000E+00 -0.98183252919E+03  0.98183252919E+03  0.25500000920E-02 0. -1.
    10030    2    1    2    0    0  0.00000000000E+00  0.00000000000E+00  0.17957302275E+04  0.37593952859E+04  0.33027875901E+04 0.  0.
        1    1    3    3  502    0  0.86718283091E+03  0.13346230216E+04  0.13990526514E+04  0.21190972119E+04  0.50400001928E-02 0.  1.
       -1    1    3    3    0  502 -0.86718283091E+03 -0.13346230216E+04  0.39667757615E+03  0.16402980740E+04  0.50400001928E-02 0. -1.
</event>
<event>
 5   0  0.2087665E-07  0.3310625E+04  0.7818609E-02  0.8160197E-01
        1   -1    0    0  501    0  0.00000000000E+00  0.00000000000E+00  0.14025639549E+04  0.14025639549E+04  0.50400001928E-02 0.  1.
       -1   -1    0    0    0  501  0.00000000000E+00  0.00000000000E+00 -0.19536074068E+04  0.19536074068E+04  0.50400001928E-02 0. -1.
    10030    2    1    2    0    0  0.00000000000E+00  0.00000000000E+00 -0.55104345192E+03  0.33561713616E+04  0.33106249142E+04 0.  0.
        5    1    3    3  502    0  0.58902236369E+03 -0.32801077413E+03 -0.18081070047E+04  0.19297179699E+04  0.46999998093E+01 0. -1.
       -5    1    3    3    0  502 -0.58902236369E+03  0.32801077413E+03  0.12570635528E+04  0.14264533917E+04  0.46999998093E+01 0.  1.
</event>
<event>
 5   0  0.2080770E-07  0.3332340E+04  0.7818609E-02  0.8154715E-01
       -1   -1    0    0    0  501  0.00000000000E+00  0.00000000000E+00  0.15884676258E+04  0.15884676259E+04  0.50400001928E-02 0. -1.
        1   -1    0    0  501    0  0.00000000000E+00  0.00000000000E+00 -0.17476737717E+04  0.17476737717E+04  0.50400001928E-02 0.  1.
    10030    2    1    2    0    0  0.00000000000E+00  0.00000000000E+00 -0.15920614585E+03  0.33361413976E+04  0.33323404429E+04 0.  0.
        4    1    3    3  502    0 -0.39849132721E+03  0.15065709330E+04 -0.66982644399E+03  0.16962371273E+04  0.12699999809E+01 0.  1.
       -4    1    3    3    0  502  0.39849132721E+03 -0.15065709330E+04  0.51062029814E+03  0.16399042703E+04  0.12699999809E+01 0. -1.
</event>
<event>
 5   0  0.2080828E-07  0.3309400E+04  0.7818609E-02  0.8160508E-01
       -1   -1    0    0    0  501  0.00000000000E+00  0.00000000000E+00  0.98285313319E+03  0.98285313320E+03  0.50400001928E-02 0.  1.
        1   -1    0    0  501    0  0.00000000000E+00  0.00000000000E+00 -0.27857996191E+04  0.27857996191E+04  0.50400001928E-02 0. -1.
    10030    2    1    2    0    0  0.00000000000E+00  0.00000000000E+00 -0.18029464859E+04  0.37686527523E+04  0.33093998756E+04 0.  0.
        1    1    3    3  502    0  0.13155509294E+04  0.46155587366E+03 -0.19164022561E+04  0.23698746126E+04  0.50400001928E-02 0. -1.
       -1    1    3    3    0  502 -0.13155509294E+04 -0.46155587366E+03  0.11345577016E+03  0.13987781397E+04  0.50400001928E-02 0.  1.
</event>
<event>
 5   0  0.2080828E-07  0.3294865E+04  0.7818609E-02  0.8164203E-01
        1   -1    0    0  501    0  0.00000000000E+00  0.00000000000E+00  0.22152126706E+04  0.22152126706E+04  0.50400001928E-02 0. -1.
       -1   -1    0    0    0  501  0.00000000000E+00  0.00000000000E+00 -0.12251801400E+04  0.12251801400E+04  0.50400001928E-02 0.  1.
    10030    2    1    2    0    0  0.00000000000E+00  0.00000000000E+00  0.99003253057E+03  0.34403928107E+04  0.32948654419E+04 0.  0.
        1    1    3    3  502    0 -0.11671356726E+04 -0.10157253542E+04  0.10858076364E+04  0.18902068397E+04  0.50400001928E-02 0. -1.
       -1    1    3    3    0  502  0.11671356726E+04  0.10157253542E+04 -0.95775105871E+02  0.15501859709E+04  0.50400001928E-02 0.  1.
</event>
<event>
 5   0  0.2080828E-07  0.3303065E+04  0.7818609E-02  0.8162116E-01
       -1   -1    0    0    0  501  0.00000000000E+00  0.00000000000E+00  0.10332415002E+04  0.10332415002E+04  0.50400001928E-02 0.  1.
        1   -1    0    0  501    0  0.00000000000E+00  0.00000000000E+00 -0.26398086426E+04  0.26398086426E+04  0.50400001928E-02 0. -1.
    10030    2    1    2    0    0  0.00000000000E+00  0.00000000000E+00 -0.16065671425E+04  0.36730501428E+04  0.33030651475E+04 0.  0.
        1    1    3    3  502    0  0.51625483436E+03 -0.90626433280E+03  0.62066834936E+03  0.12136981893E+04  0.50400001928E-02 0.  1.
       -1    1    3    3    0  502 -0.51625483436E+03  0.90626433280E+03 -0.22272354918E+04  0.24593519535E+04  0.50400001928E-02 0. -1.
</event>
<event>
 5   0  0.2057130E-07  0.3308883E+04  0.7818609E-02  0.8160639E-01
       -1   -1    0    0    0  501  0.00000000000E+00  0.00000000000E+00  0.21417951883E+04  0.21417951884E+04  0.50400001928E-02 0. -1.
        1   -1    0    0  501    0  0.00000000000E+00  0.00000000000E+00 -0.12779822638E+04  0.12779822638E+04  0.50400001928E-02 0.  1.
    10030    2    1    2    0    0  0.00000000000E+00  0.00000000000E+00  0.86381292453E+03  0.34197774522E+04  0.33088827501E+04 0.  0.
        2    1    3    3  502    0  0.14848508838E+04  0.72940846975E+03  0.45144508817E+03  0.17148240524E+04  0.25500000920E-02 0. -1.
       -2    1    3    3    0  502 -0.14848508838E+04 -0.72940846975E+03  0.41236783636E+03  0.17049533998E+04  0.25500000920E-02 0.  1.
</event>
<event>
 5   0  0.2087665E-07  0.3288258E+04  0.7818609E-02  0.8165890E-01
       -1   -1    0    0    0  501  0.00000000000E+00  0.00000000000E+00  0.10726443982E+04  0.10726443982E+04  0.50400001928E-02 0.  1.
        1   -1    0    0  501    0  0.00000000000E+00  0.00000000000E+00 -0.25200897013E+04  0.25200897013E+04  0.50400001928E-02 0. -1.
    10030    2    1    2    0    0  0.00000000000E+00  0.00000000000E+00 -0.14474453031E+04  0.35927340995E+04  0.32882579588E+04 0.  0.
        5    1    3    3  502    0  0.59875994413E+02 -0.29286007161E+03 -0.24901435642E+04  0.25080249633E+04  0.46999998093E+01 0. -1.
       -5    1    3    3    0  502 -0.59875994413E+02  0.29286007161E+03  0.10426982611E+04  0.10847091361E+04  0.46999998093E+01 0.  1.
</event>
<event>
 5   0  0.6351753E-07  0.3301596E+04  0.7818609E-02  0.8162489E-01
       -2   -1    0    0    0  501  0.00000000000E+00  0.00000000000E+00  0.16835281467E+04  0.16835281467E+04  0.25500000920E-02 0. -1.
        2   -1    0    0  501    0  0.00000000000E+00  0.00000000000E+00 -0.16187040068E+04  0.16187040068E+04  0.25500000920E-02 0.  1.
    10030    2    1    2    0    0  0.00000000000E+00  0.00000000000E+00  0.64824139874E+02  0.33022321535E+04  0.33015958302E+04 0.  0.
        3    1    3    3  502    0  0.21211275613E+03  0.16047508484E+04  0.35638287877E+03  0.16574757535E+04  0.10100000352E+00 0. -1.
       -3    1    3    3    0  502 -0.21211275613E+03 -0.16047508484E+04 -0.29155873890E+03  0.16447564000E+04  0.10100000352E+00 0.  1.
</event>
<event>
 5   0  0.2037333E-07  0.3299979E+04  0.7818609E-02  0.8162901E-01
        1   -1    0    0  501    0  0.00000000000E+00  0.00000000000E+00  0.22108473772E+04  0.22108473772E+04  0.50400001928E-02 0.  1.
       -1   -1    0    0    0  501  0.00000000000E+00  0.00000000000E+00 -0.12314125359E+04  0.12314125359E+04  0.50400001928E-02 0. -1.
    10030    2    1    2    0    0  0.00000000000E+00  0.00000000000E+00  0.97943484135E+03  0.34422599132E+04  0.32999788941E+04 0.  0.
        3    1    3    3  502    0 -0.43613677390E+03  0.13327853378E+04  0.13966482909E+04  0.19791812704E+04  0.10100000352E+00 0.  1.
       -3    1    3    3    0  502  0.43613677390E+03 -0.13327853378E+04 -0.41721344959E+03  0.14630786428E+04  0.10100000352E+00 0. -1.
</event>
<event>
 5   0  0.2057130E-07  0.3310222E+04  0.7818609E-02  0.8160299E-01
       -1   -1    0    0    0  501  0.00000000000E+00  0.00000000000E+00  0.11175142933E+04  0.11175142933E+04  0.50400001928E-02 0.  1.
        1   -1    0    0  501    0  0.00000000000E+00  0.00000000000E+00 -0.24513272165E+04  0.24513272165E+04  0.50400001928E-02 0. -1.
    10030    2    1    2    0    0  0.00000000000E+00  0.00000000000E+00 -0.13338129232E+04  0.35688415098E+04  0.33102224710E+04 0.  0.
        2    1    3    3  502    0  0.15857695448E+04 -0.46393260641E+03 -0.56185297839E+03  0.17451582398E+04  0.25500000920E-02 0.  1.
       -2    1    3    3    0  502 -0.15857695448E+04  0.46393260641E+03 -0.77195994484E+03  0.18236832700E+04  0.25500000920E-02 0. -1.
</event>
<event>
 5   0  0.6258718E-07  0.3296682E+04  0.7818609E-02  0.8163740E-01
        2   -1    0    0  501    0  0.00000000000E+00  0.00000000000E+00  0.19320524378E+04  0.19320524378E+04  0.25500000920E-02 0.  1.
       -2   -1    0    0    0  501  0.00000000000E+00  0.00000000000E+00 -0.14062912938E+04  0.14062912938E+04  0.25500000920E-02 0. -1.
    10030    2    1    2    0    0  0.00000000000E+00  0.00000000000E+00  0.52576114396E+03  0.33383437316E+04  0.32966822852E+04 0.  0.
        5    1    3    3  502    0  0.25732073577E+03 -0.90251504316E+03  0.16350916907E+04  0.18852836103E+04  0.46999998093E+01 0.  1.
       -5    1    3    3    0  502 -0.25732073577E+03  0.90251504316E+03 -0.11093305467E+04  0.14530601213E+04  0.46999998093E+01 0. -1.
</event>
<event>
 5   0  0.6351753E-07  0.3296757E+04  0.7818609E-02  0.8163721E-01
       -2   -1    0    0    0  501  0.00000000000E+00  0.00000000000E+00  0.14035346377E+04  0.14035346377E+04  0.25500000920E-02 0.  1.
        2   -1    0    0  501    0  0.00000000000E+00  0.00000000000E+00 -0.19359344788E+04  0.19359344788E+04  0.25500000920E-02 0. -1.
    10030    2    1    2    0    0  0.00000000000E+00  0.00000000000E+00 -0.53239984108E+03  0.33394691165E+04  0.32967566469E+04 0.  0.
        3    1    3    3  502    0  0.15837752509E+04 -0.34836131767E+03 -0.56575315176E+03  0.17174912786E+04  0.10100000352E+00 0. -1.
       -3    1    3    3    0  502 -0.15837752509E+04  0.34836131767E+03  0.33353310685E+02  0.16219778379E+04  0.10100000352E+00 0.  1.
</event>
<event>
 5   0  0.2080828E-07  0.3355327E+04  0.7818609E-02  0.8148958E-01
        1   -1    0    0  501    0  0.00000000000E+00  0.00000000000E+00  0.22436733374E+04  0.22436733374E+04  0.50400001928E-02 0.  1.
       -1   -1    0    0    0  501  0.00000000000E+00  0.00000000000E+00 -0.12544402394E+04  0.12544402394E+04  0.50400001928E-02 0. -1.
    10030    2    1    2    0    0  0.00000000000E+00  0.00000000000E+00  0.98923309805E+03  0.34981135768E+04  0.33553265823E+04 0.  0.
        1    1    3    3  502    0  0.22233189126E+03 -0.15141227743E+04 -0.22206336278E+03  0.15463865566E+04  0.50400001928E-02 0.  1.
       -1    1    3    3    0  502 -0.22233189126E+03  0.15141227743E+04  0.12112964608E+04  0.19517270202E+04  0.50400001928E-02 0. -1.
</event>
<event>
 5   0  0.6426079E-07  0.3306230E+04  0.7818609E-02  0.8161312E-01
        2   -1    0    0  501    0  0.00000000000E+00  0.00000000000E+00  0.20185858565E+04  0.20185858565E+04  0.25500000920E-02 0. -1.
       -2   -1    0    0    0  501  0.00000000000E+00  0.00000000000E+00 -0.13538135199E+04  0.13538135199E+04  0.25500000920E-02 0.  1.
    10030    2    1    2    0    0  0.00000000000E+00  0.00000000000E+00  0.66477233658E+03  0.33723993765E+04  0.33062297704E+04 0.  0.
        4    1    3    3  502    0 -0.81480772847E+02 -0.64238002386E+03 -0.12190729802E+04  0.13803737738E+04  0.12699999809E+01 0.  1.
       -4    1    3    3    0  502  0.81480772847E+02  0.64238002386E+03  0.18838453168E+04  0.19920256027E+04  0.12699999809E+01 0. -1.
</event>
<event>
 5   0  0.6377741E-07  0.3483350E+04  0.7818609E-02  0.8117747E-01
       -2   -1    0    0    0  501  0.00000000000E+00  0.00000000000E+00  0.23782325772E+04  0.23782325772E+04  0.25500000920E-02 0. -1.
        2   -1    0    0  501    0  0.00000000000E+00  0.00000000000E+00 -0.12754982967E+04  0.12754982967E+04  0.25500000920E-02 0.  1.
    10030    2    1    2    0    0  0.00000000000E+00  0.00000000000E+00  0.11027342805E+04  0.36537308739E+04  0.34833498828E+04 0.  0.
        1    1    3    3  502    0  0.54838347908E+03 -0.16134782611E+04  0.17405714724E+03  0.17129893257E+04  0.50400001928E-02 0. -1.
       -1    1    3    3    0  502 -0.54838347908E+03  0.16134782611E+04  0.92867713323E+03  0.19407415483E+04  0.50400001928E-02 0.  1.
</event>
<event>
 5   0  0.6351753E-07  0.3290656E+04  0.7818609E-02  0.8165277E-01
        2   -1    0    0  501    0  0.00000000000E+00  0.00000000000E+00  0.14847934415E+04  0.14847934415E+04  0.25500000920E-02 0. -1.
       -2   -1    0    0    0  501  0.00000000000E+00  0.00000000000E+00 -0.18232195172E+04  0.18232195172E+04  0.25500000920E-02 0.  1.
    10030    2    1    2    0    0  0.00000000000E+00  0.00000000000E+00 -0.33842607572E+03  0.33080129586E+04  0.32906560935E+04 0.  0.
        3    1    3    3  502    0 -0.17135834647E+03 -0.58231360955E+03  0.13681182452E+04  0.14967298907E+04  0.10100000352E+00 0. -1.
       -3    1    3    3    0  502  0.17135834647E+03  0.58231360955E+03 -0.17065443209E+04  0.18112830679E+04  0.10100000352E+00 0.  1.
</event>
<event>
 5   0  0.2087665E-07  0.3296873E+04  0.7818609E-02  0.8163692E-01
       -1   -1    0    0    0  501  0.00000000000E+00  0.00000000000E+00  0.12331991983E+04  0.12331991983E+04  0.50400001928E-02 0. -1.
        1   -1    0    0  501    0  0.00000000000E+00  0.00000000000E+00 -0.22034906259E+04  0.22034906259E+04  0.50400001928E-02 0.  1.
    10030    2    1    2    0    0  0.00000000000E+00  0.00000000000E+00 -0.97029142768E+03  0.34366898242E+04  0.32968729871E+04 0.  0.
        5    1    3    3  502    0  0.14204654682E+04 -0.24341388490E+03 -0.13192997533E+04  0.19538542409E+04  0.46999998093E+01 0.  1.
       -5    1    3    3    0  502 -0.14204654682E+04  0.24341388490E+03  0.34900832560E+03  0.14828355833E+04  0.46999998093E+01 0. -1.
</event>
<event>
 5   0  0.2057130E-07  0.3287147E+04  0.7818609E-02  0.8166174E-01
       -1   -1    0    0    0  501  0.00000000000E+00  0.00000000000E+00  0.26778355088E+04  0.26778355088E+04  0.50400001928E-02 0. -1.
        1   -1    0    0  501    0  0.00000000000E+00  0.00000000000E+00 -0.10087751448E+04  0.10087751448E+04  0.50400001928E-02 0.  1.
    10030    2    1    2    0    0  0.00000000000E+00  0.00000000000E+00  0.16690603639E+04  0.36866106536E+04  0.32871470324E+04 0.  0.
        2    1    3    3  502    0 -0.14213610058E+04 -0.27856056062E+03  0.17057671138E+04  0.22377454148E+04  0.25500000920E-02 0. -1.
       -2    1    3    3    0  502  0.14213610058E+04  0.27856056062E+03 -0.36706749875E+02  0.14488652388E+04  0.25500000920E-02 0.  1.
</event>
<event>
 5   0  0.2037333E-07  0.3270116E+04  0.7818609E-02  0.8170541E-01
        1   -1    0    0  501    0  0.00000000000E+00  0.00000000000E+00  0.15121625793E+04  0.15121625793E+04  0.50400001928E-02 0. -1.
       -1   -1    0    0    0  501  0.00000000000E+00  0.00000000000E+00 -0.17679415405E+04  0.17679415405E+04  0.50400001928E-02 0.  1.
    10030    2    1    2    0    0  0.00000000000E+00  0.00000000000E+00 -0.25577896115E+03  0.32801041198E+04  0.32701162304E+04 0.  0.
        3    1    3    3  502    0  0.61763871579E+03  0.14065477067E+04 -0.68956495103E+03  0.16838509038E+04  0.10100000352E+00 0.  1.
       -3    1    3    3    0  502 -0.61763871579E+03 -0.14065477067E+04  0.43378598988E+03  0.15962532160E+04  0.10100000352E+00 0. -1.
</event>
<event>
 5   0  0.6424183E-07  0.3307677E+04  0.7818609E-02  0.8160945E-01
       -2   -1    0    0    0  501  0.00000000000E+00  0.00000000000E+00  0.18484649450E+04  0.18484649450E+04  0.25500000920E-02 0.  1.
        2   -1    0    0  501    0  0.00000000000E+00  0.00000000000E+00 -0.14797042755E+04  0.14797042755E+04  0.25500000920E-02 0. -1.
    10030    2    1    2    0    0  0.00000000000E+00  0.00000000000E+00  0.36876066950E+03  0.33281692206E+04  0.33076768175E+04 0.  0.
        2    1    3    3  502    0  0.11284644034E+04 -0.11179484234E+04  0.64760290554E+03  0.17154096043E+04  0.25500000920E-02 0. -1.
       -2    1    3    3    0  502 -0.11284644034E+04  0.11179484234E+04 -0.27884223605E+03  0.16127596163E+04  0.25500000920E-02 0.  1.
</event>
<event>
 5   0  0.6426079E-07  0.3360163E+04  0.7818609E-02  0.8147753E-01
        2   -1    0    0  501    0  0.00000000000E+00  0.00000000000E+00  0.31510375073E+04  0.31510375073E+04  0.25500000920E-02 0. -1.
       -2   -1    0    0    0  501  0.00000000000E+00  0.00000000000E+00 -0.89579202491E+03  0.89579202492E+03  0.25500000920E-02 0.  1.
    10030    2    1    2    0    0  0.00000000000E+00  0.00000000000E+00  0.22552454823E+04  0.40468295322E+04  0.33601632515E+04 0.  0.
        4    1    3    3  502    0 -0.12717538664E+04 -0.78103068615E+03  0.20568556875E+04  0.25412642054E+04  0.12699999809E+01 0. -1.
       -4    1    3    3    0  502  0.12717538664E+04  0.78103068615E+03  0.19838979482E+03  0.15055653268E+04  0.12699999809E+01 0.  1.
</event>
<event>
 5   0  0.2057130E-07  0.3245750E+04  0.7818609E-02  0.8176838E-01
        1   -1    0    0  501    0  0.00000000000E+00  0.00000000000E+00  0.25012251211E+04  0.25012251212E+04  0.50400001928E-02 0. -1.
       -1   -1    0    0    0  501  0.00000000000E+00  0.00000000000E+00 -0.10529732648E+04  0.10529732648E+04  0.50400001928E-02 0.  1.
    10030    2    1    2    0    0  0.00000000000E+00  0.00000000000E+00  0.14482518563E+04  0.35541983860E+04  0.32457499484E+04 0.  0.
        2    1    3    3  502    0  0.87703285833E+02 -0.49079423090E+03  0.24152858101E+04  0.24662068827E+04  0.25500000920E-02 0. -1.
       -2    1    3    3    0  502 -0.87703285833E+02  0.49079423090E+03 -0.96703395382E+03  0.10879915033E+04  0.25500000920E-02 0.  1.
</event>
<event>
 5   0  0.2087665E-07  0.3300323E+04  0.7818609E-02  0.8162813E-01
        1   -1    0    0  501    0  0.00000000000E+00  0.00000000000E+00  0.19371276786E+04  0.19371276786E+04  0.50400001928E-02 0. -1.
       -1   -1    0    0    0  501  0.00000000000E+00  0.00000000000E+00 -0.14057064779E+04  0.14057064779E+04  0.50400001928E-02 0.  1.
    10030    2    1    2    0    0  0.00000000000E+00  0.00000000000E+00  0.53142120075E+03  0.33428341565E+04  0.33003229699E+04 0.  0.
        5    1    3    3  502    0 -0.14522383864E+04 -0.48837138247E+03  0.88639085123E+03  0.17700886332E+04  0.46999998093E+01 0. -1.
       -5    1    3    3    0  502  0.14522383864E+04  0.48837138247E+03 -0.35496965048E+03  0.15727455233E+04  0.46999998093E+01 0.  1.
</event>
<event>
 5   0  0.2057130E-07  0.3339408E+04  0.7818609E-02  0.8152940E-01
        1   -1    0    0  501    0  0.00000000000E+00  0.00000000000E+00  0.26631854595E+04  0.26631854595E+04  0.50400001928E-02 0. -1.
       -1   -1    0    0    0  501  0.00000000000E+00  0.00000000000E+00 -0.10468334533E+04  0.10468334533E+04  0.50400001928E-02 0.  1.
    10030    2    1    2    0    0  0.00000000000E+00  0.00000000000E+00  0.16163520062E+04  0.37100189128E+04  0.33394081101E+04 0.  0.
        2    1    3    3  502    0 -0.92285858282E+03  0.80591684475E+03  0.20684132607E+04  0.24040597625E+04  0.25500000920E-02 0. -1.
       -2    1    3    3    0  502  0.92285858282E+03 -0.80591684475E+03 -0.45206125449E+03  0.13059591503E+04  0.25500000920E-02 0.  1.
</event>
<event>
 5   0  0.6424183E-07  0.3330742E+04  0.7818609E-02  0.8155117E-01
       -2   -1    0    0    0  501  0.00000000000E+00  0.00000000000E+00  0.96982450825E+03  0.96982450826E+03  0.25500000920E-02 0.  1.
        2   -1    0    0  501    0  0.00000000000E+00  0.00000000000E+00 -0.28597548146E+04  0.28597548146E+04  0.25500000920E-02 0. -1.
    10030    2    1    2    0    0  0.00000000000E+00  0.00000000000E+00 -0.18899303063E+04  0.38295793228E+04  0.33307418434E+04 0.  0.
        2    1    3    3  502    0  0.48495395064E+03 -0.11758243367E+04  0.29108435597E+03  0.13047886063E+04  0.25500000920E-02 0.  1.
       -2    1    3    3    0  502 -0.48495395064E+03  0.11758243367E+04 -0.21810146623E+04  0.25247907165E+04  0.25500000920E-02 0. -1.
</event>
<event>
 5   0  0.6351753E-07  0.3268135E+04  0.7818609E-02  0.8171051E-01
        2   -1    0    0  501    0  0.00000000000E+00  0.00000000000E+00  0.12458482031E+04  0.12458482031E+04  0.25500000920E-02 0. -1.
       -2   -1    0    0    0  501  0.00000000000E+00  0.00000000000E+00 -0.21432603168E+04  0.21432603168E+04  0.25500000920E-02 0.  1.
    10030    2    1    2    0    0  0.00000000000E+00  0.00000000000E+00 -0.89741211367E+03  0.33891085198E+04  0.32681352569E+04 0.  0.
        3    1    3    3  502    0 -0.10423175289E+04  0.91833293540E+03  0.44361941403E+03  0.14582727475E+04  0.10100000352E+00 0. -1.
       -3    1    3    3    0  502  0.10423175289E+04 -0.91833293540E+03 -0.13410315277E+04  0.19308357724E+04  0.10100000352E+00 0.  1.
</event>
<event>
 5   0  0.6424183E-07  0.3302892E+04  0.7818609E-02  0.8162160E-01
        2   -1    0    0  501    0  0.00000000000E+00  0.00000000000E+00  0.12962236235E+04  0.12962236235E+04  0.25500000920E-02 0.  1.
       -2   -1    0    0    0  501  0.00000000000E+00  0.00000000000E+00 -0.21040151390E+04  0.21040151390E+04  0.25500000920E-02 0. -1.
    10030    2    1    2    0    0  0.00000000000E+00  0.00000000000E+00 -0.80779151550E+03  0.34002387626E+04  0.33028921433E+04 0.  0.
        2    1    3    3  502    0  0.67029858730E+03 -0.14015761132E+04 -0.98036241609E+03  0.18370700216E+04  0.25500000920E-02 0. -1.
       -2    1    3    3    0  502 -0.67029858730E+03  0.14015761132E+04  0.17257090059E+03  0.15631687410E+04  0.25500000920E-02 0.  1.
</event>
<event>
 5   0  0.2037333E-07  0.3303837E+04  0.7818609E-02  0.8161920E-01
        1   -1    0    0  501    0  0.00000000000E+00  0.00000000000E+00  0.18492892912E+04  0.18492892912E+04  0.50400001928E-02 0.  1.
       -1   -1    0    0    0  501  0.00000000000E+00  0.00000000000E+00 -0.14756125968E+04  0.14756125968E+04  0.50400001928E-02 0. -1.
    10030    2    1    2    0    0  0.00000000000E+00  0.00000000000E+00  0.37367669443E+03  0.33249018881E+04  0.33038369048E+04 0.  0.
        3    1    3    3  502    0  0.57559522971E+03  0.14856211147E+04  0.62603190952E+03  0.17118107159E+04  0.10100000352E+00 0.  1.
       -3    1    3    3    0  502 -0.57559522971E+03 -0.14856211147E+04 -0.25235521509E+03  0.16130911722E+04  0.10100000352E+00 0. -1.
</event>
<event>
 5   0  0.2087665E-07  0.3302371E+04  0.7818609E-02  0.8162292E-01
       -1   -1    0    0    0  501  0.00000000000E+00  0.00000000000E+00  0.17413693751E+04  0.17413693751E+04  0.50400001928E-02 0. -1.
        1   -1    0    0  501    0  0.00000000000E+00  0.00000000000E+00 -0.15656723730E+04  0.15656723730E+04  0.50400001928E-02 0.  1.
    10030    2    1    2    0    0  0.00000000000E+00  0.00000000000E+00  0.17569700207E+03  0.33070417482E+04  0.33023712220E+04 0.  0.
        5    1    3    3  502    0 -0.26179595634E+03 -0.14313112886E+04  0.86946676281E+03  0.16950468045E+04  0.46999998093E+01 0. -1.
       -5    1    3    3    0  502  0.26179595634E+03  0.14313112886E+04 -0.69376976074E+03  0.16119949437E+04  0.46999998093E+01 0.  1.
</event>
<event>
 5   0  0.6258718E-07  0.3305333E+04  0.7818609E-02  0.8161540E-01
        2   -1    0    0  501    0  0.00000000000E+00  0.00000000000E+00  0.26936446940E+04  0.26936446940E+04  0.25500000920E-02 0. -1.
       -2   -1    0    0    0  501  0.00000000000E+00  0.00000000000E+00 -0.10139815645E+04  0.10139815645E+04  0.25500000920E-02 0.  1.
    10030    2    1    2    0    0  0.00000000000E+00  0.00000000000E+00  0.16796631294E+04  0.37076262585E+04  0.33053326980E+04 0.  0.
        5    1    3    3  502    0  0.12712819885E+02  0.69449396210E+03 -0.84228556406E+03  0.10917648742E+04  0.46999998093E+01 0.  1.
       -5    1    3    3    0  502 -0.12712819885E+02 -0.69449396210E+03  0.25219486935E+04  0.26158613843E+04  0.46999998093E+01 0. -1.
</event>
<event>
 5   0  0.2087665E-07  0.3299877E+04  0.7818609E-02  0.8162927E-01
       -1   -1    0    0    0  501  0.00000000000E+00  0.00000000000E+00  0.13585921161E+04  0.13585921161E+04  0.50400001928E-02 0. -1.
        1   -1    0    0  501    0  0.00000000000E+00  0.00000000000E+00 -0.20037633104E+04  0.20037633104E+04  0.50400001928E-02 0.  1.
    10030    2    1    2    0    0  0.00000000000E+00  0.00000000000E+00 -0.64517119426E+03  0.33623554265E+04  0.32998769893E+04 0.  0.
        5    1    3    3  502    0  0.73828849141E+03  0.99211113076E+03  0.79030283879E+03  0.14676358742E+04  0.46999998093E+01 0. -1.
       -5    1    3    3    0  502 -0.73828849141E+03 -0.99211113076E+03 -0.14354740330E+04  0.18947195523E+04  0.46999998093E+01 0.  1.
</event>
<event>
 5   0  0.2057130E-07  0.3296414E+04  0.7818609E-02  0.8163809E-01
        1   -1    0    0  501    0  0.00000000000E+00  0.00000000000E+00  0.13282472438E+04  0.13282472438E+04  0.50400001928E-02 0.  1.
       -1   -1    0    0    0  501  0.00000000000E+00  0.00000000000E+00 -0.20452410775E+04  0.20452410775E+04  0.50400001928E-02 0. -1.
    10030    2    1    2    0    0  0.00000000000E+00  0.00000000000E+00 -0.71699383375E+03  0.33734883213E+04  0.32964137022E+04 0.  0.
        2    1    3    3  502    0  0.40985896476E+03  0.13565629804E+04  0.50280987709E+03  0.15036838974E+04  0.25500000920E-02 0.  1.
       -2    1    3    3    0  502 -0.40985896476E+03 -0.13565629804E+04 -0.12198037108E+04  0.18698044239E+04  0.25500000920E-02 0. -1.
</event>
<event>
 5   0  0.6258718E-07  0.3297699E+04  0.7818609E-02  0.8163481E-01
        2   -1    0    0  501    0  0.00000000000E+00  0.00000000000E+00  0.19011073831E+04  0.19011073831E+04  0.25500000920E-02 0. -1.
       -2   -1    0    0    0  501  0.00000000000E+00  0.00000000000E+00 -0.14300634865E+04  0.14300634865E+04  0.25500000920E-02 0.  1.
    10030    2    1    2    0    0  0.00000000000E+00  0.00000000000E+00  0.47104389660E+03  0.33311708697E+04  0.32976987446E+04 0.  0.
        5    1    3    3  502    0 -0.88934365623E+03 -0.13701255440E+04  0.46253848454E+03  0.16976866863E+04  0.46999998093E+01 0.  1.
       -5    1    3    3    0  502  0.88934365623E+03  0.13701255440E+04  0.85054120642E+01  0.16334841833E+04  0.46999998093E+01 0. -1.
</event>
<event>
 5   0  0.2080828E-07  0.3284983E+04  0.7818609E-02  0.8166727E-01
        1   -1    0    0  501    0  0.00000000000E+00  0.00000000000E+00  0.20305069220E+04  0.20305069220E+04  0.50400001928E-02 0. -1.
       -1   -1    0    0    0  501  0.00000000000E+00  0.00000000000E+00 -0.13286226978E+04  0.13286226978E+04  0.50400001928E-02 0.  1.
    10030    2    1    2    0    0  0.00000000000E+00  0.00000000000E+00  0.70188422425E+03  0.33591296198E+04  0.32849825477E+04 0.  0.
        1    1    3    3  502    0 -0.11963298789E+04  0.11402069709E+03 -0.79395980611E+03  0.14403395684E+04  0.50400001928E-02 0.  1.
       -1    1    3    3    0  502  0.11963298789E+04 -0.11402069709E+03  0.14958440304E+04  0.19187900515E+04  0.50400001928E-02 0. -1.
</event>
<event>
 5   0  0.6351753E-07  0.3295094E+04  0.7818609E-02  0.8164145E-01
       -2   -1    0    0    0  501  0.00000000000E+00  0.00000000000E+00  0.16939055241E+04  0.16939055241E+04  0.25500000920E-02 0. -1.
        2   -1    0    0  501    0  0.00000000000E+00  0.00000000000E+00 -0.16024572512E+04  0.16024572512E+04  0.25500000920E-02 0.  1.
    10030    2    1    2    0    0  0.00000000000E+00  0.00000000000E+00  0.91448272906E+02  0.32963627753E+04  0.32950940442E+04 0.  0.
        3    1    3    3  502    0  0.38805953705E+03 -0.15907676594E+04 -0.13677206002E+03  0.16431185463E+04  0.10100000352E+00 0. -1.
       -3    1    3    3    0  502 -0.38805953705E+03  0.15907676594E+04  0.22822033293E+03  0.16532442291E+04  0.10100000352E+00 0.  1.
</event>
<event>
 5   0  0.6377741E-07  0.3339184E+04  0.7818609E-02  0.8152996E-01
        2   -1    0    0  501    0  0.00000000000E+00  0.00000000000E+00  0.16633131418E+04  0.16633131418E+04  0.25500000920E-02 0.  1.
       -2   -1    0    0    0  501  0.00000000000E+00  0.00000000000E+00 -0.16758947526E+04  0.16758947526E+04  0.25500000920E-02 0. -1.
    10030    2    1    2    0    0  0.00000000000E+00  0.00000000000E+00 -0.12581610823E+02  0.33392078944E+04  0.33391841916E+04 0.  0.
        1    1    3    3  502    0 -0.90108841122E+03  0.15438353012E+03  0.13907671303E+04  0.16643400524E+04  0.50400001928E-02 0.  1.
       -1    1    3    3    0  502  0.90108841122E+03 -0.15438353012E+03 -0.14033487411E+04  0.16748678421E+04  0.50400001928E-02 0. -1.
</event>
<event>
 5   0  0.6351753E-07  0.3282465E+04  0.7818609E-02  0.8167372E-01
        2   -1    0    0  501    0  0.00000000000E+00  0.00000000000E+00  0.18403506870E+04  0.18403506870E+04  0.25500000920E-02 0. -1.
       -2   -1    0    0    0  501  0.00000000000E+00  0.00000000000E+00 -0.14636579956E+04  0.14636579956E+04  0.25500000920E-02 0.  1.
    10030    2    1    2    0    0  0.00000000000E+00  0.00000000000E+00  0.37669269142E+03  0.33040086826E+04  0.32824649261E+04 0.  0.
        3    1    3    3  502    0  0.96706539210E+03  0.12903364634E+04  0.49606564313E+03  0.16870876663E+04  0.10100000352E+00 0. -1.
       -3    1    3    3    0  502 -0.96706539210E+03 -0.12903364634E+04 -0.11937295171E+03  0.16169210163E+04  0.10100000352E+00 0.  1.
</event>
<event>
 5   0  0.2057130E-07  0.3307826E+04  0.7818609E-02  0.8160907E-01
        1   -1    0    0  501    0  0.00000000000E+00  0.00000000000E+00  0.12049496012E+04  0.12049496013E+04  0.50400001928E-02 0. -1.
       -1   -1    0    0    0  501  0.00000000000E+00  0.00000000000E+00 -0.22701600893E+04  0.22701600893E+04  0.50400001928E-02 0.  1.
    10030    2    1    2    0    0  0.00000000000E+00  0.00000000000E+00 -0.10652104880E+04  0.34751096905E+04  0.33078261710E+04 0.  0.
        2    1    3    3  502    0  0.24572794959E+03  0.75508607487E+03 -0.20568007399E+04  0.22047599618E+04  0.25500000920E-02 0.  1.
       -2    1    3    3    0  502 -0.24572794959E+03 -0.75508607487E+03  0.99159025184E+03  0.12703497287E+04  0.25500000920E-02 0. -1.
</event>
<event>
 5   0  0.6426079E-07  0.3297049E+04  0.7818609E-02  0.8163647E-01
        2   -1    0    0  501    0  0.00000000000E+00  0.00000000000E+00  0.22360283362E+04  0.22360283362E+04  0.25500000920E-02 0. -1.
       -2   -1    0    0    0  501  0.00000000000E+00  0.00000000000E+00 -0.12153838797E+04  0.12153838797E+04  0.25500000920E-02 0.  1.
    10030    2    1    2    0    0  0.00000000000E+00  0.00000000000E+00  0.10206444565E+04  0.34514122159E+04  0.32970488588E+04 0.  0.
        4    1    3    3  502    0 -0.12992167677E+04  0.81138904119E+03  0.11482075025E+04  0.19143402172E+04  0.12699999809E+01 0. -1.
       -4    1    3    3    0  502  0.12992167677E+04 -0.81138904119E+03 -0.12756304601E+03  0.15370719987E+04  0.12699999809E+01 0.  1.
</event>
<event>
 5   0  0.2087665E-07  0.3310963E+04  0.7818609E-02  0.8160111E-01
        1   -1    0    0  501    0  0.00000000000E+00  0.00000000000E+00  0.20059409135E+04  0.20059409135E+04  0.50400001928E-02 0. -1.
       -1   -1    0    0    0  501  0.00000000000E+00  0.00000000000E+00 -0.13662511787E+04  0.13662511787E+04  0.50400001928E-02 0.  1.
    10030    2    1    2    0    0  0.00000000000E+00  0.00000000000E+00  0.63968973475E+03  0.33721920922E+04  0.33109630849E+04 0.  0.
        5    1    3    3  502    0 -0.79934165537E+02  0.94453767509E+03 -0.10624777054E+04  0.14238756459E+04  0.46999998093E+01 0.  1.
       -5    1    3    3    0  502  0.79934165537E+02 -0.94453767509E+03  0.17021674402E+04  0.19483164463E+04  0.46999998093E+01 0. -1.
</event>
<event>
 5   0  0.2057130E-07  0.3303098E+04  0.7818609E-02  0.8162108E-01
       -1   -1    0    0    0  501  0.00000000000E+00  0.00000000000E+00  0.14234082660E+04  0.14234082660E+04  0.50400001928E-02 0. -1.
        1   -1    0    0  501    0  0.00000000000E+00  0.00000000000E+00 -0.19162557138E+04  0.19162557138E+04  0.50400001928E-02 0.  1.
    10030    2    1    2    0    0  0.00000000000E+00  0.00000000000E+00 -0.49284744779E+03  0.33396639799E+04  0.33030980748E+04 0.  0.
        2    1    3    3  502    0 -0.65054095635E+03 -0.19031755407E+02  0.12882890576E+04  0.14433483431E+04  0.25500000920E-02 0. -1.
       -2    1    3    3    0  502  0.65054095635E+03  0.19031755407E+02 -0.17811365054E+04  0.18963156368E+04  0.25500000920E-02 0.  1.
</event>
<event>
 5   0  0.2057130E-07  0.3293789E+04  0.7818609E-02  0.8164477E-01
       -1   -1    0    0    0  501  0.00000000000E+00  0.00000000000E+00  0.17536726658E+04  0.17536726658E+04  0.50400001928E-02 0.  1.
        1   -1    0    0  501    0  0.00000000000E+00  0.00000000000E+00 -0.15466181879E+04  0.15466181879E+04  0.50400001928E-02 0. -1.
    10030    2    1    2    0    0  0.00000000000E+00  0.00000000000E+00  0.20705447795E+03  0.33002908537E+04  0.32937893318E+04 0.  0.
        2    1    3    3  502    0 -0.45478339879E+03 -0.19364693954E+03 -0.14705399005E+04  0.15513912066E+04  0.25500000920E-02 0. -1.
       -2    1    3    3    0  502  0.45478339879E+03  0.19364693954E+03  0.16775943784E+04  0.17488996471E+04  0.25500000920E-02 0.  1.
</event>
<event>
 5   0  0.2037333E-07  0.3272731E+04  0.7818609E-02  0.8169869E-01
       -1   -1    0    0    0  501  0.00000000000E+00  0.00000000000E+00  0.14349360245E+04  0.14349360245E+04  0.50400001928E-02 0. -1.
        1   -1    0    0  501    0  0.00000000000E+00  0.00000000000E+00 -0.18660707938E+04  0.18660707938E+04  0.50400001928E-02 0.  1.
    10030    2    1    2    0    0  0.00000000000E+00  0.00000000000E+00 -0.43113476932E+03  0.33010068183E+04  0.32727310957E+04 0.  0.
        3    1    3    3  502    0  0.46161699134E+03  0.13126585832E+04  0.65299353322E+03  0.15370632281E+04  0.10100000352E+00 0. -1.
       -3    1    3    3    0  502 -0.46161699134E+03 -0.13126585832E+04 -0.10841283025E+04  0.17639435901E+04  0.10100000352E+00 0.  1.
</event>
<event>
 5   0  0.2087665E-07  0.3378085E+04  0.7818609E-02  0.8143306E-01
       -1   -1    0    0    0  501  0.00000000000E+00  0.00000000000E+00  0.88985222029E+03  0.88985222031E+03  0.50400001928E-02 0. -1.
        1   -1    0    0  501    0  0.00000000000E+00  0.00000000000E+00 -0.32059990609E+04  0.32059990609E+04  0.50400001928E-02 0.  1.
    10030    2    1    2    0    0  0.00000000000E+00  0.00000000000E+00 -0.23161468406E+04  0.40958512812E+04  0.33780854830E+04 0.  0.
        5    1    3    3  502    0  0.53671535326E+03  0.14765565723E+04 -0.40618059022E+03  0.16227407197E+04  0.46999998093E+01 0. -1.
       -5    1    3    3    0  502 -0.53671535326E+03 -0.14765565723E+04 -0.19099662504E+04  0.24731105615E+04  0.46999998093E+01 0.  1.
</event>
<event>
 5   0  0.6258718E-07  0.3292813E+04  0.7818609E-02  0.8164727E-01
        2   -1    0    0  501    0  0.00000000000E+00  0.00000000000E+00  0.19242407658E+04  0.19242407658E+04  0.25500000920E-02 0.  1.
       -2   -1    0    0    0  501  0.00000000000E+00  0.00000000000E+00 -0.14086876007E+04  0.14086876007E+04  0.25500000920E-02 0. -1.
    10030    2    1    2    0    0  0.00000000000E+00  0.00000000000E+00  0.51555316510E+03  0.33329283665E+04  0.32928128447E+04 0.  0.
        5    1    3    3  502    0  0.28086177490E+03  0.40600346670E+03 -0.13319980885E+04  0.14205502981E+04  0.46999998093E+01 0. -1.
       -5    1    3    3    0  502 -0.28086177490E+03 -0.40600346670E+03  0.18475512536E+04  0.19123780684E+04  0.46999998093E+01 0.  1.
</event>
<event>
 5   0  0.2037333E-07  0.3306901E+04  0.7818609E-02  0.8161142E-01
       -1   -1    0    0    0  501  0.00000000000E+00  0.00000000000E+00  0.11883735463E+04  0.11883735463E+04  0.50400001928E-02 0. -1.
        1   -1    0    0  501    0  0.00000000000E+00  0.00000000000E+00 -0.23005376214E+04  0.23005376214E+04  0.50400001928E-02 0.  1.
    10030    2    1    2    0    0  0.00000000000E+00  0.00000000000E+00 -0.11121640751E+04  0.34889111676E+04  0.33069006949E+04 0.  0.
        3    1    3    3  502    0  0.16990119169E+03 -0.89452348187E+03  0.90004818991E+03  0.12802833393E+04  0.10100000352E+00 0. -1.
       -3    1    3    3    0  502 -0.16990119169E+03  0.89452348187E+03 -0.20122122650E+04  0.22086278283E+04  0.10100000352E+00 0.  1.
</event>
<event>
 5   0  0.2087665E-07  0.3278643E+04  0.7818609E-02  0.8168351E-01
       -1   -1    0    0    0  501  0.00000000000E+00  0.00000000000E+00  0.20601862025E+04  0.20601862025E+04  0.50400001928E-02 0. -1.
        1   -1    0    0  501    0  0.00000000000E+00  0.00000000000E+00 -0.13044329575E+04  0.13044329575E+04  0.50400001928E-02 0.  1.
    10030    2    1    2    0    0  0.00000000000E+00  0.00000000000E+00  0.75575324508E+03  0.33646191600E+04  0.32786428785E+04 0.  0.
        5    1    3    3  502    0  0.12941984831E+04 -0.77136817271E+03  0.10408788119E+04  0.18312316518E+04  0.46999998093E+01 0. -1.
       -5    1    3    3    0  502 -0.12941984831E+04  0.77136817271E+03 -0.28512556678E+03  0.15333875082E+04  0.46999998093E+01 0.  1.
</event>
<event>
 5   0  0.2080770E-07  0.3383595E+04  0.7818609E-02  0.8141944E-01
       -1   -1    0    0    0  501  0.00000000000E+00  0.00000000000E+00  0.10844683602E+04  0.10844683603E+04  0.50400001928E-02 0. -1.
        1   -1    0    0  501    0  0.00000000000E+00  0.00000000000E+00 -0.26392464337E+04  0.26392464337E+04  0.50400001928E-02 0.  1.
    10030    2    1    2    0    0  0.00000000000E+00  0.00000000000E+00 -0.15547780735E+04  0.37237147940E+04  0.33835952786E+04 0.  0.
        4    1    3    3  502    0  0.62639453947E+03 -0.13904710677E+04 -0.15834009586E+04  0.21983948958E+04  0.12699999809E+01 0.  1.
       -4    1    3    3    0  502 -0.62639453947E+03  0.13904710677E+04  0.28622885139E+02  0.15253198982E+04  0.12699999809E+01 0. -1.
</event>
<event>
 5   0  0.2057130E-07  0.3286242E+04  0.7818609E-02  0.8166405E-01
        1   -1    0    0  501    0  0.00000000000E+00  0.00000000000E+00  0.29472222284E+04  0.29472222284E+04  0.50400001928E-02 0. -1.
       -1   -1    0    0    0  501  0.00000000000E+00  0.00000000000E+00 -0.91606463766E+03  0.91606463767E+03  0.50400001928E-02 0.  1.
    10030    2    1    2    0    0  0.00000000000E+00  0.00000000000E+00  0.20311575907E+04  0.38632868660E+04  0.32862416605E+04 0.  0.
        2    1    3    3  502    0  0.18581368911E+03 -0.40889207792E+03 -0.84250237768E+03  0.95474065319E+03  0.25500000920E-02 0.  1.
       -2    1    3    3    0  502 -0.18581368911E+03  0.40889207792E+03  0.28736599684E+04  0.29085462128E+04  0.25500000920E-02 0. -1.
</event>
<event>
 5   0  0.6424183E-07  0.3306263E+04  0.7818609E-02  0.8161304E-01
        2   -1    0    0  501    0  0.00000000000E+00  0.00000000000E+00  0.28460952893E+04  0.28460952893E+04  0.25500000920E-02 0.  1.
       -2   -1    0    0    0  501  0.00000000000E+00  0.00000000000E+00 -0.96020807488E+03  0.96020807489E+03  0.25500000920E-02 0. -1.
    10030    2    1    2    0    0  0.00000000000E+00  0.00000000000E+00  0.18858872144E+04  0.38063033641E+04  0.33062629530E+04 0.  0.
        2    1    3    3  502    0 -0.43901128148E+03 -0.12241675577E+04  0.21178443639E+04  0.24852729959E+04  0.25500000920E-02 0.  1.
       -2    1    3    3    0  502  0.43901128148E+03  0.12241675577E+04 -0.23195714951E+03  0.13210303682E+04  0.25500000920E-02 0. -1.
</event>
<event>
 5   0  0.6351753E-07  0.3311936E+04  0.7818609E-02  0.8159865E-01
        2   -1    0    0  501    0  0.00000000000E+00  0.00000000000E+00  0.11086319042E+04  0.11086319042E+04  0.25500000920E-02 0. -1.
       -2   -1    0    0    0  501  0.00000000000E+00  0.00000000000E+00 -0.24735268224E+04  0.24735268224E+04  0.25500000920E-02 0.  1.
    10030    2    1    2    0    0  0.00000000000E+00  0.00000000000E+00 -0.13648949182E+04  0.35821587265E+04  0.33119364433E+04 0.  0.
        3    1    3    3  502    0  0.16327883428E+04  0.23464650949E+03 -0.52506217435E+03  0.17311115082E+04  0.10100000352E+00 0.  1.
       -3    1    3    3    0  502 -0.16327883428E+04 -0.23464650949E+03 -0.83983274383E+03  0.18510472183E+04  0.10100000352E+00 0. -1.
</event>
<event>
 5   0  0.6426079E-07  0.3296171E+04  0.7818609E-02  0.8163870E-01
       -2   -1    0    0    0  501  0.00000000000E+00  0.00000000000E+00  0.12187104859E+04  0.12187104859E+04  0.25500000920E-02 0. -1.
        2   -1    0    0  501    0  0.00000000000E+00  0.00000000000E+00 -0.22287378741E+04  0.22287378741E+04  0.25500000920E-02 0.  1.
    10030    2    1    2    0    0  0.00000000000E+00  0.00000000000E+00 -0.10100273882E+04  0.34474483600E+04  0.32961712441E+04 0.  0.
        4    1    3    3  502    0  0.10720180329E+04 -0.96519250731E+03 -0.13386944408E+04  0.19679745064E+04  0.12699999809E+01 0.  1.
       -4    1    3    3    0  502 -0.10720180329E+04  0.96519250731E+03  0.32866705265E+03  0.14794738536E+04  0.12699999809E+01 0. -1.
</event>
<event>
 5   0  0.2087665E-07  0.3281349E+04  0.7818609E-02  0.8167657E-01
       -1   -1    0    0    0  501  0.00000000000E+00  0.00000000000E+00  0.22918734308E+04  0.22918734308E+04  0.50400001928E-02 0.  1.
        1   -1    0    0  501    0  0.00000000000E+00  0.00000000000E+00 -0.11745033109E+04  0.11745033110E+04  0.50400001928E-02 0. -1.
    10030    2    1    2    0    0  0.00000000000E+00  0.00000000000E+00  0.11173701198E+04  0.34663767417E+04  0.32813490718E+04 0.  0.
        5    1    3    3  502    0 -0.39166869791E+03 -0.17972578937E+03  0.22310121970E+04  0.22722551004E+04  0.46999998093E+01 0.  1.
       -5    1    3    3    0  502  0.39166869791E+03  0.17972578937E+03 -0.11136420772E+04  0.11941216413E+04  0.46999998093E+01 0. -1.
</event>
<event>
 5   0  0.6377741E-07  0.3265737E+04  0.7818609E-02  0.8171669E-01
       -2   -1    0    0    0  501  0.00000000000E+00  0.00000000000E+00  0.10519198327E+04  0.10519198327E+04  0.25500000920E-02 0. -1.
        2   -1    0    0  501    0  0.00000000000E+00  0.00000000000E+00 -0.25346607952E+04  0.25346607952E+04  0.25500000920E-02 0.  1.
    10030    2    1    2    0    0  0.00000000000E+00  0.00000000000E+00 -0.14827409625E+04  0.35865806279E+04  0.32657372581E+04 0.  0.
        1    1    3    3  502    0  0.11394673561E+04 -0.11464289778E+04 -0.99557264497E+03  0.18983809281E+04  0.50400001928E-02 0.  1.
       -1    1    3    3    0  502 -0.11394673561E+04  0.11464289778E+04 -0.48716831750E+03  0.16881996998E+04  0.50400001928E-02 0. -1.
</event>
<event>
 5   0  0.6258718E-07  0.3348153E+04  0.7818609E-02  0.8150750E-01
       -2   -1    0    0    0  501  0.00000000000E+00  0.00000000000E+00  0.14079122939E+04  0.14079122939E+04  0.25500000920E-02 0. -1.
        2   -1    0    0  501    0  0.00000000000E+00  0.00000000000E+00 -0.19905585280E+04  0.19905585280E+04  0.25500000920E-02 0.  1.
    10030    2    1    2    0    0  0.00000000000E+00  0.00000000000E+00 -0.58264623414E+03  0.33984708219E+04  0.33481528181E+04 0.  0.
        5    1    3    3  502    0 -0.12767118808E+04  0.10799434385E+03 -0.13849445772E+04  0.18867298632E+04  0.46999998093E+01 0.  1.
       -5    1    3    3    0  502  0.12767118808E+04 -0.10799434385E+03  0.80229834310E+03  0.15117409587E+04  0.46999998093E+01 0. -1.
</event>
<event>
 5   0  0.2080770E-07  0.3300060E+04  0.7818609E-02  0.8162880E-01
       -1   -1    0    0    0  501  0.00000000000E+00  0.00000000000E+00  0.14977631219E+04  0.14977631219E+04  0.50400001928E-02 0. -1.
        1   -1    0    0  501    0  0.00000000000E+00  0.00000000000E+00 -0.18177766101E+04  0.18177766101E+04  0.50400001928E-02 0.  1.
    10030    2    1    2    0    0  0.00000000000E+00  0.00000000000E+00 -0.32001348820E+03  0.33155397320E+04  0.33000598604E+04 0.  0.
        4    1    3    3  502    0  0.10484316371E+04 -0.63475928953E+03 -0.12699372255E+04  0.17648995504E+04  0.12699999809E+01 0.  1.
       -4    1    3    3    0  502 -0.10484316371E+04  0.63475928953E+03  0.94992373730E+03  0.15506401816E+04  0.12699999809E+01 0. -1.
</event>
<event>
 5   0  0.2057130E-07  0.3296601E+04  0.7818609E-02  0.8163761E-01
        1   -1    0    0  501    0  0.00000000000E+00  0.00000000000E+00  0.17561853797E+04  0.17561853797E+04  0.50400001928E-02 0.  1.
       -1   -1    0    0    0  501  0.00000000000E+00  0.00000000000E+00 -0.15470432907E+04  0.15470432907E+04  0.50400001928E-02 0. -1.
    10030    2    1    2    0    0  0.00000000000E+00  0.00000000000E+00  0.20914208904E+03  0.33032286705E+04  0.32966011642E+04 0.  0.
        2    1    3    3  502    0  0.13807497561E+04  0.83564013039E+03  0.44010316107E+03  0.16728583649E+04  0.25500000920E-02 0.  1.
       -2    1    3    3    0  502 -0.13807497561E+04 -0.83564013039E+03 -0.23096107203E+03  0.16303703056E+04  0.25500000920E-02 0. -1.
</event>
<event>
 5   0  0.2057130E-07  0.3295272E+04  0.7818609E-02  0.8164100E-01
        1   -1    0    0  501    0  0.00000000000E+00  0.00000000000E+00  0.16312500993E+04  0.16312500993E+04  0.50400001928E-02 0.  1.
       -1   -1    0    0    0  501  0.00000000000E+00  0.00000000000E+00 -0.16641860979E+04  0.16641860979E+04  0.50400001928E-02 0. -1.
    10030    2    1    2    0    0  0.00000000000E+00  0.00000000000E+00 -0.32935998530E+02  0.32954361972E+04  0.32952716049E+04 0.  0.
        2    1    3    3  502    0  0.16038804354E+04 -0.37575156970E+03 -0.49364081855E+02  0.16480468761E+04  0.25500000920E-02 0.  1.
       -2    1    3    3    0  502 -0.16038804354E+04  0.37575156970E+03  0.16428083325E+02  0.16473893211E+04  0.25500000920E-02 0. -1.
</event>
<event>
 5   0  0.2087665E-07  0.3313589E+04  0.7818609E-02  0.8159446E-01
        1   -1    0    0  501    0  0.00000000000E+00  0.00000000000E+00  0.23379094534E+04  0.23379094534E+04  0.50400001928E-02 0.  1.
       -1   -1    0    0    0  501  0.00000000000E+00  0.00000000000E+00 -0.11741121817E+04  0.11741121817E+04  0.50400001928E-02 0. -1.
    10030    2    1    2    0    0  0.00000000000E+00  0.00000000000E+00  0.11637972717E+04  0.35120216351E+04  0.33135889720E+04 0.  0.
        5    1    3    3  502    0 -0.10865896674E+04 -0.12479266617E+04  0.49355345890E+03  0.17267354068E+04  0.46999998093E+01 0. -1.
       -5    1    3    3    0  502  0.10865896674E+04  0.12479266617E+04  0.67024381277E+03  0.17852862283E+04  0.46999998093E+01 0.  1.
</event>
<event>
 5   0  0.2080770E-07  0.3266303E+04  0.7818609E-02  0.8171523E-01
       -1   -1    0    0    0  501  0.00000000000E+00  0.00000000000E+00  0.17759820555E+04  0.17759820555E+04  0.50400001928E-02 0. -1.
        1   -1    0    0  501    0  0.00000000000E+00  0.00000000000E+00 -0.15018078289E+04  0.15018078289E+04  0.50400001928E-02 0.  1.
    10030    2    1    2    0    0  0.00000000000E+00  0.00000000000E+00  0.27417422658E+03  0.32777898844E+04  0.32663029590E+04 0.  0.
        4    1    3    3  502    0  0.43105987634E+02  0.13848330979E+04 -0.73056984405E+03  0.15663188517E+04  0.12699999809E+01 0.  1.
       -4    1    3    3    0  502 -0.43105987634E+02 -0.13848330979E+04  0.10047440706E+04  0.17114710327E+04  0.12699999809E+01 0. -1.
</event>
<event>
 5   0  0.6424183E-07  0.3319124E+04  0.7818609E-02  0.8158046E-01
        2   -1    0    0  501    0  0.00000000000E+00  0.00000000000E+00  0.11071090763E+04  0.11071090763E+04  0.25500000920E-02 0. -1.
       -2   -1    0    0    0  501  0.00000000000E+00  0.00000000000E+00 -0.24876916922E+04  0.24876916922E+04  0.25500000920E-02 0.  1.
    10030    2    1    2    0    0  0.00000000000E+00  0.00000000000E+00 -0.13805826159E+04  0.35948007685E+04  0.33191240118E+04 0.  0.
        2    1    3    3  502    0  0.63224929861E+03  0.10756973223E+04 -0.18753765776E+04  0.22525321779E+04  0.25500000920E-02 0.  1.
       -2    1    3    3    0  502 -0.63224929861E+03 -0.10756973223E+04  0.49479396168E+03  0.13422685906E+04  0.25500000920E-02 0. -1.
</event>
<event>
 5   0  0.6424183E-07  0.3290012E+04  0.7818609E-02  0.8165442E-01
        2   -1    0    0  501    0  0.00000000000E+00  0.00000000000E+00  0.16163114014E+04  0.16163114014E+04  0.25500000920E-02 0. -1.
       -2   -1    0    0    0  501  0.00000000000E+00  0.00000000000E+00 -0.16742095999E+04  0.16742095999E+04  0.25500000920E-02 0.  1.
    10030    2    1    2    0    0  0.00000000000E+00  0.00000000000E+00 -0.57898198456E+02  0.32905210013E+04  0.32900115895E+04 0.  0.
        2    1    3    3  502    0 -0.40263503532E+03  0.11975402980E+04 -0.10825951670E+04  0.16637998776E+04  0.25500000920E-02 0. -1.
       -2    1    3    3    0  502  0.40263503532E+03 -0.11975402980E+04  0.10246969685E+04  0.16267211237E+04  0.25500000920E-02 0.  1.
</event>
<event>
 5   0  0.6351753E-07  0.3314203E+04  0.7818609E-02  0.8159291E-01
        2   -1    0    0  501    0  0.00000000000E+00  0.00000000000E+00  0.21854420164E+04  0.21854420164E+04  0.25500000920E-02 0. -1.
       -2   -1    0    0    0  501  0.00000000000E+00  0.00000000000E+00 -0.12564895945E+04  0.12564895945E+04  0.25500000920E-02 0.  1.
    10030    2    1    2    0    0  0.00000000000E+00  0.00000000000E+00  0.92895242185E+03  0.34419316109E+04  0.33142028623E+04 0.  0.
        3    1    3    3  502    0  0.75943157979E+03 -0.91487487686E+03 -0.73424024168E+03  0.13974409137E+04  0.10100000352E+00 0.  1.
       -3    1    3    3    0  502 -0.75943157979E+03  0.91487487686E+03  0.16631926635E+04  0.20444906972E+04  0.10100000352E+00 0. -1.
</event>
<event>
 5   0  0.2080828E-07  0.3299793E+04  0.7818609E-02  0.8162948E-01
        1   -1    0    0  501    0  0.00000000000E+00  0.00000000000E+00  0.22894476073E+04  0.22894476073E+04  0.50400001928E-02 0.  1.
       -1   -1    0    0    0  501  0.00000000000E+00  0.00000000000E+00 -0.11890025448E+04  0.11890025448E+04  0.50400001928E-02 0. -1.
    10030    2    1    2    0    0  0.00000000000E+00  0.00000000000E+00  0.11004450625E+04  0.34784501522E+04  0.32997933459E+04 0.  0.
        1    1    3    3  502    0  0.16133509217E+04 -0.56091769365E+02  0.19102218282E+03  0.16255881882E+04  0.50400001928E-02 0.  1.
       -1    1    3    3    0  502 -0.16133509217E+04  0.56091769365E+02  0.90942287970E+03  0.18528619639E+04  0.50400001928E-02 0. -1.
</event>
<event>
 5   0  0.2057130E-07  0.3313114E+04  0.7818609E-02  0.8159566E-01
       -1   -1    0    0    0  501  0.00000000000E+00  0.00000000000E+00  0.16494286540E+04  0.16494286540E+04  0.50400001928E-02 0. -1.
        1   -1    0    0  501    0  0.00000000000E+00  0.00000000000E+00 -0.16637162958E+04  0.16637162958E+04  0.50400001928E-02 0.  1.
    10030    2    1    2    0    0  0.00000000000E+00  0.00000000000E+00 -0.14287641785E+02  0.33131449498E+04  0.33131141426E+04 0.  0.
        2    1    3    3  502    0  0.27423224130E+03 -0.30571293992E+03  0.15977130276E+04  0.16496516730E+04  0.25500000920E-02 0. -1.
       -2    1    3    3    0  502 -0.27423224130E+03  0.30571293992E+03 -0.16120006694E+04  0.16634932768E+04  0.25500000920E-02 0.  1.
</event>
<event>
 5   0  0.2057130E-07  0.3301305E+04  0.7818609E-02  0.8162563E-01
       -1   -1    0    0    0  501  0.00000000000E+00  0.00000000000E+00  0.16393590407E+04  0.16393590407E+04  0.50400001928E-02 0.  1.
        1   -1    0    0  501    0  0.00000000000E+00  0.00000000000E+00 -0.16620236567E+04  0.16620236567E+04  0.50400001928E-02 0. -1.
    10030    2    1    2    0    0  0.00000000000E+00  0.00000000000E+00 -0.22664615978E+02  0.33013826973E+04  0.33013048980E+04 0.  0.
        2    1    3    3  502    0  0.12725489906E+04  0.91890504487E+03  0.49944982642E+03  0.16471847328E+04  0.25500000920E-02 0.  1.
       -2    1    3    3    0  502 -0.12725489906E+04 -0.91890504487E+03 -0.52211444240E+03  0.16541979645E+04  0.25500000920E-02 0. -1.
</event>
<event>
 5   0  0.6351753E-07  0.3266194E+04  0.7818609E-02  0.8171551E-01
        2   -1    0    0  501    0  0.00000000000E+00  0.00000000000E+00  0.17859031387E+04  0.17859031387E+04  0.25500000920E-02 0.  1.
       -2   -1    0    0    0  501  0.00000000000E+00  0.00000000000E+00 -0.14933654144E+04  0.14933654144E+04  0.25500000920E-02 0. -1.
    10030    2    1    2    0    0  0.00000000000E+00  0.00000000000E+00  0.29253772427E+03  0.32792685531E+04  0.32661941038E+04 0.  0.
        3    1    3    3  502    0  0.42820470074E+03 -0.10099361832E+03  0.17252840154E+04  0.17804954144E+04  0.10100000352E+00 0.  1.
       -3    1    3    3    0  502 -0.42820470074E+03  0.10099361832E+03 -0.14327462911E+04  0.14987731388E+04  0.10100000352E+00 0. -1.
</event>
<event>
 5   0  0.6424183E-07  0.3271987E+04  0.7818609E-02  0.8170060E-01
        2   -1    0    0  501    0  0.00000000000E+00  0.00000000000E+00  0.24066090527E+04  0.24066090527E+04  0.25500000920E-02 0.  1.
       -2   -1    0    0    0  501  0.00000000000E+00  0.00000000000E+00 -0.11121355659E+04  0.11121355659E+04  0.25500000920E-02 0. -1.
    10030    2    1    2    0    0  0.00000000000E+00  0.00000000000E+00  0.12944734868E+04  0.35187446185E+04  0.32719874820E+04 0.  0.
        2    1    3    3  502    0  0.97785678335E+03 -0.77866474776E+03 -0.48779894624E+03  0.13418161164E+04  0.25500000920E-02 0. -1.
       -2    1    3    3    0  502 -0.97785678335E+03  0.77866474776E+03  0.17822724330E+04  0.21769285022E+04  0.25500000920E-02 0.  1.
</event>
<event>
 5   0  0.6424183E-07  0.3300578E+04  0.7818609E-02  0.8162748E-01
        2   -1    0    0  501    0  0.00000000000E+00  0.00000000000E+00  0.19107678494E+04  0.19107678494E+04  0.25500000920E-02 0. -1.
       -2   -1    0    0    0  501  0.00000000000E+00  0.00000000000E+00 -0.14253190479E+04  0.14253190479E+04  0.25500000920E-02 0.  1.
    10030    2    1    2    0    0  0.00000000000E+00  0.00000000000E+00  0.48544880150E+03  0.33360868973E+04  0.33005780172E+04 0.  0.
        2    1    3    3  502    0 -0.15864113868E+04 -0.30734555080E+03  0.58142866897E+03  0.17173298090E+04  0.25500000920E-02 0. -1.
       -2    1    3    3    0  502  0.15864113868E+04  0.30734555080E+03 -0.95979867476E+02  0.16187570883E+04  0.25500000920E-02 0.  1.
</event>
<event>
 5   0  0.2080770E-07  0.3299304E+04  0.7818609E-02  0.8163072E-01
        1   -1    0    0  501    0  0.00000000000E+00  0.00000000000E+00  0.20593543203E+04  0.20593543203E+04  0.50400001928E-02 0. -1.
       -1   -1    0    0    0  501  0.00000000000E+00  0.00000000000E+00 -0.13214590962E+04  0.13214590962E+04  0.50400001928E-02 0.  1.
    10030    2    1    2    0    0  0.00000000000E+00  0.00000000000E+00  0.73789522408E+03  0.33808134166E+04  0.32993044715E+04 0.  0.
        4    1    3    3  502    0 -0.13837242612E+04  0.80361871573E+03 -0.42028055980E+02  0.16007072942E+04  0.12699999809E+01 0.  1.
       -4    1    3    3    0  502  0.13837242612E+04 -0.80361871573E+03  0.77992328006E+03  0.17801061224E+04  0.12699999809E+01 0. -1.
</event>
<event>
 5   0  0.6377741E-07  0.3371437E+04  0.7818609E-02  0.8144952E-01
        2   -1    0    0  501    0  0.00000000000E+00  0.00000000000E+00  0.16882731135E+04  0.16882731135E+04  0.25500000920E-02 0.  1.
       -2   -1    0    0    0  501  0.00000000000E+00  0.00000000000E+00 -0.16831675619E+04  0.16831675619E+04  0.25500000920E-02 0. -1.
    10030    2    1    2    0    0  0.00000000000E+00  0.00000000000E+00  0.51055515789E+01  0.33714406753E+04  0.33714368095E+04 0.  0.
        1    1    3    3  502    0 -0.57020951745E+02  0.16586242144E+04 -0.29301628011E+03  0.16852727418E+04  0.50400001928E-02 0.  1.
       -1    1    3    3    0  502  0.57020951745E+02 -0.16586242144E+04  0.29812183169E+03  0.16861679336E+04  0.50400001928E-02 0. -1.
</event>
<event>
 5   0  0.6351753E-07  0.3310672E+04  0.7818609E-02  0.8160185E-01
       -2   -1    0    0    0  501  0.00000000000E+00  0.00000000000E+00  0.19676550720E+04  0.19676550720E+04  0.25500000920E-02 0.  1.
        2   -1    0    0  501    0  0.00000000000E+00  0.00000000000E+00 -0.13925905097E+04  0.13925905097E+04  0.25500000920E-02 0. -1.
    10030    2    1    2    0    0  0.00000000000E+00  0.00000000000E+00  0.57506456236E+03  0.33602455817E+04  0.33106723061E+04 0.  0.
        3    1    3    3  502    0 -0.18379655362E+02  0.89036831958E+03  0.17037914339E+04  0.19224980667E+04  0.10100000352E+00 0.  1.
       -3    1    3    3    0  502  0.18379655362E+02 -0.89036831958E+03 -0.11287268715E+04  0.14377475150E+04  0.10100000352E+00 0. -1.
</event>
<event>
 5   0  0.2057130E-07  0.3311811E+04  0.7818609E-02  0.8159897E-01
        1   -1    0    0  501    0  0.00000000000E+00  0.00000000000E+00  0.23695339960E+04  0.23695339960E+04  0.50400001928E-02 0.  1.
       -1   -1    0    0    0  501  0.00000000000E+00  0.00000000000E+00 -0.11571992041E+04  0.11571992041E+04  0.50400001928E-02 0. -1.
    10030    2    1    2    0    0  0.00000000000E+00  0.00000000000E+00  0.12123347919E+04  0.35267332002E+04  0.33118108970E+04 0.  0.
        2    1    3    3  502    0  0.95651777775E+03 -0.74865263660E+02 -0.83104410599E+03  0.12693168923E+04  0.25500000920E-02 0. -1.
       -2    1    3    3    0  502 -0.95651777775E+03  0.74865263660E+02  0.20433788979E+04  0.22574163079E+04  0.25500000920E-02 0.  1.
</event>
<event>
 5   0  0.6351753E-07  0.3297880E+04  0.7818609E-02  0.8163435E-01
        2   -1    0    0  501    0  0.00000000000E+00  0.00000000000E+00  0.14286595982E+04  0.14286595982E+04  0.25500000920E-02 0. -1.
       -2   -1    0    0    0  501  0.00000000000E+00  0.00000000000E+00 -0.19031852082E+04  0.19031852082E+04  0.25500000920E-02 0.  1.
    10030    2    1    2    0    0  0.00000000000E+00  0.00000000000E+00 -0.47452561000E+03  0.33318448064E+04  0.32978804192E+04 0.  0.
        3    1    3    3  502    0  0.15154446904E+04 -0.60231464811E+03 -0.48400802519E+03  0.17010641739E+04  0.10100000352E+00 0. -1.
       -3    1    3    3    0  502 -0.15154446904E+04  0.60231464811E+03  0.94824151960E+01  0.16307806325E+04  0.10100000352E+00 0.  1.
</event>
<event>
 5   0  0.6424183E-07  0.3366436E+04  0.7818609E-02  0.8146194E-01
       -2   -1    0    0    0  501  0.00000000000E+00  0.00000000000E+00  0.15776896190E+04  0.15776896191E+04  0.25500000920E-02 0. -1.
        2   -1    0    0  501    0  0.00000000000E+00  0.00000000000E+00 -0.17958046138E+04  0.17958046138E+04  0.25500000920E-02 0.  1.
    10030    2    1    2    0    0  0.00000000000E+00  0.00000000000E+00 -0.21811499471E+03  0.33734942328E+04  0.33664356800E+04 0.  0.
        2    1    3    3  502    0 -0.17602867377E+03  0.16253166877E+04 -0.51062439304E+03  0.17127106294E+04  0.25500000920E-02 0.  1.
       -2    1    3    3    0  502  0.17602867377E+03 -0.16253166877E+04  0.29250939834E+03  0.16607836034E+04  0.25500000920E-02 0. -1.
</event>
<event>
 5   0  0.6258718E-07  0.3294924E+04  0.7818609E-02  0.8164188E-01
       -2   -1    0    0    0  501  0.00000000000E+00  0.00000000000E+00  0.10693287561E+04  0.10693287561E+04  0.25500000920E-02 0. -1.
        2   -1    0    0  501    0  0.00000000000E+00  0.00000000000E+00 -0.25381630893E+04  0.25381630893E+04  0.25500000920E-02 0.  1.
    10030    2    1    2    0    0  0.00000000000E+00  0.00000000000E+00 -0.14688343332E+04  0.36074918454E+04  0.32949238408E+04 0.  0.
        5    1    3    3  502    0 -0.96606627673E+03 -0.11663506932E+04 -0.24483917330E+02  0.15146879358E+04  0.46999998093E+01 0. -1.
       -5    1    3    3    0  502  0.96606627673E+03  0.11663506932E+04 -0.14443504158E+04  0.20928039096E+04  0.46999998093E+01 0.  1.
</event>
<event>
 5   0  0.2087665E-07  0.3294078E+04  0.7818609E-02  0.8164404E-01
        1   -1    0    0  501    0  0.00000000000E+00  0.00000000000E+00  0.10520455845E+04  0.10520455845E+04  0.50400001928E-02 0. -1.
       -1   -1    0    0    0  501  0.00000000000E+00  0.00000000000E+00 -0.25785356371E+04  0.25785356371E+04  0.50400001928E-02 0.  1.
    10030    2    1    2    0    0  0.00000000000E+00  0.00000000000E+00 -0.15264900526E+04  0.36305812216E+04  0.32940777353E+04 0.  0.
        5    1    3    3  502    0 -0.41160118924E+03  0.57956873510E+03 -0.24007505804E+04  0.25037853137E+04  0.46999998093E+01 0.  1.
       -5    1    3    3    0  502  0.41160118924E+03 -0.57956873510E+03  0.87426052781E+03  0.11267959080E+04  0.46999998093E+01 0. -1.
</event>
<event>
 5   0  0.2087665E-07  0.3283010E+04  0.7818609E-02  0.8167232E-01
       -1   -1    0    0    0  501  0.00000000000E+00  0.00000000000E+00  0.17446812507E+04  0.17446812507E+04  0.50400001928E-02 0. -1.
        1   -1    0    0  501    0  0.00000000000E+00  0.00000000000E+00 -0.15444305145E+04  0.15444305145E+04  0.50400001928E-02 0.  1.
    10030    2    1    2    0    0  0.00000000000E+00  0.00000000000E+00  0.20025073617E+03  0.32891117652E+04  0.32830101807E+04 0.  0.
        5    1    3    3  502    0 -0.45649118328E+03  0.11899677043E+04 -0.93625819949E+03  0.15814578223E+04  0.46999998093E+01 0.  1.
       -5    1    3    3    0  502  0.45649118328E+03 -0.11899677043E+04  0.11365089357E+04  0.17076539428E+04  0.46999998093E+01 0. -1.
</event>
<event>
 5   0  0.6377741E-07  0.3309489E+04  0.7818609E-02  0.8160485E-01
       -2   -1    0    0    0  501  0.00000000000E+00  0.00000000000E+00  0.14411387760E+04  0.14411387760E+04  0.25500000920E-02 0. -1.
        2   -1    0    0  501    0  0.00000000000E+00  0.00000000000E+00 -0.19000106685E+04  0.19000106685E+04  0.25500000920E-02 0.  1.
    10030    2    1    2    0    0  0.00000000000E+00  0.00000000000E+00 -0.45887189247E+03  0.33411494445E+04  0.33094888120E+04 0.  0.
        1    1    3    3  502    0 -0.96243330811E+03 -0.57299531087E+03 -0.14591102863E+04  0.18394576175E+04  0.50400001928E-02 0.  1.
       -1    1    3    3    0  502  0.96243330811E+03  0.57299531087E+03  0.10002383938E+04  0.15016918270E+04  0.50400001928E-02 0. -1.
</event>
<event>
 5   0  0.2080770E-07  0.3271397E+04  0.7818609E-02  0.8170212E-01
        1   -1    0    0  501    0  0.00000000000E+00  0.00000000000E+00  0.12658564638E+04  0.12658564638E+04  0.50400001928E-02 0.  1.
       -1   -1    0    0    0  501  0.00000000000E+00  0.00000000000E+00 -0.21135964392E+04  0.21135964392E+04  0.50400001928E-02 0. -1.
    10030    2    1    2    0    0  0.00000000000E+00  0.00000000000E+00 -0.84773997538E+03  0.33794529030E+04  0.32713970804E+04 0.  0.
        4    1    3    3  502    0  0.97042958726E+03 -0.13081032537E+04 -0.57930725028E+03  0.17287180827E+04  0.12699999809E+01 0.  1.
       -4    1    3    3    0  502 -0.97042958726E+03  0.13081032537E+04 -0.26843272510E+03  0.16507348203E+04  0.12699999809E+01 0. -1.
</event>
<event>
 5   0  0.6424183E-07  0.3291623E+04  0.7818609E-02  0.8165030E-01
       -2   -1    0    0    0  501  0.00000000000E+00  0.00000000000E+00  0.17916724850E+04  0.17916724850E+04  0.25500000920E-02 0. -1.
        2   -1    0    0  501    0  0.00000000000E+00  0.00000000000E+00 -0.15118254641E+04  0.15118254641E+04  0.25500000920E-02 0.  1.
    10030    2    1    2    0    0  0.00000000000E+00  0.00000000000E+00  0.27984702090E+03  0.33034979491E+04  0.32916233600E+04 0.  0.
        2    1    3    3  502    0  0.31164018825E+03  0.10628465193E+04 -0.10818151055E+04  0.15482526451E+04  0.25500000920E-02 0.  1.
       -2    1    3    3    0  502 -0.31164018825E+03 -0.10628465193E+04  0.13616621264E+04  0.17552453040E+04  0.25500000920E-02 0. -1.
</event>
<event>
 5   0  0.2080828E-07  0.3292000E+04  0.7818609E-02  0.8164934E-01
       -1   -1    0    0    0  501  0.00000000000E+00  0.00000000000E+00  0.14648829503E+04  0.14648829503E+04  0.50400001928E-02 0.  1.
        1   -1    0    0  501    0  0.00000000000E+00  0.00000000000E+00 -0.18495107872E+04  0.18495107872E+04  0.50400001928E-02 0. -1.
    10030    2    1    2    0    0  0.00000000000E+00  0.00000000000E+00 -0.38462783692E+03  0.33143937375E+04  0.32920004973E+04 0.  0.
        1    1    3    3  502    0  0.11920258447E+04  0.11303599511E+04 -0.88278616995E+02  0.16451238092E+04  0.50400001928E-02 0.  1.
       -1    1    3    3    0  502 -0.11920258447E+04 -0.11303599511E+04 -0.29634921992E+03  0.16692699283E+04  0.50400001928E-02 0. -1.
</event>
<event>
 5   0  0.6426079E-07  0.3275279E+04  0.7818609E-02  0.8169214E-01
        2   -1    0    0  501    0  0.00000000000E+00  0.00000000000E+00  0.14702016369E+04  0.14702016370E+04  0.25500000920E-02 0. -1.
       -2   -1    0    0    0  501  0.00000000000E+00  0.00000000000E+00 -0.18241459928E+04  0.18241459928E+04  0.25500000920E-02 0.  1.
    10030    2    1    2    0    0  0.00000000000E+00  0.00000000000E+00 -0.35394435587E+03  0.32943476298E+04  0.32752785681E+04 0.  0.
        4    1    3    3  502    0 -0.30966343504E+03  0.16060308500E+04 -0.95046885196E+02  0.16383717702E+04  0.12699999809E+01 0.  1.
       -4    1    3    3    0  502  0.30966343504E+03 -0.16060308500E+04 -0.25889747067E+03  0.16559758595E+04  0.12699999809E+01 0. -1.
</event>
<event>
 5   0  0.2080770E-07  0.3295079E+04  0.7818609E-02  0.8164149E-01
        1   -1    0    0  501    0  0.00000000000E+00  0.00000000000E+00  0.13412720461E+04  0.13412720461E+04  0.50400001928E-02 0. -1.
       -1   -1    0    0    0  501  0.00000000000E+00  0.00000000000E+00 -0.20237405794E+04  0.20237405794E+04  0.50400001928E-02 0.  1.
    10030    2    1    2    0    0  0.00000000000E+00  0.00000000000E+00 -0.68246853331E+03  0.33650126255E+04  0.32950791600E+04 0.  0.
        4    1    3    3  502    0  0.11581737913E+04 -0.76698611792E+02 -0.15352957264E+04  0.19246775804E+04  0.12699999809E+01 0.  1.
       -4    1    3    3    0  502 -0.11581737913E+04  0.76698611792E+02  0.85282719312E+03  0.14403350451E+04  0.12699999809E+01 0. -1.
</event>
<event>
 5   0  0.2057130E-07  0.3360199E+04  0.7818609E-02  0.8147744E-01
       -1   -1    0    0    0  501  0.00000000000E+00  0.00000000000E+00  0.16463462705E+04  0.16463462705E+04  0.50400001928E-02 0. -1.
        1   -1    0    0  501    0  0.00000000000E+00  0.00000000000E+00 -0.17145445255E+04  0.17145445256E+04  0.50400001928E-02 0.  1.
    10030    2    1    2    0    0  0.00000000000E+00  0.00000000000E+00 -0.68198255063E+02  0.33608907961E+04  0.33601987949E+04 0.  0.
        2    1    3    3  502    0 -0.76294514786E+02 -0.11038941662E+04  0.12304123166E+04  0.16547862858E+04  0.25500000920E-02 0.  1.
       -2    1    3    3    0  502  0.76294514786E+02  0.11038941662E+04 -0.12986105716E+04  0.17061045102E+04  0.25500000920E-02 0. -1.
</event>
<event>
 5   0  0.2080770E-07  0.3354875E+04  0.7818609E-02  0.8149071E-01
        1   -1    0    0  501    0  0.00000000000E+00  0.00000000000E+00  0.20095083200E+04  0.20095083200E+04  0.50400001928E-02 0. -1.
       -1   -1    0    0    0  501  0.00000000000E+00  0.00000000000E+00 -0.14002416671E+04  0.14002416671E+04  0.50400001928E-02 0.  1.
    10030    2    1    2    0    0  0.00000000000E+00  0.00000000000E+00  0.60926665296E+03  0.34097499871E+04  0.33548754254E+04 0.  0.
        4    1    3    3  502    0  0.16044165212E+04 -0.93493693324E+02  0.79301594035E+03  0.17921409930E+04  0.12699999809E+01 0.  1.
       -4    1    3    3    0  502 -0.16044165212E+04  0.93493693324E+02 -0.18374928738E+03  0.16176089941E+04  0.12699999809E+01 0. -1.
</event>
<event>
 5   0  0.2087665E-07  0.3348559E+04  0.7818609E-02  0.8150648E-01
       -1   -1    0    0    0  501  0.00000000000E+00  0.00000000000E+00  0.18060355175E+04  0.18060355175E+04  0.50400001928E-02 0. -1.
        1   -1    0    0  501    0  0.00000000000E+00  0.00000000000E+00 -0.15521350657E+04  0.15521350657E+04  0.50400001928E-02 0.  1.
    10030    2    1    2    0    0  0.00000000000E+00  0.00000000000E+00  0.25390045174E+03  0.33581705832E+04  0.33485585297E+04 0.  0.
        5    1    3    3  502    0 -0.12015069433E+04 -0.62409960103E+03 -0.86079816963E+03  0.16044048197E+04  0.46999998093E+01 0.  1.
       -5    1    3    3    0  502  0.12015069433E+04  0.62409960103E+03  0.11146986214E+04  0.17537657635E+04  0.46999998093E+01 0. -1.
</event>
<event>
 5   0  0.6377741E-07  0.3313395E+04  0.7818609E-02  0.8159495E-01
        2   -1    0    0  501    0  0.00000000000E+00  0.00000000000E+00  0.20255731242E+04  0.20255731242E+04  0.25500000920E-02 0. -1.
       -2   -1    0    0    0  501  0.00000000000E+00  0.00000000000E+00 -0.13549974572E+04  0.13549974572E+04  0.25500000920E-02 0.  1.
    10030    2    1    2    0    0  0.00000000000E+00  0.00000000000E+00  0.67057566695E+03  0.33805705814E+04  0.33133948951E+04 0.  0.
        1    1    3    3  502    0  0.10916965877E+04  0.77760239645E+02  0.16042061239E+04  0.19419900572E+04  0.50400001928E-02 0. -1.
       -1    1    3    3    0  502 -0.10916965877E+04 -0.77760239645E+02 -0.93363045692E+03  0.14385805242E+04  0.50400001928E-02 0.  1.
</event>
<event>
 5   0  0.2087665E-07  0.3303239E+04  0.7818609E-02  0.8162072E-01
        1   -1    0    0  501    0  0.00000000000E+00  0.00000000000E+00  0.22955412015E+04  0.22955412015E+04  0.50400001928E-02 0. -1.
       -1   -1    0    0    0  501  0.00000000000E+00  0.00000000000E+00 -0.11883239415E+04  0.11883239415E+04  0.50400001928E-02 0.  1.
    10030    2    1    2    0    0  0.00000000000E+00  0.00000000000E+00  0.11072172600E+04  0.34838651430E+04  0.33032387552E+04 0.  0.
        5    1    3    3  502    0  0.11700175286E+04 -0.12089351803E+03  0.17764337054E+04  0.21305621464E+04  0.46999998093E+01 0. -1.
       -5    1    3    3    0  502 -0.11700175286E+04  0.12089351803E+03 -0.66921644541E+03  0.13533029966E+04  0.46999998093E+01 0.  1.
</event>
<event>
 5   0  0.6377741E-07  0.3295010E+04  0.7818609E-02  0.8164166E-01
        2   -1    0    0  501    0  0.00000000000E+00  0.00000000000E+00  0.21901142606E+04  0.21901142606E+04  0.25500000920E-02 0. -1.
       -2   -1    0    0    0  501  0.00000000000E+00  0.00000000000E+00 -0.12393290177E+04  0.12393290177E+04  0.25500000920E-02 0.  1.
    10030    2    1    2    0    0  0.00000000000E+00  0.00000000000E+00  0.95078524292E+03  0.34294432783E+04  0.32950096541E+04 0.  0.
        1    1    3    3  502    0  0.10921639606E+04 -0.17148767148E+03 -0.79593493173E+03  0.13622564200E+04  0.50400001928E-02 0.  1.
       -1    1    3    3    0  502 -0.10921639606E+04  0.17148767148E+03  0.17467201746E+04  0.20671868582E+04  0.50400001928E-02 0. -1.
</event>
<event>
 5   0  0.2037333E-07  0.3302747E+04  0.7818609E-02  0.8162197E-01
       -1   -1    0    0    0  501  0.00000000000E+00  0.00000000000E+00  0.17499975488E+04  0.17499975489E+04  0.50400001928E-02 0.  1.
        1   -1    0    0  501    0  0.00000000000E+00  0.00000000000E+00 -0.15583074023E+04  0.15583074023E+04  0.50400001928E-02 0. -1.
    10030    2    1    2    0    0  0.00000000000E+00  0.00000000000E+00  0.19169014653E+03  0.33083049512E+04  0.33027468171E+04 0.  0.
        3    1    3    3  502    0 -0.11033057311E+04 -0.76950491901E+03 -0.86368806056E+03  0.15985551078E+04  0.10100000352E+00 0. -1.
       -3    1    3    3    0  502  0.11033057311E+04  0.76950491901E+03  0.10553782071E+04  0.17097498433E+04  0.10100000352E+00 0.  1.
</event>
<event>
 5   0  0.2087665E-07  0.3291827E+04  0.7818609E-02  0.8164978E-01
       -1   -1    0    0    0  501  0.00000000000E+00  0.00000000000E+00  0.91555924474E+03  0.91555924475E+03  0.50400001928E-02 0. -1.
        1   -1    0    0  501    0  0.00000000000E+00  0.00000000000E+00 -0.29588814678E+04  0.29588814678E+04  0.50400001928E-02 0.  1.
    10030    2    1    2    0    0  0.00000000000E+00  0.00000000000E+00 -0.20433222230E+04  0.38744407125E+04  0.32918270197E+04 0.  0.
        5    1    3    3  502    0 -0.14940169057E+04  0.67023227258E+03 -0.12175911740E+04  0.20405509478E+04  0.46999998093E+01 0. -1.
       -5    1    3    3    0  502  0.14940169057E+04 -0.67023227258E+03 -0.82573104904E+03  0.18338897647E+04  0.46999998093E+01 0.  1.
</event>
<event>
 5   0  0.6426079E-07  0.3320887E+04  0.7818609E-02  0.8157601E-01
       -2   -1    0    0    0  501  0.00000000000E+00  0.00000000000E+00  0.11688337104E+04  0.11688337104E+04  0.25500000920E-02 0. -1.
        2   -1    0    0  501    0  0.00000000000E+00  0.00000000000E+00 -0.23588236566E+04  0.23588236566E+04  0.25500000920E-02 0.  1.
    10030    2    1    2    0    0  0.00000000000E+00  0.00000000000E+00 -0.11899899462E+04  0.35276573670E+04  0.33208869940E+04 0.  0.
        4    1    3    3  502    0  0.11658512905E+04  0.27387458795E+03  0.62677186812E+03  0.13516882440E+04  0.12699999809E+01 0. -1.
       -4    1    3    3    0  502 -0.11658512905E+04 -0.27387458795E+03 -0.18167618143E+04  0.21759691230E+04  0.12699999809E+01 0.  1.
</event>
<event>
 5   0  0.6424183E-07  0.3305233E+04  0.7818609E-02  0.8161565E-01
        2   -1    0    0  501    0  0.00000000000E+00  0.00000000000E+00  0.85185539972E+03  0.85185539972E+03  0.25500000920E-02 0.  1.
       -2   -1    0    0    0  501  0.00000000000E+00  0.00000000000E+00 -0.32061083546E+04  0.32061083546E+04  0.25500000920E-02 0. -1.
    10030    2    1    2    0    0  0.00000000000E+00  0.00000000000E+00 -0.23542529549E+04  0.40579637543E+04  0.33052326478E+04 0.  0.
        2    1    3    3  502    0 -0.19554094172E+03 -0.14643138908E+04 -0.26769628449E+03  0.15013702846E+04  0.25500000920E-02 0.  1.
       -2    1    3    3    0  502  0.19554094172E+03  0.14643138908E+04 -0.20865566704E+04  0.25565934697E+04  0.25500000920E-02 0. -1.
</event>
<event>
 5   0  0.2080828E-07  0.3287153E+04  0.7818609E-02  0.8166172E-01
       -1   -1    0    0    0  501  0.00000000000E+00  0.00000000000E+00  0.13813151353E+04  0.13813151353E+04  0.50400001928E-02 0.  1.
        1   -1    0    0  501    0  0.00000000000E+00  0.00000000000E+00 -0.19556320455E+04  0.19556320455E+04  0.50400001928E-02 0. -1.
    10030    2    1    2    0    0  0.00000000000E+00  0.00000000000E+00 -0.57431691025E+03  0.33369471808E+04  0.32871532629E+04 0.  0.
        1    1    3    3  502    0 -0.92674375443E+03  0.13530193485E+04 -0.39756624476E+03  0.16874757074E+04  0.50400001928E-02 0. -1.
       -1    1    3    3    0  502  0.92674375443E+03 -0.13530193485E+04 -0.17675066549E+03  0.16494714734E+04  0.50400001928E-02 0.  1.
</event>
<event>
 5   0  0.6258718E-07  0.3187779E+04  0.7818609E-02  0.8192052E-01
        2   -1    0    0  501    0  0.00000000000E+00  0.00000000000E+00  0.99197269901E+03  0.99197269901E+03  0.25500000920E-02 0. -1.
       -2   -1    0    0    0  501  0.00000000000E+00  0.00000000000E+00 -0.25610424304E+04  0.25610424304E+04  0.25500000920E-02 0.  1.
    10030    2    1    2    0    0  0.00000000000E+00  0.00000000000E+00 -0.15690697314E+04  0.35530151294E+04  0.31877792721E+04 0.  0.
        5    1    3    3  502    0 -0.67560608875E+03  0.61026270897E+03  0.67364027341E+03  0.11325535171E+04  0.46999998093E+01 0. -1.
       -5    1    3    3    0  502  0.67560608875E+03 -0.61026270897E+03 -0.22427100048E+04  0.24204616123E+04  0.46999998093E+01 0.  1.
</event>
<event>
 5   0  0.2080828E-07  0.3307333E+04  0.7818609E-02  0.8161032E-01
        1   -1    0    0  501    0  0.00000000000E+00  0.00000000000E+00  0.17448650653E+04  0.17448650653E+04  0.50400001928E-02 0. -1.
       -1   -1    0    0    0  501  0.00000000000E+00  0.00000000000E+00 -0.15672343156E+04  0.15672343156E+04  0.50400001928E-02 0.  1.
    10030    2    1    2    0    0  0.00000000000E+00  0.00000000000E+00  0.17763074964E+03  0.33120993809E+04  0.33073327056E+04 0.  0.
        1    1    3    3  502    0 -0.91681626509E+01 -0.36695167542E+02  0.17444318341E+04  0.17448418307E+04  0.50400001928E-02 0. -1.
       -1    1    3    3    0  502  0.91681626509E+01  0.36695167542E+02 -0.15668010844E+04  0.15672575502E+04  0.50400001928E-02 0.  1.
</event>
<event>
 5   0  0.6426079E-07  0.3234026E+04  0.7818609E-02  0.8179888E-01
       -2   -1    0    0    0  501  0.00000000000E+00  0.00000000000E+00  0.10799933975E+04  0.10799933975E+04  0.25500000920E-02 0.  1.
        2   -1    0    0  501    0  0.00000000000E+00  0.00000000000E+00 -0.24210622380E+04  0.24210622380E+04  0.25500000920E-02 0. -1.
    10030    2    1    2    0    0  0.00000000000E+00  0.00000000000E+00 -0.13410688404E+04  0.35010556355E+04  0.32340261174E+04 0.  0.
        4    1    3    3  502    0  0.29913899131E+03  0.15159848951E+04 -0.15470968408E+03  0.15529427026E+04  0.12699999809E+01 0.  1.
       -4    1    3    3    0  502 -0.29913899131E+03 -0.15159848951E+04 -0.11863591564E+04  0.19481129329E+04  0.12699999809E+01 0. -1.
</event>
<event>
 5   0  0.2080770E-07  0.3292249E+04  0.7818609E-02  0.8164871E-01
       -1   -1    0    0    0  501  0.00000000000E+00  0.00000000000E+00  0.21147519069E+04  0.21147519069E+04  0.50400001928E-02 0. -1.
        1   -1    0    0  501    0  0.00000000000E+00  0.00000000000E+00 -0.12813442631E+04  0.12813442631E+04  0.50400001928E-02 0.  1.
    10030    2    1    2    0    0  0.00000000000E+00  0.00000000000E+00  0.83340764383E+03  0.33960961700E+04  0.32922486078E+04 0.  0.
        4    1    3    3  502    0  0.34837185497E+03  0.22259666616E+03  0.20603282074E+04  0.21013962406E+04  0.12699999809E+01 0. -1.
       -4    1    3    3    0  502 -0.34837185497E+03 -0.22259666616E+03 -0.12269205635E+04  0.12946999294E+04  0.12699999809E+01 0.  1.
</event>
<event>
 5   0  0.2057130E-07  0.3300995E+04  0.7818609E-02  0.8162642E-01
       -1   -1    0    0    0  501  0.00000000000E+00  0.00000000000E+00  0.13098974822E+04  0.13098974822E+04  0.50400001928E-02 0. -1.
        1   -1    0    0  501    0  0.00000000000E+00  0.00000000000E+00 -0.20796606517E+04  0.20796606517E+04  0.50400001928E-02 0.  1.
    10030    2    1    2    0    0  0.00000000000E+00  0.00000000000E+00 -0.76976316955E+03  0.33895581339E+04  0.33009951539E+04 0.  0.
        2    1    3    3  502    0  0.29268983924E+03  0.75465854663E+03 -0.18618622588E+04  0.20301989890E+04  0.25500000920E-02 0.  1.
       -2    1    3    3    0  502 -0.29268983924E+03 -0.75465854663E+03  0.10920990893E+04  0.13593591449E+04  0.25500000920E-02 0. -1.
</event>
<event>
 5   0  0.6424183E-07  0.3327244E+04  0.7818609E-02  0.8155997E-01
       -2   -1    0    0    0  501  0.00000000000E+00  0.00000000000E+00  0.93230815296E+03  0.93230815296E+03  0.25500000920E-02 0. -1.
        2   -1    0    0  501    0  0.00000000000E+00  0.00000000000E+00 -0.29685880957E+04  0.29685880957E+04  0.25500000920E-02 0.  1.
    10030    2    1    2    0    0  0.00000000000E+00  0.00000000000E+00 -0.20362799427E+04  0.39008962486E+04  0.33272444361E+04 0.  0.
        2    1    3    3  502    0  0.98538481906E+03 -0.12845232282E+04 -0.14671222439E+04  0.21848182634E+04  0.25500000920E-02 0.  1.
       -2    1    3    3    0  502 -0.98538481906E+03  0.12845232282E+04 -0.56915769882E+03  0.17160779853E+04  0.25500000920E-02 0. -1.
</event>
<event>
 5   0  0.1994250E-07  0.3302629E+04  0.7818609E-02  0.8162227E-01
        3   -1    0    0  501    0  0.00000000000E+00  0.00000000000E+00  0.13574484911E+04  0.13574484949E+04  0.10100000352E+00 0.  1.
       -3   -1    0    0    0  501  0.00000000000E+00  0.00000000000E+00 -0.20087983979E+04  0.20087984005E+04  0.10100000352E+00 0. -1.
    10030    2    1    2    0    0  0.00000000000E+00  0.00000000000E+00 -0.65134990682E+03  0.33662468953E+04  0.33026294765E+04 0.  0.
        2    1    3    3  502    0  0.33689021849E+03  0.13131379387E+04 -0.12867126818E+04  0.18690788616E+04  0.25500000920E-02 0. -1.
       -2    1    3    3    0  502 -0.33689021849E+03 -0.13131379387E+04  0.63536277500E+03  0.14971680337E+04  0.25500000920E-02 0.  1.
</event>
<event>
 5   0  0.2080828E-07  0.3307131E+04  0.7818609E-02  0.8161083E-01
        1   -1    0    0  501    0  0.00000000000E+00  0.00000000000E+00  0.21335209423E+04  0.21335209423E+04  0.50400001928E-02 0. -1.
       -1   -1    0    0    0  501  0.00000000000E+00  0.00000000000E+00 -0.12815801294E+04  0.12815801294E+04  0.50400001928E-02 0.  1.
    10030    2    1    2    0    0  0.00000000000E+00  0.00000000000E+00  0.85194081290E+03  0.34151010718E+04  0.33071305057E+04 0.  0.
        1    1    3    3  502    0  0.11781147713E+04 -0.86716088101E+03 -0.37014388675E+03  0.15089496032E+04  0.50400001928E-02 0.  1.
       -1    1    3    3    0  502 -0.11781147713E+04  0.86716088101E+03  0.12220846997E+04  0.19061514686E+04  0.50400001928E-02 0. -1.
</event>
<event>
 5   0  0.2087665E-07  0.3300028E+04  0.7818609E-02  0.8162888E-01
        1   -1    0    0  501    0  0.00000000000E+00  0.00000000000E+00  0.24058016452E+04  0.24058016452E+04  0.50400001928E-02 0. -1.
       -1   -1    0    0    0  501  0.00000000000E+00  0.00000000000E+00 -0.11316587195E+04  0.11316587195E+04  0.50400001928E-02 0.  1.
    10030    2    1    2    0    0  0.00000000000E+00  0.00000000000E+00  0.12741429257E+04  0.35374603647E+04  0.33000281267E+04 0.  0.
        5    1    3    3  502    0 -0.11277384097E+04 -0.48566349928E+03  0.18185811896E+04  0.21942931866E+04  0.46999998093E+01 0. -1.
       -5    1    3    3    0  502  0.11277384097E+04  0.48566349928E+03 -0.54443826390E+03  0.13431671782E+04  0.46999998093E+01 0.  1.
</event>
<event>
 5   0  0.6424183E-07  0.3310670E+04  0.7818609E-02  0.8160186E-01
       -2   -1    0    0    0  501  0.00000000000E+00  0.00000000000E+00  0.13527714951E+04  0.13527714951E+04  0.25500000920E-02 0. -1.
        2   -1    0    0  501    0  0.00000000000E+00  0.00000000000E+00 -0.20255700894E+04  0.20255700894E+04  0.25500000920E-02 0.  1.
    10030    2    1    2    0    0  0.00000000000E+00  0.00000000000E+00 -0.67279859434E+03  0.33783415844E+04  0.33106697076E+04 0.  0.
        2    1    3    3  502    0  0.82454111414E+03 -0.12567320509E+04  0.37123776139E+03  0.15482444808E+04  0.25500000920E-02 0. -1.
       -2    1    3    3    0  502 -0.82454111414E+03  0.12567320509E+04 -0.10440363557E+04  0.18300971037E+04  0.25500000920E-02 0.  1.
</event>
<event>
 5   0  0.6424183E-07  0.3296190E+04  0.7818609E-02  0.8163866E-01
       -2   -1    0    0    0  501  0.00000000000E+00  0.00000000000E+00  0.15661120393E+04  0.15661120393E+04  0.25500000920E-02 0.  1.
        2   -1    0    0  501    0  0.00000000000E+00  0.00000000000E+00 -0.17343694350E+04  0.17343694350E+04  0.25500000920E-02 0. -1.
    10030    2    1    2    0    0  0.00000000000E+00  0.00000000000E+00 -0.16825739571E+03  0.33004814742E+04  0.32961898323E+04 0.  0.
        2    1    3    3  502    0  0.10556240380E+04 -0.27153394274E+03  0.11536620523E+04  0.15871385959E+04  0.25500000920E-02 0.  1.
       -2    1    3    3    0  502 -0.10556240380E+04  0.27153394274E+03 -0.13219194480E+04  0.17133428783E+04  0.25500000920E-02 0. -1.
</event>
<event>
 5   0  0.2080828E-07  0.3309625E+04  0.7818609E-02  0.8160451E-01
        1   -1    0    0  501    0  0.00000000000E+00  0.00000000000E+00  0.14256338924E+04  0.14256338924E+04  0.50400001928E-02 0. -1.
       -1   -1    0    0    0  501  0.00000000000E+00  0.00000000000E+00 -0.19208324391E+04  0.19208324391E+04  0.50400001928E-02 0.  1.
    10030    2    1    2    0    0  0.00000000000E+00  0.00000000000E+00 -0.49519854673E+03  0.33464663316E+04  0.33096246475E+04 0.  0.
        1    1    3    3  502    0  0.23165150447E+03  0.14901397859E+04 -0.93652420020E+03  0.17751779005E+04  0.50400001928E-02 0.  1.
       -1    1    3    3    0  502 -0.23165150447E+03 -0.14901397859E+04  0.44132565348E+03  0.15712884310E+04  0.50400001928E-02 0. -1.
</event>
<event>
 5   0  0.6351753E-07  0.3302156E+04  0.7818609E-02  0.8162347E-01
        2   -1    0    0  501    0  0.00000000000E+00  0.00000000000E+00  0.19904523261E+04  0.19904523261E+04  0.25500000920E-02 0.  1.
       -2   -1    0    0    0  501  0.00000000000E+00  0.00000000000E+00 -0.13695676601E+04  0.13695676601E+04  0.25500000920E-02 0. -1.
    10030    2    1    2    0    0  0.00000000000E+00  0.00000000000E+00  0.62088466597E+03  0.33600199863E+04  0.33021563469E+04 0.  0.
        3    1    3    3  502    0 -0.85526370481E+03 -0.10133393774E+03 -0.11228985472E+04  0.14151486598E+04  0.10100000352E+00 0. -1.
       -3    1    3    3    0  502  0.85526370481E+03  0.10133393774E+03  0.17437832132E+04  0.19448713265E+04  0.10100000352E+00 0.  1.
</event>
<event>
 5   0  0.6351753E-07  0.3312831E+04  0.7818609E-02  0.8159638E-01
        2   -1    0    0  501    0  0.00000000000E+00  0.00000000000E+00  0.16158826902E+04  0.16158826902E+04  0.25500000920E-02 0.  1.
       -2   -1    0    0    0  501  0.00000000000E+00  0.00000000000E+00 -0.16979646030E+04  0.16979646030E+04  0.25500000920E-02 0. -1.
    10030    2    1    2    0    0  0.00000000000E+00  0.00000000000E+00 -0.82081912790E+02  0.33138472931E+04  0.33128305785E+04 0.  0.
        3    1    3    3  502    0  0.93069613061E+03 -0.53019581514E+03 -0.13049194090E+04  0.16882291208E+04  0.10100000352E+00 0. -1.
       -3    1    3    3    0  502 -0.93069613061E+03  0.53019581514E+03  0.12228374962E+04  0.16256181724E+04  0.10100000352E+00 0.  1.
</event>
<event>
 5   0  0.6426079E-07  0.3315857E+04  0.7818609E-02  0.8158872E-01
       -2   -1    0    0    0  501  0.00000000000E+00  0.00000000000E+00  0.16569770571E+04  0.16569770571E+04  0.25500000920E-02 0. -1.
        2   -1    0    0  501    0  0.00000000000E+00  0.00000000000E+00 -0.16588808181E+04  0.16588808181E+04  0.25500000920E-02 0.  1.
    10030    2    1    2    0    0  0.00000000000E+00  0.00000000000E+00 -0.19037610454E+01  0.33158578752E+04  0.33158573287E+04 0.  0.
        4    1    3    3  502    0 -0.46570450342E+03 -0.14606393471E+04 -0.63212379667E+03  0.16582913176E+04  0.12699999809E+01 0.  1.
       -4    1    3    3    0  502  0.46570450342E+03  0.14606393471E+04  0.63022003562E+03  0.16575665576E+04  0.12699999809E+01 0. -1.
</event>
<event>
 5   0  0.2080770E-07  0.3344930E+04  0.7818609E-02  0.8151556E-01
        1   -1    0    0  501    0  0.00000000000E+00  0.00000000000E+00  0.94978607445E+03  0.94978607446E+03  0.50400001928E-02 0. -1.
       -1   -1    0    0    0  501  0.00000000000E+00  0.00000000000E+00 -0.29450198853E+04  0.29450198853E+04  0.50400001928E-02 0.  1.
    10030    2    1    2    0    0  0.00000000000E+00  0.00000000000E+00 -0.19952338108E+04  0.38948059598E+04  0.33449298205E+04 0.  0.
        4    1    3    3  502    0  0.19247405050E+03  0.11736288000E+04 -0.23667972876E+04  0.26488076249E+04  0.12699999809E+01 0.  1.
       -4    1    3    3    0  502 -0.19247405050E+03 -0.11736288000E+04  0.37156347671E+03  0.12459983349E+04  0.12699999809E+01 0. -1.
</event>
<event>
 5   0  0.2080770E-07  0.3162559E+04  0.7818609E-02  0.8198776E-01
       -1   -1    0    0    0  501  0.00000000000E+00  0.00000000000E+00  0.11006882298E+04  0.11006882298E+04  0.50400001928E-02 0.  1.
        1   -1    0    0  501    0  0.00000000000E+00  0.00000000000E+00 -0.22717106626E+04  0.22717106626E+04  0.50400001928E-02 0. -1.
    10030    2    1    2    0    0  0.00000000000E+00  0.00000000000E+00 -0.11710224328E+04  0.33723988924E+04  0.31625592091E+04 0.  0.
        4    1    3    3  502    0  0.71114146023E+03 -0.19276283748E+03  0.90645244398E+03  0.11681341250E+04  0.12699999809E+01 0.  1.
       -4    1    3    3    0  502 -0.71114146023E+03  0.19276283748E+03 -0.20774748768E+04  0.22042647673E+04  0.12699999809E+01 0. -1.
</event>
<event>
 5   0  0.6258718E-07  0.3332945E+04  0.7818609E-02  0.8154563E-01
       -2   -1    0    0    0  501  0.00000000000E+00  0.00000000000E+00  0.15196215137E+04  0.15196215137E+04  0.25500000920E-02 0.  1.
        2   -1    0    0  501    0  0.00000000000E+00  0.00000000000E+00 -0.18275143356E+04  0.18275143356E+04  0.25500000920E-02 0. -1.
    10030    2    1    2    0    0  0.00000000000E+00  0.00000000000E+00 -0.30789282188E+03  0.33471358493E+04  0.33329447046E+04 0.  0.
        5    1    3    3  502    0  0.11911738486E+04  0.44232408392E+03  0.92886629789E+03  0.15739632849E+04  0.46999998093E+01 0.  1.
       -5    1    3    3    0  502 -0.11911738486E+04 -0.44232408392E+03 -0.12367591198E+04  0.17731725644E+04  0.46999998093E+01 0. -1.
</event>
<event>
 5   0  0.2080770E-07  0.3318837E+04  0.7818609E-02  0.8158119E-01
        1   -1    0    0  501    0  0.00000000000E+00  0.00000000000E+00  0.16613181497E+04  0.16613181497E+04  0.50400001928E-02 0. -1.
       -1   -1    0    0    0  501  0.00000000000E+00  0.00000000000E+00 -0.16575214927E+04  0.16575214927E+04  0.50400001928E-02 0.  1.
    10030    2    1    2    0    0  0.00000000000E+00  0.00000000000E+00  0.37966569472E+01  0.33188396424E+04  0.33188374708E+04 0.  0.
        4    1    3    3  502    0  0.14424476881E+04 -0.64958480107E+03  0.50295072924E+03  0.16599930107E+04  0.12699999809E+01 0. -1.
       -4    1    3    3    0  502 -0.14424476881E+04  0.64958480107E+03 -0.49915407229E+03  0.16588466317E+04  0.12699999809E+01 0.  1.
</event>
<event>
 5   0  0.6351753E-07  0.3311285E+04  0.7818609E-02  0.8160030E-01
        2   -1    0    0  501    0  0.00000000000E+00  0.00000000000E+00  0.28732199382E+04  0.28732199382E+04  0.25500000920E-02 0. -1.
       -2   -1    0    0    0  501  0.00000000000E+00  0.00000000000E+00 -0.95403481876E+03  0.95403481876E+03  0.25500000920E-02 0.  1.
    10030    2    1    2    0    0  0.00000000000E+00  0.00000000000E+00  0.19191851194E+04  0.38272547569E+04  0.33112848642E+04 0.  0.
        3    1    3    3  502    0  0.25304785650E+03  0.83321698512E+03 -0.66797018249E+03  0.10974825451E+04  0.10100000352E+00 0.  1.
       -3    1    3    3    0  502 -0.25304785650E+03 -0.83321698512E+03  0.25871553019E+04  0.27297722118E+04  0.10100000352E+00 0. -1.
</event>
<event>
 5   0  0.6258718E-07  0.3277605E+04  0.7818609E-02  0.8168617E-01
       -2   -1    0    0    0  501  0.00000000000E+00  0.00000000000E+00  0.11752677579E+04  0.11752677579E+04  0.25500000920E-02 0. -1.
        2   -1    0    0  501    0  0.00000000000E+00  0.00000000000E+00 -0.22851590796E+04  0.22851590796E+04  0.25500000920E-02 0.  1.
    10030    2    1    2    0    0  0.00000000000E+00  0.00000000000E+00 -0.11098913217E+04  0.34604268375E+04  0.32776050939E+04 0.  0.
        5    1    3    3  502    0  0.11750853658E+04 -0.11391663838E+04 -0.46582120334E+03  0.17016277943E+04  0.46999998093E+01 0.  1.
       -5    1    3    3    0  502 -0.11750853658E+04  0.11391663838E+04 -0.64407011840E+03  0.17587990432E+04  0.46999998093E+01 0. -1.
</event>
<event>
 5   0  0.2080770E-07  0.3280044E+04  0.7818609E-02  0.8167992E-01
       -1   -1    0    0    0  501  0.00000000000E+00  0.00000000000E+00  0.15917971160E+04  0.15917971161E+04  0.50400001928E-02 0.  1.
        1   -1    0    0  501    0  0.00000000000E+00  0.00000000000E+00 -0.16897075316E+04  0.16897075316E+04  0.50400001928E-02 0. -1.
    10030    2    1    2    0    0  0.00000000000E+00  0.00000000000E+00 -0.97910415580E+02  0.32815046477E+04  0.32800436435E+04 0.  0.
        4    1    3    3  502    0 -0.60097724053E+03  0.93902316248E+03 -0.12522926166E+04  0.16766563613E+04  0.12699999809E+01 0. -1.
       -4    1    3    3    0  502  0.60097724053E+03 -0.93902316248E+03  0.11543822011E+04  0.16048482864E+04  0.12699999809E+01 0.  1.
</event>
<event>
 5   0  0.2037333E-07  0.3293380E+04  0.7818609E-02  0.8164582E-01
        1   -1    0    0  501    0  0.00000000000E+00  0.00000000000E+00  0.21637647035E+04  0.21637647035E+04  0.50400001928E-02 0.  1.
       -1   -1    0    0    0  501  0.00000000000E+00  0.00000000000E+00 -0.12531802926E+04  0.12531802926E+04  0.50400001928E-02 0. -1.
    10030    2    1    2    0    0  0.00000000000E+00  0.00000000000E+00  0.91058441092E+03  0.34169449961E+04  0.32933795920E+04 0.  0.
        3    1    3    3  502    0 -0.85869153988E+03  0.13094761909E+04  0.98382477677E+03  0.18493215666E+04  0.10100000352E+00 0.  1.
       -3    1    3    3    0  502  0.85869153988E+03 -0.13094761909E+04 -0.73240365852E+02  0.15676234295E+04  0.10100000352E+00 0. -1.
</event>
<event>
 5   0  0.2080770E-07  0.3316418E+04  0.7818609E-02  0.8158730E-01
       -1   -1    0    0    0  501  0.00000000000E+00  0.00000000000E+00  0.18093346230E+04  0.18093346230E+04  0.50400001928E-02 0. -1.
        1   -1    0    0  501    0  0.00000000000E+00  0.00000000000E+00 -0.15197060285E+04  0.15197060285E+04  0.50400001928E-02 0.  1.
    10030    2    1    2    0    0  0.00000000000E+00  0.00000000000E+00  0.28962859453E+03  0.33290406515E+04  0.33164177868E+04 0.  0.
        4    1    3    3  502    0  0.21169899511E+03  0.70578155822E+03 -0.13463400448E+04  0.15347889762E+04  0.12699999809E+01 0.  1.
       -4    1    3    3    0  502 -0.21169899511E+03 -0.70578155822E+03  0.16359686393E+04  0.17942516753E+04  0.12699999809E+01 0. -1.
</event>
<event>
 5   0  0.6258718E-07  0.3299110E+04  0.7818609E-02  0.8163122E-01
       -2   -1    0    0    0  501  0.00000000000E+00  0.00000000000E+00  0.20115765595E+04  0.20115765595E+04  0.25500000920E-02 0.  1.
        2   -1    0    0  501    0  0.00000000000E+00  0.00000000000E+00 -0.13526861159E+04  0.13526861159E+04  0.25500000920E-02 0. -1.
    10030    2    1    2    0    0  0.00000000000E+00  0.00000000000E+00  0.65889044358E+03  0.33642626754E+04  0.32991099909E+04 0.  0.
        5    1    3    3  502    0  0.14472569925E+04  0.69416726874E+03 -0.58312200241E+02  0.16061890928E+04  0.46999998093E+01 0. -1.
       -5    1    3    3    0  502 -0.14472569925E+04 -0.69416726874E+03  0.71720264382E+03  0.17580735825E+04  0.46999998093E+01 0.  1.
</event>
<event>
 5   0  0.2080770E-07  0.3218464E+04  0.7818609E-02  0.8183958E-01
       -1   -1    0    0    0  501  0.00000000000E+00  0.00000000000E+00  0.15033706579E+04  0.15033706579E+04  0.50400001928E-02 0. -1.
        1   -1    0    0  501    0  0.00000000000E+00  0.00000000000E+00 -0.17225480322E+04  0.17225480322E+04  0.50400001928E-02 0.  1.
    10030    2    1    2    0    0  0.00000000000E+00  0.00000000000E+00 -0.21917737431E+03  0.32259186902E+04  0.32184643348E+04 0.  0.
        4    1    3    3  502    0  0.15141879322E+04  0.34325438912E+02  0.43543836608E+03  0.15759287780E+04  0.12699999809E+01 0. -1.
       -4    1    3    3    0  502 -0.15141879322E+04 -0.34325438912E+02 -0.65461574039E+03  0.16499899122E+04  0.12699999809E+01 0.  1.
</event>
<event>
 5   0  0.2057130E-07  0.3311489E+04  0.7818609E-02  0.8159978E-01
       -1   -1    0    0    0  501  0.00000000000E+00  0.00000000000E+00  0.21968887638E+04  0.21968887638E+04  0.50400001928E-02 0.  1.
        1   -1    0    0  501    0  0.00000000000E+00  0.00000000000E+00 -0.12478963236E+04  0.12478963236E+04  0.50400001928E-02 0. -1.
    10030    2    1    2    0    0  0.00000000000E+00  0.00000000000E+00  0.94899244013E+03  0.34447850874E+04  0.33114887357E+04 0.  0.
        2    1    3    3  502    0 -0.13558554326E+04 -0.92994838043E+03  0.67818786456E+03  0.17785068805E+04  0.25500000920E-02 0.  1.
       -2    1    3    3    0  502  0.13558554326E+04  0.92994838043E+03  0.27080457558E+03  0.16662782069E+04  0.25500000920E-02 0. -1.
</event>
<event>
 5   0  0.2087665E-07  0.3306887E+04  0.7818609E-02  0.8161145E-01
       -1   -1    0    0    0  501  0.00000000000E+00  0.00000000000E+00  0.11149898793E+04  0.11149898793E+04  0.50400001928E-02 0.  1.
        1   -1    0    0  501    0  0.00000000000E+00  0.00000000000E+00 -0.24519279648E+04  0.24519279648E+04  0.50400001928E-02 0. -1.
    10030    2    1    2    0    0  0.00000000000E+00  0.00000000000E+00 -0.13369380855E+04  0.35669178441E+04  0.33068866721E+04 0.  0.
        5    1    3    3  502    0  0.59591171415E+03  0.49377477709E+03 -0.22445025968E+04  0.23741816060E+04  0.46999998093E+01 0. -1.
       -5    1    3    3    0  502 -0.59591171415E+03 -0.49377477709E+03  0.90756451124E+03  0.11927362381E+04  0.46999998093E+01 0.  1.
</event>
<event>
 5   0  0.6424183E-07  0.3301033E+04  0.7818609E-02  0.8162633E-01
        2   -1    0    0  501    0  0.00000000000E+00  0.00000000000E+00  0.17686789820E+04  0.17686789820E+04  0.25500000920E-02 0. -1.
       -2   -1    0    0    0  501  0.00000000000E+00  0.00000000000E+00 -0.15402480679E+04  0.15402480679E+04  0.25500000920E-02 0.  1.
    10030    2    1    2    0    0  0.00000000000E+00  0.00000000000E+00  0.22843091406E+03  0.33089270499E+04  0.33010327989E+04 0.  0.
        2    1    3    3  502    0 -0.87302382230E+03  0.10287131396E+04  0.10671640063E+04  0.17202500790E+04  0.25500000920E-02 0. -1.
       -2    1    3    3    0  502  0.87302382230E+03 -0.10287131396E+04 -0.83873309228E+03  0.15886769709E+04  0.25500000920E-02 0.  1.
</event>
<event>
 5   0  0.6426079E-07  0.3287123E+04  0.7818609E-02  0.8166180E-01
        2   -1    0    0  501    0  0.00000000000E+00  0.00000000000E+00  0.18333452442E+04  0.18333452442E+04  0.25500000920E-02 0. -1.
       -2   -1    0    0    0  501  0.00000000000E+00  0.00000000000E+00 -0.14734238182E+04  0.14734238182E+04  0.25500000920E-02 0.  1.
    10030    2    1    2    0    0  0.00000000000E+00  0.00000000000E+00  0.35992142598E+03  0.33067690624E+04  0.32871230885E+04 0.  0.
        4    1    3    3  502    0  0.14838932274E+04 -0.27754285671E+03 -0.47378773636E+03  0.15822280429E+04  0.12699999809E+01 0.  1.
       -4    1    3    3    0  502 -0.14838932274E+04  0.27754285671E+03  0.83370916234E+03  0.17245410195E+04  0.12699999809E+01 0. -1.
</event>
<event>
 5   0  0.6351753E-07  0.3253883E+04  0.7818609E-02  0.8174730E-01
       -2   -1    0    0    0  501  0.00000000000E+00  0.00000000000E+00  0.94462004636E+03  0.94462004636E+03  0.25500000920E-02 0. -1.
        2   -1    0    0  501    0  0.00000000000E+00  0.00000000000E+00 -0.28021195975E+04  0.28021195975E+04  0.25500000920E-02 0.  1.
    10030    2    1    2    0    0  0.00000000000E+00  0.00000000000E+00 -0.18574995511E+04  0.37467396439E+04  0.32538828154E+04 0.  0.
        3    1    3    3  502    0  0.19692978461E+03  0.67861208691E+03  0.75870683705E+03  0.10367891682E+04  0.10100000352E+00 0. -1.
       -3    1    3    3    0  502 -0.19692978461E+03 -0.67861208691E+03 -0.26162063882E+04  0.27099504756E+04  0.10100000352E+00 0.  1.
</event>
<event>
 5   0  0.2080828E-07  0.3310145E+04  0.7818609E-02  0.8160319E-01
       -1   -1    0    0    0  501  0.00000000000E+00  0.00000000000E+00  0.15771223454E+04  0.15771223454E+04  0.50400001928E-02 0.  1.
        1   -1    0    0  501    0  0.00000000000E+00  0.00000000000E+00 -0.17368755493E+04  0.17368755493E+04  0.50400001928E-02 0. -1.
    10030    2    1    2    0    0  0.00000000000E+00  0.00000000000E+00 -0.15975320395E+03  0.33139978947E+04  0.33101451569E+04 0.  0.
        1    1    3    3  502    0 -0.11256300613E+04 -0.12072031262E+04  0.42260542067E+02  0.16511112550E+04  0.50400001928E-02 0. -1.
       -1    1    3    3    0  502  0.11256300613E+04  0.12072031262E+04 -0.20201374602E+03  0.16628866397E+04  0.50400001928E-02 0.  1.
</event>
<event>
 5   0  0.2037333E-07  0.3320292E+04  0.7818609E-02  0.8157751E-01
        1   -1    0    0  501    0  0.00000000000E+00  0.00000000000E+00  0.16974959115E+04  0.16974959115E+04  0.50400001928E-02 0. -1.
       -1   -1    0    0    0  501  0.00000000000E+00  0.00000000000E+00 -0.16236177742E+04  0.16236177742E+04  0.50400001928E-02 0.  1.
    10030    2    1    2    0    0  0.00000000000E+00  0.00000000000E+00  0.73878137282E+02  0.33211136857E+04  0.33202918748E+04 0.  0.
        3    1    3    3  502    0  0.98236573529E+03  0.13108870765E+04  0.30648147663E+03  0.16665528107E+04  0.10100000352E+00 0.  1.
       -3    1    3    3    0  502 -0.98236573529E+03 -0.13108870765E+04 -0.23260333935E+03  0.16545608749E+04  0.10100000352E+00 0. -1.
</event>
<event>
 5   0  0.2087665E-07  0.3302055E+04  0.7818609E-02  0.8162373E-01
        1   -1    0    0  501    0  0.00000000000E+00  0.00000000000E+00  0.18182459207E+04  0.18182459207E+04  0.50400001928E-02 0.  1.
       -1   -1    0    0    0  501  0.00000000000E+00  0.00000000000E+00 -0.14991875115E+04  0.14991875115E+04  0.50400001928E-02 0. -1.
    10030    2    1    2    0    0  0.00000000000E+00  0.00000000000E+00  0.31905840917E+03  0.33174334322E+04  0.33020548615E+04 0.  0.
        5    1    3    3  502    0  0.20161299864E+03 -0.22886557966E+03 -0.14706312381E+04  0.15019339477E+04  0.46999998093E+01 0. -1.
       -5    1    3    3    0  502 -0.20161299864E+03  0.22886557966E+03  0.17896896472E+04  0.18154994845E+04  0.46999998093E+01 0.  1.
</event>
<event>
 5   0  0.2087665E-07  0.3341692E+04  0.7818609E-02  0.8152367E-01
       -1   -1    0    0    0  501  0.00000000000E+00  0.00000000000E+00  0.22394719183E+04  0.22394719183E+04  0.50400001928E-02 0. -1.
        1   -1    0    0  501    0  0.00000000000E+00  0.00000000000E+00 -0.12466005116E+04  0.12466005116E+04  0.50400001928E-02 0.  1.
    10030    2    1    2    0    0  0.00000000000E+00  0.00000000000E+00  0.99287140671E+03  0.34860724299E+04  0.33416922893E+04 0.  0.
        5    1    3    3  502    0 -0.10646786752E+04 -0.83168952839E+03  0.15219958289E+04  0.20351269116E+04  0.46999998093E+01 0. -1.
       -5    1    3    3    0  502  0.10646786752E+04  0.83168952839E+03 -0.52912442217E+03  0.14509455183E+04  0.46999998093E+01 0.  1.
</event>
<event>
 5   0  0.6424183E-07  0.3317923E+04  0.7818609E-02  0.8158350E-01
       -2   -1    0    0    0  501  0.00000000000E+00  0.00000000000E+00  0.16900958669E+04  0.16900958669E+04  0.25500000920E-02 0. -1.
        2   -1    0    0  501    0  0.00000000000E+00  0.00000000000E+00 -0.16284003316E+04  0.16284003316E+04  0.25500000920E-02 0.  1.
    10030    2    1    2    0    0  0.00000000000E+00  0.00000000000E+00  0.61695535324E+02  0.33184961985E+04  0.33179226453E+04 0.  0.
        2    1    3    3  502    0  0.68904633034E+03  0.67085783172E+03 -0.13211690251E+04  0.16341121959E+04  0.25500000920E-02 0.  1.
       -2    1    3    3    0  502 -0.68904633034E+03 -0.67085783172E+03  0.13828645604E+04  0.16843840026E+04  0.25500000920E-02 0. -1.
</event>
<event>
 5   0  0.6424183E-07  0.3276513E+04  0.7818609E-02  0.8168898E-01
        2   -1    0    0  501    0  0.00000000000E+00  0.00000000000E+00  0.16579076849E+04  0.16579076849E+04  0.25500000920E-02 0.  1.
       -2   -1    0    0    0  501  0.00000000000E+00  0.00000000000E+00 -0.16188381365E+04  0.16188381365E+04  0.25500000920E-02 0. -1.
    10030    2    1    2    0    0  0.00000000000E+00  0.00000000000E+00  0.39069548399E+02  0.32767458213E+04  0.32765128945E+04 0.  0.
        2    1    3    3  502    0 -0.27708803502E+03 -0.14815348065E+04  0.66157809682E+03  0.16460281711E+04  0.25500000920E-02 0. -1.
       -2    1    3    3    0  502  0.27708803502E+03  0.14815348065E+04 -0.62250854842E+03  0.16307176502E+04  0.25500000920E-02 0.  1.
</event>
<event>
 5   0  0.2037333E-07  0.3297085E+04  0.7818609E-02  0.8163638E-01
       -1   -1    0    0    0  501  0.00000000000E+00  0.00000000000E+00  0.12384582519E+04  0.12384582519E+04  0.50400001928E-02 0.  1.
        1   -1    0    0  501    0  0.00000000000E+00  0.00000000000E+00 -0.21944155561E+04  0.21944155561E+04  0.50400001928E-02 0. -1.
    10030    2    1    2    0    0  0.00000000000E+00  0.00000000000E+00 -0.95595730420E+03  0.34328738080E+04  0.32970848054E+04 0.  0.
        3    1    3    3  502    0 -0.80112069495E+03  0.11251656715E+04 -0.14149868497E+04  0.19773669238E+04  0.10100000352E+00 0. -1.
       -3    1    3    3    0  502  0.80112069495E+03 -0.11251656715E+04  0.45902954547E+03  0.14555068842E+04  0.10100000352E+00 0.  1.
</event>
<event>
 5   0  0.2080828E-07  0.3333803E+04  0.7818609E-02  0.8154347E-01
       -1   -1    0    0    0  501  0.00000000000E+00  0.00000000000E+00  0.25140595026E+04  0.25140595026E+04  0.50400001928E-02 0.  1.
        1   -1    0    0  501    0  0.00000000000E+00  0.00000000000E+00 -0.11052090229E+04  0.11052090229E+04  0.50400001928E-02 0. -1.
    10030    2    1    2    0    0  0.00000000000E+00  0.00000000000E+00  0.14088504797E+04  0.36192685255E+04  0.33338033813E+04 0.  0.
        1    1    3    3  502    0 -0.18699252616E+03  0.84805725630E+03  0.22490690083E+04  0.24109082768E+04  0.50400001928E-02 0.  1.
       -1    1    3    3    0  502  0.18699252616E+03 -0.84805725630E+03 -0.84021852859E+03  0.12083602487E+04  0.50400001928E-02 0. -1.
</event>
<event>
 5   0  0.6351753E-07  0.3328538E+04  0.7818609E-02  0.8155672E-01
       -2   -1    0    0    0  501  0.00000000000E+00  0.00000000000E+00  0.14496489629E+04  0.14496489629E+04  0.25500000920E-02 0. -1.
        2   -1    0    0  501    0  0.00000000000E+00  0.00000000000E+00 -0.19106629620E+04  0.19106629620E+04  0.25500000920E-02 0.  1.
    10030    2    1    2    0    0  0.00000000000E+00  0.00000000000E+00 -0.46101399915E+03  0.33603119249E+04  0.33285375656E+04 0.  0.
        3    1    3    3  502    0 -0.62678714817E+03 -0.50631170960E+03 -0.17006282084E+04  0.18818474937E+04  0.10100000352E+00 0.  1.
       -3    1    3    3    0  502  0.62678714817E+03  0.50631170960E+03  0.12396142092E+04  0.14784644312E+04  0.10100000352E+00 0. -1.
</event>
<event>
 5   0  0.6258718E-07  0.3283881E+04  0.7818609E-02  0.8167009E-01
       -2   -1    0    0    0  501  0.00000000000E+00  0.00000000000E+00  0.14553247339E+04  0.14553247339E+04  0.25500000920E-02 0. -1.
        2   -1    0    0  501    0  0.00000000000E+00  0.00000000000E+00 -0.18524856654E+04  0.18524856654E+04  0.25500000920E-02 0.  1.
    10030    2    1    2    0    0  0.00000000000E+00  0.00000000000E+00 -0.39716093149E+03  0.33078103994E+04  0.32838807580E+04 0.  0.
        5    1    3    3  502    0  0.12272291195E+04 -0.80214761972E+03 -0.94316521970E+03  0.17433057211E+04  0.46999998093E+01 0.  1.
       -5    1    3    3    0  502 -0.12272291195E+04  0.80214761972E+03  0.54600428822E+03  0.15645046783E+04  0.46999998093E+01 0. -1.
</event>
<event>
 5   0  0.2057130E-07  0.3259014E+04  0.7818609E-02  0.8173403E-01
        1   -1    0    0  501    0  0.00000000000E+00  0.00000000000E+00  0.15864828173E+04  0.15864828173E+04  0.50400001928E-02 0.  1.
       -1   -1    0    0    0  501  0.00000000000E+00  0.00000000000E+00 -0.16736981239E+04  0.16736981239E+04  0.50400001928E-02 0. -1.
    10030    2    1    2    0    0  0.00000000000E+00  0.00000000000E+00 -0.87215306591E+02  0.32601809412E+04  0.32590141545E+04 0.  0.
        2    1    3    3  502    0  0.77702115481E+03  0.74031399572E+03 -0.12702059402E+04  0.16629040314E+04  0.25500000920E-02 0. -1.
       -2    1    3    3    0  502 -0.77702115481E+03 -0.74031399572E+03  0.11829906336E+04  0.15972769097E+04  0.25500000920E-02 0.  1.
</event>
<event>
 5   0  0.2057130E-07  0.3326366E+04  0.7818609E-02  0.8156219E-01
        1   -1    0    0  501    0  0.00000000000E+00  0.00000000000E+00  0.27741888179E+04  0.27741888179E+04  0.50400001928E-02 0. -1.
       -1   -1    0    0    0  501  0.00000000000E+00  0.00000000000E+00 -0.99711232470E+03  0.99711232471E+03  0.50400001928E-02 0.  1.
    10030    2    1    2    0    0  0.00000000000E+00  0.00000000000E+00  0.17770764932E+04  0.37713011426E+04  0.33263661022E+04 0.  0.
        2    1    3    3  502    0  0.13716463763E+04 -0.43688736116E+03  0.18329634758E+04  0.23306736047E+04  0.25500000920E-02 0. -1.
       -2    1    3    3    0  502 -0.13716463763E+04  0.43688736116E+03 -0.55886982628E+02  0.14406275379E+04  0.25500000920E-02 0.  1.
</event>
<event>
 5   0  0.2037333E-07  0.3291283E+04  0.7818609E-02  0.8165117E-01
        1   -1    0    0  501    0  0.00000000000E+00  0.00000000000E+00  0.18697039222E+04  0.18697039222E+04  0.50400001928E-02 0.  1.
       -1   -1    0    0    0  501  0.00000000000E+00  0.00000000000E+00 -0.14484299454E+04  0.14484299454E+04  0.50400001928E-02 0. -1.
    10030    2    1    2    0    0  0.00000000000E+00  0.00000000000E+00  0.42127397679E+03  0.33181338676E+04  0.32912825159E+04 0.  0.
        3    1    3    3  502    0  0.26501166550E+03  0.15997266320E+04  0.49360219258E+03  0.16949925117E+04  0.10100000352E+00 0.  1.
       -3    1    3    3    0  502 -0.26501166550E+03 -0.15997266320E+04 -0.72328215792E+02  0.16231413558E+04  0.10100000352E+00 0. -1.
</event>
<event>
 5   0  0.6351753E-07  0.3303319E+04  0.7818609E-02  0.8162051E-01
        2   -1    0    0  501    0  0.00000000000E+00  0.00000000000E+00  0.22065377772E+04  0.22065377772E+04  0.25500000920E-02 0. -1.
       -2   -1    0    0    0  501  0.00000000000E+00  0.00000000000E+00 -0.12363164884E+04  0.12363164884E+04  0.25500000920E-02 0.  1.
    10030    2    1    2    0    0  0.00000000000E+00  0.00000000000E+00  0.97022128885E+03  0.34428542656E+04  0.33033189590E+04 0.  0.
        3    1    3    3  502    0  0.14366730984E+04  0.25378974467E+03  0.12921176111E+04  0.19488475459E+04  0.10100000352E+00 0. -1.
       -3    1    3    3    0  502 -0.14366730984E+04 -0.25378974467E+03 -0.32189632227E+03  0.14940067197E+04  0.10100000352E+00 0.  1.
</event>
<event>
 5   0  0.2087665E-07  0.3292774E+04  0.7818609E-02  0.8164737E-01
        1   -1    0    0  501    0  0.00000000000E+00  0.00000000000E+00  0.17796501471E+04  0.17796501471E+04  0.50400001928E-02 0. -1.
       -1   -1    0    0    0  501  0.00000000000E+00  0.00000000000E+00 -0.15231025195E+04  0.15231025195E+04  0.50400001928E-02 0.  1.
    10030    2    1    2    0    0  0.00000000000E+00  0.00000000000E+00  0.25654762755E+03  0.33027526666E+04  0.32927736776E+04 0.  0.
        5    1    3    3  502    0  0.98003070891E+03  0.11148958255E+04  0.84255176640E+03  0.17068592388E+04  0.46999998093E+01 0. -1.
       -5    1    3    3    0  502 -0.98003070891E+03 -0.11148958255E+04 -0.58600413884E+03  0.15958934278E+04  0.46999998093E+01 0.  1.
</event>
<event>
 5   0  0.2080770E-07  0.3302234E+04  0.7818609E-02  0.8162327E-01
       -1   -1    0    0    0  501  0.00000000000E+00  0.00000000000E+00  0.13224727336E+04  0.13224727336E+04  0.50400001928E-02 0. -1.
        1   -1    0    0  501    0  0.00000000000E+00  0.00000000000E+00 -0.20614318282E+04  0.20614318282E+04  0.50400001928E-02 0.  1.
    10030    2    1    2    0    0  0.00000000000E+00  0.00000000000E+00 -0.73895909460E+03  0.33839045618E+04  0.33022340225E+04 0.  0.
        4    1    3    3  502    0  0.18980280628E+03 -0.15440323267E+04  0.19748975380E+03  0.15681405380E+04  0.12699999809E+01 0.  1.
       -4    1    3    3    0  502 -0.18980280628E+03  0.15440323267E+04 -0.93644884841E+03  0.18157640237E+04  0.12699999809E+01 0. -1.
</event>
<event>
 5   0  0.6351753E-07  0.3297489E+04  0.7818609E-02  0.8163535E-01
       -2   -1    0    0    0  501  0.00000000000E+00  0.00000000000E+00  0.27480924387E+04  0.27480924387E+04  0.25500000920E-02 0. -1.
        2   -1    0    0  501    0  0.00000000000E+00  0.00000000000E+00 -0.98918002223E+03  0.98918002223E+03  0.25500000920E-02 0.  1.
    10030    2    1    2    0    0  0.00000000000E+00  0.00000000000E+00  0.17589124164E+04  0.37372724609E+04  0.32974888261E+04 0.  0.
        3    1    3    3  502    0  0.58227802804E+03  0.11920427917E+04 -0.23005638292E+03  0.13464544807E+04  0.10100000352E+00 0.  1.
       -3    1    3    3    0  502 -0.58227802804E+03 -0.11920427917E+04  0.19889687993E+04  0.23908179801E+04  0.10100000352E+00 0. -1.
</event>
<event>
 5   0  0.6258718E-07  0.3298800E+04  0.7818609E-02  0.8163201E-01
        2   -1    0    0  501    0  0.00000000000E+00  0.00000000000E+00  0.17977019692E+04  0.17977019692E+04  0.25500000920E-02 0.  1.
       -2   -1    0    0    0  501  0.00000000000E+00  0.00000000000E+00 -0.15133323584E+04  0.15133323584E+04  0.25500000920E-02 0. -1.
    10030    2    1    2    0    0  0.00000000000E+00  0.00000000000E+00  0.28436961081E+03  0.33110343277E+04  0.32988001218E+04 0.  0.
        5    1    3    3  502    0  0.12703614342E+03 -0.12646398230E+04  0.11972952932E+04  0.17461357830E+04  0.46999998093E+01 0.  1.
       -5    1    3    3    0  502 -0.12703614342E+03  0.12646398230E+04 -0.91292568242E+03  0.15648985447E+04  0.46999998093E+01 0. -1.
</event>
<event>
 5   0  0.6258718E-07  0.3286818E+04  0.7818609E-02  0.8166258E-01
        2   -1    0    0  501    0  0.00000000000E+00  0.00000000000E+00  0.20462817649E+04  0.20462817649E+04  0.25500000920E-02 0. -1.
       -2   -1    0    0    0  501  0.00000000000E+00  0.00000000000E+00 -0.13198538564E+04  0.13198538564E+04  0.25500000920E-02 0.  1.
    10030    2    1    2    0    0  0.00000000000E+00  0.00000000000E+00  0.72642790844E+03  0.33661356213E+04  0.32868178402E+04 0.  0.
        5    1    3    3  502    0  0.11351545497E+03  0.14072781319E+04 -0.49818602961E+03  0.14971736403E+04  0.46999998093E+01 0.  1.
       -5    1    3    3    0  502 -0.11351545497E+03 -0.14072781319E+04  0.12246139381E+04  0.18689619810E+04  0.46999998093E+01 0. -1.
</event>
<event>
 5   0  0.6258718E-07  0.3305490E+04  0.7818609E-02  0.8161500E-01
       -2   -1    0    0    0  501  0.00000000000E+00  0.00000000000E+00  0.11703870590E+04  0.11703870590E+04  0.25500000920E-02 0.  1.
        2   -1    0    0  501    0  0.00000000000E+00  0.00000000000E+00 -0.23338993413E+04  0.23338993413E+04  0.25500000920E-02 0. -1.
    10030    2    1    2    0    0  0.00000000000E+00  0.00000000000E+00 -0.11635122823E+04  0.35042864003E+04  0.33054897283E+04 0.  0.
        5    1    3    3  502    0 -0.14800518905E+03  0.83616545564E+02 -0.23245996056E+04  0.23308115923E+04  0.46999998093E+01 0. -1.
       -5    1    3    3    0  502  0.14800518905E+03 -0.83616545564E+02  0.11610873233E+04  0.11734748080E+04  0.46999998093E+01 0.  1.
</event>
<event>
 5   0  0.6424183E-07  0.3269148E+04  0.7818609E-02  0.8170790E-01
        2   -1    0    0  501    0  0.00000000000E+00  0.00000000000E+00  0.18171149701E+04  0.18171149701E+04  0.25500000920E-02 0.  1.
       -2   -1    0    0    0  501  0.00000000000E+00  0.00000000000E+00 -0.14703702893E+04  0.14703702893E+04  0.25500000920E-02 0. -1.
    10030    2    1    2    0    0  0.00000000000E+00  0.00000000000E+00  0.34674468085E+03  0.32874852594E+04  0.32691478182E+04 0.  0.
        2    1    3    3  502    0 -0.44311171284E+03 -0.28511716100E+03  0.17293693244E+04  0.18078600736E+04  0.25500000920E-02 0.  1.
       -2    1    3    3    0  502  0.44311171284E+03  0.28511716100E+03 -0.13826246435E+04  0.14796251858E+04  0.25500000920E-02 0. -1.
</event>
<event>
 5   0  0.6426079E-07  0.3114351E+04  0.7818609E-02  0.8211810E-01
       -2   -1    0    0    0  501  0.00000000000E+00  0.00000000000E+00  0.15107241536E+04  0.15107241536E+04  0.25500000920E-02 0.  1.
        2   -1    0    0  501    0  0.00000000000E+00  0.00000000000E+00 -0.16050550417E+04  0.16050550418E+04  0.25500000920E-02 0. -1.
    10030    2    1    2    0    0  0.00000000000E+00  0.00000000000E+00 -0.94330888102E+02  0.31157791954E+04  0.31143509240E+04 0.  0.
        4    1    3    3  502    0 -0.26754361531E+03  0.15302488801E+04 -0.15469769093E+03  0.15611451597E+04  0.12699999809E+01 0. -1.
       -4    1    3    3    0  502  0.26754361531E+03 -0.15302488801E+04  0.60366802829E+02  0.15546340357E+04  0.12699999809E+01 0.  1.
</event>
<event>
 5   0  0.6258718E-07  0.3296878E+04  0.7818609E-02  0.8163690E-01
       -2   -1    0    0    0  501  0.00000000000E+00  0.00000000000E+00  0.28023592742E+04  0.28023592742E+04  0.25500000920E-02 0. -1.
        2   -1    0    0  501    0  0.00000000000E+00  0.00000000000E+00 -0.96966540087E+03  0.96966540088E+03  0.25500000920E-02 0.  1.
    10030    2    1    2    0    0  0.00000000000E+00  0.00000000000E+00  0.18326938733E+04  0.37720246751E+04  0.32968778133E+04 0.  0.
        5    1    3    3  502    0 -0.11885328280E+04  0.31655299327E+03 -0.33932838032E+03  0.12759239477E+04  0.46999998093E+01 0.  1.
       -5    1    3    3    0  502  0.11885328280E+04 -0.31655299327E+03  0.21720222537E+04  0.24961007273E+04  0.46999998093E+01 0. -1.
</event>
<event>
 5   0  0.6258718E-07  0.3317107E+04  0.7818609E-02  0.8158556E-01
        2   -1    0    0  501    0  0.00000000000E+00  0.00000000000E+00  0.17707864297E+04  0.17707864297E+04  0.25500000920E-02 0. -1.
       -2   -1    0    0    0  501  0.00000000000E+00  0.00000000000E+00 -0.15534338522E+04  0.15534338522E+04  0.25500000920E-02 0.  1.
    10030    2    1    2    0    0  0.00000000000E+00  0.00000000000E+00  0.21735257753E+03  0.33242202819E+04  0.33171069231E+04 0.  0.
        5    1    3    3  502    0  0.19321179277E+02  0.11333235992E+04  0.13220500924E+04  0.17414460156E+04  0.46999998093E+01 0. -1.
       -5    1    3    3    0  502 -0.19321179277E+02 -0.11333235992E+04 -0.11046975149E+04  0.15827742662E+04  0.46999998093E+01 0.  1.
</event>
<event>
 5   0  0.6377741E-07  0.3304691E+04  0.7818609E-02  0.8161703E-01
        2   -1    0    0  501    0  0.00000000000E+00  0.00000000000E+00  0.16812301349E+04  0.16812301349E+04  0.25500000920E-02 0.  1.
       -2   -1    0    0    0  501  0.00000000000E+00  0.00000000000E+00 -0.16239567662E+04  0.16239567662E+04  0.25500000920E-02 0. -1.
    10030    2    1    2    0    0  0.00000000000E+00  0.00000000000E+00  0.57273368655E+02  0.33051869011E+04  0.33046906379E+04 0.  0.
        1    1    3    3  502    0 -0.11106352586E+04 -0.64353704230E+03 -0.10119975550E+04  0.16345609973E+04  0.50400001928E-02 0. -1.
       -1    1    3    3    0  502  0.11106352586E+04  0.64353704230E+03  0.10692709236E+04  0.16706259038E+04  0.50400001928E-02 0.  1.
</event>
<event>
 5   0  0.6377741E-07  0.3294327E+04  0.7818609E-02  0.8164340E-01
        2   -1    0    0  501    0  0.00000000000E+00  0.00000000000E+00  0.10117792414E+04  0.10117792414E+04  0.25500000920E-02 0.  1.
       -2   -1    0    0    0  501  0.00000000000E+00  0.00000000000E+00 -0.26815606638E+04  0.26815606638E+04  0.25500000920E-02 0. -1.
    10030    2    1    2    0    0  0.00000000000E+00  0.00000000000E+00 -0.16697814223E+04  0.36933399052E+04  0.32943268898E+04 0.  0.
        1    1    3    3  502    0 -0.13039774091E+04  0.19225135928E+03  0.27259877864E+03  0.13459672220E+04  0.50400001928E-02 0.  1.
       -1    1    3    3    0  502  0.13039774091E+04 -0.19225135928E+03 -0.19423802010E+04  0.23473726832E+04  0.50400001928E-02 0. -1.
</event>
<event>
 5   0  0.2057130E-07  0.3294150E+04  0.7818609E-02  0.8164385E-01
        1   -1    0    0  501    0  0.00000000000E+00  0.00000000000E+00  0.22512544043E+04  0.22512544043E+04  0.50400001928E-02 0. -1.
       -1   -1    0    0    0  501  0.00000000000E+00  0.00000000000E+00 -0.12050420671E+04  0.12050420671E+04  0.50400001928E-02 0.  1.
    10030    2    1    2    0    0  0.00000000000E+00  0.00000000000E+00  0.10462123372E+04  0.34562964714E+04  0.32941501246E+04 0.  0.
        2    1    3    3  502    0  0.25537082004E+03 -0.15133895611E+04 -0.10405691578E+03  0.15383075314E+04  0.25500000920E-02 0.  1.
       -2    1    3    3    0  502 -0.25537082004E+03  0.15133895611E+04  0.11502692530E+04  0.19179889400E+04  0.25500000920E-02 0. -1.
</event>
<event>
 5   0  0.6351753E-07  0.3302540E+04  0.7818609E-02  0.8162249E-01
        2   -1    0    0  501    0  0.00000000000E+00  0.00000000000E+00  0.16899611292E+04  0.16899611292E+04  0.25500000920E-02 0. -1.
       -2   -1    0    0    0  501  0.00000000000E+00  0.00000000000E+00 -0.16134650028E+04  0.16134650028E+04  0.25500000920E-02 0.  1.
    10030    2    1    2    0    0  0.00000000000E+00  0.00000000000E+00  0.76496126321E+02  0.33034261320E+04  0.33025403180E+04 0.  0.
        3    1    3    3  502    0 -0.83396170730E+03 -0.94587657550E+03  0.11046102262E+04  0.16764063909E+04  0.10100000352E+00 0. -1.
       -3    1    3    3    0  502  0.83396170730E+03  0.94587657550E+03 -0.10281140999E+04  0.16270197411E+04  0.10100000352E+00 0.  1.
</event>
<event>
 5   0  0.2080770E-07  0.3295436E+04  0.7818609E-02  0.8164058E-01
       -1   -1    0    0    0  501  0.00000000000E+00  0.00000000000E+00  0.14511824025E+04  0.14511824026E+04  0.50400001928E-02 0. -1.
        1   -1    0    0  501    0  0.00000000000E+00  0.00000000000E+00 -0.18708705190E+04  0.18708705190E+04  0.50400001928E-02 0.  1.
    10030    2    1    2    0    0  0.00000000000E+00  0.00000000000E+00 -0.41968811643E+03  0.33220529215E+04  0.32954358586E+04 0.  0.
        4    1    3    3  502    0  0.98570994973E+03 -0.10603443693E+04  0.58328797226E+03  0.15608269469E+04  0.12699999809E+01 0.  1.
       -4    1    3    3    0  502 -0.98570994973E+03  0.10603443693E+04 -0.10029760887E+04  0.17612259747E+04  0.12699999809E+01 0. -1.
</event>
<event>
 5   0  0.2080828E-07  0.3294729E+04  0.7818609E-02  0.8164238E-01
        1   -1    0    0  501    0  0.00000000000E+00  0.00000000000E+00  0.17474861449E+04  0.17474861449E+04  0.50400001928E-02 0.  1.
       -1   -1    0    0    0  501  0.00000000000E+00  0.00000000000E+00 -0.15529792163E+04  0.15529792163E+04  0.50400001928E-02 0. -1.
    10030    2    1    2    0    0  0.00000000000E+00  0.00000000000E+00  0.19450692862E+03  0.33004653612E+04  0.32947289198E+04 0.  0.
        1    1    3    3  502    0  0.16041089364E+04 -0.51965219600E+01  0.47289593073E+03  0.16723704868E+04  0.50400001928E-02 0. -1.
       -1    1    3    3    0  502 -0.16041089364E+04  0.51965219600E+01 -0.27838900211E+03  0.16280948744E+04  0.50400001928E-02 0.  1.
</event>
<event>
 5   0  0.2087665E-07  0.3299830E+04  0.7818609E-02  0.8162939E-01
       -1   -1    0    0    0  501  0.00000000000E+00  0.00000000000E+00  0.19187964226E+04  0.19187964226E+04  0.50400001928E-02 0. -1.
        1   -1    0    0  501    0  0.00000000000E+00  0.00000000000E+00 -0.14187115809E+04  0.14187115809E+04  0.50400001928E-02 0.  1.
    10030    2    1    2    0    0  0.00000000000E+00  0.00000000000E+00  0.50008484170E+03  0.33375080035E+04  0.32998295144E+04 0.  0.
        5    1    3    3  502    0  0.80056471072E+03  0.13446000326E+04 -0.27874997156E+03  0.15895209154E+04  0.46999998093E+01 0. -1.
       -5    1    3    3    0  502 -0.80056471072E+03 -0.13446000326E+04  0.77883481326E+03  0.17479870881E+04  0.46999998093E+01 0.  1.
</event>
<event>
 5   0  0.6426079E-07  0.3289744E+04  0.7818609E-02  0.8165510E-01
        2   -1    0    0  501    0  0.00000000000E+00  0.00000000000E+00  0.18040733083E+04  0.18040733083E+04  0.25500000920E-02 0. -1.
       -2   -1    0    0    0  501  0.00000000000E+00  0.00000000000E+00 -0.14997192130E+04  0.14997192130E+04  0.25500000920E-02 0.  1.
    10030    2    1    2    0    0  0.00000000000E+00  0.00000000000E+00  0.30435409529E+03  0.33037925213E+04  0.32897436995E+04 0.  0.
        4    1    3    3  502    0  0.11693749232E+04 -0.92655663822E+03 -0.54335322702E+03  0.15878221742E+04  0.12699999809E+01 0.  1.
       -4    1    3    3    0  502 -0.11693749232E+04  0.92655663822E+03  0.84770732231E+03  0.17159703470E+04  0.12699999809E+01 0. -1.
</event>
<event>
 5   0  0.2080770E-07  0.3301036E+04  0.7818609E-02  0.8162632E-01
       -1   -1    0    0    0  501  0.00000000000E+00  0.00000000000E+00  0.14836584879E+04  0.14836584879E+04  0.50400001928E-02 0.  1.
        1   -1    0    0  501    0  0.00000000000E+00  0.00000000000E+00 -0.18361434861E+04  0.18361434861E+04  0.50400001928E-02 0. -1.
    10030    2    1    2    0    0  0.00000000000E+00  0.00000000000E+00 -0.35248499821E+03  0.33198019740E+04  0.33010361211E+04 0.  0.
        4    1    3    3  502    0  0.61546622154E+03 -0.60858481375E+03 -0.15895908046E+04  0.18099653821E+04  0.12699999809E+01 0. -1.
       -4    1    3    3    0  502 -0.61546622154E+03  0.60858481375E+03  0.12371058063E+04  0.15098365919E+04  0.12699999809E+01 0.  1.
</event>
<event>
 5   0  0.6424183E-07  0.3292479E+04  0.7818609E-02  0.8164812E-01
       -2   -1    0    0    0  501  0.00000000000E+00  0.00000000000E+00  0.89365633123E+03  0.89365633124E+03  0.25500000920E-02 0.  1.
        2   -1    0    0  501    0  0.00000000000E+00  0.00000000000E+00 -0.30326029990E+04  0.30326029990E+04  0.25500000920E-02 0. -1.
    10030    2    1    2    0    0  0.00000000000E+00  0.00000000000E+00 -0.21389466677E+04  0.39262593302E+04  0.32924792301E+04 0.  0.
        2    1    3    3  502    0 -0.86631634693E+03 -0.13997460023E+04 -0.10905364970E+04  0.19746044503E+04  0.25500000920E-02 0. -1.
       -2    1    3    3    0  502  0.86631634693E+03  0.13997460023E+04 -0.10484101707E+04  0.19516548799E+04  0.25500000920E-02 0.  1.
</event>
<event>
 5   0  0.6351753E-07  0.3303743E+04  0.7818609E-02  0.8161944E-01
       -2   -1    0    0    0  501  0.00000000000E+00  0.00000000000E+00  0.14608266676E+04  0.14608266676E+04  0.25500000920E-02 0. -1.
        2   -1    0    0  501    0  0.00000000000E+00  0.00000000000E+00 -0.18679003429E+04  0.18679003429E+04  0.25500000920E-02 0.  1.
    10030    2    1    2    0    0  0.00000000000E+00  0.00000000000E+00 -0.40707367533E+03  0.33287270105E+04  0.33037425041E+04 0.  0.
        3    1    3    3  502    0 -0.28631733976E+03  0.16189663111E+04 -0.42172355227E+02  0.16446300658E+04  0.10100000352E+00 0. -1.
       -3    1    3    3    0  502  0.28631733976E+03 -0.16189663111E+04 -0.36490132010E+03  0.16840969447E+04  0.10100000352E+00 0.  1.
</event>
<event>
 5   0  0.6258718E-07  0.3298815E+04  0.7818609E-02  0.8163197E-01
       -2   -1    0    0    0  501  0.00000000000E+00  0.00000000000E+00  0.11123433556E+04  0.11123433556E+04  0.25500000920E-02 0.  1.
        2   -1    0    0  501    0  0.00000000000E+00  0.00000000000E+00 -0.24457789012E+04  0.24457789012E+04  0.25500000920E-02 0. -1.
    10030    2    1    2    0    0  0.00000000000E+00  0.00000000000E+00 -0.13334355456E+04  0.35581222568E+04  0.32988154904E+04 0.  0.
        5    1    3    3  502    0 -0.14425466830E+04 -0.77170389550E+03 -0.44032357152E+03  0.16942180416E+04  0.46999998093E+01 0. -1.
       -5    1    3    3    0  502  0.14425466830E+04  0.77170389550E+03 -0.89311197410E+03  0.18639042151E+04  0.46999998093E+01 0.  1.
</event>
<event>
 5   0  0.2057130E-07  0.3304964E+04  0.7818609E-02  0.8161633E-01
       -1   -1    0    0    0  501  0.00000000000E+00  0.00000000000E+00  0.31847446440E+04  0.31847446440E+04  0.50400001928E-02 0. -1.
        1   -1    0    0  501    0  0.00000000000E+00  0.00000000000E+00 -0.85743034016E+03  0.85743034017E+03  0.50400001928E-02 0.  1.
    10030    2    1    2    0    0  0.00000000000E+00  0.00000000000E+00  0.23273143038E+04  0.40421749842E+04  0.33049639535E+04 0.  0.
        2    1    3    3  502    0 -0.20607632316E+03 -0.49863286018E+03  0.30739819178E+04  0.31209721260E+04  0.25500000920E-02 0. -1.
       -2    1    3    3    0  502  0.20607632316E+03  0.49863286018E+03 -0.74666761395E+03  0.92120285820E+03  0.25500000920E-02 0.  1.
</event>
<event>
 5   0  0.2080770E-07  0.3300391E+04  0.7818609E-02  0.8162796E-01
       -1   -1    0    0    0  501  0.00000000000E+00  0.00000000000E+00  0.15379598633E+04  0.15379598633E+04  0.50400001928E-02 0.  1.
        1   -1    0    0  501    0  0.00000000000E+00  0.00000000000E+00 -0.17706218066E+04  0.17706218066E+04  0.50400001928E-02 0. -1.
    10030    2    1    2    0    0  0.00000000000E+00  0.00000000000E+00 -0.23266194337E+03  0.33085816699E+04  0.33003910506E+04 0.  0.
        4    1    3    3  502    0  0.69379383064E+03  0.14466376792E+04 -0.50333722130E+03  0.16815054046E+04  0.12699999809E+01 0. -1.
       -4    1    3    3    0  502 -0.69379383064E+03 -0.14466376792E+04  0.27067527793E+03  0.16270762654E+04  0.12699999809E+01 0.  1.
</event>
<event>
 5   0  0.6426079E-07  0.3305408E+04  0.7818609E-02  0.8161521E-01
       -2   -1    0    0    0  501  0.00000000000E+00  0.00000000000E+00  0.11719170414E+04  0.11719170414E+04  0.25500000920E-02 0.  1.
        2   -1    0    0  501    0  0.00000000000E+00  0.00000000000E+00 -0.23307373811E+04  0.23307373811E+04  0.25500000920E-02 0. -1.
    10030    2    1    2    0    0  0.00000000000E+00  0.00000000000E+00 -0.11588203398E+04  0.35026544225E+04  0.33054082083E+04 0.  0.
        4    1    3    3  502    0  0.14282091329E+04  0.18430298465E+03  0.27995869513E+03  0.14670130883E+04  0.12699999809E+01 0.  1.
       -4    1    3    3    0  502 -0.14282091329E+04 -0.18430298465E+03 -0.14387790349E+04  0.20356413342E+04  0.12699999809E+01 0. -1.
</event>
<event>
 5   0  0.6351753E-07  0.3306582E+04  0.7818609E-02  0.8161223E-01
        2   -1    0    0  501    0  0.00000000000E+00  0.00000000000E+00  0.29764654635E+04  0.29764654635E+04  0.25500000920E-02 0. -1.
       -2   -1    0    0    0  501  0.00000000000E+00  0.00000000000E+00 -0.91832787543E+03  0.91832787543E+03  0.25500000920E-02 0.  1.
    10030    2    1    2    0    0  0.00000000000E+00  0.00000000000E+00  0.20581375881E+04  0.38947933390E+04  0.33065820452E+04 0.  0.
        3    1    3    3  502    0 -0.79273835646E+03  0.75998259189E+03 -0.42664610488E+03  0.11781487813E+04  0.10100000352E+00 0.  1.
       -3    1    3    3    0  502  0.79273835646E+03 -0.75998259189E+03  0.24847836930E+04  0.27166445577E+04  0.10100000352E+00 0. -1.
</event>
<event>
 5   0  0.2080828E-07  0.3248875E+04  0.7818609E-02  0.8176027E-01
       -1   -1    0    0    0  501  0.00000000000E+00  0.00000000000E+00  0.15228693082E+04  0.15228693082E+04  0.50400001928E-02 0. -1.
        1   -1    0    0  501    0  0.00000000000E+00  0.00000000000E+00 -0.17327801454E+04  0.17327801454E+04  0.50400001928E-02 0.  1.
    10030    2    1    2    0    0  0.00000000000E+00  0.00000000000E+00 -0.20991083719E+03  0.32556494536E+04  0.32488753139E+04 0.  0.
        1    1    3    3  502    0 -0.98960455554E+03 -0.10744034142E+04 -0.81716783236E+03  0.16737452432E+04  0.50400001928E-02 0.  1.
       -1    1    3    3    0  502  0.98960455554E+03  0.10744034142E+04  0.60725699516E+03  0.15819042104E+04  0.50400001928E-02 0. -1.
</event>
<event>
 5   0  0.2037333E-07  0.3293466E+04  0.7818609E-02  0.8164560E-01
       -1   -1    0    0    0  501  0.00000000000E+00  0.00000000000E+00  0.13913712039E+04  0.13913712039E+04  0.50400001928E-02 0. -1.
        1   -1    0    0  501    0  0.00000000000E+00  0.00000000000E+00 -0.19489620978E+04  0.19489620978E+04  0.50400001928E-02 0.  1.
    10030    2    1    2    0    0  0.00000000000E+00  0.00000000000E+00 -0.55759089393E+03  0.33403333017E+04  0.32934661015E+04 0.  0.
        3    1    3    3  502    0 -0.52694888174E+03  0.10606409752E+04 -0.14392342489E+04  0.18638748981E+04  0.10100000352E+00 0.  1.
       -3    1    3    3    0  502  0.52694888174E+03 -0.10606409752E+04  0.88164335498E+03  0.14764584037E+04  0.10100000352E+00 0. -1.
</event>
<event>
 5   0  0.2057130E-07  0.3253107E+04  0.7818609E-02  0.8174931E-01
        1   -1    0    0  501    0  0.00000000000E+00  0.00000000000E+00  0.11731905209E+04  0.11731905209E+04  0.50400001928E-02 0. -1.
       -1   -1    0    0    0  501  0.00000000000E+00  0.00000000000E+00 -0.22551119289E+04  0.22551119289E+04  0.50400001928E-02 0.  1.
    10030    2    1    2    0    0  0.00000000000E+00  0.00000000000E+00 -0.10819214081E+04  0.34283024498E+04  0.32531067849E+04 0.  0.
        2    1    3    3  502    0 -0.97754747813E+03  0.16135741833E+03 -0.19004092521E+04  0.21431730247E+04  0.25500000920E-02 0.  1.
       -2    1    3    3    0  502  0.97754747813E+03 -0.16135741833E+03  0.81848784401E+03  0.12851294251E+04  0.25500000920E-02 0. -1.
</event>
<event>
 5   0  0.2057130E-07  0.3299191E+04  0.7818609E-02  0.8163101E-01
        1   -1    0    0  501    0  0.00000000000E+00  0.00000000000E+00  0.15575096921E+04  0.15575096921E+04  0.50400001928E-02 0. -1.
       -1   -1    0    0    0  501  0.00000000000E+00  0.00000000000E+00 -0.17471255180E+04  0.17471255180E+04  0.50400001928E-02 0.  1.
    10030    2    1    2    0    0  0.00000000000E+00  0.00000000000E+00 -0.18961582588E+03  0.33046352101E+04  0.32991907660E+04 0.  0.
        2    1    3    3  502    0 -0.35650877913E+03  0.10402647549E+04 -0.13264368388E+04  0.17229869289E+04  0.25500000920E-02 0.  1.
       -2    1    3    3    0  502  0.35650877913E+03 -0.10402647549E+04  0.11368210129E+04  0.15816482812E+04  0.25500000920E-02 0. -1.
</event>
<event>
 5   0  0.6258718E-07  0.3307872E+04  0.7818609E-02  0.8160895E-01
       -2   -1    0    0    0  501  0.00000000000E+00  0.00000000000E+00  0.13337872133E+04  0.13337872133E+04  0.25500000920E-02 0.  1.
        2   -1    0    0  501    0  0.00000000000E+00  0.00000000000E+00 -0.20509301725E+04  0.20509301725E+04  0.25500000920E-02 0. -1.
    10030    2    1    2    0    0  0.00000000000E+00  0.00000000000E+00 -0.71714295929E+03  0.33847173858E+04  0.33078720891E+04 0.  0.
        5    1    3    3  502    0  0.61672676638E+03 -0.45491959469E+03 -0.18582870425E+04  0.20101135700E+04  0.46999998093E+01 0. -1.
       -5    1    3    3    0  502 -0.61672676638E+03  0.45491959469E+03  0.11411440832E+04  0.13746038158E+04  0.46999998093E+01 0.  1.
</event>
<event>
 5   0  0.2087665E-07  0.3281249E+04  0.7818609E-02  0.8167683E-01
        1   -1    0    0  501    0  0.00000000000E+00  0.00000000000E+00  0.17874576735E+04  0.17874576735E+04  0.50400001928E-02 0. -1.
       -1   -1    0    0    0  501  0.00000000000E+00  0.00000000000E+00 -0.15058529476E+04  0.15058529476E+04  0.50400001928E-02 0.  1.
    10030    2    1    2    0    0  0.00000000000E+00  0.00000000000E+00  0.28160472591E+03  0.32933106211E+04  0.32812487905E+04 0.  0.
        5    1    3    3  502    0 -0.15776728673E+04 -0.44130458542E+03  0.22958601738E+03  0.16542470319E+04  0.46999998093E+01 0.  1.
       -5    1    3    3    0  502  0.15776728673E+04  0.44130458542E+03  0.52018708532E+02  0.16390635892E+04  0.46999998093E+01 0. -1.
</event>
<event>
 5   0  0.2037333E-07  0.3300435E+04  0.7818609E-02  0.8162785E-01
       -1   -1    0    0    0  501  0.00000000000E+00  0.00000000000E+00  0.17698411334E+04  0.17698411334E+04  0.50400001928E-02 0.  1.
        1   -1    0    0  501    0  0.00000000000E+00  0.00000000000E+00 -0.15386794920E+04  0.15386794920E+04  0.50400001928E-02 0. -1.
    10030    2    1    2    0    0  0.00000000000E+00  0.00000000000E+00  0.23116164139E+03  0.33085206254E+04  0.33004352780E+04 0.  0.
        3    1    3    3  502    0  0.16179739201E+04  0.54103394945E+02  0.43644534763E+03  0.16766786619E+04  0.10100000352E+00 0.  1.
       -3    1    3    3    0  502 -0.16179739201E+04 -0.54103394945E+02 -0.20528370624E+03  0.16318419635E+04  0.10100000352E+00 0. -1.
</event>
<event>
 5   0  0.2087665E-07  0.3301112E+04  0.7818609E-02  0.8162613E-01
       -1   -1    0    0    0  501  0.00000000000E+00  0.00000000000E+00  0.12243417072E+04  0.12243417072E+04  0.50400001928E-02 0.  1.
        1   -1    0    0  501    0  0.00000000000E+00  0.00000000000E+00 -0.22251425756E+04  0.22251425756E+04  0.50400001928E-02 0. -1.
    10030    2    1    2    0    0  0.00000000000E+00  0.00000000000E+00 -0.10008008684E+04  0.34494842828E+04  0.33011118489E+04 0.  0.
        5    1    3    3  502    0 -0.13863193002E+04  0.39044629374E+03  0.34205127680E+03  0.14803211396E+04  0.46999998093E+01 0.  1.
       -5    1    3    3    0  502  0.13863193002E+04 -0.39044629374E+03 -0.13428521452E+04  0.19691631432E+04  0.46999998093E+01 0. -1.
</event>
<event>
 5   0  0.2080828E-07  0.3298630E+04  0.7818609E-02  0.8163244E-01
       -1   -1    0    0    0  501  0.00000000000E+00  0.00000000000E+00  0.13670428076E+04  0.13670428076E+04  0.50400001928E-02 0.  1.
        1   -1    0    0  501    0  0.00000000000E+00  0.00000000000E+00 -0.19898712783E+04  0.19898712783E+04  0.50400001928E-02 0. -1.
    10030    2    1    2    0    0  0.00000000000E+00  0.00000000000E+00 -0.62282847065E+03  0.33569140859E+04  0.32986295452E+04 0.  0.
        1    1    3    3  502    0  0.42033396695E+03  0.86213998818E+03 -0.16768645189E+04  0.19317972507E+04  0.50400001928E-02 0. -1.
       -1    1    3    3    0  502 -0.42033396695E+03 -0.86213998818E+03  0.10540360482E+04  0.14251168352E+04  0.50400001928E-02 0.  1.
</event>
<event>
 5   0  0.6424183E-07  0.3227005E+04  0.7818609E-02  0.8181721E-01
        2   -1    0    0  501    0  0.00000000000E+00  0.00000000000E+00  0.17784902803E+04  0.17784902803E+04  0.25500000920E-02 0.  1.
       -2   -1    0    0    0  501  0.00000000000E+00  0.00000000000E+00 -0.14638206283E+04  0.14638206283E+04  0.25500000920E-02 0. -1.
    10030    2    1    2    0    0  0.00000000000E+00  0.00000000000E+00  0.31466965200E+03  0.32423109086E+04  0.32270052739E+04 0.  0.
        2    1    3    3  502    0 -0.82861762261E+03  0.53043160342E+03 -0.11275683990E+04  0.14964542575E+04  0.25500000920E-02 0. -1.
       -2    1    3    3    0  502  0.82861762261E+03 -0.53043160342E+03  0.14422380510E+04  0.17458566511E+04  0.25500000920E-02 0.  1.
</event>
<event>
 5   0  0.6377741E-07  0.3297612E+04  0.7818609E-02  0.8163503E-01
        2   -1    0    0  501    0  0.00000000000E+00  0.00000000000E+00  0.16396028763E+04  0.16396028763E+04  0.25500000920E-02 0. -1.
       -2   -1    0    0    0  501  0.00000000000E+00  0.00000000000E+00 -0.16580607693E+04  0.16580607693E+04  0.25500000920E-02 0.  1.
    10030    2    1    2    0    0  0.00000000000E+00  0.00000000000E+00 -0.18457892988E+02  0.32976636456E+04  0.32976119883E+04 0.  0.
        1    1    3    3  502    0 -0.77983686740E+03 -0.11279654442E+04 -0.92472656069E+03  0.16539561043E+04  0.50400001928E-02 0.  1.
       -1    1    3    3    0  502  0.77983686740E+03  0.11279654442E+04  0.90626866771E+03  0.16437075412E+04  0.50400001928E-02 0. -1.
</event>
<event>
 5   0  0.1994250E-07  0.3312854E+04  0.7818609E-02  0.8159632E-01
        3   -1    0    0  501    0  0.00000000000E+00  0.00000000000E+00  0.24669411863E+04  0.24669411883E+04  0.10100000352E+00 0. -1.
       -3   -1    0    0    0  501  0.00000000000E+00  0.00000000000E+00 -0.11122076849E+04  0.11122076895E+04  0.10100000352E+00 0.  1.
    10030    2    1    2    0    0  0.00000000000E+00  0.00000000000E+00  0.13547335014E+04  0.35791488778E+04  0.33128543328E+04 0.  0.
        1    1    3    3  502    0  0.39804837864E+03 -0.26367163177E+03 -0.10362521629E+04  0.11409573990E+04  0.50400001928E-02 0.  1.
       -1    1    3    3    0  502 -0.39804837864E+03  0.26367163177E+03  0.23909856642E+04  0.24381914789E+04  0.50400001928E-02 0. -1.
</event>
<event>
 5   0  0.2057130E-07  0.3295526E+04  0.7818609E-02  0.8164035E-01
        1   -1    0    0  501    0  0.00000000000E+00  0.00000000000E+00  0.27762794512E+04  0.27762794512E+04  0.50400001928E-02 0. -1.
       -1   -1    0    0    0  501  0.00000000000E+00  0.00000000000E+00 -0.97797169119E+03  0.97797169120E+03  0.50400001928E-02 0.  1.
    10030    2    1    2    0    0  0.00000000000E+00  0.00000000000E+00  0.17983077600E+04  0.37542511424E+04  0.32955258823E+04 0.  0.
        2    1    3    3  502    0 -0.94121696253E+03 -0.12215306161E+04  0.15605712309E+04  0.21939482635E+04  0.25500000920E-02 0. -1.
       -2    1    3    3    0  502  0.94121696253E+03  0.12215306161E+04  0.23773652916E+03  0.15603028789E+04  0.25500000920E-02 0.  1.
</event>
<event>
 5   0  0.2037333E-07  0.3348273E+04  0.7818609E-02  0.8150720E-01
       -1   -1    0    0    0  501  0.00000000000E+00  0.00000000000E+00  0.12497862937E+04  0.12497862937E+04  0.50400001928E-02 0. -1.
        1   -1    0    0  501    0  0.00000000000E+00  0.00000000000E+00 -0.22425701426E+04  0.22425701426E+04  0.50400001928E-02 0.  1.
    10030    2    1    2    0    0  0.00000000000E+00  0.00000000000E+00 -0.99278384895E+03  0.34923564363E+04  0.33482732426E+04 0.  0.
        3    1    3    3  502    0 -0.40418789688E+02 -0.14770474016E+04  0.32451522287E+03  0.15128161967E+04  0.10100000352E+00 0. -1.
       -3    1    3    3    0  502  0.40418789688E+02  0.14770474016E+04 -0.13172990718E+04  0.19795402395E+04  0.10100000352E+00 0.  1.
</event>
<event>
 5   0  0.6424183E-07  0.3291867E+04  0.7818609E-02  0.8164968E-01
       -2   -1    0    0    0  501  0.00000000000E+00  0.00000000000E+00  0.15634611581E+04  0.15634611581E+04  0.25500000920E-02 0. -1.
        2   -1    0    0  501    0  0.00000000000E+00  0.00000000000E+00 -0.17327563105E+04  0.17327563105E+04  0.25500000920E-02 0.  1.
    10030    2    1    2    0    0  0.00000000000E+00  0.00000000000E+00 -0.16929515236E+03  0.32962174686E+04  0.32918670616E+04 0.  0.
        2    1    3    3  502    0  0.11723843721E+04 -0.69549891241E+02  0.10700350501E+04  0.15888037360E+04  0.25500000920E-02 0. -1.
       -2    1    3    3    0  502 -0.11723843721E+04  0.69549891241E+02 -0.12393302024E+04  0.17074137325E+04  0.25500000920E-02 0.  1.
</event>
<event>
 5   0  0.6351753E-07  0.3323143E+04  0.7818609E-02  0.8157031E-01
        2   -1    0    0  501    0  0.00000000000E+00  0.00000000000E+00  0.27626853718E+04  0.27626853718E+04  0.25500000920E-02 0.  1.
       -2   -1    0    0    0  501  0.00000000000E+00  0.00000000000E+00 -0.99932485707E+03  0.99932485707E+03  0.25500000920E-02 0. -1.
    10030    2    1    2    0    0  0.00000000000E+00  0.00000000000E+00  0.17633605147E+04  0.37620102289E+04  0.33231431894E+04 0.  0.
        3    1    3    3  502    0 -0.11686461404E+03  0.10747863110E+04 -0.54669417333E+03  0.12114856506E+04  0.10100000352E+00 0. -1.
       -3    1    3    3    0  502  0.11686461404E+03 -0.10747863110E+04  0.23100546881E+04  0.25505245783E+04  0.10100000352E+00 0.  1.
</event>
<event>
 5   0  0.2080828E-07  0.3300330E+04  0.7818609E-02  0.8162811E-01
        1   -1    0    0  501    0  0.00000000000E+00  0.00000000000E+00  0.11679716007E+04  0.11679716007E+04  0.50400001928E-02 0. -1.
       -1   -1    0    0    0  501  0.00000000000E+00  0.00000000000E+00 -0.23314303472E+04  0.23314303472E+04  0.50400001928E-02 0.  1.
    10030    2    1    2    0    0  0.00000000000E+00  0.00000000000E+00 -0.11634587465E+04  0.34994019479E+04  0.33003299438E+04 0.  0.
        1    1    3    3  502    0  0.39626900754E+03 -0.77992466428E+03 -0.20653169259E+04  0.22429546613E+04  0.50400001928E-02 0.  1.
       -1    1    3    3    0  502 -0.39626900754E+03  0.77992466428E+03  0.90185817938E+03  0.12564472866E+04  0.50400001928E-02 0. -1.
</event>
<event>
 5   0  0.6424183E-07  0.3303957E+04  0.7818609E-02  0.8161889E-01
        2   -1    0    0  501    0  0.00000000000E+00  0.00000000000E+00  0.18790476409E+04  0.18790476409E+04  0.25500000920E-02 0. -1.
       -2   -1    0    0    0  501  0.00000000000E+00  0.00000000000E+00 -0.14523492352E+04  0.14523492352E+04  0.25500000920E-02 0.  1.
    10030    2    1    2    0    0  0.00000000000E+00  0.00000000000E+00  0.42669840570E+03  0.33313968762E+04  0.33039572662E+04 0.  0.
        2    1    3    3  502    0  0.59308019810E+03 -0.14322190419E+04 -0.36239025634E+03  0.15919554653E+04  0.25500000920E-02 0.  1.
       -2    1    3    3    0  502 -0.59308019810E+03  0.14322190419E+04  0.78908866204E+03  0.17394414109E+04  0.25500000920E-02 0. -1.
</event>
<event>
 5   0  0.2080770E-07  0.3299882E+04  0.7818609E-02  0.8162925E-01
       -1   -1    0    0    0  501  0.00000000000E+00  0.00000000000E+00  0.20293080796E+04  0.20293080796E+04  0.50400001928E-02 0.  1.
        1   -1    0    0  501    0  0.00000000000E+00  0.00000000000E+00 -0.13414945468E+04  0.13414945468E+04  0.50400001928E-02 0. -1.
    10030    2    1    2    0    0  0.00000000000E+00  0.00000000000E+00  0.68781353289E+03  0.33708026264E+04  0.32998822540E+04 0.  0.
        4    1    3    3  502    0  0.12025352721E+04  0.10739749277E+04 -0.14039587105E+02  0.16123622263E+04  0.12699999809E+01 0. -1.
       -4    1    3    3    0  502 -0.12025352721E+04 -0.10739749277E+04  0.70185311999E+03  0.17584404001E+04  0.12699999809E+01 0.  1.
</event>
<event>
 5   0  0.2037333E-07  0.3296328E+04  0.7818609E-02  0.8163830E-01
        1   -1    0    0  501    0  0.00000000000E+00  0.00000000000E+00  0.88001798173E+03  0.88001798175E+03  0.50400001928E-02 0.  1.
       -1   -1    0    0    0  501  0.00000000000E+00  0.00000000000E+00 -0.30868056523E+04  0.30868056523E+04  0.50400001928E-02 0. -1.
    10030    2    1    2    0    0  0.00000000000E+00  0.00000000000E+00 -0.22067876705E+04  0.39668236340E+04  0.32963279449E+04 0.  0.
        3    1    3    3  502    0 -0.14368503995E+04 -0.67197057939E+03 -0.56472852290E+03  0.16837463719E+04  0.10100000352E+00 0.  1.
       -3    1    3    3    0  502  0.14368503995E+04  0.67197057939E+03 -0.16420591476E+04  0.22830772621E+04  0.10100000352E+00 0. -1.
</event>
<event>
 5   0  0.6258718E-07  0.3294626E+04  0.7818609E-02  0.8164264E-01
       -2   -1    0    0    0  501  0.00000000000E+00  0.00000000000E+00  0.13835494759E+04  0.13835494759E+04  0.25500000920E-02 0.  1.
        2   -1    0    0  501    0  0.00000000000E+00  0.00000000000E+00 -0.19613611350E+04  0.19613611350E+04  0.25500000920E-02 0. -1.
    10030    2    1    2    0    0  0.00000000000E+00  0.00000000000E+00 -0.57781165916E+03  0.33449106109E+04  0.32946260306E+04 0.  0.
        5    1    3    3  502    0  0.23860320783E+03 -0.24107267739E+03  0.13477058539E+04  0.13897412296E+04  0.46999998093E+01 0.  1.
       -5    1    3    3    0  502 -0.23860320783E+03  0.24107267739E+03 -0.19255175131E+04  0.19551693813E+04  0.46999998093E+01 0. -1.
</event>
<event>
 5   0  0.6424183E-07  0.3294349E+04  0.7818609E-02  0.8164335E-01
        2   -1    0    0  501    0  0.00000000000E+00  0.00000000000E+00  0.10850183176E+04  0.10850183176E+04  0.25500000920E-02 0.  1.
       -2   -1    0    0    0  501  0.00000000000E+00  0.00000000000E+00 -0.25005877605E+04  0.25005877605E+04  0.25500000920E-02 0. -1.
    10030    2    1    2    0    0  0.00000000000E+00  0.00000000000E+00 -0.14155694429E+04  0.35856060781E+04  0.32943488127E+04 0.  0.
        2    1    3    3  502    0 -0.11380075947E+04 -0.10895108509E+04 -0.18456751789E+03  0.15862409491E+04  0.25500000920E-02 0.  1.
       -2    1    3    3    0  502  0.11380075947E+04  0.10895108509E+04 -0.12310019250E+04  0.19993651290E+04  0.25500000920E-02 0. -1.
</event>
<event>
 5   0  0.1994250E-07  0.3298169E+04  0.7818609E-02  0.8163361E-01
        3   -1    0    0  501    0  0.00000000000E+00  0.00000000000E+00  0.17079371255E+04  0.17079371285E+04  0.10100000352E+00 0. -1.
       -3   -1    0    0    0  501  0.00000000000E+00  0.00000000000E+00 -0.15922596101E+04  0.15922596133E+04  0.10100000352E+00 0.  1.
    10030    2    1    2    0    0  0.00000000000E+00  0.00000000000E+00  0.11567751542E+03  0.33001967418E+04  0.32981687718E+04 0.  0.
        2    1    3    3  502    0  0.12102918418E+04  0.31029647759E+02 -0.10625416959E+04  0.16108271282E+04  0.25500000920E-02 0.  1.
       -2    1    3    3    0  502 -0.12102918418E+04 -0.31029647759E+02  0.11782192114E+04  0.16893696136E+04  0.25500000920E-02 0. -1.
</event>
<event>
 5   0  0.2057130E-07  0.3302972E+04  0.7818609E-02  0.8162140E-01
        1   -1    0    0  501    0  0.00000000000E+00  0.00000000000E+00  0.14241776292E+04  0.14241776292E+04  0.50400001928E-02 0.  1.
       -1   -1    0    0    0  501  0.00000000000E+00  0.00000000000E+00 -0.19150737688E+04  0.19150737689E+04  0.50400001928E-02 0. -1.
    10030    2    1    2    0    0  0.00000000000E+00  0.00000000000E+00 -0.49089613966E+03  0.33392513981E+04  0.33029715227E+04 0.  0.
        2    1    3    3  502    0  0.43192001309E+03  0.58928180740E+03  0.12518998927E+04  0.14495038074E+04  0.25500000920E-02 0.  1.
       -2    1    3    3    0  502 -0.43192001309E+03 -0.58928180740E+03 -0.17427960323E+04  0.18897475907E+04  0.25500000920E-02 0. -1.
</event>
<event>
 5   0  0.2080828E-07  0.3318023E+04  0.7818609E-02  0.8158324E-01
        1   -1    0    0  501    0  0.00000000000E+00  0.00000000000E+00  0.19478808202E+04  0.19478808202E+04  0.50400001928E-02 0.  1.
       -1   -1    0    0    0  501  0.00000000000E+00  0.00000000000E+00 -0.14129813847E+04  0.14129813847E+04  0.50400001928E-02 0. -1.
    10030    2    1    2    0    0  0.00000000000E+00  0.00000000000E+00  0.53489943544E+03  0.33608622049E+04  0.33180231094E+04 0.  0.
        1    1    3    3  502    0 -0.16383068346E+03  0.14840222131E+04 -0.46518464764E+03  0.15638283724E+04  0.50400001928E-02 0. -1.
       -1    1    3    3    0  502  0.16383068346E+03 -0.14840222131E+04  0.10000840831E+04  0.17970338325E+04  0.50400001928E-02 0.  1.
</event>
<event>
 5   0  0.6424183E-07  0.3300906E+04  0.7818609E-02  0.8162665E-01
       -2   -1    0    0    0  501  0.00000000000E+00  0.00000000000E+00  0.11261082104E+04  0.11261082104E+04  0.25500000920E-02 0.  1.
        2   -1    0    0  501    0  0.00000000000E+00  0.00000000000E+00 -0.24189466718E+04  0.24189466718E+04  0.25500000920E-02 0. -1.
    10030    2    1    2    0    0  0.00000000000E+00  0.00000000000E+00 -0.12928384614E+04  0.35450548822E+04  0.33009063651E+04 0.  0.
        2    1    3    3  502    0  0.10558109512E+04 -0.45728200811E+03  0.62438124068E+03  0.13090819429E+04  0.25500000920E-02 0.  1.
       -2    1    3    3    0  502 -0.10558109512E+04  0.45728200811E+03 -0.19172197020E+04  0.22359729393E+04  0.25500000920E-02 0. -1.
</event>
<event>
 5   0  0.2080828E-07  0.3293894E+04  0.7818609E-02  0.8164451E-01
        1   -1    0    0  501    0  0.00000000000E+00  0.00000000000E+00  0.12168937050E+04  0.12168937050E+04  0.50400001928E-02 0. -1.
       -1   -1    0    0    0  501  0.00000000000E+00  0.00000000000E+00 -0.22289817321E+04  0.22289817321E+04  0.50400001928E-02 0.  1.
    10030    2    1    2    0    0  0.00000000000E+00  0.00000000000E+00 -0.10120880271E+04  0.34458754370E+04  0.32938936463E+04 0.  0.
        1    1    3    3  502    0 -0.38183701481E+03  0.97466468281E+03 -0.18361913929E+04  0.21136152870E+04  0.50400001928E-02 0.  1.
       -1    1    3    3    0  502  0.38183701481E+03 -0.97466468281E+03  0.82410336586E+03  0.13322601501E+04  0.50400001928E-02 0. -1.
</event>
<event>
 5   0  0.2057130E-07  0.3306341E+04  0.7818609E-02  0.8161284E-01
       -1   -1    0    0    0  501  0.00000000000E+00  0.00000000000E+00  0.13933586429E+04  0.13933586429E+04  0.50400001928E-02 0.  1.
        1   -1    0    0  501    0  0.00000000000E+00  0.00000000000E+00 -0.19614284637E+04  0.19614284637E+04  0.50400001928E-02 0. -1.
    10030    2    1    2    0    0  0.00000000000E+00  0.00000000000E+00 -0.56806982088E+03  0.33547871066E+04  0.33063413631E+04 0.  0.
        2    1    3    3  502    0 -0.52536361239E+03 -0.57366469212E+03  0.11960626788E+04  0.14267669872E+04  0.25500000920E-02 0.  1.
       -2    1    3    3    0  502  0.52536361239E+03  0.57366469212E+03 -0.17641324997E+04  0.19280201194E+04  0.25500000920E-02 0. -1.
</event>
<event>
 5   0  0.2037333E-07  0.3285905E+04  0.7818609E-02  0.8166491E-01
        1   -1    0    0  501    0  0.00000000000E+00  0.00000000000E+00  0.22449601820E+04  0.22449601820E+04  0.50400001928E-02 0.  1.
       -1   -1    0    0    0  501  0.00000000000E+00  0.00000000000E+00 -0.12023786120E+04  0.12023786120E+04  0.50400001928E-02 0. -1.
    10030    2    1    2    0    0  0.00000000000E+00  0.00000000000E+00  0.10425815700E+04  0.34473387940E+04  0.32859045072E+04 0.  0.
        3    1    3    3  502    0 -0.65414223652E+02  0.80521415111E+03 -0.97960349345E+03  0.12697526784E+04  0.10100000352E+00 0. -1.
       -3    1    3    3    0  502  0.65414223652E+02 -0.80521415111E+03  0.20221850634E+04  0.21775861156E+04  0.10100000352E+00 0.  1.
</event>
<event>
 5   0  0.2087665E-07  0.3441412E+04  0.7818609E-02  0.8127817E-01
       -1   -1    0    0    0  501  0.00000000000E+00  0.00000000000E+00  0.15780222100E+04  0.15780222100E+04  0.50400001928E-02 0. -1.
        1   -1    0    0  501    0  0.00000000000E+00  0.00000000000E+00 -0.18762915597E+04  0.18762915598E+04  0.50400001928E-02 0.  1.
    10030    2    1    2    0    0  0.00000000000E+00  0.00000000000E+00 -0.29826934977E+03  0.34543137697E+04  0.34414123576E+04 0.  0.
        5    1    3    3  502    0  0.45102372578E+03  0.11950967581E+04  0.10080658904E+04  0.16272361819E+04  0.46999998093E+01 0. -1.
       -5    1    3    3    0  502 -0.45102372578E+03 -0.11950967581E+04 -0.13063352401E+04  0.18270775878E+04  0.46999998093E+01 0.  1.
</event>
<event>
 5   0  0.6424183E-07  0.3255200E+04  0.7818609E-02  0.8174389E-01
       -2   -1    0    0    0  501  0.00000000000E+00  0.00000000000E+00  0.13271525777E+04  0.13271525777E+04  0.25500000920E-02 0.  1.
        2   -1    0    0  501    0  0.00000000000E+00  0.00000000000E+00 -0.19960638596E+04  0.19960638596E+04  0.25500000920E-02 0. -1.
    10030    2    1    2    0    0  0.00000000000E+00  0.00000000000E+00 -0.66891128190E+03  0.33232164373E+04  0.32551997152E+04 0.  0.
        2    1    3    3  502    0 -0.83285217503E+03  0.12281586312E+04 -0.10170556487E+04  0.17990048808E+04  0.25500000920E-02 0.  1.
       -2    1    3    3    0  502  0.83285217503E+03 -0.12281586312E+04  0.34814436676E+03  0.15242115565E+04  0.25500000920E-02 0. -1.
</event>
<event>
 5   0  0.2080828E-07  0.3334254E+04  0.7818609E-02  0.8154234E-01
        1   -1    0    0  501    0  0.00000000000E+00  0.00000000000E+00  0.14738722289E+04  0.14738722289E+04  0.50400001928E-02 0. -1.
       -1   -1    0    0    0  501  0.00000000000E+00  0.00000000000E+00 -0.18857211455E+04  0.18857211455E+04  0.50400001928E-02 0.  1.
    10030    2    1    2    0    0  0.00000000000E+00  0.00000000000E+00 -0.41184891660E+03  0.33595933744E+04  0.33342537563E+04 0.  0.
        1    1    3    3  502    0  0.14114517301E+04  0.27498669180E+03  0.64398961173E+03  0.15756066410E+04  0.50400001928E-02 0. -1.
       -1    1    3    3    0  502 -0.14114517301E+04 -0.27498669180E+03 -0.10558385283E+04  0.17839867334E+04  0.50400001928E-02 0.  1.
</event>
<event>
 5   0  0.6424183E-07  0.3296892E+04  0.7818609E-02  0.8163687E-01
        2   -1    0    0  501    0  0.00000000000E+00  0.00000000000E+00  0.10106154716E+04  0.10106154716E+04  0.25500000920E-02 0. -1.
       -2   -1    0    0    0  501  0.00000000000E+00  0.00000000000E+00 -0.26888315643E+04  0.26888315643E+04  0.25500000920E-02 0.  1.
    10030    2    1    2    0    0  0.00000000000E+00  0.00000000000E+00 -0.16782160927E+04  0.36994470359E+04  0.32968923424E+04 0.  0.
        2    1    3    3  502    0  0.27393345962E+03 -0.15578986813E+04 -0.13597520710E+04  0.20859083240E+04  0.25500000920E-02 0.  1.
       -2    1    3    3    0  502 -0.27393345962E+03  0.15578986813E+04 -0.31846402171E+03  0.16135387119E+04  0.25500000920E-02 0. -1.
</event>
<event>
 5   0  0.2057130E-07  0.3293844E+04  0.7818609E-02  0.8164463E-01
        1   -1    0    0  501    0  0.00000000000E+00  0.00000000000E+00  0.25774934298E+04  0.25774934298E+04  0.50400001928E-02 0.  1.
       -1   -1    0    0    0  501  0.00000000000E+00  0.00000000000E+00 -0.10523218624E+04  0.10523218625E+04  0.50400001928E-02 0. -1.
    10030    2    1    2    0    0  0.00000000000E+00  0.00000000000E+00  0.15251715674E+04  0.36298152923E+04  0.32938443719E+04 0.  0.
        2    1    3    3  502    0  0.12649907936E+04 -0.15363618347E+03  0.19123400329E+04  0.22980100492E+04  0.25500000920E-02 0.  1.
       -2    1    3    3    0  502 -0.12649907936E+04  0.15363618347E+03 -0.38716846552E+03  0.13318052431E+04  0.25500000920E-02 0. -1.
</event>
<event>
 5   0  0.2057130E-07  0.3307108E+04  0.7818609E-02  0.8161089E-01
        1   -1    0    0  501    0  0.00000000000E+00  0.00000000000E+00  0.17766260292E+04  0.17766260292E+04  0.50400001928E-02 0.  1.
       -1   -1    0    0    0  501  0.00000000000E+00  0.00000000000E+00 -0.15390076414E+04  0.15390076414E+04  0.50400001928E-02 0. -1.
    10030    2    1    2    0    0  0.00000000000E+00  0.00000000000E+00  0.23761838777E+03  0.33156336706E+04  0.33071081233E+04 0.  0.
        2    1    3    3  502    0 -0.12657364383E+04 -0.71181822824E+03 -0.67409440154E+03  0.16009925620E+04  0.25500000920E-02 0. -1.
       -2    1    3    3    0  502  0.12657364383E+04  0.71181822824E+03  0.91171278931E+03  0.17146411086E+04  0.25500000920E-02 0.  1.
</event>
<event>
 5   0  0.2080770E-07  0.3301669E+04  0.7818609E-02  0.8162471E-01
        1   -1    0    0  501    0  0.00000000000E+00  0.00000000000E+00  0.11660956694E+04  0.11660956694E+04  0.50400001928E-02 0. -1.
       -1   -1    0    0    0  501  0.00000000000E+00  0.00000000000E+00 -0.23370759008E+04  0.23370759008E+04  0.50400001928E-02 0.  1.
    10030    2    1    2    0    0  0.00000000000E+00  0.00000000000E+00 -0.11709802314E+04  0.35031715702E+04  0.33016687217E+04 0.  0.
        4    1    3    3  502    0  0.68449582058E+03 -0.60145945688E+03 -0.20460805353E+04  0.22398069508E+04  0.12699999809E+01 0.  1.
       -4    1    3    3    0  502 -0.68449582058E+03  0.60145945688E+03  0.87510030399E+03  0.12633646194E+04  0.12699999809E+01 0. -1.
</event>
<event>
 5   0  0.2080770E-07  0.3272116E+04  0.7818609E-02  0.8170027E-01
       -1   -1    0    0    0  501  0.00000000000E+00  0.00000000000E+00  0.10946436822E+04  0.10946436822E+04  0.50400001928E-02 0.  1.
        1   -1    0    0  501    0  0.00000000000E+00  0.00000000000E+00 -0.24452580051E+04  0.24452580051E+04  0.50400001928E-02 0. -1.
    10030    2    1    2    0    0  0.00000000000E+00  0.00000000000E+00 -0.13506143229E+04  0.35399016874E+04  0.32721162734E+04 0.  0.
        4    1    3    3  502    0  0.42093651896E+02 -0.40389016813E+02 -0.24441319528E+04  0.24448283711E+04  0.12699999809E+01 0. -1.
       -4    1    3    3    0  502 -0.42093651896E+02  0.40389016813E+02  0.10935176299E+04  0.10950733163E+04  0.12699999809E+01 0.  1.
</event>
<event>
 5   0  0.2087665E-07  0.3277363E+04  0.7818609E-02  0.8168679E-01
       -1   -1    0    0    0  501  0.00000000000E+00  0.00000000000E+00  0.10679815644E+04  0.10679815644E+04  0.50400001928E-02 0. -1.
        1   -1    0    0  501    0  0.00000000000E+00  0.00000000000E+00 -0.25143470915E+04  0.25143470915E+04  0.50400001928E-02 0.  1.
    10030    2    1    2    0    0  0.00000000000E+00  0.00000000000E+00 -0.14463655271E+04  0.35823286559E+04  0.32773625617E+04 0.  0.
        5    1    3    3  502    0  0.68727998892E+03 -0.40896281758E+03 -0.22865341072E+04  0.24223675780E+04  0.46999998093E+01 0.  1.
       -5    1    3    3    0  502 -0.68727998892E+03  0.40896281758E+03  0.84016858012E+03  0.11599610779E+04  0.46999998093E+01 0. -1.
</event>
<event>
 5   0  0.2037333E-07  0.3304931E+04  0.7818609E-02  0.8161642E-01
       -1   -1    0    0    0  501  0.00000000000E+00  0.00000000000E+00  0.15451558952E+04  0.15451558952E+04  0.50400001928E-02 0. -1.
        1   -1    0    0  501    0  0.00000000000E+00  0.00000000000E+00 -0.17672276097E+04  0.17672276098E+04  0.50400001928E-02 0.  1.
    10030    2    1    2    0    0  0.00000000000E+00  0.00000000000E+00 -0.22207171454E+03  0.33123835050E+04  0.33049309581E+04 0.  0.
        3    1    3    3  502    0 -0.14403323769E+04  0.42011898182E+03 -0.80511811433E+03  0.17027250228E+04  0.10100000352E+00 0.  1.
       -3    1    3    3    0  502  0.14403323769E+04 -0.42011898182E+03  0.58304639979E+03  0.16096584822E+04  0.10100000352E+00 0. -1.
</event>
<event>
 5   0  0.6258718E-07  0.3302353E+04  0.7818609E-02  0.8162297E-01
        2   -1    0    0  501    0  0.00000000000E+00  0.00000000000E+00  0.15925760709E+04  0.15925760709E+04  0.25500000920E-02 0. -1.
       -2   -1    0    0    0  501  0.00000000000E+00  0.00000000000E+00 -0.17119333141E+04  0.17119333141E+04  0.25500000920E-02 0.  1.
    10030    2    1    2    0    0  0.00000000000E+00  0.00000000000E+00 -0.11935724318E+03  0.33045093850E+04  0.33023531192E+04 0.  0.
        5    1    3    3  502    0  0.68437276065E+03  0.14733859451E+04 -0.35504879910E+03  0.16629233171E+04  0.46999998093E+01 0.  1.
       -5    1    3    3    0  502 -0.68437276065E+03 -0.14733859451E+04  0.23569155592E+03  0.16415860679E+04  0.46999998093E+01 0. -1.
</event>
<event>
 5   0  0.2087665E-07  0.3296616E+04  0.7818609E-02  0.8163757E-01
        1   -1    0    0  501    0  0.00000000000E+00  0.00000000000E+00  0.22697687856E+04  0.22697687856E+04  0.50400001928E-02 0. -1.
       -1   -1    0    0    0  501  0.00000000000E+00  0.00000000000E+00 -0.11970029433E+04  0.11970029433E+04  0.50400001928E-02 0.  1.
    10030    2    1    2    0    0  0.00000000000E+00  0.00000000000E+00  0.10727658423E+04  0.34667717289E+04  0.32966163969E+04 0.  0.
        5    1    3    3  502    0  0.30082693130E+03  0.55211733900E+03  0.21386963883E+04  0.22292094406E+04  0.46999998093E+01 0. -1.
       -5    1    3    3    0  502 -0.30082693130E+03 -0.55211733900E+03 -0.10659305460E+04  0.12375622883E+04  0.46999998093E+01 0.  1.
</event>
<event>
 5   0  0.6377741E-07  0.3310936E+04  0.7818609E-02  0.8160118E-01
       -2   -1    0    0    0  501  0.00000000000E+00  0.00000000000E+00  0.96096533933E+03  0.96096533933E+03  0.25500000920E-02 0. -1.
        2   -1    0    0  501    0  0.00000000000E+00  0.00000000000E+00 -0.28518970390E+04  0.28518970390E+04  0.25500000920E-02 0.  1.
    10030    2    1    2    0    0  0.00000000000E+00  0.00000000000E+00 -0.18909316997E+04  0.38128623783E+04  0.33109359437E+04 0.  0.
        1    1    3    3  502    0  0.47121488470E+03 -0.57286484040E+03 -0.26498118497E+04  0.27516759314E+04  0.50400001928E-02 0.  1.
       -1    1    3    3    0  502 -0.47121488470E+03  0.57286484040E+03  0.75888015002E+03  0.10611864469E+04  0.50400001928E-02 0. -1.
</event>
<event>
 5   0  0.2037333E-07  0.3325534E+04  0.7818609E-02  0.8156428E-01
        1   -1    0    0  501    0  0.00000000000E+00  0.00000000000E+00  0.14292450125E+04  0.14292450125E+04  0.50400001928E-02 0. -1.
       -1   -1    0    0    0  501  0.00000000000E+00  0.00000000000E+00 -0.19344440399E+04  0.19344440399E+04  0.50400001928E-02 0.  1.
    10030    2    1    2    0    0  0.00000000000E+00  0.00000000000E+00 -0.50519902746E+03  0.33636890524E+04  0.33255342404E+04 0.  0.
        3    1    3    3  502    0 -0.15186021479E+04 -0.67176078573E+03 -0.16571019718E+03  0.16687944501E+04  0.10100000352E+00 0.  1.
       -3    1    3    3    0  502  0.15186021479E+04  0.67176078573E+03 -0.33948883028E+03  0.16948946023E+04  0.10100000352E+00 0. -1.
</event>
<event>
 5   0  0.2080770E-07  0.3277757E+04  0.7818609E-02  0.8168578E-01
       -1   -1    0    0    0  501  0.00000000000E+00  0.00000000000E+00  0.13139427120E+04  0.13139427120E+04  0.50400001928E-02 0. -1.
        1   -1    0    0  501    0  0.00000000000E+00  0.00000000000E+00 -0.20441700069E+04  0.20441700069E+04  0.50400001928E-02 0.  1.
    10030    2    1    2    0    0  0.00000000000E+00  0.00000000000E+00 -0.73022729485E+03  0.33581127189E+04  0.32777567223E+04 0.  0.
        4    1    3    3  502    0 -0.94069188263E+03  0.12137145776E+04  0.22156476151E+03  0.15514821464E+04  0.12699999809E+01 0. -1.
       -4    1    3    3    0  502  0.94069188263E+03 -0.12137145776E+04 -0.95179205636E+03  0.18066305725E+04  0.12699999809E+01 0.  1.
</event>
<event>
 5   0  0.6377741E-07  0.3301943E+04  0.7818609E-02  0.8162401E-01
        2   -1    0    0  501    0  0.00000000000E+00  0.00000000000E+00  0.27457398743E+04  0.27457398743E+04  0.25500000920E-02 0. -1.
       -2   -1    0    0    0  501  0.00000000000E+00  0.00000000000E+00 -0.99270411851E+03  0.99270411852E+03  0.25500000920E-02 0.  1.
    10030    2    1    2    0    0  0.00000000000E+00  0.00000000000E+00  0.17530357558E+04  0.37384439928E+04  0.33019432349E+04 0.  0.
        1    1    3    3  502    0 -0.13104695959E+04  0.66069650335E+03  0.20338151718E+02  0.14677411460E+04  0.50400001928E-02 0.  1.
       -1    1    3    3    0  502  0.13104695959E+04 -0.66069650335E+03  0.17326976040E+04  0.22707028468E+04  0.50400001928E-02 0. -1.
</event>
<event>
 5   0  0.6258718E-07  0.3327004E+04  0.7818609E-02  0.8156058E-01
        2   -1    0    0  501    0  0.00000000000E+00  0.00000000000E+00  0.26585923503E+04  0.26585923503E+04  0.25500000920E-02 0. -1.
       -2   -1    0    0    0  501  0.00000000000E+00  0.00000000000E+00 -0.10408661205E+04  0.10408661205E+04  0.25500000920E-02 0.  1.
    10030    2    1    2    0    0  0.00000000000E+00  0.00000000000E+00  0.16177262298E+04  0.36994584708E+04  0.33270038808E+04 0.  0.
        5    1    3    3  502    0 -0.94536968859E+03 -0.11098226925E+04  0.16996628719E+04  0.22392646617E+04  0.46999998093E+01 0. -1.
       -5    1    3    3    0  502  0.94536968859E+03  0.11098226925E+04 -0.81936642122E+02  0.14601938091E+04  0.46999998093E+01 0.  1.
</event>
<event>
 5   0  0.6377741E-07  0.3177070E+04  0.7818609E-02  0.8194899E-01
        2   -1    0    0  501    0  0.00000000000E+00  0.00000000000E+00  0.19643904007E+04  0.19643904007E+04  0.25500000920E-02 0.  1.
       -2   -1    0    0    0  501  0.00000000000E+00  0.00000000000E+00 -0.12845937431E+04  0.12845937431E+04  0.25500000920E-02 0. -1.
    10030    2    1    2    0    0  0.00000000000E+00  0.00000000000E+00  0.67979665765E+03  0.32489841438E+04  0.31770701080E+04 0.  0.
        1    1    3    3  502    0 -0.13036658299E+04  0.74973646199E+03  0.86313822747E+03  0.17339714410E+04  0.50400001928E-02 0. -1.
       -1    1    3    3    0  502  0.13036658299E+04 -0.74973646199E+03 -0.18334156982E+03  0.15150127028E+04  0.50400001928E-02 0.  1.
</event>
<event>
 5   0  0.6351753E-07  0.3301748E+04  0.7818609E-02  0.8162451E-01
        2   -1    0    0  501    0  0.00000000000E+00  0.00000000000E+00  0.20137910233E+04  0.20137910233E+04  0.25500000920E-02 0.  1.
       -2   -1    0    0    0  501  0.00000000000E+00  0.00000000000E+00 -0.13533602245E+04  0.13533602245E+04  0.25500000920E-02 0. -1.
    10030    2    1    2    0    0  0.00000000000E+00  0.00000000000E+00  0.66043079883E+03  0.33671512478E+04  0.33017478228E+04 0.  0.
        3    1    3    3  502    0 -0.12075660303E+04 -0.10915738858E+04  0.61068207392E+03  0.17385861703E+04  0.10100000352E+00 0.  1.
       -3    1    3    3    0  502  0.12075660303E+04  0.10915738858E+04  0.49748724911E+02  0.16285650775E+04  0.10100000352E+00 0. -1.
</event>
<event>
 5   0  0.6424183E-07  0.3281039E+04  0.7818609E-02  0.8167737E-01
        2   -1    0    0  501    0  0.00000000000E+00  0.00000000000E+00  0.20686498887E+04  0.20686498887E+04  0.25500000920E-02 0.  1.
       -2   -1    0    0    0  501  0.00000000000E+00  0.00000000000E+00 -0.13009956395E+04  0.13009956396E+04  0.25500000920E-02 0. -1.
    10030    2    1    2    0    0  0.00000000000E+00  0.00000000000E+00  0.76765424910E+03  0.33696455282E+04  0.32810391555E+04 0.  0.
        2    1    3    3  502    0  0.59304276182E+03 -0.68152376363E+03  0.17901612328E+04  0.20052061234E+04  0.25500000920E-02 0.  1.
       -2    1    3    3    0  502 -0.59304276182E+03  0.68152376363E+03 -0.10225069837E+04  0.13644394048E+04  0.25500000920E-02 0. -1.
</event>
<event>
 5   0  0.6377741E-07  0.3317132E+04  0.7818609E-02  0.8158550E-01
       -2   -1    0    0    0  501  0.00000000000E+00  0.00000000000E+00  0.11208543616E+04  0.11208543616E+04  0.25500000920E-02 0. -1.
        2   -1    0    0  501    0  0.00000000000E+00  0.00000000000E+00 -0.24542359492E+04  0.24542359492E+04  0.25500000920E-02 0.  1.
    10030    2    1    2    0    0  0.00000000000E+00  0.00000000000E+00 -0.13333815876E+04  0.35750903108E+04  0.33171319347E+04 0.  0.
        1    1    3    3  502    0 -0.13285440049E+04  0.10297948575E+03  0.39763038336E+03  0.13905911941E+04  0.50400001928E-02 0. -1.
       -1    1    3    3    0  502  0.13285440049E+04 -0.10297948575E+03 -0.17310119709E+04  0.21844991167E+04  0.50400001928E-02 0.  1.
</event>
<event>
 5   0  0.2087665E-07  0.3292426E+04  0.7818609E-02  0.8164825E-01
        1   -1    0    0  501    0  0.00000000000E+00  0.00000000000E+00  0.23771944805E+04  0.23771944805E+04  0.50400001928E-02 0.  1.
       -1   -1    0    0    0  501  0.00000000000E+00  0.00000000000E+00 -0.11400064712E+04  0.11400064712E+04  0.50400001928E-02 0. -1.
    10030    2    1    2    0    0  0.00000000000E+00  0.00000000000E+00  0.12371880093E+04  0.35172009517E+04  0.32924259087E+04 0.  0.
        5    1    3    3  502    0 -0.15732487514E+04  0.29297090808E+02  0.10180609734E+03  0.15768184819E+04  0.46999998093E+01 0. -1.
       -5    1    3    3    0  502  0.15732487514E+04 -0.29297090808E+02  0.11353819120E+04  0.19403824698E+04  0.46999998093E+01 0.  1.
</event>
<event>
 5   0  0.2087665E-07  0.3300422E+04  0.7818609E-02  0.8162788E-01
        1   -1    0    0  501    0  0.00000000000E+00  0.00000000000E+00  0.20827913364E+04  0.20827913364E+04  0.50400001928E-02 0. -1.
       -1   -1    0    0    0  501  0.00000000000E+00  0.00000000000E+00 -0.13074744349E+04  0.13074744349E+04  0.50400001928E-02 0.  1.
    10030    2    1    2    0    0  0.00000000000E+00  0.00000000000E+00  0.77531690150E+03  0.33902657713E+04  0.33004220492E+04 0.  0.
        5    1    3    3  502    0  0.87818096843E+03 -0.88099746651E+02 -0.10446480343E+04  0.13675799736E+04  0.46999998093E+01 0.  1.
       -5    1    3    3    0  502 -0.87818096843E+03  0.88099746651E+02  0.18199649358E+04  0.20226857977E+04  0.46999998093E+01 0. -1.
</event>
<event>
 5   0  0.6424183E-07  0.3298200E+04  0.7818609E-02  0.8163354E-01
        2   -1    0    0  501    0  0.00000000000E+00  0.00000000000E+00  0.20491670415E+04  0.20491670415E+04  0.25500000920E-02 0. -1.
       -2   -1    0    0    0  501  0.00000000000E+00  0.00000000000E+00 -0.13271396078E+04  0.13271396078E+04  0.25500000920E-02 0.  1.
    10030    2    1    2    0    0  0.00000000000E+00  0.00000000000E+00  0.72202743374E+03  0.33763066493E+04  0.32981999598E+04 0.  0.
        2    1    3    3  502    0  0.70033558234E+03 -0.14431734643E+04 -0.30551080036E+02  0.16044166991E+04  0.25500000920E-02 0.  1.
       -2    1    3    3    0  502 -0.70033558234E+03  0.14431734643E+04  0.75257851378E+03  0.17718899501E+04  0.25500000920E-02 0. -1.
</event>
<event>
 5   0  0.2037333E-07  0.3288021E+04  0.7818609E-02  0.8165950E-01
        1   -1    0    0  501    0  0.00000000000E+00  0.00000000000E+00  0.18812123559E+04  0.18812123559E+04  0.50400001928E-02 0.  1.
       -1   -1    0    0    0  501  0.00000000000E+00  0.00000000000E+00 -0.14367177681E+04  0.14367177681E+04  0.50400001928E-02 0. -1.
    10030    2    1    2    0    0  0.00000000000E+00  0.00000000000E+00  0.44449458775E+03  0.33179301240E+04  0.32880214216E+04 0.  0.
        3    1    3    3  502    0 -0.87774716257E+03  0.14972237326E+03 -0.11723202114E+04  0.14721384306E+04  0.10100000352E+00 0. -1.
       -3    1    3    3    0  502  0.87774716257E+03 -0.14972237326E+03  0.16168147992E+04  0.18457916934E+04  0.10100000352E+00 0.  1.
</event>
<event>
 5   0  0.2087665E-07  0.3331064E+04  0.7818609E-02  0.8155036E-01
       -1   -1    0    0    0  501  0.00000000000E+00  0.00000000000E+00  0.11597754418E+04  0.11597754418E+04  0.50400001928E-02 0. -1.
        1   -1    0    0  501    0  0.00000000000E+00  0.00000000000E+00 -0.23918396177E+04  0.23918396177E+04  0.50400001928E-02 0.  1.
    10030    2    1    2    0    0  0.00000000000E+00  0.00000000000E+00 -0.12320641760E+04  0.35516150595E+04  0.33310640038E+04 0.  0.
        5    1    3    3  502    0  0.12160002787E+04  0.90402777346E+03 -0.13532237601E+04  0.20315411706E+04  0.46999998093E+01 0.  1.
       -5    1    3    3    0  502 -0.12160002787E+04 -0.90402777346E+03  0.12115958410E+03  0.15200738889E+04  0.46999998093E+01 0. -1.
</event>
<event>
 5   0  0.2057130E-07  0.3293575E+04  0.7818609E-02  0.8164532E-01
        1   -1    0    0  501    0  0.00000000000E+00  0.00000000000E+00  0.14593745284E+04  0.14593745284E+04  0.50400001928E-02 0.  1.
       -1   -1    0    0    0  501  0.00000000000E+00  0.00000000000E+00 -0.18582680369E+04  0.18582680369E+04  0.50400001928E-02 0. -1.
    10030    2    1    2    0    0  0.00000000000E+00  0.00000000000E+00 -0.39889350844E+03  0.33176425653E+04  0.32935749817E+04 0.  0.
        2    1    3    3  502    0  0.77937337060E+03  0.13971628936E+04  0.19381881164E+03  0.16115373821E+04  0.25500000920E-02 0.  1.
       -2    1    3    3    0  502 -0.77937337060E+03 -0.13971628936E+04 -0.59271232008E+03  0.17061051833E+04  0.25500000920E-02 0. -1.
</event>
<event>
 5   0  0.6351753E-07  0.3303959E+04  0.7818609E-02  0.8161889E-01
       -2   -1    0    0    0  501  0.00000000000E+00  0.00000000000E+00  0.15049249076E+04  0.15049249076E+04  0.25500000920E-02 0. -1.
        2   -1    0    0  501    0  0.00000000000E+00  0.00000000000E+00 -0.18134033095E+04  0.18134033095E+04  0.25500000920E-02 0.  1.
    10030    2    1    2    0    0  0.00000000000E+00  0.00000000000E+00 -0.30847840192E+03  0.33183282171E+04  0.33039587213E+04 0.  0.
        3    1    3    3  502    0  0.66159592683E+03  0.12836212254E+04 -0.96000218463E+03  0.17340694408E+04  0.10100000352E+00 0.  1.
       -3    1    3    3    0  502 -0.66159592683E+03 -0.12836212254E+04  0.65152378270E+03  0.15842587763E+04  0.10100000352E+00 0. -1.
</event>
<event>
 5   0  0.1994250E-07  0.3223211E+04  0.7818609E-02  0.8182714E-01
       -3   -1    0    0    0  501  0.00000000000E+00  0.00000000000E+00  0.10174504181E+04  0.10174504231E+04  0.10100000352E+00 0.  1.
        3   -1    0    0  501    0  0.00000000000E+00  0.00000000000E+00 -0.25527268043E+04  0.25527268063E+04  0.10100000352E+00 0. -1.
    10030    2    1    2    0    0  0.00000000000E+00  0.00000000000E+00 -0.15352763862E+04  0.35701772294E+04  0.32232114214E+04 0.  0.
        4    1    3    3  502    0 -0.73836975523E+02 -0.15602385544E+04 -0.32808955327E+03  0.15960703660E+04  0.12699999809E+01 0.  1.
       -4    1    3    3    0  502  0.73836975523E+02  0.15602385544E+04 -0.12071868329E+04  0.19741068633E+04  0.12699999809E+01 0. -1.
</event>
<event>
 5   0  0.6424183E-07  0.3296199E+04  0.7818609E-02  0.8163863E-01
        2   -1    0    0  501    0  0.00000000000E+00  0.00000000000E+00  0.29060788840E+04  0.29060788840E+04  0.25500000920E-02 0.  1.
       -2   -1    0    0    0  501  0.00000000000E+00  0.00000000000E+00 -0.93467223418E+03  0.93467223418E+03  0.25500000920E-02 0. -1.
    10030    2    1    2    0    0  0.00000000000E+00  0.00000000000E+00  0.19714066498E+04  0.38407511182E+04  0.32961985639E+04 0.  0.
        2    1    3    3  502    0  0.12368830578E+04  0.98946426851E+03  0.45516711968E+03  0.16480583558E+04  0.25500000920E-02 0.  1.
       -2    1    3    3    0  502 -0.12368830578E+04 -0.98946426851E+03  0.15162395301E+04  0.21926927623E+04  0.25500000920E-02 0. -1.
</event>
<event>
 5   0  0.2037333E-07  0.3305740E+04  0.7818609E-02  0.8161436E-01
       -1   -1    0    0    0  501  0.00000000000E+00  0.00000000000E+00  0.17953476488E+04  0.17953476488E+04  0.50400001928E-02 0.  1.
        1   -1    0    0  501    0  0.00000000000E+00  0.00000000000E+00 -0.15216988642E+04  0.15216988642E+04  0.50400001928E-02 0. -1.
    10030    2    1    2    0    0  0.00000000000E+00  0.00000000000E+00  0.27364878464E+03  0.33170465130E+04  0.33057395409E+04 0.  0.
        3    1    3    3  502    0  0.15543224916E+03 -0.79275234529E+03 -0.13101074865E+04  0.15391546711E+04  0.10100000352E+00 0. -1.
       -3    1    3    3    0  502 -0.15543224916E+03  0.79275234529E+03  0.15837562711E+04  0.17778918419E+04  0.10100000352E+00 0.  1.
</event>
<event>
 5   0  0.6351753E-07  0.3306243E+04  0.7818609E-02  0.8161309E-01
        2   -1    0    0  501    0  0.00000000000E+00  0.00000000000E+00  0.16286234849E+04  0.16286234849E+04  0.25500000920E-02 0. -1.
       -2   -1    0    0    0  501  0.00000000000E+00  0.00000000000E+00 -0.16779881328E+04  0.16779881328E+04  0.25500000920E-02 0.  1.
    10030    2    1    2    0    0  0.00000000000E+00  0.00000000000E+00 -0.49364647962E+02  0.33066116177E+04  0.33062431130E+04 0.  0.
        3    1    3    3  502    0 -0.38312333263E+03 -0.11837802567E+04  0.10638744204E+04  0.16370546652E+04  0.10100000352E+00 0. -1.
       -3    1    3    3    0  502  0.38312333263E+03  0.11837802567E+04 -0.11132390684E+04  0.16695569525E+04  0.10100000352E+00 0.  1.
</event>
<event>
 5   0  0.2057130E-07  0.3309681E+04  0.7818609E-02  0.8160436E-01
       -1   -1    0    0    0  501  0.00000000000E+00  0.00000000000E+00  0.13396251071E+04  0.13396251071E+04  0.50400001928E-02 0. -1.
        1   -1    0    0  501    0  0.00000000000E+00  0.00000000000E+00 -0.20442266123E+04  0.20442266123E+04  0.50400001928E-02 0.  1.
    10030    2    1    2    0    0  0.00000000000E+00  0.00000000000E+00 -0.70460150520E+03  0.33838517195E+04  0.33096811294E+04 0.  0.
        2    1    3    3  502    0 -0.10751738673E+04  0.11742406068E+04 -0.81369833842E+03  0.17880002331E+04  0.25500000920E-02 0. -1.
       -2    1    3    3    0  502  0.10751738673E+04 -0.11742406068E+04  0.10909683321E+03  0.15958514864E+04  0.25500000920E-02 0.  1.
</event>
<event>
 5   0  0.2087665E-07  0.3294704E+04  0.7818609E-02  0.8164244E-01
        1   -1    0    0  501    0  0.00000000000E+00  0.00000000000E+00  0.15715090428E+04  0.15715090428E+04  0.50400001928E-02 0.  1.
       -1   -1    0    0    0  501  0.00000000000E+00  0.00000000000E+00 -0.17268553107E+04  0.17268553107E+04  0.50400001928E-02 0. -1.
    10030    2    1    2    0    0  0.00000000000E+00  0.00000000000E+00 -0.15534626792E+03  0.32983643535E+04  0.32947040756E+04 0.  0.
        5    1    3    3  502    0  0.23359844551E+03  0.85807537019E+03  0.13105487266E+04  0.15837997441E+04  0.46999998093E+01 0.  1.
       -5    1    3    3    0  502 -0.23359844551E+03 -0.85807537019E+03 -0.14658949945E+04  0.17145646094E+04  0.46999998093E+01 0. -1.
</event>
<event>
 5   0  0.2087665E-07  0.3277429E+04  0.7818609E-02  0.8168662E-01
        1   -1    0    0  501    0  0.00000000000E+00  0.00000000000E+00  0.11955997879E+04  0.11955997879E+04  0.50400001928E-02 0.  1.
       -1   -1    0    0    0  501  0.00000000000E+00  0.00000000000E+00 -0.22460570712E+04  0.22460570712E+04  0.50400001928E-02 0. -1.
    10030    2    1    2    0    0  0.00000000000E+00  0.00000000000E+00 -0.10504572832E+04  0.34416568591E+04  0.32774290888E+04 0.  0.
        5    1    3    3  502    0  0.49571618304E+03 -0.15576996322E+04 -0.64587964281E+03  0.17576533450E+04  0.46999998093E+01 0.  1.
       -5    1    3    3    0  502 -0.49571618304E+03  0.15576996322E+04 -0.40457764042E+03  0.16840035141E+04  0.46999998093E+01 0. -1.
</event>
<event>
 5   0  0.2057130E-07  0.3346116E+04  0.7818609E-02  0.8151259E-01
       -1   -1    0    0    0  501  0.00000000000E+00  0.00000000000E+00  0.14551677555E+04  0.14551677555E+04  0.50400001928E-02 0.  1.
        1   -1    0    0  501    0  0.00000000000E+00  0.00000000000E+00 -0.19235736078E+04  0.19235736078E+04  0.50400001928E-02 0. -1.
    10030    2    1    2    0    0  0.00000000000E+00  0.00000000000E+00 -0.46840585231E+03  0.33787413633E+04  0.33461155326E+04 0.  0.
        2    1    3    3  502    0 -0.83279157354E+03 -0.83415348668E+03 -0.14331165888E+04  0.18555799636E+04  0.25500000920E-02 0. -1.
       -2    1    3    3    0  502  0.83279157354E+03  0.83415348668E+03  0.96471073651E+03  0.15231613997E+04  0.25500000920E-02 0.  1.
</event>
<event>
 5   0  0.6426079E-07  0.3287068E+04  0.7818609E-02  0.8166194E-01
       -2   -1    0    0    0  501  0.00000000000E+00  0.00000000000E+00  0.10551206410E+04  0.10551206410E+04  0.25500000920E-02 0.  1.
        2   -1    0    0  501    0  0.00000000000E+00  0.00000000000E+00 -0.25600898182E+04  0.25600898182E+04  0.25500000920E-02 0. -1.
    10030    2    1    2    0    0  0.00000000000E+00  0.00000000000E+00 -0.15049691772E+04  0.36152104593E+04  0.32870677572E+04 0.  0.
        4    1    3    3  502    0 -0.27627958042E+03  0.33000539100E+03  0.99204157735E+03  0.10813797061E+04  0.12699999809E+01 0.  1.
       -4    1    3    3    0  502  0.27627958042E+03 -0.33000539100E+03 -0.24970107545E+04  0.25338307532E+04  0.12699999809E+01 0. -1.
</event>
<event>
 5   0  0.2080770E-07  0.3251069E+04  0.7818609E-02  0.8175459E-01
        1   -1    0    0  501    0  0.00000000000E+00  0.00000000000E+00  0.11952092037E+04  0.11952092037E+04  0.50400001928E-02 0. -1.
       -1   -1    0    0    0  501  0.00000000000E+00  0.00000000000E+00 -0.22107946514E+04  0.22107946514E+04  0.50400001928E-02 0.  1.
    10030    2    1    2    0    0  0.00000000000E+00  0.00000000000E+00 -0.10155854477E+04  0.34060038551E+04  0.32510688180E+04 0.  0.
        4    1    3    3  502    0 -0.14224142844E+04 -0.74679816995E+03 -0.24821351321E+03  0.16256018775E+04  0.12699999809E+01 0.  1.
       -4    1    3    3    0  502  0.14224142844E+04  0.74679816995E+03 -0.76737193451E+03  0.17804019776E+04  0.12699999809E+01 0. -1.
</event>
<event>
 5   0  0.2087665E-07  0.3296765E+04  0.7818609E-02  0.8163719E-01
       -1   -1    0    0    0  501  0.00000000000E+00  0.00000000000E+00  0.15009073787E+04  0.15009073787E+04  0.50400001928E-02 0.  1.
        1   -1    0    0  501    0  0.00000000000E+00  0.00000000000E+00 -0.18103476323E+04  0.18103476323E+04  0.50400001928E-02 0. -1.
    10030    2    1    2    0    0  0.00000000000E+00  0.00000000000E+00 -0.30944025364E+03  0.33112550110E+04  0.32967645468E+04 0.  0.
        5    1    3    3  502    0 -0.14674790513E+03  0.16013284368E+04 -0.51874149397E+03  0.16896456840E+04  0.46999998093E+01 0.  1.
       -5    1    3    3    0  502  0.14674790513E+03 -0.16013284368E+04  0.20930124033E+03  0.16216093269E+04  0.46999998093E+01 0. -1.
</event>
<event>
 5   0  0.2057130E-07  0.3210163E+04  0.7818609E-02  0.8186138E-01
       -1   -1    0    0    0  501  0.00000000000E+00  0.00000000000E+00  0.10602020173E+04  0.10602020173E+04  0.50400001928E-02 0.  1.
        1   -1    0    0  501    0  0.00000000000E+00  0.00000000000E+00 -0.24299958074E+04  0.24299958074E+04  0.50400001928E-02 0. -1.
    10030    2    1    2    0    0  0.00000000000E+00  0.00000000000E+00 -0.13697937900E+04  0.34901978247E+04  0.32101628975E+04 0.  0.
        2    1    3    3  502    0  0.46510531951E+03  0.16163147295E+03  0.97606013540E+03  0.10932250817E+04  0.25500000920E-02 0.  1.
       -2    1    3    3    0  502 -0.46510531951E+03 -0.16163147295E+03 -0.23458539254E+04  0.23969727430E+04  0.25500000920E-02 0. -1.
</event>
<event>
 5   0  0.6377741E-07  0.3320928E+04  0.7818609E-02  0.8157590E-01
       -2   -1    0    0    0  501  0.00000000000E+00  0.00000000000E+00  0.94024781054E+03  0.94024781055E+03  0.25500000920E-02 0.  1.
        2   -1    0    0  501    0  0.00000000000E+00  0.00000000000E+00 -0.29323559708E+04  0.29323559708E+04  0.25500000920E-02 0. -1.
    10030    2    1    2    0    0  0.00000000000E+00  0.00000000000E+00 -0.19921081603E+04  0.38726037814E+04  0.33209283529E+04 0.  0.
        1    1    3    3  502    0  0.77445610710E+03 -0.56498853778E+03  0.58495249345E+03  0.11230154626E+04  0.50400001928E-02 0.  1.
       -1    1    3    3    0  502 -0.77445610710E+03  0.56498853778E+03 -0.25770606537E+04  0.27495883187E+04  0.50400001928E-02 0. -1.
</event>
<event>
 5   0  0.6351753E-07  0.3288842E+04  0.7818609E-02  0.8165740E-01
       -2   -1    0    0    0  501  0.00000000000E+00  0.00000000000E+00  0.12967764607E+04  0.12967764607E+04  0.25500000920E-02 0.  1.
        2   -1    0    0  501    0  0.00000000000E+00  0.00000000000E+00 -0.20852629950E+04  0.20852629950E+04  0.25500000920E-02 0. -1.
    10030    2    1    2    0    0  0.00000000000E+00  0.00000000000E+00 -0.78848653422E+03  0.33820394557E+04  0.32888417209E+04 0.  0.
        3    1    3    3  502    0 -0.66770467839E+03  0.38750359272E+03  0.10988417371E+04  0.13429228367E+04  0.10100000352E+00 0.  1.
       -3    1    3    3    0  502  0.66770467839E+03 -0.38750359272E+03 -0.18873282713E+04  0.20391166190E+04  0.10100000352E+00 0. -1.
</event>
<event>
 5   0  0.6351753E-07  0.3165178E+04  0.7818609E-02  0.8198075E-01
       -2   -1    0    0    0  501  0.00000000000E+00  0.00000000000E+00  0.16840660548E+04  0.16840660548E+04  0.25500000920E-02 0. -1.
        2   -1    0    0  501    0  0.00000000000E+00  0.00000000000E+00 -0.14872263231E+04  0.14872263231E+04  0.25500000920E-02 0.  1.
    10030    2    1    2    0    0  0.00000000000E+00  0.00000000000E+00  0.19683973164E+03  0.31712923779E+04  0.31651776358E+04 0.  0.
        3    1    3    3  502    0 -0.41966848900E+03 -0.14921119945E+04  0.41851712694E+03  0.16055143851E+04  0.10100000352E+00 0.  1.
       -3    1    3    3    0  502  0.41966848900E+03  0.14921119945E+04 -0.22167739530E+03  0.15657779928E+04  0.10100000352E+00 0. -1.
</event>
<event>
 5   0  0.2080770E-07  0.3298894E+04  0.7818609E-02  0.8163177E-01
        1   -1    0    0  501    0  0.00000000000E+00  0.00000000000E+00  0.21205223014E+04  0.21205223014E+04  0.50400001928E-02 0. -1.
       -1   -1    0    0    0  501  0.00000000000E+00  0.00000000000E+00 -0.12830212286E+04  0.12830212286E+04  0.50400001928E-02 0.  1.
    10030    2    1    2    0    0  0.00000000000E+00  0.00000000000E+00  0.83750107282E+03  0.34035435300E+04  0.32988938318E+04 0.  0.
        4    1    3    3  502    0  0.61844113003E+03 -0.38273508611E+03 -0.11086583100E+04  0.13259262569E+04  0.12699999809E+01 0.  1.
       -4    1    3    3    0  502 -0.61844113003E+03  0.38273508611E+03  0.19461593828E+04  0.20776172731E+04  0.12699999809E+01 0. -1.
</event>
<event>
 5   0  0.6377741E-07  0.3294794E+04  0.7818609E-02  0.8164221E-01
       -2   -1    0    0    0  501  0.00000000000E+00  0.00000000000E+00  0.17557499709E+04  0.17557499709E+04  0.25500000920E-02 0.  1.
        2   -1    0    0  501    0  0.00000000000E+00  0.00000000000E+00 -0.15457307763E+04  0.15457307763E+04  0.25500000920E-02 0. -1.
    10030    2    1    2    0    0  0.00000000000E+00  0.00000000000E+00  0.21001919461E+03  0.33014807471E+04  0.32947939331E+04 0.  0.
        1    1    3    3  502    0  0.12125691467E+04 -0.80651401574E+02 -0.10094923722E+04  0.15798428509E+04  0.50400001928E-02 0. -1.
       -1    1    3    3    0  502 -0.12125691467E+04  0.80651401574E+02  0.12195115668E+04  0.17216378962E+04  0.50400001928E-02 0.  1.
</event>
<event>
 5   0  0.2057130E-07  0.3236626E+04  0.7818609E-02  0.8179211E-01
        1   -1    0    0  501    0  0.00000000000E+00  0.00000000000E+00  0.12966066370E+04  0.12966066370E+04  0.50400001928E-02 0. -1.
       -1   -1    0    0    0  501  0.00000000000E+00  0.00000000000E+00 -0.20198398131E+04  0.20198398131E+04  0.50400001928E-02 0.  1.
    10030    2    1    2    0    0  0.00000000000E+00  0.00000000000E+00 -0.72323317608E+03  0.33164464501E+04  0.32366264581E+04 0.  0.
        2    1    3    3  502    0 -0.10037062529E+04 -0.12422966946E+04 -0.62922864058E+03  0.17165826521E+04  0.25500000920E-02 0.  1.
       -2    1    3    3    0  502  0.10037062529E+04  0.12422966946E+04 -0.94004535502E+02  0.15998637980E+04  0.25500000920E-02 0. -1.
</event>
<event>
 5   0  0.2037333E-07  0.3293172E+04  0.7818609E-02  0.8164635E-01
       -1   -1    0    0    0  501  0.00000000000E+00  0.00000000000E+00  0.15272525378E+04  0.15272525378E+04  0.50400001928E-02 0.  1.
        1   -1    0    0  501    0  0.00000000000E+00  0.00000000000E+00 -0.17752438166E+04  0.17752438166E+04  0.50400001928E-02 0. -1.
    10030    2    1    2    0    0  0.00000000000E+00  0.00000000000E+00 -0.24799127885E+03  0.33024963544E+04  0.32931721025E+04 0.  0.
        3    1    3    3  502    0  0.13269121253E+03 -0.93589218833E+03 -0.14760505660E+04  0.17527767769E+04  0.10100000352E+00 0. -1.
       -3    1    3    3    0  502 -0.13269121253E+03  0.93589218833E+03  0.12280592871E+04  0.15497195775E+04  0.10100000352E+00 0.  1.
</event>
<event>
 5   0  0.2087665E-07  0.3276052E+04  0.7818609E-02  0.8169016E-01
       -1   -1    0    0    0  501  0.00000000000E+00  0.00000000000E+00  0.13067399802E+04  0.13067399802E+04  0.50400001928E-02 0.  1.
        1   -1    0    0  501    0  0.00000000000E+00  0.00000000000E+00 -0.20532994417E+04  0.20532994417E+04  0.50400001928E-02 0. -1.
    10030    2    1    2    0    0  0.00000000000E+00  0.00000000000E+00 -0.74655946148E+03  0.33600394219E+04  0.32760515696E+04 0.  0.
        5    1    3    3  502    0  0.29563190406E+03  0.82040635662E+03 -0.17954212219E+04  0.19960020708E+04  0.46999998093E+01 0. -1.
       -5    1    3    3    0  502 -0.29563190406E+03 -0.82040635662E+03  0.10488617604E+04  0.13640373511E+04  0.46999998093E+01 0.  1.
</event>
<event>
 5   0  0.6424183E-07  0.3292224E+04  0.7818609E-02  0.8164877E-01
       -2   -1    0    0    0  501  0.00000000000E+00  0.00000000000E+00  0.10862095774E+04  0.10862095774E+04  0.25500000920E-02 0. -1.
        2   -1    0    0  501    0  0.00000000000E+00  0.00000000000E+00 -0.24946247801E+04  0.24946247801E+04  0.25500000920E-02 0.  1.
    10030    2    1    2    0    0  0.00000000000E+00  0.00000000000E+00 -0.14084152026E+04  0.35808343575E+04  0.32922243716E+04 0.  0.
        2    1    3    3  502    0 -0.11503019722E+04 -0.11491150800E+04 -0.42472821534E+03  0.16804922348E+04  0.25500000920E-02 0.  1.
       -2    1    3    3    0  502  0.11503019722E+04  0.11491150800E+04 -0.98368698729E+03  0.19003421227E+04  0.25500000920E-02 0. -1.
</event>
<event>
 5   0  0.6377741E-07  0.3256061E+04  0.7818609E-02  0.8174167E-01
        2   -1    0    0  501    0  0.00000000000E+00  0.00000000000E+00  0.20404749505E+04  0.20404749505E+04  0.25500000920E-02 0. -1.
       -2   -1    0    0    0  501  0.00000000000E+00  0.00000000000E+00 -0.12989541132E+04  0.12989541132E+04  0.25500000920E-02 0.  1.
    10030    2    1    2    0    0  0.00000000000E+00  0.00000000000E+00  0.74152083725E+03  0.33394290637E+04  0.32560610129E+04 0.  0.
        1    1    3    3  502    0  0.10112906244E+04  0.51978782777E+03 -0.82423114150E+03  0.14043664363E+04  0.50400001928E-02 0.  1.
       -1    1    3    3    0  502 -0.10112906244E+04 -0.51978782777E+03  0.15657519788E+04  0.19350626274E+04  0.50400001928E-02 0. -1.
</event>
<event>
 5   0  0.6258718E-07  0.3292281E+04  0.7818609E-02  0.8164862E-01
        2   -1    0    0  501    0  0.00000000000E+00  0.00000000000E+00  0.28615501658E+04  0.28615501658E+04  0.25500000920E-02 0.  1.
       -2   -1    0    0    0  501  0.00000000000E+00  0.00000000000E+00 -0.94696178632E+03  0.94696178633E+03  0.25500000920E-02 0. -1.
    10030    2    1    2    0    0  0.00000000000E+00  0.00000000000E+00  0.19145883795E+04  0.38085119521E+04  0.32922810674E+04 0.  0.
        5    1    3    3  502    0 -0.56212805618E+03 -0.17488589285E+03 -0.82101447591E+03  0.10102771336E+04  0.46999998093E+01 0. -1.
       -5    1    3    3    0  502  0.56212805618E+03  0.17488589285E+03  0.27356028554E+04  0.27982348185E+04  0.46999998093E+01 0.  1.
</event>
<event>
 5   0  0.2057130E-07  0.3295554E+04  0.7818609E-02  0.8164028E-01
        1   -1    0    0  501    0  0.00000000000E+00  0.00000000000E+00  0.17698145084E+04  0.17698145084E+04  0.50400001928E-02 0.  1.
       -1   -1    0    0    0  501  0.00000000000E+00  0.00000000000E+00 -0.15341547446E+04  0.15341547446E+04  0.50400001928E-02 0. -1.
    10030    2    1    2    0    0  0.00000000000E+00  0.00000000000E+00  0.23565976382E+03  0.33039692531E+04  0.32955541721E+04 0.  0.
        2    1    3    3  502    0  0.11982087053E+04 -0.26785800598E+03  0.12195979672E+04  0.17305696214E+04  0.25500000920E-02 0.  1.
       -2    1    3    3    0  502 -0.11982087053E+04  0.26785800598E+03 -0.98393820337E+03  0.15733996317E+04  0.25500000920E-02 0. -1.
</event>
<event>
 5   0  0.6426079E-07  0.3306132E+04  0.7818609E-02  0.8161337E-01
       -2   -1    0    0    0  501  0.00000000000E+00  0.00000000000E+00  0.88870606354E+03  0.88870606354E+03  0.25500000920E-02 0. -1.
        2   -1    0    0  501    0  0.00000000000E+00  0.00000000000E+00 -0.30748372482E+04  0.30748372482E+04  0.25500000920E-02 0.  1.
    10030    2    1    2    0    0  0.00000000000E+00  0.00000000000E+00 -0.21861311847E+04  0.39635433118E+04  0.33061315805E+04 0.  0.
        4    1    3    3  502    0  0.11955159096E+04 -0.17948731841E+02 -0.24615601959E+04  0.27365782755E+04  0.12699999809E+01 0.  1.
       -4    1    3    3    0  502 -0.11955159096E+04  0.17948731841E+02  0.27542901119E+03  0.12269650363E+04  0.12699999809E+01 0. -1.
</event>
<event>
 5   0  0.6377741E-07  0.3310237E+04  0.7818609E-02  0.8160295E-01
        2   -1    0    0  501    0  0.00000000000E+00  0.00000000000E+00  0.13348056699E+04  0.13348056699E+04  0.25500000920E-02 0. -1.
       -2   -1    0    0    0  501  0.00000000000E+00  0.00000000000E+00 -0.20522970125E+04  0.20522970125E+04  0.25500000920E-02 0.  1.
    10030    2    1    2    0    0  0.00000000000E+00  0.00000000000E+00 -0.71749134266E+03  0.33871026824E+04  0.33102372655E+04 0.  0.
        1    1    3    3  502    0 -0.78787183912E+03 -0.13949347143E+04 -0.78413081433E+03  0.17836608495E+04  0.50400001928E-02 0.  1.
       -1    1    3    3    0  502  0.78787183912E+03  0.13949347143E+04  0.66639471664E+02  0.16034418329E+04  0.50400001928E-02 0. -1.
</event>
<event>
 5   0  0.2080828E-07  0.3304680E+04  0.7818609E-02  0.8161706E-01
        1   -1    0    0  501    0  0.00000000000E+00  0.00000000000E+00  0.22719686822E+04  0.22719686822E+04  0.50400001928E-02 0. -1.
       -1   -1    0    0    0  501  0.00000000000E+00  0.00000000000E+00 -0.12017011897E+04  0.12017011897E+04  0.50400001928E-02 0.  1.
    10030    2    1    2    0    0  0.00000000000E+00  0.00000000000E+00  0.10702674925E+04  0.34736698720E+04  0.33046799957E+04 0.  0.
        1    1    3    3  502    0 -0.22186993168E+03  0.13772134673E+04  0.14660184241E+04  0.20236484925E+04  0.50400001928E-02 0. -1.
       -1    1    3    3    0  502  0.22186993168E+03 -0.13772134673E+04 -0.39575093159E+03  0.14500213795E+04  0.50400001928E-02 0.  1.
</event>
<event>
 5   0  0.2087665E-07  0.3279473E+04  0.7818609E-02  0.8168138E-01
       -1   -1    0    0    0  501  0.00000000000E+00  0.00000000000E+00  0.16769718469E+04  0.16769718469E+04  0.50400001928E-02 0. -1.
        1   -1    0    0  501    0  0.00000000000E+00  0.00000000000E+00 -0.16033276312E+04  0.16033276312E+04  0.50400001928E-02 0.  1.
    10030    2    1    2    0    0  0.00000000000E+00  0.00000000000E+00  0.73644215663E+02  0.32802994782E+04  0.32794727009E+04 0.  0.
        5    1    3    3  502    0  0.30395343427E+03  0.33067512889E+03 -0.15405914729E+04  0.16047360865E+04  0.46999998093E+01 0.  1.
       -5    1    3    3    0  502 -0.30395343427E+03 -0.33067512889E+03  0.16142356886E+04  0.16755633916E+04  0.46999998093E+01 0. -1.
</event>
<event>
 5   0  0.6258718E-07  0.3136704E+04  0.7818609E-02  0.8205736E-01
       -2   -1    0    0    0  501  0.00000000000E+00  0.00000000000E+00  0.13010906495E+04  0.13010906495E+04  0.25500000920E-02 0.  1.
        2   -1    0    0  501    0  0.00000000000E+00  0.00000000000E+00 -0.18905120208E+04  0.18905120208E+04  0.25500000920E-02 0. -1.
    10030    2    1    2    0    0  0.00000000000E+00  0.00000000000E+00 -0.58942137128E+03  0.31916026703E+04  0.31367036921E+04 0.  0.
        5    1    3    3  502    0 -0.67629226081E+03 -0.30326658274E+03  0.11116390624E+04  0.13360783425E+04  0.46999998093E+01 0.  1.
       -5    1    3    3    0  502  0.67629226081E+03  0.30326658274E+03 -0.17010604337E+04  0.18555243278E+04  0.46999998093E+01 0. -1.
</event>
<event>
 5   0  0.6258718E-07  0.3309440E+04  0.7818609E-02  0.8160497E-01
       -2   -1    0    0    0  501  0.00000000000E+00  0.00000000000E+00  0.12366527044E+04  0.12366527044E+04  0.25500000920E-02 0. -1.
        2   -1    0    0  501    0  0.00000000000E+00  0.00000000000E+00 -0.22141209493E+04  0.22141209493E+04  0.25500000920E-02 0.  1.
    10030    2    1    2    0    0  0.00000000000E+00  0.00000000000E+00 -0.97746824488E+03  0.34507736537E+04  0.33094402305E+04 0.  0.
        5    1    3    3  502    0 -0.11480013877E+04  0.77487745446E+03  0.45532346958E+03  0.14579724989E+04  0.46999998093E+01 0.  1.
       -5    1    3    3    0  502  0.11480013877E+04 -0.77487745446E+03 -0.14327917145E+04  0.19928011548E+04  0.46999998093E+01 0. -1.
</event>
<event>
 5   0  0.6258718E-07  0.3287989E+04  0.7818609E-02  0.8165958E-01
        2   -1    0    0  501    0  0.00000000000E+00  0.00000000000E+00  0.14873828926E+04  0.14873828926E+04  0.25500000920E-02 0.  1.
       -2   -1    0    0    0  501  0.00000000000E+00  0.00000000000E+00 -0.18170960824E+04  0.18170960824E+04  0.25500000920E-02 0. -1.
    10030    2    1    2    0    0  0.00000000000E+00  0.00000000000E+00 -0.32971318974E+03  0.33044789750E+04  0.32879888243E+04 0.  0.
        5    1    3    3  502    0  0.47150848118E+03  0.11578506978E+04  0.90809172502E+03  0.15451832116E+04  0.46999998093E+01 0.  1.
       -5    1    3    3    0  502 -0.47150848118E+03 -0.11578506978E+04 -0.12378049148E+04  0.17592957634E+04  0.46999998093E+01 0. -1.
</event>
<event>
 5   0  0.6426079E-07  0.3319108E+04  0.7818609E-02  0.8158050E-01
        2   -1    0    0  501    0  0.00000000000E+00  0.00000000000E+00  0.25966929661E+04  0.25966929661E+04  0.25500000920E-02 0.  1.
       -2   -1    0    0    0  501  0.00000000000E+00  0.00000000000E+00 -0.10606257944E+04  0.10606257944E+04  0.25500000920E-02 0. -1.
    10030    2    1    2    0    0  0.00000000000E+00  0.00000000000E+00  0.15360671717E+04  0.36573187605E+04  0.33191080368E+04 0.  0.
        4    1    3    3  502    0 -0.13084503275E+03  0.17444025312E+02  0.25908984846E+04  0.25942592945E+04  0.12699999809E+01 0.  1.
       -4    1    3    3    0  502  0.13084503275E+03 -0.17444025312E+02 -0.10548313129E+04  0.10630594660E+04  0.12699999809E+01 0. -1.
</event>
<event>
 5   0  0.6426079E-07  0.3316524E+04  0.7818609E-02  0.8158703E-01
        2   -1    0    0  501    0  0.00000000000E+00  0.00000000000E+00  0.27189317432E+04  0.27189317432E+04  0.25500000920E-02 0. -1.
       -2   -1    0    0    0  501  0.00000000000E+00  0.00000000000E+00 -0.10113653872E+04  0.10113653872E+04  0.25500000920E-02 0.  1.
    10030    2    1    2    0    0  0.00000000000E+00  0.00000000000E+00  0.17075663560E+04  0.37302971304E+04  0.33165243586E+04 0.  0.
        4    1    3    3  502    0 -0.11089981410E+04  0.12302855603E+04  0.76413750196E+03  0.18241127080E+04  0.12699999809E+01 0.  1.
       -4    1    3    3    0  502  0.11089981410E+04 -0.12302855603E+04  0.94342885400E+03  0.19061844224E+04  0.12699999809E+01 0. -1.
</event>
<event>
 5   0  0.2087665E-07  0.3305399E+04  0.7818609E-02  0.8161523E-01
        1   -1    0    0  501    0  0.00000000000E+00  0.00000000000E+00  0.16202613876E+04  0.16202613876E+04  0.50400001928E-02 0.  1.
       -1   -1    0    0    0  501  0.00000000000E+00  0.00000000000E+00 -0.16857870829E+04  0.16857870829E+04  0.50400001928E-02 0. -1.
    10030    2    1    2    0    0  0.00000000000E+00  0.00000000000E+00 -0.65525695275E+02  0.33060484705E+04  0.33053990489E+04 0.  0.
        5    1    3    3  502    0  0.15407114786E+04 -0.45392494126E+03  0.35661290118E+03  0.16453068297E+04  0.46999998093E+01 0.  1.
       -5    1    3    3    0  502 -0.15407114786E+04  0.45392494126E+03 -0.42213859645E+03  0.16607416407E+04  0.46999998093E+01 0. -1.
</event>
<event>
 5   0  0.6351753E-07  0.3311083E+04  0.7818609E-02  0.8160081E-01
       -2   -1    0    0    0  501  0.00000000000E+00  0.00000000000E+00  0.11312234091E+04  0.11312234091E+04  0.25500000920E-02 0. -1.
        2   -1    0    0  501    0  0.00000000000E+00  0.00000000000E+00 -0.24228789412E+04  0.24228789412E+04  0.25500000920E-02 0.  1.
    10030    2    1    2    0    0  0.00000000000E+00  0.00000000000E+00 -0.12916555322E+04  0.35541023503E+04  0.33110828293E+04 0.  0.
        3    1    3    3  502    0 -0.14534314868E+03 -0.96856599787E+03  0.78689332049E+03  0.12563621417E+04  0.10100000352E+00 0. -1.
       -3    1    3    3    0  502  0.14534314868E+03  0.96856599787E+03 -0.20785488527E+04  0.22977402086E+04  0.10100000352E+00 0.  1.
</event>
<event>
 5   0  0.6424183E-07  0.3306541E+04  0.7818609E-02  0.8161233E-01
       -2   -1    0    0    0  501  0.00000000000E+00  0.00000000000E+00  0.10084254895E+04  0.10084254895E+04  0.25500000920E-02 0.  1.
        2   -1    0    0  501    0  0.00000000000E+00  0.00000000000E+00 -0.27104670133E+04  0.27104670133E+04  0.25500000920E-02 0. -1.
    10030    2    1    2    0    0  0.00000000000E+00  0.00000000000E+00 -0.17020415238E+04  0.37188925028E+04  0.33065414104E+04 0.  0.
        2    1    3    3  502    0 -0.13972932987E+03  0.10821762816E+04  0.54591608200E+03  0.12201041589E+04  0.25500000920E-02 0.  1.
       -2    1    3    3    0  502  0.13972932987E+03 -0.10821762816E+04 -0.22479576058E+04  0.24987883439E+04  0.25500000920E-02 0. -1.
</event>
<event>
 5   0  0.2037333E-07  0.3286819E+04  0.7818609E-02  0.8166258E-01
        1   -1    0    0  501    0  0.00000000000E+00  0.00000000000E+00  0.16453383175E+04  0.16453383175E+04  0.50400001928E-02 0. -1.
       -1   -1    0    0    0  501  0.00000000000E+00  0.00000000000E+00 -0.16414824904E+04  0.16414824904E+04  0.50400001928E-02 0.  1.
    10030    2    1    2    0    0  0.00000000000E+00  0.00000000000E+00  0.38558271188E+01  0.32868208080E+04  0.32868185463E+04 0.  0.
        3    1    3    3  502    0  0.56036750468E+03  0.71457273511E+03 -0.13678058842E+04  0.16418035452E+04  0.10100000352E+00 0.  1.
       -3    1    3    3    0  502 -0.56036750468E+03 -0.71457273511E+03  0.13716617113E+04  0.16450172627E+04  0.10100000352E+00 0. -1.
</event>
<event>
 5   0  0.6258718E-07  0.3334049E+04  0.7818609E-02  0.8154285E-01
        2   -1    0    0  501    0  0.00000000000E+00  0.00000000000E+00  0.25381360801E+04  0.25381360801E+04  0.25500000920E-02 0. -1.
       -2   -1    0    0    0  501  0.00000000000E+00  0.00000000000E+00 -0.10948865915E+04  0.10948865915E+04  0.25500000920E-02 0.  1.
    10030    2    1    2    0    0  0.00000000000E+00  0.00000000000E+00  0.14432494887E+04  0.36330226716E+04  0.33340492866E+04 0.  0.
        5    1    3    3  502    0  0.11569205067E+04 -0.11992110981E+04  0.66850104840E+03  0.17954074909E+04  0.46999998093E+01 0.  1.
       -5    1    3    3    0  502 -0.11569205067E+04  0.11992110981E+04  0.77474844026E+03  0.18376151807E+04  0.46999998093E+01 0. -1.
</event>
<event>
 5   0  0.6424183E-07  0.3338323E+04  0.7818609E-02  0.8153212E-01
        2   -1    0    0  501    0  0.00000000000E+00  0.00000000000E+00  0.22338779622E+04  0.22338779622E+04  0.25500000920E-02 0.  1.
       -2   -1    0    0    0  501  0.00000000000E+00  0.00000000000E+00 -0.12472036864E+04  0.12472036864E+04  0.25500000920E-02 0. -1.
    10030    2    1    2    0    0  0.00000000000E+00  0.00000000000E+00  0.98667427586E+03  0.34810816486E+04  0.33383234291E+04 0.  0.
        2    1    3    3  502    0  0.25154830902E+03  0.12390772270E+04  0.16296679557E+04  0.20626212866E+04  0.25500000920E-02 0.  1.
       -2    1    3    3    0  502 -0.25154830902E+03 -0.12390772270E+04 -0.64299367985E+03  0.14184603620E+04  0.25500000920E-02 0. -1.
</event>
<event>
 5   0  0.2080828E-07  0.3274787E+04  0.7818609E-02  0.8169341E-01
        1   -1    0    0  501    0  0.00000000000E+00  0.00000000000E+00  0.20777207046E+04  0.20777207046E+04  0.50400001928E-02 0.  1.
       -1   -1    0    0    0  501  0.00000000000E+00  0.00000000000E+00 -0.12903840692E+04  0.12903840692E+04  0.50400001928E-02 0. -1.
    10030    2    1    2    0    0  0.00000000000E+00  0.00000000000E+00  0.78733663539E+03  0.33681047737E+04  0.32747871365E+04 0.  0.
        1    1    3    3  502    0  0.47226278935E+03 -0.71047592304E+03 -0.10437440591E+04  0.13480392577E+04  0.50400001928E-02 0. -1.
       -1    1    3    3    0  502 -0.47226278935E+03  0.71047592304E+03  0.18310806945E+04  0.20200655160E+04  0.50400001928E-02 0.  1.
</event>
<event>
 5   0  0.6258718E-07  0.3291100E+04  0.7818609E-02  0.8165164E-01
        2   -1    0    0  501    0  0.00000000000E+00  0.00000000000E+00  0.19448176981E+04  0.19448176981E+04  0.25500000920E-02 0. -1.
       -2   -1    0    0    0  501  0.00000000000E+00  0.00000000000E+00 -0.13923334364E+04  0.13923334364E+04  0.25500000920E-02 0.  1.
    10030    2    1    2    0    0  0.00000000000E+00  0.00000000000E+00  0.55248426172E+03  0.33371511345E+04  0.32910999430E+04 0.  0.
        5    1    3    3  502    0 -0.24648337089E+03  0.74871151080E+03  0.17409227029E+04  0.19110617274E+04  0.46999998093E+01 0. -1.
       -5    1    3    3    0  502  0.24648337089E+03 -0.74871151080E+03 -0.11884384412E+04  0.14260894071E+04  0.46999998093E+01 0.  1.
</event>
<event>
 5   0  0.2057130E-07  0.3299176E+04  0.7818609E-02  0.8163105E-01
       -1   -1    0    0    0  501  0.00000000000E+00  0.00000000000E+00  0.19985294624E+04  0.19985294624E+04  0.50400001928E-02 0. -1.
        1   -1    0    0  501    0  0.00000000000E+00  0.00000000000E+00 -0.13615715911E+04  0.13615715911E+04  0.50400001928E-02 0.  1.
    10030    2    1    2    0    0  0.00000000000E+00  0.00000000000E+00  0.63695787133E+03  0.33601010536E+04  0.32991762245E+04 0.  0.
        2    1    3    3  502    0  0.11869607228E+04  0.28919561049E+02  0.14848028762E+04  0.19011448340E+04  0.25500000920E-02 0. -1.
       -2    1    3    3    0  502 -0.11869607228E+04 -0.28919561049E+02 -0.84784500491E+03  0.14589562196E+04  0.25500000920E-02 0.  1.
</event>
<event>
 5   0  0.6351753E-07  0.3246819E+04  0.7818609E-02  0.8176561E-01
        2   -1    0    0  501    0  0.00000000000E+00  0.00000000000E+00  0.13186685190E+04  0.13186685190E+04  0.25500000920E-02 0. -1.
       -2   -1    0    0    0  501  0.00000000000E+00  0.00000000000E+00 -0.19985758112E+04  0.19985758112E+04  0.25500000920E-02 0.  1.
    10030    2    1    2    0    0  0.00000000000E+00  0.00000000000E+00 -0.67990729216E+03  0.33172443302E+04  0.32468193699E+04 0.  0.
        3    1    3    3  502    0 -0.67266854805E+03 -0.35962877490E+03  0.11241837193E+04  0.13585304105E+04  0.10100000352E+00 0. -1.
       -3    1    3    3    0  502  0.67266854805E+03  0.35962877490E+03 -0.18040910115E+04  0.19587139197E+04  0.10100000352E+00 0.  1.
</event>
<event>
 5   0  0.2057130E-07  0.3298477E+04  0.7818609E-02  0.8163283E-01
       -1   -1    0    0    0  501  0.00000000000E+00  0.00000000000E+00  0.15197927075E+04  0.15197927075E+04  0.50400001928E-02 0. -1.
        1   -1    0    0  501    0  0.00000000000E+00  0.00000000000E+00 -0.17897101161E+04  0.17897101161E+04  0.50400001928E-02 0.  1.
    10030    2    1    2    0    0  0.00000000000E+00  0.00000000000E+00 -0.26991740863E+03  0.33095028236E+04  0.32984774566E+04 0.  0.
        2    1    3    3  502    0 -0.13599307185E+04  0.15444166882E+03 -0.10582108447E+04  0.17300502825E+04  0.25500000920E-02 0.  1.
       -2    1    3    3    0  502  0.13599307185E+04 -0.15444166882E+03  0.78829343608E+03  0.15794525411E+04  0.25500000920E-02 0. -1.
</event>
<event>
 5   0  0.2087665E-07  0.3266576E+04  0.7818609E-02  0.8171453E-01
        1   -1    0    0  501    0  0.00000000000E+00  0.00000000000E+00  0.11237257439E+04  0.11237257439E+04  0.50400001928E-02 0. -1.
       -1   -1    0    0    0  501  0.00000000000E+00  0.00000000000E+00 -0.23739154049E+04  0.23739154049E+04  0.50400001928E-02 0.  1.
    10030    2    1    2    0    0  0.00000000000E+00  0.00000000000E+00 -0.12501896610E+04  0.34976411488E+04  0.32665761000E+04 0.  0.
        5    1    3    3  502    0  0.14426601263E+03 -0.57904348973E+03  0.10028128331E+04  0.11669446061E+04  0.46999998093E+01 0. -1.
       -5    1    3    3    0  502 -0.14426601263E+03  0.57904348973E+03 -0.22530024942E+04  0.23306965427E+04  0.46999998093E+01 0.  1.
</event>
<event>
 5   0  0.6424183E-07  0.3295440E+04  0.7818609E-02  0.8164057E-01
        2   -1    0    0  501    0  0.00000000000E+00  0.00000000000E+00  0.21692355723E+04  0.21692355723E+04  0.25500000920E-02 0.  1.
       -2   -1    0    0    0  501  0.00000000000E+00  0.00000000000E+00 -0.12515842022E+04  0.12515842022E+04  0.25500000920E-02 0. -1.
    10030    2    1    2    0    0  0.00000000000E+00  0.00000000000E+00  0.91765137012E+03  0.34208197744E+04  0.32954398632E+04 0.  0.
        2    1    3    3  502    0  0.15984796253E+04 -0.19711031802E+03  0.81989786143E+03  0.18072692365E+04  0.25500000920E-02 0.  1.
       -2    1    3    3    0  502 -0.15984796253E+04  0.19711031802E+03  0.97753508693E+02  0.16135505379E+04  0.25500000920E-02 0. -1.
</event>
<event>
 5   0  0.6377741E-07  0.3300639E+04  0.7818609E-02  0.8162733E-01
       -2   -1    0    0    0  501  0.00000000000E+00  0.00000000000E+00  0.14904684197E+04  0.14904684197E+04  0.25500000920E-02 0.  1.
        2   -1    0    0  501    0  0.00000000000E+00  0.00000000000E+00 -0.18273141059E+04  0.18273141059E+04  0.25500000920E-02 0. -1.
    10030    2    1    2    0    0  0.00000000000E+00  0.00000000000E+00 -0.33684568619E+03  0.33177825256E+04  0.33006387065E+04 0.  0.
        1    1    3    3  502    0  0.52702667611E+03  0.30472078898E+03 -0.17103204930E+04  0.18154360538E+04  0.50400001928E-02 0. -1.
       -1    1    3    3    0  502 -0.52702667611E+03 -0.30472078898E+03  0.13734748068E+04  0.15023464719E+04  0.50400001928E-02 0.  1.
</event>
<event>
 5   0  0.2080770E-07  0.3309712E+04  0.7818609E-02  0.8160428E-01
       -1   -1    0    0    0  501  0.00000000000E+00  0.00000000000E+00  0.14344113497E+04  0.14344113497E+04  0.50400001928E-02 0. -1.
        1   -1    0    0  501    0  0.00000000000E+00  0.00000000000E+00 -0.19091796051E+04  0.19091796051E+04  0.50400001928E-02 0.  1.
    10030    2    1    2    0    0  0.00000000000E+00  0.00000000000E+00 -0.47476825537E+03  0.33435909548E+04  0.33097123102E+04 0.  0.
        4    1    3    3  502    0 -0.99958483021E+03  0.94529167277E+03 -0.11664724890E+04  0.18037200059E+04  0.12699999809E+01 0.  1.
       -4    1    3    3    0  502  0.99958483021E+03 -0.94529167277E+03  0.69170423359E+03  0.15398709488E+04  0.12699999809E+01 0. -1.
</event>
<event>
 5   0  0.2037333E-07  0.3301870E+04  0.7818609E-02  0.8162420E-01
        1   -1    0    0  501    0  0.00000000000E+00  0.00000000000E+00  0.19066877967E+04  0.19066877967E+04  0.50400001928E-02 0.  1.
       -1   -1    0    0    0  501  0.00000000000E+00  0.00000000000E+00 -0.14294871479E+04  0.14294871479E+04  0.50400001928E-02 0. -1.
    10030    2    1    2    0    0  0.00000000000E+00  0.00000000000E+00  0.47720064877E+03  0.33361749446E+04  0.33018695919E+04 0.  0.
        3    1    3    3  502    0 -0.59522491349E+03  0.27359661190E+03 -0.12925444317E+04  0.14490751954E+04  0.10100000352E+00 0. -1.
       -3    1    3    3    0  502  0.59522491349E+03 -0.27359661190E+03  0.17697450805E+04  0.18870997493E+04  0.10100000352E+00 0.  1.
</event>
<event>
 5   0  0.6424183E-07  0.3298346E+04  0.7818609E-02  0.8163316E-01
       -2   -1    0    0    0  501  0.00000000000E+00  0.00000000000E+00  0.89326654475E+03  0.89326654475E+03  0.25500000920E-02 0. -1.
        2   -1    0    0  501    0  0.00000000000E+00  0.00000000000E+00 -0.30447484966E+04  0.30447484966E+04  0.25500000920E-02 0.  1.
    10030    2    1    2    0    0  0.00000000000E+00  0.00000000000E+00 -0.21514819518E+04  0.39380150413E+04  0.32983462336E+04 0.  0.
        2    1    3    3  502    0 -0.10391239474E+04 -0.12805448745E+04 -0.10589316701E+04  0.19598239808E+04  0.25500000920E-02 0. -1.
       -2    1    3    3    0  502  0.10391239474E+04  0.12805448745E+04 -0.10925502817E+04  0.19781910605E+04  0.25500000920E-02 0.  1.
</event>
<event>
 5   0  0.2037333E-07  0.3302955E+04  0.7818609E-02  0.8162144E-01
        1   -1    0    0  501    0  0.00000000000E+00  0.00000000000E+00  0.16224438979E+04  0.16224438979E+04  0.50400001928E-02 0.  1.
       -1   -1    0    0    0  501  0.00000000000E+00  0.00000000000E+00 -0.16810306051E+04  0.16810306051E+04  0.50400001928E-02 0. -1.
    10030    2    1    2    0    0  0.00000000000E+00  0.00000000000E+00 -0.58586707249E+02  0.33034745030E+04  0.33029549482E+04 0.  0.
        3    1    3    3  502    0  0.15878178150E+04 -0.17782103878E+03 -0.44720127757E+03  0.16591487963E+04  0.10100000352E+00 0. -1.
       -3    1    3    3    0  502 -0.15878178150E+04  0.17782103878E+03  0.38861457033E+03  0.16443257067E+04  0.10100000352E+00 0.  1.
</event>
<event>
 5   0  0.2080828E-07  0.3300067E+04  0.7818609E-02  0.8162878E-01
       -1   -1    0    0    0  501  0.00000000000E+00  0.00000000000E+00  0.13511802666E+04  0.13511802666E+04  0.50400001928E-02 0. -1.
        1   -1    0    0  501    0  0.00000000000E+00  0.00000000000E+00 -0.20149871069E+04  0.20149871069E+04  0.50400001928E-02 0.  1.
    10030    2    1    2    0    0  0.00000000000E+00  0.00000000000E+00 -0.66380684023E+03  0.33661673735E+04  0.33000671607E+04 0.  0.
        1    1    3    3  502    0  0.15701167803E+04 -0.31955062679E+03  0.69982571069E+02  0.16038319324E+04  0.50400001928E-02 0. -1.
       -1    1    3    3    0  502 -0.15701167803E+04  0.31955062679E+03 -0.73378941130E+03  0.17623354411E+04  0.50400001928E-02 0.  1.
</event>
<event>
 5   0  0.2080770E-07  0.3300196E+04  0.7818609E-02  0.8162846E-01
        1   -1    0    0  501    0  0.00000000000E+00  0.00000000000E+00  0.22690118825E+04  0.22690118825E+04  0.50400001928E-02 0.  1.
       -1   -1    0    0    0  501  0.00000000000E+00  0.00000000000E+00 -0.12000038650E+04  0.12000038650E+04  0.50400001928E-02 0. -1.
    10030    2    1    2    0    0  0.00000000000E+00  0.00000000000E+00  0.10690080176E+04  0.34690157475E+04  0.33001957692E+04 0.  0.
        4    1    3    3  502    0  0.15856124081E+04 -0.45672703189E+03  0.54230845232E+03  0.17369128824E+04  0.12699999809E+01 0.  1.
       -4    1    3    3    0  502 -0.15856124081E+04  0.45672703189E+03  0.52669956525E+03  0.17321028651E+04  0.12699999809E+01 0. -1.
</event>
<event>
 5   0  0.6426079E-07  0.3190736E+04  0.7818609E-02  0.8191268E-01
       -2   -1    0    0    0  501  0.00000000000E+00  0.00000000000E+00  0.14568571393E+04  0.14568571393E+04  0.25500000920E-02 0.  1.
        2   -1    0    0  501    0  0.00000000000E+00  0.00000000000E+00 -0.17470474644E+04  0.17470474644E+04  0.25500000920E-02 0. -1.
    10030    2    1    2    0    0  0.00000000000E+00  0.00000000000E+00 -0.29019032512E+03  0.32039046038E+04  0.31907356965E+04 0.  0.
        4    1    3    3  502    0  0.80063942786E+02  0.87536834345E+03  0.11917587406E+04  0.14808681509E+04  0.12699999809E+01 0.  1.
       -4    1    3    3    0  502 -0.80063942786E+02 -0.87536834345E+03 -0.14819490657E+04  0.17230364529E+04  0.12699999809E+01 0. -1.
</event>
<event>
 5   0  0.2057130E-07  0.3295048E+04  0.7818609E-02  0.8164156E-01
       -1   -1    0    0    0  501  0.00000000000E+00  0.00000000000E+00  0.10970206385E+04  0.10970206385E+04  0.50400001928E-02 0.  1.
        1   -1    0    0  501    0  0.00000000000E+00  0.00000000000E+00 -0.24742799171E+04  0.24742799172E+04  0.50400001928E-02 0. -1.
    10030    2    1    2    0    0  0.00000000000E+00  0.00000000000E+00 -0.13772592786E+04  0.35713005557E+04  0.32950484880E+04 0.  0.
        2    1    3    3  502    0 -0.50443904882E+03 -0.13017697991E+04 -0.16367701918E+04  0.21512972888E+04  0.25500000920E-02 0. -1.
       -2    1    3    3    0  502  0.50443904882E+03  0.13017697991E+04  0.25951091319E+03  0.14200032669E+04  0.25500000920E-02 0.  1.
</event>
<event>
 5   0  0.6426079E-07  0.3301938E+04  0.7818609E-02  0.8162402E-01
        2   -1    0    0  501    0  0.00000000000E+00  0.00000000000E+00  0.22654515361E+04  0.22654515361E+04  0.25500000920E-02 0.  1.
       -2   -1    0    0    0  501  0.00000000000E+00  0.00000000000E+00 -0.12031590850E+04  0.12031590850E+04  0.25500000920E-02 0. -1.
    10030    2    1    2    0    0  0.00000000000E+00  0.00000000000E+00  0.10622924512E+04  0.34686106211E+04  0.33019379747E+04 0.  0.
        4    1    3    3  502    0  0.11914304261E+04 -0.47670345327E+03  0.16223005031E+04  0.20684808865E+04  0.12699999809E+01 0.  1.
       -4    1    3    3    0  502 -0.11914304261E+04  0.47670345327E+03 -0.56000805191E+03  0.14001297346E+04  0.12699999809E+01 0. -1.
</event>
<event>
 5   0  0.6377741E-07  0.3290437E+04  0.7818609E-02  0.8165333E-01
       -2   -1    0    0    0  501  0.00000000000E+00  0.00000000000E+00  0.21823635579E+04  0.21823635579E+04  0.25500000920E-02 0.  1.
        2   -1    0    0  501    0  0.00000000000E+00  0.00000000000E+00 -0.12402807741E+04  0.12402807741E+04  0.25500000920E-02 0. -1.
    10030    2    1    2    0    0  0.00000000000E+00  0.00000000000E+00  0.94208278383E+03  0.34226443320E+04  0.32904367874E+04 0.  0.
        1    1    3    3  502    0 -0.27939191865E+03  0.88728091892E+03  0.18825522056E+04  0.20998404892E+04  0.50400001928E-02 0.  1.
       -1    1    3    3    0  502  0.27939191865E+03 -0.88728091892E+03 -0.94046942178E+03  0.13228038428E+04  0.50400001928E-02 0. -1.
</event>
<event>
 5   0  0.2057130E-07  0.3287379E+04  0.7818609E-02  0.8166114E-01
        1   -1    0    0  501    0  0.00000000000E+00  0.00000000000E+00  0.17457717261E+04  0.17457717261E+04  0.50400001928E-02 0. -1.
       -1   -1    0    0    0  501  0.00000000000E+00  0.00000000000E+00 -0.15475763951E+04  0.15475763951E+04  0.50400001928E-02 0.  1.
    10030    2    1    2    0    0  0.00000000000E+00  0.00000000000E+00  0.19819533096E+03  0.32933481212E+04  0.32873789648E+04 0.  0.
        2    1    3    3  502    0  0.70826374819E+03 -0.72071814429E+03 -0.11996524376E+04  0.15685146323E+04  0.25500000920E-02 0.  1.
       -2    1    3    3    0  502 -0.70826374819E+03  0.72071814429E+03  0.13978477686E+04  0.17248334890E+04  0.25500000920E-02 0. -1.
</event>
<event>
 5   0  0.6351753E-07  0.3312073E+04  0.7818609E-02  0.8159830E-01
        2   -1    0    0  501    0  0.00000000000E+00  0.00000000000E+00  0.17835839789E+04  0.17835839789E+04  0.25500000920E-02 0. -1.
       -2   -1    0    0    0  501  0.00000000000E+00  0.00000000000E+00 -0.15376098976E+04  0.15376098976E+04  0.25500000920E-02 0.  1.
    10030    2    1    2    0    0  0.00000000000E+00  0.00000000000E+00  0.24597408128E+03  0.33211938764E+04  0.33120726919E+04 0.  0.
        3    1    3    3  502    0 -0.26731348269E+03 -0.12127732192E+04  0.12215317587E+04  0.17419572977E+04  0.10100000352E+00 0. -1.
       -3    1    3    3    0  502  0.26731348269E+03  0.12127732192E+04 -0.97555767747E+03  0.15792365787E+04  0.10100000352E+00 0.  1.
</event>
<event>
 5   0  0.6426079E-07  0.3303374E+04  0.7818609E-02  0.8162037E-01
        2   -1    0    0  501    0  0.00000000000E+00  0.00000000000E+00  0.19246313183E+04  0.19246313183E+04  0.25500000920E-02 0. -1.
       -2   -1    0    0    0  501  0.00000000000E+00  0.00000000000E+00 -0.14174505811E+04  0.14174505811E+04  0.25500000920E-02 0.  1.
    10030    2    1    2    0    0  0.00000000000E+00  0.00000000000E+00  0.50718073721E+03  0.33420818994E+04  0.33033738999E+04 0.  0.
        4    1    3    3  502    0 -0.11904138888E+04  0.51730419807E+03  0.12870189414E+04  0.18278698609E+04  0.12699999809E+01 0. -1.
       -4    1    3    3    0  502  0.11904138888E+04 -0.51730419807E+03 -0.77983820422E+03  0.15142120385E+04  0.12699999809E+01 0.  1.
</event>
<event>
 5   0  0.2037333E-07  0.3300490E+04  0.7818609E-02  0.8162771E-01
        1   -1    0    0  501    0  0.00000000000E+00  0.00000000000E+00  0.16498133149E+04  0.16498133149E+04  0.50400001928E-02 0. -1.
       -1   -1    0    0    0  501  0.00000000000E+00  0.00000000000E+00 -0.16506763323E+04  0.16506763323E+04  0.50400001928E-02 0.  1.
    10030    2    1    2    0    0  0.00000000000E+00  0.00000000000E+00 -0.86301739500E+00  0.33004896472E+04  0.33004895344E+04 0.  0.
        3    1    3    3  502    0 -0.15036017822E+04 -0.43225888888E+03  0.52458442814E+03  0.16501075416E+04  0.10100000352E+00 0. -1.
       -3    1    3    3    0  502  0.15036017822E+04  0.43225888888E+03 -0.52544744554E+03  0.16503821056E+04  0.10100000352E+00 0.  1.
</event>
<event>
 5   0  0.2057130E-07  0.3287689E+04  0.7818609E-02  0.8166035E-01
       -1   -1    0    0    0  501  0.00000000000E+00  0.00000000000E+00  0.15408946221E+04  0.15408946221E+04  0.50400001928E-02 0.  1.
        1   -1    0    0  501    0  0.00000000000E+00  0.00000000000E+00 -0.17536723755E+04  0.17536723755E+04  0.50400001928E-02 0. -1.
    10030    2    1    2    0    0  0.00000000000E+00  0.00000000000E+00 -0.21277775336E+03  0.32945669976E+04  0.32876887519E+04 0.  0.
        2    1    3    3  502    0  0.35362725149E+03 -0.45459895029E+03 -0.16492566834E+04  0.17469287468E+04  0.25500000920E-02 0. -1.
       -2    1    3    3    0  502 -0.35362725149E+03  0.45459895029E+03  0.14364789301E+04  0.15476382507E+04  0.25500000920E-02 0.  1.
</event>
<event>
 5   0  0.2087665E-07  0.3300972E+04  0.7818609E-02  0.8162648E-01
        1   -1    0    0  501    0  0.00000000000E+00  0.00000000000E+00  0.25789601713E+04  0.25789601713E+04  0.50400001928E-02 0. -1.
       -1   -1    0    0    0  501  0.00000000000E+00  0.00000000000E+00 -0.10562801989E+04  0.10562801989E+04  0.50400001928E-02 0.  1.
    10030    2    1    2    0    0  0.00000000000E+00  0.00000000000E+00  0.15226799723E+04  0.36352403702E+04  0.33009723190E+04 0.  0.
        5    1    3    3  502    0  0.12157304940E+04 -0.36569826936E+03  0.19228188707E+04  0.23041246403E+04  0.46999998093E+01 0. -1.
       -5    1    3    3    0  502 -0.12157304940E+04  0.36569826936E+03 -0.40013889840E+03  0.13311157299E+04  0.46999998093E+01 0.  1.
</event>
<event>
 5   0  0.6426079E-07  0.3259086E+04  0.7818609E-02  0.8173385E-01
        2   -1    0    0  501    0  0.00000000000E+00  0.00000000000E+00  0.32983319612E+04  0.32983319612E+04  0.25500000920E-02 0.  1.
       -2   -1    0    0    0  501  0.00000000000E+00  0.00000000000E+00 -0.80507658244E+03  0.80507658245E+03  0.25500000920E-02 0. -1.
    10030    2    1    2    0    0  0.00000000000E+00  0.00000000000E+00  0.24932553788E+04  0.41034085437E+04  0.32590856528E+04 0.  0.
        4    1    3    3  502    0 -0.13186185762E+04 -0.12180281639E+03  0.50966111859E+02  0.13252132028E+04  0.12699999809E+01 0. -1.
       -4    1    3    3    0  502  0.13186185762E+04  0.12180281639E+03  0.24422892669E+04  0.27781953408E+04  0.12699999809E+01 0.  1.
</event>
<event>
 5   0  0.2080828E-07  0.3292139E+04  0.7818609E-02  0.8164898E-01
        1   -1    0    0  501    0  0.00000000000E+00  0.00000000000E+00  0.27203836010E+04  0.27203836010E+04  0.50400001928E-02 0. -1.
       -1   -1    0    0    0  501  0.00000000000E+00  0.00000000000E+00 -0.99601588952E+03  0.99601588953E+03  0.50400001928E-02 0.  1.
    10030    2    1    2    0    0  0.00000000000E+00  0.00000000000E+00  0.17243677115E+04  0.37163994905E+04  0.32921392997E+04 0.  0.
        1    1    3    3  502    0  0.11341738763E+04 -0.68329693677E+03  0.19661132909E+04  0.23704106307E+04  0.50400001928E-02 0. -1.
       -1    1    3    3    0  502 -0.11341738763E+04  0.68329693677E+03 -0.24174557943E+03  0.13459888598E+04  0.50400001928E-02 0.  1.
</event>
<event>
 5   0  0.2087665E-07  0.3288959E+04  0.7818609E-02  0.8165710E-01
        1   -1    0    0  501    0  0.00000000000E+00  0.00000000000E+00  0.19798087249E+04  0.19798087249E+04  0.50400001928E-02 0. -1.
       -1   -1    0    0    0  501  0.00000000000E+00  0.00000000000E+00 -0.13659467459E+04  0.13659467459E+04  0.50400001928E-02 0.  1.
    10030    2    1    2    0    0  0.00000000000E+00  0.00000000000E+00  0.61386197907E+03  0.33457554708E+04  0.32889592793E+04 0.  0.
        5    1    3    3  502    0 -0.11567230405E+04 -0.98698298816E+03  0.94396185029E+03  0.17897568762E+04  0.46999998093E+01 0. -1.
       -5    1    3    3    0  502  0.11567230405E+04  0.98698298816E+03 -0.33009987123E+03  0.15559985946E+04  0.46999998093E+01 0.  1.
</event>
<event>
 5   0  0.2080828E-07  0.3300745E+04  0.7818609E-02  0.8162706E-01
        1   -1    0    0  501    0  0.00000000000E+00  0.00000000000E+00  0.14989860881E+04  0.14989860881E+04  0.50400001928E-02 0. -1.
       -1   -1    0    0    0  501  0.00000000000E+00  0.00000000000E+00 -0.18170482946E+04  0.18170482946E+04  0.50400001928E-02 0.  1.
    10030    2    1    2    0    0  0.00000000000E+00  0.00000000000E+00 -0.31806220641E+03  0.33160343827E+04  0.33007454401E+04 0.  0.
        1    1    3    3  502    0  0.20159839562E+03 -0.14702378480E+04 -0.88451790451E+03  0.17276033012E+04  0.50400001928E-02 0.  1.
       -1    1    3    3    0  502 -0.20159839562E+03  0.14702378480E+04  0.56645569810E+03  0.15884310815E+04  0.50400001928E-02 0. -1.
</event>
<event>
 5   0  0.2057130E-07  0.3300510E+04  0.7818609E-02  0.8162766E-01
       -1   -1    0    0    0  501  0.00000000000E+00  0.00000000000E+00  0.15547858507E+04  0.15547858507E+04  0.50400001928E-02 0. -1.
        1   -1    0    0  501    0  0.00000000000E+00  0.00000000000E+00 -0.17515863544E+04  0.17515863544E+04  0.50400001928E-02 0.  1.
    10030    2    1    2    0    0  0.00000000000E+00  0.00000000000E+00 -0.19680050375E+03  0.33063722051E+04  0.33005100697E+04 0.  0.
        2    1    3    3  502    0 -0.14220500566E+04  0.82286228434E+03  0.56836192933E+02  0.16439461838E+04  0.25500000920E-02 0.  1.
       -2    1    3    3    0  502  0.14220500566E+04 -0.82286228434E+03 -0.25363669668E+03  0.16624260213E+04  0.25500000920E-02 0. -1.
</event>
<event>
 5   0  0.6258718E-07  0.3296455E+04  0.7818609E-02  0.8163798E-01
       -2   -1    0    0    0  501  0.00000000000E+00  0.00000000000E+00  0.19947896238E+04  0.19947896238E+04  0.25500000920E-02 0.  1.
        2   -1    0    0  501    0  0.00000000000E+00  0.00000000000E+00 -0.13618746817E+04  0.13618746817E+04  0.25500000920E-02 0. -1.
    10030    2    1    2    0    0  0.00000000000E+00  0.00000000000E+00  0.63291494209E+03  0.33566643054E+04  0.32964547525E+04 0.  0.
        5    1    3    3  502    0 -0.68577370864E+03 -0.11681789854E+04 -0.63968391373E+03  0.14980471691E+04  0.46999998093E+01 0. -1.
       -5    1    3    3    0  502  0.68577370864E+03  0.11681789854E+04  0.12725988558E+04  0.18586171363E+04  0.46999998093E+01 0.  1.
</event>
<event>
 5   0  0.6426079E-07  0.3294198E+04  0.7818609E-02  0.8164373E-01
        2   -1    0    0  501    0  0.00000000000E+00  0.00000000000E+00  0.15602260118E+04  0.15602260118E+04  0.25500000920E-02 0.  1.
       -2   -1    0    0    0  501  0.00000000000E+00  0.00000000000E+00 -0.17388085392E+04  0.17388085392E+04  0.25500000920E-02 0. -1.
    10030    2    1    2    0    0  0.00000000000E+00  0.00000000000E+00 -0.17858252738E+03  0.32990345510E+04  0.32941975123E+04 0.  0.
        4    1    3    3  502    0  0.13162208699E+04  0.69686698109E+03 -0.79379540830E+03  0.16876533207E+04  0.12699999809E+01 0. -1.
       -4    1    3    3    0  502 -0.13162208699E+04 -0.69686698109E+03  0.61521288092E+03  0.16113812303E+04  0.12699999809E+01 0.  1.
</event>
<event>
 5   0  0.2087665E-07  0.3289479E+04  0.7818609E-02  0.8165578E-01
        1   -1    0    0  501    0  0.00000000000E+00  0.00000000000E+00  0.19801030008E+04  0.19801030008E+04  0.50400001928E-02 0.  1.
       -1   -1    0    0    0  501  0.00000000000E+00  0.00000000000E+00 -0.13661756909E+04  0.13661756909E+04  0.50400001928E-02 0. -1.
    10030    2    1    2    0    0  0.00000000000E+00  0.00000000000E+00  0.61392730987E+03  0.33462786917E+04  0.32894793419E+04 0.  0.
        5    1    3    3  502    0 -0.10180282068E+04 -0.11617809385E+04  0.88154402618E+03  0.17785551268E+04  0.46999998093E+01 0.  1.
       -5    1    3    3    0  502  0.10180282068E+04  0.11617809385E+04 -0.26761671632E+03  0.15677235649E+04  0.46999998093E+01 0. -1.
</event>
<event>
 5   0  0.2057130E-07  0.3340084E+04  0.7818609E-02  0.8152770E-01
        1   -1    0    0  501    0  0.00000000000E+00  0.00000000000E+00  0.87265014171E+03  0.87265014173E+03  0.50400001928E-02 0. -1.
       -1   -1    0    0    0  501  0.00000000000E+00  0.00000000000E+00 -0.31960582414E+04  0.31960582415E+04  0.50400001928E-02 0.  1.
    10030    2    1    2    0    0  0.00000000000E+00  0.00000000000E+00 -0.23234080997E+04  0.40687083832E+04  0.33400842369E+04 0.  0.
        2    1    3    3  502    0  0.76718160000E+03 -0.23199095901E+03  0.62305706205E+03  0.10151785631E+04  0.25500000920E-02 0. -1.
       -2    1    3    3    0  502 -0.76718160000E+03  0.23199095901E+03 -0.29464651618E+04  0.30535298201E+04  0.25500000920E-02 0.  1.
</event>
<event>
 5   0  0.6426079E-07  0.3298297E+04  0.7818609E-02  0.8163329E-01
       -2   -1    0    0    0  501  0.00000000000E+00  0.00000000000E+00  0.16747928285E+04  0.16747928285E+04  0.25500000920E-02 0. -1.
        2   -1    0    0  501    0  0.00000000000E+00  0.00000000000E+00 -0.16238968433E+04  0.16238968433E+04  0.25500000920E-02 0.  1.
    10030    2    1    2    0    0  0.00000000000E+00  0.00000000000E+00  0.50895985256E+02  0.32986896718E+04  0.32982970075E+04 0.  0.
        4    1    3    3  502    0  0.53276117077E+03 -0.97057583471E+03  0.12478198526E+04  0.16682049975E+04  0.12699999809E+01 0. -1.
       -4    1    3    3    0  502 -0.53276117077E+03  0.97057583471E+03 -0.11969238674E+04  0.16304846743E+04  0.12699999809E+01 0.  1.
</event>
<event>
 5   0  0.2080828E-07  0.3302642E+04  0.7818609E-02  0.8162224E-01
        1   -1    0    0  501    0  0.00000000000E+00  0.00000000000E+00  0.10039040332E+04  0.10039040332E+04  0.50400001928E-02 0. -1.
       -1   -1    0    0    0  501  0.00000000000E+00  0.00000000000E+00 -0.27162563962E+04  0.27162563962E+04  0.50400001928E-02 0.  1.
    10030    2    1    2    0    0  0.00000000000E+00  0.00000000000E+00 -0.17123523630E+04  0.37201604295E+04  0.33026418222E+04 0.  0.
        1    1    3    3  502    0 -0.14630008494E+04 -0.42107044599E+03 -0.13562947233E+03  0.15284198244E+04  0.50400001928E-02 0. -1.
       -1    1    3    3    0  502  0.14630008494E+04  0.42107044599E+03 -0.15767228907E+04  0.21917406051E+04  0.50400001928E-02 0.  1.
</event>
<event>
 5   0  0.6377741E-07  0.3283762E+04  0.7818609E-02  0.8167040E-01
       -2   -1    0    0    0  501  0.00000000000E+00  0.00000000000E+00  0.24036513453E+04  0.24036513453E+04  0.25500000920E-02 0. -1.
        2   -1    0    0  501    0  0.00000000000E+00  0.00000000000E+00 -0.11215322485E+04  0.11215322485E+04  0.25500000920E-02 0.  1.
    10030    2    1    2    0    0  0.00000000000E+00  0.00000000000E+00  0.12821190968E+04  0.35251835938E+04  0.32837615613E+04 0.  0.
        1    1    3    3  502    0  0.81531085170E+03  0.97940060615E+03 -0.47033963741E+03  0.13583728158E+04  0.50400001928E-02 0.  1.
       -1    1    3    3    0  502 -0.81531085170E+03 -0.97940060615E+03  0.17524587342E+04  0.21668107780E+04  0.50400001928E-02 0. -1.
</event>
<event>
 5   0  0.2080828E-07  0.3332810E+04  0.7818609E-02  0.8154597E-01
       -1   -1    0    0    0  501  0.00000000000E+00  0.00000000000E+00  0.96262072393E+03  0.96262072394E+03  0.50400001928E-02 0.  1.
        1   -1    0    0  501    0  0.00000000000E+00  0.00000000000E+00 -0.28847346970E+04  0.28847346970E+04  0.50400001928E-02 0. -1.
    10030    2    1    2    0    0  0.00000000000E+00  0.00000000000E+00 -0.19221139731E+04  0.38473554209E+04  0.33328098670E+04 0.  0.
        1    1    3    3  502    0  0.74711333688E+03  0.37869947394E+02  0.75789325924E+03  0.10649012459E+04  0.50400001928E-02 0.  1.
       -1    1    3    3    0  502 -0.74711333688E+03 -0.37869947394E+02 -0.26800072323E+04  0.27824541750E+04  0.50400001928E-02 0. -1.
</event>
<event>
 5   0  0.2080828E-07  0.3302678E+04  0.7818609E-02  0.8162214E-01
        1   -1    0    0  501    0  0.00000000000E+00  0.00000000000E+00  0.19497653952E+04  0.19497653952E+04  0.50400001928E-02 0. -1.
       -1   -1    0    0    0  501  0.00000000000E+00  0.00000000000E+00 -0.13985892122E+04  0.13985892122E+04  0.50400001928E-02 0.  1.
    10030    2    1    2    0    0  0.00000000000E+00  0.00000000000E+00  0.55117618294E+03  0.33483546074E+04  0.33026782151E+04 0.  0.
        1    1    3    3  502    0  0.11862173319E+04  0.99626098013E+03 -0.30440190666E+03  0.15787045385E+04  0.50400001928E-02 0.  1.
       -1    1    3    3    0  502 -0.11862173319E+04 -0.99626098013E+03  0.85557808960E+03  0.17696500689E+04  0.50400001928E-02 0. -1.
</event>
<event>
 5   0  0.6258718E-07  0.3291728E+04  0.7818609E-02  0.8165003E-01
        2   -1    0    0  501    0  0.00000000000E+00  0.00000000000E+00  0.16295795375E+04  0.16295795375E+04  0.25500000920E-02 0.  1.
       -2   -1    0    0    0  501  0.00000000000E+00  0.00000000000E+00 -0.16623108867E+04  0.16623108867E+04  0.25500000920E-02 0. -1.
    10030    2    1    2    0    0  0.00000000000E+00  0.00000000000E+00 -0.32731349192E+02  0.32918904242E+04  0.32917276958E+04 0.  0.
        5    1    3    3  502    0  0.22380173697E+03  0.13318723979E+04 -0.95708981314E+03  0.16552988558E+04  0.46999998093E+01 0. -1.
       -5    1    3    3    0  502 -0.22380173697E+03 -0.13318723979E+04  0.92435846395E+03  0.16365915683E+04  0.46999998093E+01 0.  1.
</event>
<event>
 5   0  0.1994250E-07  0.3363288E+04  0.7818609E-02  0.8146976E-01
        3   -1    0    0  501    0  0.00000000000E+00  0.00000000000E+00  0.22492484120E+04  0.22492484143E+04  0.10100000352E+00 0.  1.
       -3   -1    0    0    0  501  0.00000000000E+00  0.00000000000E+00 -0.12572765875E+04  0.12572765916E+04  0.10100000352E+00 0. -1.
    10030    2    1    2    0    0  0.00000000000E+00  0.00000000000E+00  0.99197182451E+03  0.35065250059E+04  0.33632884973E+04 0.  0.
        4    1    3    3  502    0 -0.15728479246E+03  0.93207611971E+03  0.19460538789E+04  0.21634767647E+04  0.12699999809E+01 0.  1.
       -4    1    3    3    0  502  0.15728479246E+03 -0.93207611971E+03 -0.95408205437E+03  0.13430482412E+04  0.12699999809E+01 0. -1.
</event>
<event>
 5   0  0.6351753E-07  0.3292817E+04  0.7818609E-02  0.8164725E-01
       -2   -1    0    0    0  501  0.00000000000E+00  0.00000000000E+00  0.17031583794E+04  0.17031583794E+04  0.25500000920E-02 0. -1.
        2   -1    0    0  501    0  0.00000000000E+00  0.00000000000E+00 -0.15915498717E+04  0.15915498717E+04  0.25500000920E-02 0.  1.
    10030    2    1    2    0    0  0.00000000000E+00  0.00000000000E+00  0.11160850767E+03  0.32947082510E+04  0.32928173348E+04 0.  0.
        3    1    3    3  502    0  0.12364787116E+04 -0.10744564487E+04 -0.10959410687E+03  0.16417512427E+04  0.10100000352E+00 0. -1.
       -3    1    3    3    0  502 -0.12364787116E+04  0.10744564487E+04  0.22120261454E+03  0.16529570083E+04  0.10100000352E+00 0.  1.
</event>
<event>
 5   0  0.6426079E-07  0.3366255E+04  0.7818609E-02  0.8146239E-01
        2   -1    0    0  501    0  0.00000000000E+00  0.00000000000E+00  0.13160481576E+04  0.13160481576E+04  0.25500000920E-02 0. -1.
       -2   -1    0    0    0  501  0.00000000000E+00  0.00000000000E+00 -0.21525941676E+04  0.21525941676E+04  0.25500000920E-02 0.  1.
    10030    2    1    2    0    0  0.00000000000E+00  0.00000000000E+00 -0.83654601003E+03  0.34686423252E+04  0.33662546477E+04 0.  0.
        4    1    3    3  502    0 -0.24587311322E+03  0.16081015596E+04  0.26685067101E+02  0.16270088874E+04  0.12699999809E+01 0.  1.
       -4    1    3    3    0  502  0.24587311322E+03 -0.16081015596E+04 -0.86323107713E+03  0.18416334378E+04  0.12699999809E+01 0. -1.
</event>
<event>
 5   0  0.6351753E-07  0.3307790E+04  0.7818609E-02  0.8160916E-01
       -2   -1    0    0    0  501  0.00000000000E+00  0.00000000000E+00  0.11148046965E+04  0.11148046965E+04  0.25500000920E-02 0.  1.
        2   -1    0    0  501    0  0.00000000000E+00  0.00000000000E+00 -0.24536752870E+04  0.24536752870E+04  0.25500000920E-02 0. -1.
    10030    2    1    2    0    0  0.00000000000E+00  0.00000000000E+00 -0.13388705905E+04  0.35684799835E+04  0.33077900379E+04 0.  0.
        3    1    3    3  502    0  0.26059951599E+03 -0.19920448684E+03 -0.24182321009E+04  0.24403772330E+04  0.10100000352E+00 0. -1.
       -3    1    3    3    0  502 -0.26059951599E+03  0.19920448684E+03  0.10793615104E+04  0.11281027505E+04  0.10100000352E+00 0.  1.
</event>
<event>
 5   0  0.6377741E-07  0.3289055E+04  0.7818609E-02  0.8165686E-01
       -2   -1    0    0    0  501  0.00000000000E+00  0.00000000000E+00  0.14894308443E+04  0.14894308443E+04  0.25500000920E-02 0. -1.
        2   -1    0    0  501    0  0.00000000000E+00  0.00000000000E+00 -0.18157744407E+04  0.18157744407E+04  0.25500000920E-02 0.  1.
    10030    2    1    2    0    0  0.00000000000E+00  0.00000000000E+00 -0.32634359636E+03  0.33052052850E+04  0.32890548541E+04 0.  0.
        1    1    3    3  502    0  0.83886429440E+03  0.11997794820E+04  0.58971086914E+03  0.15782658264E+04  0.50400001928E-02 0. -1.
       -1    1    3    3    0  502 -0.83886429440E+03 -0.11997794820E+04 -0.91605446550E+03  0.17269394586E+04  0.50400001928E-02 0.  1.
</event>
<event>
 5   0  0.2057130E-07  0.3303302E+04  0.7818609E-02  0.8162056E-01
       -1   -1    0    0    0  501  0.00000000000E+00  0.00000000000E+00  0.11077147931E+04  0.11077147931E+04  0.50400001928E-02 0.  1.
        1   -1    0    0  501    0  0.00000000000E+00  0.00000000000E+00 -0.24626831457E+04  0.24626831457E+04  0.50400001928E-02 0. -1.
    10030    2    1    2    0    0  0.00000000000E+00  0.00000000000E+00 -0.13549683526E+04  0.35703979388E+04  0.33033017127E+04 0.  0.
        2    1    3    3  502    0  0.85118401322E+03  0.20929226856E+02 -0.22071926425E+04  0.23657243327E+04  0.25500000920E-02 0. -1.
       -2    1    3    3    0  502 -0.85118401322E+03 -0.20929226856E+02  0.85222428999E+03  0.12046736061E+04  0.25500000920E-02 0.  1.
</event>
<event>
 5   0  0.2080770E-07  0.3281164E+04  0.7818609E-02  0.8167705E-01
        1   -1    0    0  501    0  0.00000000000E+00  0.00000000000E+00  0.29292182008E+04  0.29292182008E+04  0.50400001928E-02 0. -1.
       -1   -1    0    0    0  501  0.00000000000E+00  0.00000000000E+00 -0.91884898250E+03  0.91884898251E+03  0.50400001928E-02 0.  1.
    10030    2    1    2    0    0  0.00000000000E+00  0.00000000000E+00  0.20103692183E+04  0.38480671833E+04  0.32811639175E+04 0.  0.
        4    1    3    3  502    0 -0.10356950726E+04 -0.70081487666E+03  0.22505931819E+04  0.25746799915E+04  0.12699999809E+01 0. -1.
       -4    1    3    3    0  502  0.10356950726E+04  0.70081487666E+03 -0.24022396362E+03  0.12733871919E+04  0.12699999809E+01 0.  1.
</event>
<event>
 5   0  0.6258718E-07  0.3298671E+04  0.7818609E-02  0.8163234E-01
       -2   -1    0    0    0  501  0.00000000000E+00  0.00000000000E+00  0.15333695195E+04  0.15333695195E+04  0.25500000920E-02 0. -1.
        2   -1    0    0  501    0  0.00000000000E+00  0.00000000000E+00 -0.17740720793E+04  0.17740720793E+04  0.25500000920E-02 0.  1.
    10030    2    1    2    0    0  0.00000000000E+00  0.00000000000E+00 -0.24070255974E+03  0.33074415988E+04  0.32986712791E+04 0.  0.
        5    1    3    3  502    0  0.90705251995E+03 -0.39262224491E+03  0.12035340000E+04  0.15573736483E+04  0.46999998093E+01 0. -1.
       -5    1    3    3    0  502 -0.90705251995E+03  0.39262224491E+03 -0.14442365597E+04  0.17500679506E+04  0.46999998093E+01 0.  1.
</event>
<event>
 5   0  0.2080828E-07  0.3302195E+04  0.7818609E-02  0.8162337E-01
        1   -1    0    0  501    0  0.00000000000E+00  0.00000000000E+00  0.20524178324E+04  0.20524178324E+04  0.50400001928E-02 0. -1.
       -1   -1    0    0    0  501  0.00000000000E+00  0.00000000000E+00 -0.13282492352E+04  0.13282492352E+04  0.50400001928E-02 0.  1.
    10030    2    1    2    0    0  0.00000000000E+00  0.00000000000E+00  0.72416859724E+03  0.33806670676E+04  0.33021946740E+04 0.  0.
        1    1    3    3  502    0 -0.15163980047E+04 -0.14352756717E+03  0.10144550556E+04  0.18300770834E+04  0.50400001928E-02 0. -1.
       -1    1    3    3    0  502  0.15163980047E+04  0.14352756717E+03 -0.29028645834E+03  0.15505899842E+04  0.50400001928E-02 0.  1.
</event>
<event>
 5   0  0.2080770E-07  0.3302898E+04  0.7818609E-02  0.8162158E-01
       -1   -1    0    0    0  501  0.00000000000E+00  0.00000000000E+00  0.90884679608E+03  0.90884679609E+03  0.50400001928E-02 0.  1.
        1   -1    0    0  501    0  0.00000000000E+00  0.00000000000E+00 -0.30008179004E+04  0.30008179004E+04  0.50400001928E-02 0. -1.
    10030    2    1    2    0    0  0.00000000000E+00  0.00000000000E+00 -0.20919711043E+04  0.39096646965E+04  0.33028979605E+04 0.  0.
        4    1    3    3  502    0 -0.15897067049E+04 -0.17444493902E+03 -0.15335863297E+04  0.22157362406E+04  0.12699999809E+01 0. -1.
       -4    1    3    3    0  502  0.15897067049E+04  0.17444493902E+03 -0.55838477461E+03  0.16939284559E+04  0.12699999809E+01 0.  1.
</event>
<event>
 5   0  0.2087665E-07  0.3291470E+04  0.7818609E-02  0.8165069E-01
       -1   -1    0    0    0  501  0.00000000000E+00  0.00000000000E+00  0.27960871632E+04  0.27960871632E+04  0.50400001928E-02 0.  1.
        1   -1    0    0  501    0  0.00000000000E+00  0.00000000000E+00 -0.96865520228E+03  0.96865520229E+03  0.50400001928E-02 0. -1.
    10030    2    1    2    0    0  0.00000000000E+00  0.00000000000E+00  0.18274319610E+04  0.37647423655E+04  0.32914704171E+04 0.  0.
        5    1    3    3  502    0  0.67830743086E+03 -0.15357978607E+03 -0.79230515153E+03  0.10542567356E+04  0.46999998093E+01 0. -1.
       -5    1    3    3    0  502 -0.67830743086E+03  0.15357978607E+03  0.26197371125E+04  0.27104856299E+04  0.46999998093E+01 0.  1.
</event>
<event>
 5   0  0.6426079E-07  0.3313642E+04  0.7818609E-02  0.8159433E-01
       -2   -1    0    0    0  501  0.00000000000E+00  0.00000000000E+00  0.17239455017E+04  0.17239455017E+04  0.25500000920E-02 0. -1.
        2   -1    0    0  501    0  0.00000000000E+00  0.00000000000E+00 -0.15923102488E+04  0.15923102488E+04  0.25500000920E-02 0.  1.
    10030    2    1    2    0    0  0.00000000000E+00  0.00000000000E+00  0.13163525290E+03  0.33162557504E+04  0.33136421597E+04 0.  0.
        4    1    3    3  502    0 -0.14199256937E+04  0.17574810953E+03 -0.77029216307E+03  0.16249393844E+04  0.12699999809E+01 0. -1.
       -4    1    3    3    0  502  0.14199256937E+04 -0.17574810953E+03  0.90192741597E+03  0.16913163661E+04  0.12699999809E+01 0.  1.
</event>
<event>
 5   0  0.2080828E-07  0.3303756E+04  0.7818609E-02  0.8161940E-01
       -1   -1    0    0    0  501  0.00000000000E+00  0.00000000000E+00  0.15433679632E+04  0.15433679632E+04  0.50400001928E-02 0.  1.
        1   -1    0    0  501    0  0.00000000000E+00  0.00000000000E+00 -0.17680174951E+04  0.17680174951E+04  0.50400001928E-02 0. -1.
    10030    2    1    2    0    0  0.00000000000E+00  0.00000000000E+00 -0.22464953195E+03  0.33113854583E+04  0.33037563835E+04 0.  0.
        1    1    3    3  502    0 -0.30556126916E+03 -0.14762913234E+04 -0.78908599433E+03  0.17016052619E+04  0.50400001928E-02 0.  1.
       -1    1    3    3    0  502  0.30556126916E+03  0.14762913234E+04  0.56443646238E+03  0.16097801965E+04  0.50400001928E-02 0. -1.
</event>
<event>
 5   0  0.6424183E-07  0.3286275E+04  0.7818609E-02  0.8166397E-01
        2   -1    0    0  501    0  0.00000000000E+00  0.00000000000E+00  0.18674503762E+04  0.18674503762E+04  0.25500000920E-02 0. -1.
       -2   -1    0    0    0  501  0.00000000000E+00  0.00000000000E+00 -0.14457680725E+04  0.14457680725E+04  0.25500000920E-02 0.  1.
    10030    2    1    2    0    0  0.00000000000E+00  0.00000000000E+00  0.42168230375E+03  0.33132184487E+04  0.32862745661E+04 0.  0.
        2    1    3    3  502    0 -0.51829671978E+03 -0.15046527066E+04  0.62320421193E+03  0.17090917901E+04  0.25500000920E-02 0. -1.
       -2    1    3    3    0  502  0.51829671978E+03  0.15046527066E+04 -0.20152190818E+03  0.16041266586E+04  0.25500000920E-02 0.  1.
</event>
<event>
 5   0  0.6258718E-07  0.3296342E+04  0.7818609E-02  0.8163827E-01
       -2   -1    0    0    0  501  0.00000000000E+00  0.00000000000E+00  0.10664118682E+04  0.10664118683E+04  0.25500000920E-02 0. -1.
        2   -1    0    0  501    0  0.00000000000E+00  0.00000000000E+00 -0.25472967622E+04  0.25472967622E+04  0.25500000920E-02 0.  1.
    10030    2    1    2    0    0  0.00000000000E+00  0.00000000000E+00 -0.14808848940E+04  0.36137086305E+04  0.32963419114E+04 0.  0.
        5    1    3    3  502    0 -0.13616626904E+04  0.69755070909E+03 -0.68446880353E+02  0.15314729314E+04  0.46999998093E+01 0. -1.
       -5    1    3    3    0  502  0.13616626904E+04 -0.69755070909E+03 -0.14124380136E+04  0.20822356991E+04  0.46999998093E+01 0.  1.
</event>
<event>
 5   0  0.2037333E-07  0.3292774E+04  0.7818609E-02  0.8164736E-01
       -1   -1    0    0    0  501  0.00000000000E+00  0.00000000000E+00  0.13854858446E+04  0.13854858446E+04  0.50400001928E-02 0.  1.
        1   -1    0    0  501    0  0.00000000000E+00  0.00000000000E+00 -0.19564187351E+04  0.19564187351E+04  0.50400001928E-02 0. -1.
    10030    2    1    2    0    0  0.00000000000E+00  0.00000000000E+00 -0.57093289045E+03  0.33419045797E+04  0.32927741882E+04 0.  0.
        3    1    3    3  502    0 -0.11589770038E+04  0.23268096205E+03 -0.14485240515E+04  0.18696497168E+04  0.10100000352E+00 0. -1.
       -3    1    3    3    0  502  0.11589770038E+04 -0.23268096205E+03  0.87759116106E+03  0.14722548630E+04  0.10100000352E+00 0.  1.
</event>
<event>
 5   0  0.2087665E-07  0.3361031E+04  0.7818609E-02  0.8147537E-01
        1   -1    0    0  501    0  0.00000000000E+00  0.00000000000E+00  0.17896024650E+04  0.17896024650E+04  0.50400001928E-02 0.  1.
       -1   -1    0    0    0  501  0.00000000000E+00  0.00000000000E+00 -0.15780777045E+04  0.15780777045E+04  0.50400001928E-02 0. -1.
    10030    2    1    2    0    0  0.00000000000E+00  0.00000000000E+00  0.21152476052E+03  0.33676801696E+04  0.33610306455E+04 0.  0.
        5    1    3    3  502    0 -0.80646510207E+03  0.10469176133E+04 -0.93440859615E+03  0.16185067082E+04  0.46999998093E+01 0. -1.
       -5    1    3    3    0  502  0.80646510207E+03 -0.10469176133E+04  0.11459333567E+04  0.17491734614E+04  0.46999998093E+01 0.  1.
</event>
<event>
 5   0  0.6424183E-07  0.3275564E+04  0.7818609E-02  0.8169141E-01
       -2   -1    0    0    0  501  0.00000000000E+00  0.00000000000E+00  0.16580507949E+04  0.16580507949E+04  0.25500000920E-02 0.  1.
        2   -1    0    0  501    0  0.00000000000E+00  0.00000000000E+00 -0.16177613907E+04  0.16177613907E+04  0.25500000920E-02 0. -1.
    10030    2    1    2    0    0  0.00000000000E+00  0.00000000000E+00  0.40289404266E+02  0.32758121856E+04  0.32755644153E+04 0.  0.
        2    1    3    3  502    0 -0.99974810545E+03  0.11062449632E+04  0.69773293793E+03  0.16462397898E+04  0.25500000920E-02 0.  1.
       -2    1    3    3    0  502  0.99974810545E+03 -0.11062449632E+04 -0.65744353366E+03  0.16295723957E+04  0.25500000920E-02 0. -1.
</event>
<event>
 5   0  0.2080770E-07  0.3298034E+04  0.7818609E-02  0.8163396E-01
       -1   -1    0    0    0  501  0.00000000000E+00  0.00000000000E+00  0.11015316163E+04  0.11015316164E+04  0.50400001928E-02 0.  1.
        1   -1    0    0  501    0  0.00000000000E+00  0.00000000000E+00 -0.24686141817E+04  0.24686141817E+04  0.50400001928E-02 0. -1.
    10030    2    1    2    0    0  0.00000000000E+00  0.00000000000E+00 -0.13670825653E+04  0.35701457980E+04  0.32980336988E+04 0.  0.
        4    1    3    3  502    0 -0.12218065465E+04 -0.75032023199E+03 -0.15652787703E+04  0.21227083948E+04  0.12699999809E+01 0. -1.
       -4    1    3    3    0  502  0.12218065465E+04  0.75032023199E+03  0.19819620497E+03  0.14474374032E+04  0.12699999809E+01 0.  1.
</event>
<event>
 5   0  0.6351753E-07  0.3297276E+04  0.7818609E-02  0.8163589E-01
       -2   -1    0    0    0  501  0.00000000000E+00  0.00000000000E+00  0.10071970334E+04  0.10071970334E+04  0.25500000920E-02 0.  1.
        2   -1    0    0  501    0  0.00000000000E+00  0.00000000000E+00 -0.26985848468E+04  0.26985848468E+04  0.25500000920E-02 0. -1.
    10030    2    1    2    0    0  0.00000000000E+00  0.00000000000E+00 -0.16913878134E+04  0.37057818802E+04  0.32972756343E+04 0.  0.
        3    1    3    3  502    0 -0.13575560092E+04  0.62210784143E+03 -0.16308354006E+04  0.22112441291E+04  0.10100000352E+00 0.  1.
       -3    1    3    3    0  502  0.13575560092E+04 -0.62210784143E+03 -0.60552412780E+02  0.14945377511E+04  0.10100000352E+00 0. -1.
</event>
<event>
 5   0  0.6258718E-07  0.3296158E+04  0.7818609E-02  0.8163874E-01
       -2   -1    0    0    0  501  0.00000000000E+00  0.00000000000E+00  0.13775984589E+04  0.13775984589E+04  0.25500000920E-02 0. -1.
        2   -1    0    0  501    0  0.00000000000E+00  0.00000000000E+00 -0.19716666837E+04  0.19716666837E+04  0.25500000920E-02 0.  1.
    10030    2    1    2    0    0  0.00000000000E+00  0.00000000000E+00 -0.59406822477E+03  0.33492651425E+04  0.32961583608E+04 0.  0.
        5    1    3    3  502    0 -0.15313170200E+04  0.40452920699E+03 -0.75996997298E+03  0.17567447580E+04  0.46999998093E+01 0.  1.
       -5    1    3    3    0  502  0.15313170200E+04 -0.40452920699E+03  0.16590174820E+03  0.15925203845E+04  0.46999998093E+01 0. -1.
</event>
<event>
 5   0  0.6377741E-07  0.3297920E+04  0.7818609E-02  0.8163425E-01
        2   -1    0    0  501    0  0.00000000000E+00  0.00000000000E+00  0.21836722688E+04  0.21836722688E+04  0.25500000920E-02 0. -1.
       -2   -1    0    0    0  501  0.00000000000E+00  0.00000000000E+00 -0.12451816606E+04  0.12451816606E+04  0.25500000920E-02 0.  1.
    10030    2    1    2    0    0  0.00000000000E+00  0.00000000000E+00  0.93849060813E+03  0.34288539294E+04  0.32979197455E+04 0.  0.
        1    1    3    3  502    0  0.10460350850E+04 -0.12744322618E+04  0.44170452546E+03  0.17068889469E+04  0.50400001928E-02 0. -1.
       -1    1    3    3    0  502 -0.10460350850E+04  0.12744322618E+04  0.49678608267E+03  0.17219649825E+04  0.50400001928E-02 0.  1.
</event>
<event>
 5   0  0.2080828E-07  0.3198325E+04  0.7818609E-02  0.8189260E-01
        1   -1    0    0  501    0  0.00000000000E+00  0.00000000000E+00  0.18777317366E+04  0.18777317367E+04  0.50400001928E-02 0. -1.
       -1   -1    0    0    0  501  0.00000000000E+00  0.00000000000E+00 -0.13619205787E+04  0.13619205787E+04  0.50400001928E-02 0.  1.
    10030    2    1    2    0    0  0.00000000000E+00  0.00000000000E+00  0.51581115799E+03  0.32396523153E+04  0.31983254952E+04 0.  0.
        1    1    3    3  502    0 -0.14749719014E+04  0.32455392502E+03  0.79047893108E+03  0.17046214538E+04  0.50400001928E-02 0. -1.
       -1    1    3    3    0  502  0.14749719014E+04 -0.32455392502E+03 -0.27466777308E+03  0.15350308615E+04  0.50400001928E-02 0.  1.
</event>
<event>
 5   0  0.6377741E-07  0.3188824E+04  0.7818609E-02  0.8191775E-01
        2   -1    0    0  501    0  0.00000000000E+00  0.00000000000E+00  0.20633234138E+04  0.20633234138E+04  0.25500000920E-02 0.  1.
       -2   -1    0    0    0  501  0.00000000000E+00  0.00000000000E+00 -0.12320653532E+04  0.12320653532E+04  0.25500000920E-02 0. -1.
    10030    2    1    2    0    0  0.00000000000E+00  0.00000000000E+00  0.83125806063E+03  0.32953887670E+04  0.31888237898E+04 0.  0.
        1    1    3    3  502    0  0.13387173724E+03 -0.12656819707E+04  0.14080747821E+04  0.18980376933E+04  0.50400001928E-02 0.  1.
       -1    1    3    3    0  502 -0.13387173724E+03  0.12656819707E+04 -0.57681672151E+03  0.13973510737E+04  0.50400001928E-02 0. -1.
</event>
<event>
 5   0  0.2080828E-07  0.3298343E+04  0.7818609E-02  0.8163317E-01
        1   -1    0    0  501    0  0.00000000000E+00  0.00000000000E+00  0.29138238000E+04  0.29138238000E+04  0.50400001928E-02 0.  1.
       -1   -1    0    0    0  501  0.00000000000E+00  0.00000000000E+00 -0.93340116514E+03  0.93340116516E+03  0.50400001928E-02 0. -1.
    10030    2    1    2    0    0  0.00000000000E+00  0.00000000000E+00  0.19804226348E+04  0.38472249651E+04  0.32983429354E+04 0.  0.
        1    1    3    3  502    0  0.11746196304E+04 -0.27249501768E+03  0.23025054398E+04  0.25991375707E+04  0.50400001928E-02 0.  1.
       -1    1    3    3    0  502 -0.11746196304E+04  0.27249501768E+03 -0.32208280500E+03  0.12480873944E+04  0.50400001928E-02 0. -1.
</event>
<event>
 5   0  0.6426079E-07  0.3300248E+04  0.7818609E-02  0.8162832E-01
        2   -1    0    0  501    0  0.00000000000E+00  0.00000000000E+00  0.16675568929E+04  0.16675568929E+04  0.25500000920E-02 0. -1.
       -2   -1    0    0    0  501  0.00000000000E+00  0.00000000000E+00 -0.16328737710E+04  0.16328737710E+04  0.25500000920E-02 0.  1.
    10030    2    1    2    0    0  0.00000000000E+00  0.00000000000E+00  0.34683121927E+02  0.33004306640E+04  0.33002484223E+04 0.  0.
        4    1    3    3  502    0  0.55503544451E+03 -0.30780894640E+03  0.15406123342E+04  0.16662228750E+04  0.12699999809E+01 0. -1.
       -4    1    3    3    0  502 -0.55503544451E+03  0.30780894640E+03 -0.15059292123E+04  0.16342077889E+04  0.12699999809E+01 0.  1.
</event>
<event>
 5   0  0.2080828E-07  0.3304618E+04  0.7818609E-02  0.8161721E-01
        1   -1    0    0  501    0  0.00000000000E+00  0.00000000000E+00  0.25586257908E+04  0.25586257908E+04  0.50400001928E-02 0.  1.
       -1   -1    0    0    0  501  0.00000000000E+00  0.00000000000E+00 -0.10670277682E+04  0.10670277682E+04  0.50400001928E-02 0. -1.
    10030    2    1    2    0    0  0.00000000000E+00  0.00000000000E+00  0.14915980226E+04  0.36256535590E+04  0.33046178401E+04 0.  0.
        1    1    3    3  502    0  0.78364799757E+03  0.13691839317E+04  0.12848055830E+04  0.20345746998E+04  0.50400001928E-02 0. -1.
       -1    1    3    3    0  502 -0.78364799757E+03 -0.13691839317E+04  0.20679243957E+03  0.15910788592E+04  0.50400001928E-02 0.  1.
</event>
<event>
 5   0  0.6258718E-07  0.3488891E+04  0.7818609E-02  0.8116428E-01
       -2   -1    0    0    0  501  0.00000000000E+00  0.00000000000E+00  0.24635000467E+04  0.24635000467E+04  0.25500000920E-02 0. -1.
        2   -1    0    0  501    0  0.00000000000E+00  0.00000000000E+00 -0.12352707626E+04  0.12352707626E+04  0.25500000920E-02 0.  1.
    10030    2    1    2    0    0  0.00000000000E+00  0.00000000000E+00  0.12282292840E+04  0.36987708093E+04  0.34888907013E+04 0.  0.
        5    1    3    3  502    0  0.11240929665E+04 -0.12033584873E+04  0.38005253055E+01  0.16467219499E+04  0.46999998093E+01 0.  1.
       -5    1    3    3    0  502 -0.11240929665E+04  0.12033584873E+04  0.12244287587E+04  0.20520488594E+04  0.46999998093E+01 0. -1.
</event>
<event>
 5   0  0.6258718E-07  0.3303690E+04  0.7818609E-02  0.8161957E-01
        2   -1    0    0  501    0  0.00000000000E+00  0.00000000000E+00  0.17113273318E+04  0.17113273318E+04  0.25500000920E-02 0.  1.
       -2   -1    0    0    0  501  0.00000000000E+00  0.00000000000E+00 -0.15944299292E+04  0.15944299292E+04  0.25500000920E-02 0. -1.
    10030    2    1    2    0    0  0.00000000000E+00  0.00000000000E+00  0.11689740262E+03  0.33057572609E+04  0.33036897653E+04 0.  0.
        5    1    3    3  502    0 -0.15533124119E+03 -0.35332497745E+03 -0.15486707113E+04  0.15960480558E+04  0.46999998093E+01 0. -1.
       -5    1    3    3    0  502  0.15533124119E+03  0.35332497745E+03  0.16655681139E+04  0.17097092052E+04  0.46999998093E+01 0.  1.
</event>
<event>
 5   0  0.6424183E-07  0.3262740E+04  0.7818609E-02  0.8172441E-01
       -2   -1    0    0    0  501  0.00000000000E+00  0.00000000000E+00  0.14959273487E+04  0.14959273487E+04  0.25500000920E-02 0.  1.
        2   -1    0    0  501    0  0.00000000000E+00  0.00000000000E+00 -0.17790757960E+04  0.17790757960E+04  0.25500000920E-02 0. -1.
    10030    2    1    2    0    0  0.00000000000E+00  0.00000000000E+00 -0.28314844731E+03  0.32750031448E+04  0.32627400379E+04 0.  0.
        2    1    3    3  502    0 -0.54031021265E+03 -0.63958216919E+03 -0.15469679610E+04  0.17590083426E+04  0.25500000920E-02 0. -1.
       -2    1    3    3    0  502  0.54031021265E+03  0.63958216919E+03  0.12638195137E+04  0.15159948022E+04  0.25500000920E-02 0.  1.
</event>
<event>
 5   0  0.6424183E-07  0.3300132E+04  0.7818609E-02  0.8162862E-01
        2   -1    0    0  501    0  0.00000000000E+00  0.00000000000E+00  0.19405527919E+04  0.19405527919E+04  0.25500000920E-02 0.  1.
       -2   -1    0    0    0  501  0.00000000000E+00  0.00000000000E+00 -0.14030627087E+04  0.14030627087E+04  0.25500000920E-02 0. -1.
    10030    2    1    2    0    0  0.00000000000E+00  0.00000000000E+00  0.53749008321E+03  0.33436155006E+04  0.33001316680E+04 0.  0.
        2    1    3    3  502    0 -0.95176050021E+03  0.31725178975E+03 -0.10585626345E+04  0.14584414966E+04  0.25500000920E-02 0. -1.
       -2    1    3    3    0  502  0.95176050021E+03 -0.31725178975E+03  0.15960527177E+04  0.18851740040E+04  0.25500000920E-02 0.  1.
</event>
<event>
 5   0  0.6377741E-07  0.3289195E+04  0.7818609E-02  0.8165650E-01
        2   -1    0    0  501    0  0.00000000000E+00  0.00000000000E+00  0.17140151181E+04  0.17140151181E+04  0.25500000920E-02 0.  1.
       -2   -1    0    0    0  501  0.00000000000E+00  0.00000000000E+00 -0.15779908512E+04  0.15779908512E+04  0.25500000920E-02 0. -1.
    10030    2    1    2    0    0  0.00000000000E+00  0.00000000000E+00  0.13602426690E+03  0.32920059694E+04  0.32891945368E+04 0.  0.
        1    1    3    3  502    0  0.28793249617E+03 -0.86521155231E+03  0.14378324232E+04  0.17026033683E+04  0.50400001928E-02 0.  1.
       -1    1    3    3    0  502 -0.28793249617E+03  0.86521155231E+03 -0.13018081563E+04  0.15894026011E+04  0.50400001928E-02 0. -1.
</event>
<event>
 5   0  0.2087665E-07  0.3292349E+04  0.7818609E-02  0.8164845E-01
        1   -1    0    0  501    0  0.00000000000E+00  0.00000000000E+00  0.22250298827E+04  0.22250298827E+04  0.50400001928E-02 0. -1.
       -1   -1    0    0    0  501  0.00000000000E+00  0.00000000000E+00 -0.12179119314E+04  0.12179119315E+04  0.50400001928E-02 0.  1.
    10030    2    1    2    0    0  0.00000000000E+00  0.00000000000E+00  0.10071179512E+04  0.34429418141E+04  0.32923489742E+04 0.  0.
        5    1    3    3  502    0 -0.95347290273E+03  0.10731497419E+04  0.13460826312E+04  0.19679231400E+04  0.46999998093E+01 0. -1.
       -5    1    3    3    0  502  0.95347290273E+03 -0.10731497419E+04 -0.33896467999E+03  0.14750186742E+04  0.46999998093E+01 0.  1.
</event>
<event>
 5   0  0.2037333E-07  0.3303913E+04  0.7818609E-02  0.8161901E-01
        1   -1    0    0  501    0  0.00000000000E+00  0.00000000000E+00  0.20445431917E+04  0.20445431918E+04  0.50400001928E-02 0. -1.
       -1   -1    0    0    0  501  0.00000000000E+00  0.00000000000E+00 -0.13347528148E+04  0.13347528148E+04  0.50400001928E-02 0.  1.
    10030    2    1    2    0    0  0.00000000000E+00  0.00000000000E+00  0.70979037698E+03  0.33792960065E+04  0.33039126987E+04 0.  0.
        3    1    3    3  502    0 -0.54070084777E+03  0.22512502122E+03  0.19347810398E+04  0.20214886505E+04  0.10100000352E+00 0. -1.
       -3    1    3    3    0  502  0.54070084777E+03 -0.22512502122E+03 -0.12249906628E+04  0.13578073560E+04  0.10100000352E+00 0.  1.
</event>
<event>
 5   0  0.6351753E-07  0.3282393E+04  0.7818609E-02  0.8167390E-01
       -2   -1    0    0    0  501  0.00000000000E+00  0.00000000000E+00  0.17134724408E+04  0.17134724408E+04  0.25500000920E-02 0.  1.
        2   -1    0    0  501    0  0.00000000000E+00  0.00000000000E+00 -0.15719692880E+04  0.15719692880E+04  0.25500000920E-02 0. -1.
    10030    2    1    2    0    0  0.00000000000E+00  0.00000000000E+00  0.14150315280E+03  0.32854417287E+04  0.32823930616E+04 0.  0.
        3    1    3    3  502    0 -0.99554784434E+03  0.75001659360E+03  0.11393974779E+04  0.16887471758E+04  0.10100000352E+00 0.  1.
       -3    1    3    3    0  502  0.99554784434E+03 -0.75001659360E+03 -0.99789432508E+03  0.15966945529E+04  0.10100000352E+00 0. -1.
</event>
<event>
 5   0  0.2080828E-07  0.3299823E+04  0.7818609E-02  0.8162940E-01
        1   -1    0    0  501    0  0.00000000000E+00  0.00000000000E+00  0.19068610824E+04  0.19068610824E+04  0.50400001928E-02 0. -1.
       -1   -1    0    0    0  501  0.00000000000E+00  0.00000000000E+00 -0.14275861526E+04  0.14275861526E+04  0.50400001928E-02 0.  1.
    10030    2    1    2    0    0  0.00000000000E+00  0.00000000000E+00  0.47927492979E+03  0.33344472350E+04  0.32998233141E+04 0.  0.
        1    1    3    3  502    0  0.82466768629E+03  0.74385228527E+03 -0.99333562458E+03  0.14900029121E+04  0.50400001928E-02 0.  1.
       -1    1    3    3    0  502 -0.82466768629E+03 -0.74385228527E+03  0.14726105544E+04  0.18444443228E+04  0.50400001928E-02 0. -1.
</event>
<event>
 5   0  0.6424183E-07  0.3304421E+04  0.7818609E-02  0.8161771E-01
        2   -1    0    0  501    0  0.00000000000E+00  0.00000000000E+00  0.90501393412E+03  0.90501393412E+03  0.25500000920E-02 0.  1.
       -2   -1    0    0    0  501  0.00000000000E+00  0.00000000000E+00 -0.30163062931E+04  0.30163062931E+04  0.25500000920E-02 0. -1.
    10030    2    1    2    0    0  0.00000000000E+00  0.00000000000E+00 -0.21112923590E+04  0.39213202273E+04  0.33044208115E+04 0.  0.
        2    1    3    3  502    0 -0.70844469935E+03  0.61168397139E+03  0.56005973473E+03  0.10907419857E+04  0.25500000920E-02 0.  1.
       -2    1    3    3    0  502  0.70844469935E+03 -0.61168397139E+03 -0.26713520937E+04  0.28305782416E+04  0.25500000920E-02 0. -1.
</event>
<event>
 5   0  0.2080770E-07  0.3243044E+04  0.7818609E-02  0.8177541E-01
        1   -1    0    0  501    0  0.00000000000E+00  0.00000000000E+00  0.11740001844E+04  0.11740001844E+04  0.50400001928E-02 0.  1.
       -1   -1    0    0    0  501  0.00000000000E+00  0.00000000000E+00 -0.22396362631E+04  0.22396362631E+04  0.50400001928E-02 0. -1.
    10030    2    1    2    0    0  0.00000000000E+00  0.00000000000E+00 -0.10656360787E+04  0.34136364475E+04  0.32430438701E+04 0.  0.
        4    1    3    3  502    0 -0.12964669031E+04 -0.89427849346E+03 -0.93881618417E+03  0.18335588060E+04  0.12699999809E+01 0.  1.
       -4    1    3    3    0  502  0.12964669031E+04  0.89427849346E+03 -0.12681989455E+03  0.15800776415E+04  0.12699999809E+01 0. -1.
</event>
<event>
 5   0  0.2080828E-07  0.3288642E+04  0.7818609E-02  0.8165792E-01
        1   -1    0    0  501    0  0.00000000000E+00  0.00000000000E+00  0.18684221999E+04  0.18684221999E+04  0.50400001928E-02 0.  1.
       -1   -1    0    0    0  501  0.00000000000E+00  0.00000000000E+00 -0.14470985632E+04  0.14470985632E+04  0.50400001928E-02 0. -1.
    10030    2    1    2    0    0  0.00000000000E+00  0.00000000000E+00  0.42132363667E+03  0.33155207631E+04  0.32886417141E+04 0.  0.
        1    1    3    3  502    0  0.77418412383E+03  0.15918224658E+03 -0.12430286530E+04  0.14730309832E+04  0.50400001928E-02 0. -1.
       -1    1    3    3    0  502 -0.77418412383E+03 -0.15918224658E+03  0.16643522896E+04  0.18424897800E+04  0.50400001928E-02 0.  1.
</event>
<event>
 5   0  0.2057130E-07  0.3296689E+04  0.7818609E-02  0.8163738E-01
       -1   -1    0    0    0  501  0.00000000000E+00  0.00000000000E+00  0.12813444582E+04  0.12813444582E+04  0.50400001928E-02 0. -1.
        1   -1    0    0  501    0  0.00000000000E+00  0.00000000000E+00 -0.21204601474E+04  0.21204601474E+04  0.50400001928E-02 0.  1.
    10030    2    1    2    0    0  0.00000000000E+00  0.00000000000E+00 -0.83911568921E+03  0.34018046055E+04  0.32966891625E+04 0.  0.
        2    1    3    3  502    0 -0.54843562709E+03  0.50899760545E+03 -0.19351226889E+04  0.20747433625E+04  0.25500000920E-02 0.  1.
       -2    1    3    3    0  502  0.54843562709E+03 -0.50899760545E+03  0.10960069996E+04  0.13270612430E+04  0.25500000920E-02 0. -1.
</event>
<event>
 5   0  0.2087665E-07  0.3269661E+04  0.7818609E-02  0.8170658E-01
        1   -1    0    0  501    0  0.00000000000E+00  0.00000000000E+00  0.14021326727E+04  0.14021326727E+04  0.50400001928E-02 0.  1.
       -1   -1    0    0    0  501  0.00000000000E+00  0.00000000000E+00 -0.19061464374E+04  0.19061464375E+04  0.50400001928E-02 0. -1.
    10030    2    1    2    0    0  0.00000000000E+00  0.00000000000E+00 -0.50401376471E+03  0.33082791102E+04  0.32696606546E+04 0.  0.
        5    1    3    3  502    0 -0.99746019651E+02 -0.15622271485E+04 -0.72889654201E+03  0.17267933260E+04  0.46999998093E+01 0. -1.
       -5    1    3    3    0  502  0.99746019651E+02  0.15622271485E+04  0.22488277730E+03  0.15814857841E+04  0.46999998093E+01 0.  1.
</event>
<event>
 5   0  0.6426079E-07  0.3308998E+04  0.7818609E-02  0.8160610E-01
        2   -1    0    0  501    0  0.00000000000E+00  0.00000000000E+00  0.18870904733E+04  0.18870904733E+04  0.25500000920E-02 0.  1.
       -2   -1    0    0    0  501  0.00000000000E+00  0.00000000000E+00 -0.14505752551E+04  0.14505752551E+04  0.25500000920E-02 0. -1.
    10030    2    1    2    0    0  0.00000000000E+00  0.00000000000E+00  0.43651521822E+03  0.33376657284E+04  0.33089978813E+04 0.  0.
        4    1    3    3  502    0  0.70554450038E+03  0.11831403367E+04  0.11425760630E+04  0.17897194671E+04  0.12699999809E+01 0.  1.
       -4    1    3    3    0  502 -0.70554450038E+03 -0.11831403367E+04 -0.70606084477E+03  0.15479462613E+04  0.12699999809E+01 0. -1.
</event>
<event>
 5   0  0.6426079E-07  0.3303321E+04  0.7818609E-02  0.8162051E-01
       -2   -1    0    0    0  501  0.00000000000E+00  0.00000000000E+00  0.13782659405E+04  0.13782659405E+04  0.25500000920E-02 0.  1.
        2   -1    0    0  501    0  0.00000000000E+00  0.00000000000E+00 -0.19792855335E+04  0.19792855335E+04  0.25500000920E-02 0. -1.
    10030    2    1    2    0    0  0.00000000000E+00  0.00000000000E+00 -0.60101959299E+03  0.33575514740E+04  0.33033206550E+04 0.  0.
        4    1    3    3  502    0  0.13626086789E+04  0.89758826103E+03 -0.40153963088E+02  0.16321706564E+04  0.12699999809E+01 0.  1.
       -4    1    3    3    0  502 -0.13626086789E+04 -0.89758826103E+03 -0.56086562990E+03  0.17253808176E+04  0.12699999809E+01 0. -1.
</event>
<event>
 5   0  0.2057130E-07  0.3312841E+04  0.7818609E-02  0.8159636E-01
        1   -1    0    0  501    0  0.00000000000E+00  0.00000000000E+00  0.23858863231E+04  0.23858863231E+04  0.50400001928E-02 0. -1.
       -1   -1    0    0    0  501  0.00000000000E+00  0.00000000000E+00 -0.11499830497E+04  0.11499830497E+04  0.50400001928E-02 0.  1.
    10030    2    1    2    0    0  0.00000000000E+00  0.00000000000E+00  0.12359032734E+04  0.35358693728E+04  0.33128409742E+04 0.  0.
        2    1    3    3  502    0 -0.14977446859E+04 -0.69016668903E+03  0.78384947884E+03  0.18259214683E+04  0.25500000920E-02 0. -1.
       -2    1    3    3    0  502  0.14977446859E+04  0.69016668903E+03  0.45205379457E+03  0.17099479045E+04  0.25500000920E-02 0.  1.
</event>
<event>
 5   0  0.6426079E-07  0.3308941E+04  0.7818609E-02  0.8160624E-01
        2   -1    0    0  501    0  0.00000000000E+00  0.00000000000E+00  0.16903026420E+04  0.16903026420E+04  0.25500000920E-02 0.  1.
       -2   -1    0    0    0  501  0.00000000000E+00  0.00000000000E+00 -0.16193976177E+04  0.16193976177E+04  0.25500000920E-02 0. -1.
    10030    2    1    2    0    0  0.00000000000E+00  0.00000000000E+00  0.70905024272E+02  0.33097002597E+04  0.33089406592E+04 0.  0.
        4    1    3    3  502    0  0.79495438219E+03  0.48973176105E+03  0.14015920983E+04  0.16841174812E+04  0.12699999809E+01 0.  1.
       -4    1    3    3    0  502 -0.79495438219E+03 -0.48973176105E+03 -0.13306870741E+04  0.16255827784E+04  0.12699999809E+01 0. -1.
</event>
<event>
 5   0  0.6377741E-07  0.3304060E+04  0.7818609E-02  0.8161863E-01
       -2   -1    0    0    0  501  0.00000000000E+00  0.00000000000E+00  0.18571769226E+04  0.18571769226E+04  0.25500000920E-02 0.  1.
        2   -1    0    0  501    0  0.00000000000E+00  0.00000000000E+00 -0.14695439676E+04  0.14695439676E+04  0.25500000920E-02 0. -1.
    10030    2    1    2    0    0  0.00000000000E+00  0.00000000000E+00  0.38763295499E+03  0.33267208902E+04  0.33040600136E+04 0.  0.
        1    1    3    3  502    0  0.59098022433E+03  0.33067317092E+03  0.17110024856E+04  0.18401445262E+04  0.50400001928E-02 0.  1.
       -1    1    3    3    0  502 -0.59098022433E+03 -0.33067317092E+03 -0.13233695306E+04  0.14865763640E+04  0.50400001928E-02 0. -1.
</event>
<event>
 5   0  0.6426079E-07  0.3289288E+04  0.7818609E-02  0.8165626E-01
       -2   -1    0    0    0  501  0.00000000000E+00  0.00000000000E+00  0.17093147307E+04  0.17093147307E+04  0.25500000920E-02 0. -1.
        2   -1    0    0  501    0  0.00000000000E+00  0.00000000000E+00 -0.15824199561E+04  0.15824199561E+04  0.25500000920E-02 0.  1.
    10030    2    1    2    0    0  0.00000000000E+00  0.00000000000E+00  0.12689477459E+03  0.32917346868E+04  0.32892879115E+04 0.  0.
        4    1    3    3  502    0  0.15549701435E+04  0.48866221658E+03  0.28299430446E+03  0.16543307705E+04  0.12699999809E+01 0. -1.
       -4    1    3    3    0  502 -0.15549701435E+04 -0.48866221658E+03 -0.15609952986E+03  0.16374039163E+04  0.12699999809E+01 0.  1.
</event>
<event>
 5   0  0.2087665E-07  0.3293482E+04  0.7818609E-02  0.8164556E-01
       -1   -1    0    0    0  501  0.00000000000E+00  0.00000000000E+00  0.14840394827E+04  0.14840394827E+04  0.50400001928E-02 0. -1.
        1   -1    0    0  501    0  0.00000000000E+00  0.00000000000E+00 -0.18272802086E+04  0.18272802086E+04  0.50400001928E-02 0.  1.
    10030    2    1    2    0    0  0.00000000000E+00  0.00000000000E+00 -0.34324072583E+03  0.33113196913E+04  0.32934820331E+04 0.  0.
        5    1    3    3  502    0 -0.13965252001E+04  0.65260418506E+03  0.41079158727E+03  0.15952889002E+04  0.46999998093E+01 0. -1.
       -5    1    3    3    0  502  0.13965252001E+04 -0.65260418506E+03 -0.75403231310E+03  0.17160307911E+04  0.46999998093E+01 0.  1.
</event>
<event>
 5   0  0.6258718E-07  0.3267883E+04  0.7818609E-02  0.8171116E-01
        2   -1    0    0  501    0  0.00000000000E+00  0.00000000000E+00  0.17449136401E+04  0.17449136401E+04  0.25500000920E-02 0.  1.
       -2   -1    0    0    0  501  0.00000000000E+00  0.00000000000E+00 -0.15300265044E+04  0.15300265044E+04  0.25500000920E-02 0. -1.
    10030    2    1    2    0    0  0.00000000000E+00  0.00000000000E+00  0.21488713575E+03  0.32749401445E+04  0.32678825665E+04 0.  0.
        5    1    3    3  502    0 -0.95364943154E+03 -0.89694708693E+03 -0.87230820146E+03  0.15731830800E+04  0.46999998093E+01 0. -1.
       -5    1    3    3    0  502  0.95364943154E+03  0.89694708693E+03  0.10871953372E+04  0.17017570644E+04  0.46999998093E+01 0.  1.
</event>
<event>
 5   0  0.2087665E-07  0.3327115E+04  0.7818609E-02  0.8156030E-01
       -1   -1    0    0    0  501  0.00000000000E+00  0.00000000000E+00  0.97922029256E+03  0.97922029257E+03  0.50400001928E-02 0.  1.
        1   -1    0    0  501    0  0.00000000000E+00  0.00000000000E+00 -0.28261508342E+04  0.28261508343E+04  0.50400001928E-02 0. -1.
    10030    2    1    2    0    0  0.00000000000E+00  0.00000000000E+00 -0.18469305417E+04  0.38053711268E+04  0.33271154154E+04 0.  0.
        5    1    3    3  502    0 -0.75585398323E+03  0.37840973431E+02  0.77092043478E+03  0.10803182818E+04  0.46999998093E+01 0.  1.
       -5    1    3    3    0  502  0.75585398323E+03 -0.37840973431E+02 -0.26178509765E+04  0.27250528450E+04  0.46999998093E+01 0. -1.
</event>
<event>
 5   0  0.2037333E-07  0.3298677E+04  0.7818609E-02  0.8163232E-01
       -1   -1    0    0    0  501  0.00000000000E+00  0.00000000000E+00  0.14950164318E+04  0.14950164318E+04  0.50400001928E-02 0. -1.
        1   -1    0    0  501    0  0.00000000000E+00  0.00000000000E+00 -0.18195901738E+04  0.18195901738E+04  0.50400001928E-02 0.  1.
    10030    2    1    2    0    0  0.00000000000E+00  0.00000000000E+00 -0.32457374199E+03  0.33146066056E+04  0.32986768311E+04 0.  0.
        3    1    3    3  502    0 -0.20706524257E+02 -0.15176796077E+04  0.48622665468E+03  0.15937993982E+04  0.10100000352E+00 0. -1.
       -3    1    3    3    0  502  0.20706524257E+02  0.15176796077E+04 -0.81080039667E+03  0.17208072074E+04  0.10100000352E+00 0.  1.
</event>
<event>
 5   0  0.6258718E-07  0.3297020E+04  0.7818609E-02  0.8163654E-01
       -2   -1    0    0    0  501  0.00000000000E+00  0.00000000000E+00  0.21514375285E+04  0.21514375285E+04  0.25500000920E-02 0. -1.
        2   -1    0    0  501    0  0.00000000000E+00  0.00000000000E+00 -0.12631488899E+04  0.12631488899E+04  0.25500000920E-02 0.  1.
    10030    2    1    2    0    0  0.00000000000E+00  0.00000000000E+00  0.88828863861E+03  0.34145864184E+04  0.32970204281E+04 0.  0.
        5    1    3    3  502    0 -0.40654376713E+03  0.11475886934E+04 -0.70694041775E+03  0.14078439147E+04  0.46999998093E+01 0.  1.
       -5    1    3    3    0  502  0.40654376713E+03 -0.11475886934E+04  0.15952290564E+04  0.20067425037E+04  0.46999998093E+01 0. -1.
</event>
<event>
 5   0  0.2080828E-07  0.3301737E+04  0.7818609E-02  0.8162454E-01
        1   -1    0    0  501    0  0.00000000000E+00  0.00000000000E+00  0.26443513012E+04  0.26443513012E+04  0.50400001928E-02 0. -1.
       -1   -1    0    0    0  501  0.00000000000E+00  0.00000000000E+00 -0.10306370230E+04  0.10306370230E+04  0.50400001928E-02 0.  1.
    10030    2    1    2    0    0  0.00000000000E+00  0.00000000000E+00  0.16137142782E+04  0.36749883242E+04  0.33017367265E+04 0.  0.
        1    1    3    3  502    0  0.62330585271E+03 -0.10874802088E+04  0.20026670282E+04  0.23625830391E+04  0.50400001928E-02 0. -1.
       -1    1    3    3    0  502 -0.62330585271E+03  0.10874802088E+04 -0.38895274998E+03  0.13124052851E+04  0.50400001928E-02 0.  1.
</event>
<event>
 5   0  0.2080770E-07  0.3302233E+04  0.7818609E-02  0.8162327E-01
        1   -1    0    0  501    0  0.00000000000E+00  0.00000000000E+00  0.17541596423E+04  0.17541596423E+04  0.50400001928E-02 0.  1.
       -1   -1    0    0    0  501  0.00000000000E+00  0.00000000000E+00 -0.15541264761E+04  0.15541264761E+04  0.50400001928E-02 0. -1.
    10030    2    1    2    0    0  0.00000000000E+00  0.00000000000E+00  0.20003316619E+03  0.33082861184E+04  0.33022331495E+04 0.  0.
        4    1    3    3  502    0  0.15403426874E+04  0.18894124285E+03 -0.46478087653E+03  0.16199929827E+04  0.12699999809E+01 0. -1.
       -4    1    3    3    0  502 -0.15403426874E+04 -0.18894124285E+03  0.66481404272E+03  0.16882931357E+04  0.12699999809E+01 0.  1.
</event>
<event>
 5   0  0.2087665E-07  0.3283584E+04  0.7818609E-02  0.8167085E-01
        1   -1    0    0  501    0  0.00000000000E+00  0.00000000000E+00  0.94789167047E+03  0.94789167049E+03  0.50400001928E-02 0.  1.
       -1   -1    0    0    0  501  0.00000000000E+00  0.00000000000E+00 -0.28436591698E+04  0.28436591698E+04  0.50400001928E-02 0. -1.
    10030    2    1    2    0    0  0.00000000000E+00  0.00000000000E+00 -0.18957674993E+04  0.37915508402E+04  0.32835839205E+04 0.  0.
        5    1    3    3  502    0 -0.45920197420E+03 -0.14502841568E+04 -0.16608747269E+04  0.22522694193E+04  0.46999998093E+01 0. -1.
       -5    1    3    3    0  502  0.45920197420E+03  0.14502841568E+04 -0.23489277238E+03  0.15392814210E+04  0.46999998093E+01 0.  1.
</event>
<event>
 5   0  0.2080828E-07  0.3302467E+04  0.7818609E-02  0.8162268E-01
       -1   -1    0    0    0  501  0.00000000000E+00  0.00000000000E+00  0.24932620963E+04  0.24932620963E+04  0.50400001928E-02 0.  1.
        1   -1    0    0  501    0  0.00000000000E+00  0.00000000000E+00 -0.10935761994E+04  0.10935761994E+04  0.50400001928E-02 0. -1.
    10030    2    1    2    0    0  0.00000000000E+00  0.00000000000E+00  0.13996858970E+04  0.35868382957E+04  0.33024670096E+04 0.  0.
        1    1    3    3  502    0  0.10146490006E+04  0.65457156863E+03 -0.52346247924E+03  0.13160507209E+04  0.50400001928E-02 0. -1.
       -1    1    3    3    0  502 -0.10146490006E+04 -0.65457156863E+03  0.19231483762E+04  0.22707875748E+04  0.50400001928E-02 0.  1.
</event>
<event>
 5   0  0.2080828E-07  0.3302379E+04  0.7818609E-02  0.8162290E-01
       -1   -1    0    0    0  501  0.00000000000E+00  0.00000000000E+00  0.17651836843E+04  0.17651836844E+04  0.50400001928E-02 0.  1.
        1   -1    0    0  501    0  0.00000000000E+00  0.00000000000E+00 -0.15445569292E+04  0.15445569292E+04  0.50400001928E-02 0. -1.
    10030    2    1    2    0    0  0.00000000000E+00  0.00000000000E+00  0.22062675514E+03  0.33097406136E+04  0.33023789552E+04 0.  0.
        1    1    3    3  502    0 -0.19887474729E+03  0.16228932714E+04  0.34124611410E+03  0.16702642443E+04  0.50400001928E-02 0.  1.
       -1    1    3    3    0  502  0.19887474729E+03 -0.16228932714E+04 -0.12061935896E+03  0.16394763692E+04  0.50400001928E-02 0. -1.
</event>
<event>
 5   0  0.6426079E-07  0.3281582E+04  0.7818609E-02  0.8167598E-01
        2   -1    0    0  501    0  0.00000000000E+00  0.00000000000E+00  0.25178988942E+04  0.25178988942E+04  0.25500000920E-02 0. -1.
       -2   -1    0    0    0  501  0.00000000000E+00  0.00000000000E+00 -0.10692229693E+04  0.10692229693E+04  0.25500000920E-02 0.  1.
    10030    2    1    2    0    0  0.00000000000E+00  0.00000000000E+00  0.14486759249E+04  0.35871218635E+04  0.32815821379E+04 0.  0.
        4    1    3    3  502    0 -0.10593018065E+04  0.71532053686E+03 -0.40022998674E+03  0.13393989110E+04  0.12699999809E+01 0.  1.
       -4    1    3    3    0  502  0.10593018065E+04 -0.71532053686E+03  0.18489059117E+04  0.22477229524E+04  0.12699999809E+01 0. -1.
</event>
<event>
 5   0  0.2080770E-07  0.3191071E+04  0.7818609E-02  0.8191179E-01
       -1   -1    0    0    0  501  0.00000000000E+00  0.00000000000E+00  0.99133591536E+03  0.99133591537E+03  0.50400001928E-02 0.  1.
        1   -1    0    0  501    0  0.00000000000E+00  0.00000000000E+00 -0.25679833015E+04  0.25679833015E+04  0.50400001928E-02 0. -1.
    10030    2    1    2    0    0  0.00000000000E+00  0.00000000000E+00 -0.15766473862E+04  0.35593192169E+04  0.31910713416E+04 0.  0.
        4    1    3    3  502    0  0.55524606118E+03  0.67307608253E+03  0.70164410164E+03  0.11196587246E+04  0.12699999809E+01 0.  1.
       -4    1    3    3    0  502 -0.55524606118E+03 -0.67307608253E+03 -0.22782914878E+04  0.24396604923E+04  0.12699999809E+01 0. -1.
</event>
<event>
 5   0  0.2080828E-07  0.3322437E+04  0.7818609E-02  0.8157210E-01
       -1   -1    0    0    0  501  0.00000000000E+00  0.00000000000E+00  0.26313951072E+04  0.26313951072E+04  0.50400001928E-02 0. -1.
        1   -1    0    0  501    0  0.00000000000E+00  0.00000000000E+00 -0.10487391926E+04  0.10487391927E+04  0.50400001928E-02 0.  1.
    10030    2    1    2    0    0  0.00000000000E+00  0.00000000000E+00  0.15826559145E+04  0.36801342998E+04  0.33224371658E+04 0.  0.
        1    1    3    3  502    0 -0.50713083302E+03  0.11058981501E+04 -0.46158056136E+03  0.13012490211E+04  0.50400001928E-02 0.  1.
       -1    1    3    3    0  502  0.50713083302E+03 -0.11058981501E+04  0.20442364759E+04  0.23788852788E+04  0.50400001928E-02 0. -1.
</event>
<event>
 5   0  0.2037333E-07  0.3294756E+04  0.7818609E-02  0.8164231E-01
       -1   -1    0    0    0  501  0.00000000000E+00  0.00000000000E+00  0.18495940850E+04  0.18495940850E+04  0.50400001928E-02 0. -1.
        1   -1    0    0  501    0  0.00000000000E+00  0.00000000000E+00 -0.14672704581E+04  0.14672704581E+04  0.50400001928E-02 0.  1.
    10030    2    1    2    0    0  0.00000000000E+00  0.00000000000E+00  0.38232362691E+03  0.33168645431E+04  0.32947562947E+04 0.  0.
        3    1    3    3  502    0  0.14309322853E+04 -0.64592924880E+03 -0.31124902947E+03  0.16005210927E+04  0.10100000352E+00 0.  1.
       -3    1    3    3    0  502 -0.14309322853E+04  0.64592924880E+03  0.69357265638E+03  0.17163434503E+04  0.10100000352E+00 0. -1.
</event>
<event>
 5   0  0.2087665E-07  0.3319254E+04  0.7818609E-02  0.8158013E-01
       -1   -1    0    0    0  501  0.00000000000E+00  0.00000000000E+00  0.14241527819E+04  0.14241527820E+04  0.50400001928E-02 0.  1.
        1   -1    0    0  501    0  0.00000000000E+00  0.00000000000E+00 -0.19340357228E+04  0.19340357228E+04  0.50400001928E-02 0. -1.
    10030    2    1    2    0    0  0.00000000000E+00  0.00000000000E+00 -0.50988294081E+03  0.33581885047E+04  0.33192543470E+04 0.  0.
        5    1    3    3  502    0 -0.22124221489E+03  0.11023624784E+04 -0.14899934359E+04  0.18666155685E+04  0.46999998093E+01 0. -1.
       -5    1    3    3    0  502  0.22124221489E+03 -0.11023624784E+04  0.98011049512E+03  0.14915729362E+04  0.46999998093E+01 0.  1.
</event>
<event>
 5   0  0.6426079E-07  0.3306180E+04  0.7818609E-02  0.8161325E-01
       -2   -1    0    0    0  501  0.00000000000E+00  0.00000000000E+00  0.14620976362E+04  0.14620976362E+04  0.25500000920E-02 0.  1.
        2   -1    0    0  501    0  0.00000000000E+00  0.00000000000E+00 -0.18690318684E+04  0.18690318684E+04  0.25500000920E-02 0. -1.
    10030    2    1    2    0    0  0.00000000000E+00  0.00000000000E+00 -0.40693423217E+03  0.33311295046E+04  0.33061803198E+04 0.  0.
        4    1    3    3  502    0  0.15964057784E+03 -0.89878687517E+03  0.11851211265E+04  0.14959333736E+04  0.12699999809E+01 0.  1.
       -4    1    3    3    0  502 -0.15964057784E+03  0.89878687517E+03 -0.15920553586E+04  0.18351961309E+04  0.12699999809E+01 0. -1.
</event>
<event>
 5   0  0.2057130E-07  0.3305525E+04  0.7818609E-02  0.8161491E-01
       -1   -1    0    0    0  501  0.00000000000E+00  0.00000000000E+00  0.28472501549E+04  0.28472501549E+04  0.50400001928E-02 0.  1.
        1   -1    0    0  501    0  0.00000000000E+00  0.00000000000E+00 -0.95939029275E+03  0.95939029276E+03  0.50400001928E-02 0. -1.
    10030    2    1    2    0    0  0.00000000000E+00  0.00000000000E+00  0.18878598621E+04  0.38066404477E+04  0.33055251684E+04 0.  0.
        2    1    3    3  502    0  0.12285146276E+04  0.34987460693E+03 -0.26385768411E+03  0.13043317478E+04  0.25500000920E-02 0. -1.
       -2    1    3    3    0  502 -0.12285146276E+04 -0.34987460693E+03  0.21517175462E+04  0.25023086999E+04  0.25500000920E-02 0.  1.
</event>
<event>
 5   0  0.2080770E-07  0.3290431E+04  0.7818609E-02  0.8165335E-01
        1   -1    0    0  501    0  0.00000000000E+00  0.00000000000E+00  0.21573976212E+04  0.21573976212E+04  0.50400001928E-02 0.  1.
       -1   -1    0    0    0  501  0.00000000000E+00  0.00000000000E+00 -0.12546291571E+04  0.12546291572E+04  0.50400001928E-02 0. -1.
    10030    2    1    2    0    0  0.00000000000E+00  0.00000000000E+00  0.90276846408E+03  0.34120267784E+04  0.32904309500E+04 0.  0.
        4    1    3    3  502    0  0.75073312425E+03  0.11525503317E+04  0.13873812404E+04  0.19536634331E+04  0.12699999809E+01 0.  1.
       -4    1    3    3    0  502 -0.75073312425E+03 -0.11525503317E+04 -0.48461277630E+03  0.14583633453E+04  0.12699999809E+01 0. -1.
</event>
<event>
 5   0  0.6426079E-07  0.3296034E+04  0.7818609E-02  0.8163905E-01
       -2   -1    0    0    0  501  0.00000000000E+00  0.00000000000E+00  0.16656900179E+04  0.16656900179E+04  0.25500000920E-02 0.  1.
        2   -1    0    0  501    0  0.00000000000E+00  0.00000000000E+00 -0.16305316243E+04  0.16305316243E+04  0.25500000920E-02 0. -1.
    10030    2    1    2    0    0  0.00000000000E+00  0.00000000000E+00  0.35158393561E+02  0.32962216422E+04  0.32960341324E+04 0.  0.
        4    1    3    3  502    0 -0.84839023622E+02  0.99895331868E+02  0.16604696295E+04  0.16656343358E+04  0.12699999809E+01 0.  1.
       -4    1    3    3    0  502  0.84839023622E+02 -0.99895331868E+02 -0.16253112359E+04  0.16305873064E+04  0.12699999809E+01 0. -1.
</event>
<event>
 5   0  0.6258718E-07  0.3307585E+04  0.7818609E-02  0.8160968E-01
        2   -1    0    0  501    0  0.00000000000E+00  0.00000000000E+00  0.11026922806E+04  0.11026922806E+04  0.25500000920E-02 0.  1.
       -2   -1    0    0    0  501  0.00000000000E+00  0.00000000000E+00 -0.24803203737E+04  0.24803203737E+04  0.25500000920E-02 0. -1.
    10030    2    1    2    0    0  0.00000000000E+00  0.00000000000E+00 -0.13776280930E+04  0.35830126543E+04  0.33075853002E+04 0.  0.
        5    1    3    3  502    0  0.16817187502E+03 -0.13436025413E+04  0.33969981914E+03  0.13960543061E+04  0.46999998093E+01 0.  1.
       -5    1    3    3    0  502 -0.16817187502E+03  0.13436025413E+04 -0.17173279122E+04  0.21869583481E+04  0.46999998093E+01 0. -1.
</event>
<event>
 5   0  0.2080770E-07  0.3136073E+04  0.7818609E-02  0.8205907E-01
        1   -1    0    0  501    0  0.00000000000E+00  0.00000000000E+00  0.12497444428E+04  0.12497444428E+04  0.50400001928E-02 0.  1.
       -1   -1    0    0    0  501  0.00000000000E+00  0.00000000000E+00 -0.19673926676E+04  0.19673926676E+04  0.50400001928E-02 0. -1.
    10030    2    1    2    0    0  0.00000000000E+00  0.00000000000E+00 -0.71764822480E+03  0.32171371104E+04  0.31360727371E+04 0.  0.
        4    1    3    3  502    0  0.12883501415E+04 -0.42086916803E+03  0.45007555531E+03  0.14281269418E+04  0.12699999809E+01 0.  1.
       -4    1    3    3    0  502 -0.12883501415E+04  0.42086916803E+03 -0.11677237801E+04  0.17890101686E+04  0.12699999809E+01 0. -1.
</event>
<event>
 5   0  0.6426079E-07  0.3273613E+04  0.7818609E-02  0.8169642E-01
        2   -1    0    0  501    0  0.00000000000E+00  0.00000000000E+00  0.26138127104E+04  0.26138127104E+04  0.25500000920E-02 0. -1.
       -2   -1    0    0    0  501  0.00000000000E+00  0.00000000000E+00 -0.10249911866E+04  0.10249911866E+04  0.25500000920E-02 0.  1.
    10030    2    1    2    0    0  0.00000000000E+00  0.00000000000E+00  0.15888215238E+04  0.36388038970E+04  0.32736126782E+04 0.  0.
        4    1    3    3  502    0 -0.27277976896E+02 -0.25115945558E+03 -0.10031881497E+04  0.10345111100E+04  0.12699999809E+01 0.  1.
       -4    1    3    3    0  502  0.27277976896E+02  0.25115945558E+03  0.25920096735E+04  0.26042927870E+04  0.12699999809E+01 0. -1.
</event>
<event>
 5   0  0.6351753E-07  0.3299913E+04  0.7818609E-02  0.8162917E-01
        2   -1    0    0  501    0  0.00000000000E+00  0.00000000000E+00  0.13699240193E+04  0.13699240193E+04  0.25500000920E-02 0. -1.
       -2   -1    0    0    0  501  0.00000000000E+00  0.00000000000E+00 -0.19872321354E+04  0.19872321354E+04  0.25500000920E-02 0.  1.
    10030    2    1    2    0    0  0.00000000000E+00  0.00000000000E+00 -0.61730811610E+03  0.33571561547E+04  0.32999133530E+04 0.  0.
        3    1    3    3  502    0  0.14079343771E+04 -0.54774188292E+03 -0.98352899033E+03  0.18026729225E+04  0.10100000352E+00 0.  1.
       -3    1    3    3    0  502 -0.14079343771E+04  0.54774188292E+03  0.36622087423E+03  0.15544832323E+04  0.10100000352E+00 0. -1.
</event>
<event>
 5   0  0.2087665E-07  0.3322389E+04  0.7818609E-02  0.8157222E-01
       -1   -1    0    0    0  501  0.00000000000E+00  0.00000000000E+00  0.10408414157E+04  0.10408414158E+04  0.50400001928E-02 0.  1.
        1   -1    0    0  501    0  0.00000000000E+00  0.00000000000E+00 -0.26512842841E+04  0.26512842841E+04  0.50400001928E-02 0. -1.
    10030    2    1    2    0    0  0.00000000000E+00  0.00000000000E+00 -0.16104428684E+04  0.36921256999E+04  0.33223885913E+04 0.  0.
        5    1    3    3  502    0  0.12833990482E+04 -0.44608609967E+02 -0.19762671911E+04  0.23568532295E+04  0.46999998093E+01 0.  1.
       -5    1    3    3    0  502 -0.12833990482E+04  0.44608609967E+02  0.36582432271E+03  0.13352724704E+04  0.46999998093E+01 0. -1.
</event>
<event>
 5   0  0.6424183E-07  0.3301937E+04  0.7818609E-02  0.8162403E-01
        2   -1    0    0  501    0  0.00000000000E+00  0.00000000000E+00  0.20717885001E+04  0.20717885001E+04  0.25500000920E-02 0. -1.
       -2   -1    0    0    0  501  0.00000000000E+00  0.00000000000E+00 -0.13156254971E+04  0.13156254971E+04  0.25500000920E-02 0.  1.
    10030    2    1    2    0    0  0.00000000000E+00  0.00000000000E+00  0.75616300309E+03  0.33874139972E+04  0.33019374769E+04 0.  0.
        2    1    3    3  502    0  0.48401906574E+03 -0.15763400154E+04  0.29489305683E+03  0.16751370735E+04  0.25500000920E-02 0.  1.
       -2    1    3    3    0  502 -0.48401906574E+03  0.15763400154E+04  0.46126994626E+03  0.17122769237E+04  0.25500000920E-02 0. -1.
</event>
<event>
 5   0  0.1994250E-07  0.3304772E+04  0.7818609E-02  0.8161682E-01
        3   -1    0    0  501    0  0.00000000000E+00  0.00000000000E+00  0.13269064739E+04  0.13269064777E+04  0.10100000352E+00 0.  1.
       -3   -1    0    0    0  501  0.00000000000E+00  0.00000000000E+00 -0.20577024491E+04  0.20577024515E+04  0.10100000352E+00 0. -1.
    10030    2    1    2    0    0  0.00000000000E+00  0.00000000000E+00 -0.73079597519E+03  0.33846089293E+04  0.33047715272E+04 0.  0.
        3    1    3    3  502    0  0.86967396247E+03  0.13241653960E+04 -0.84646016478E+03  0.17961741613E+04  0.10100000352E+00 0. -1.
       -3    1    3    3    0  502 -0.86967396247E+03 -0.13241653960E+04  0.11566418959E+03  0.15884347679E+04  0.10100000352E+00 0.  1.
</event>
<event>
 5   0  0.6424183E-07  0.3294975E+04  0.7818609E-02  0.8164175E-01
       -2   -1    0    0    0  501  0.00000000000E+00  0.00000000000E+00  0.11915269186E+04  0.11915269186E+04  0.25500000920E-02 0.  1.
        2   -1    0    0  501    0  0.00000000000E+00  0.00000000000E+00 -0.22779307162E+04  0.22779307162E+04  0.25500000920E-02 0. -1.
    10030    2    1    2    0    0  0.00000000000E+00  0.00000000000E+00 -0.10864037976E+04  0.34694576348E+04  0.32949754276E+04 0.  0.
        2    1    3    3  502    0  0.12627253415E+04  0.10483969732E+04 -0.69434487841E+03  0.17820567644E+04  0.25500000920E-02 0. -1.
       -2    1    3    3    0  502 -0.12627253415E+04 -0.10483969732E+04 -0.39205891918E+03  0.16874008704E+04  0.25500000920E-02 0.  1.
</event>
<event>
 5   0  0.2037333E-07  0.3322854E+04  0.7818609E-02  0.8157104E-01
        1   -1    0    0  501    0  0.00000000000E+00  0.00000000000E+00  0.18099655430E+04  0.18099655430E+04  0.50400001928E-02 0. -1.
       -1   -1    0    0    0  501  0.00000000000E+00  0.00000000000E+00 -0.15250788677E+04  0.15250788677E+04  0.50400001928E-02 0.  1.
    10030    2    1    2    0    0  0.00000000000E+00  0.00000000000E+00  0.28488667536E+03  0.33350444107E+04  0.33228543157E+04 0.  0.
        3    1    3    3  502    0  0.14720024985E+04  0.54914324129E+03 -0.39990049766E+03  0.16211940270E+04  0.10100000352E+00 0.  1.
       -3    1    3    3    0  502 -0.14720024985E+04 -0.54914324129E+03  0.68478717302E+03  0.17138503837E+04  0.10100000352E+00 0. -1.
</event>
<event>
 5   0  0.6351753E-07  0.3301411E+04  0.7818609E-02  0.8162536E-01
       -2   -1    0    0    0  501  0.00000000000E+00  0.00000000000E+00  0.13434662690E+04  0.13434662690E+04  0.25500000920E-02 0. -1.
        2   -1    0    0  501    0  0.00000000000E+00  0.00000000000E+00 -0.20282078207E+04  0.20282078207E+04  0.25500000920E-02 0.  1.
    10030    2    1    2    0    0  0.00000000000E+00  0.00000000000E+00 -0.68474155166E+03  0.33716740898E+04  0.33014110884E+04 0.  0.
        3    1    3    3  502    0  0.15965406041E+03 -0.11198009475E+04  0.88545793662E+03  0.14364815866E+04  0.10100000352E+00 0. -1.
       -3    1    3    3    0  502 -0.15965406041E+03  0.11198009475E+04 -0.15701994883E+04  0.19351925031E+04  0.10100000352E+00 0.  1.
</event>
<event>
 5   0  0.2080770E-07  0.3296517E+04  0.7818609E-02  0.8163782E-01
        1   -1    0    0  501    0  0.00000000000E+00  0.00000000000E+00  0.24160852246E+04  0.24160852246E+04  0.50400001928E-02 0.  1.
       -1   -1    0    0    0  501  0.00000000000E+00  0.00000000000E+00 -0.11244456767E+04  0.11244456767E+04  0.50400001928E-02 0. -1.
    10030    2    1    2    0    0  0.00000000000E+00  0.00000000000E+00  0.12916395479E+04  0.35405309013E+04  0.32965173049E+04 0.  0.
        4    1    3    3  502    0  0.88797048800E+03 -0.35942900730E+02 -0.84508763945E+03  0.12263597396E+04  0.12699999809E+01 0. -1.
       -4    1    3    3    0  502 -0.88797048800E+03  0.35942900730E+02  0.21367271874E+04  0.23141711617E+04  0.12699999809E+01 0.  1.
</event>
<event>
 5   0  0.2037333E-07  0.3303992E+04  0.7818609E-02  0.8161880E-01
       -1   -1    0    0    0  501  0.00000000000E+00  0.00000000000E+00  0.17726218250E+04  0.17726218250E+04  0.50400001928E-02 0. -1.
        1   -1    0    0  501    0  0.00000000000E+00  0.00000000000E+00 -0.15395783311E+04  0.15395783311E+04  0.50400001928E-02 0.  1.
    10030    2    1    2    0    0  0.00000000000E+00  0.00000000000E+00  0.23304349393E+03  0.33122001562E+04  0.33039916169E+04 0.  0.
        3    1    3    3  502    0  0.15407252259E+04  0.10373288377E+03  0.70491726403E+03  0.16974990699E+04  0.10100000352E+00 0. -1.
       -3    1    3    3    0  502 -0.15407252259E+04 -0.10373288377E+03 -0.47187377010E+03  0.16147010863E+04  0.10100000352E+00 0.  1.
</event>
<event>
 5   0  0.6424183E-07  0.3301470E+04  0.7818609E-02  0.8162522E-01
        2   -1    0    0  501    0  0.00000000000E+00  0.00000000000E+00  0.17915854433E+04  0.17915854433E+04  0.25500000920E-02 0.  1.
       -2   -1    0    0    0  501  0.00000000000E+00  0.00000000000E+00 -0.15209576793E+04  0.15209576793E+04  0.25500000920E-02 0. -1.
    10030    2    1    2    0    0  0.00000000000E+00  0.00000000000E+00  0.27062776402E+03  0.33125431227E+04  0.33014697565E+04 0.  0.
        2    1    3    3  502    0  0.12145364681E+04 -0.65012103632E+03  0.10478529337E+04  0.17308240710E+04  0.25500000920E-02 0.  1.
       -2    1    3    3    0  502 -0.12145364681E+04  0.65012103632E+03 -0.77722516963E+03  0.15817190517E+04  0.25500000920E-02 0. -1.
</event>
<event>
 5   0  0.2087665E-07  0.3303065E+04  0.7818609E-02  0.8162116E-01
        1   -1    0    0  501    0  0.00000000000E+00  0.00000000000E+00  0.16228342214E+04  0.16228342214E+04  0.50400001928E-02 0. -1.
       -1   -1    0    0    0  501  0.00000000000E+00  0.00000000000E+00 -0.16807378347E+04  0.16807378347E+04  0.50400001928E-02 0.  1.
    10030    2    1    2    0    0  0.00000000000E+00  0.00000000000E+00 -0.57903613286E+02  0.33035720561E+04  0.33030645621E+04 0.  0.
        5    1    3    3  502    0 -0.14138816378E+04 -0.66618975199E+03  0.50467183892E+03  0.16424328986E+04  0.46999998093E+01 0. -1.
       -5    1    3    3    0  502  0.14138816378E+04  0.66618975199E+03 -0.56257545220E+03  0.16611391576E+04  0.46999998093E+01 0.  1.
</event>
<event>
 5   0  0.6426079E-07  0.3289625E+04  0.7818609E-02  0.8165540E-01
       -2   -1    0    0    0  501  0.00000000000E+00  0.00000000000E+00  0.14559931989E+04  0.14559931989E+04  0.25500000920E-02 0. -1.
        2   -1    0    0  501    0  0.00000000000E+00  0.00000000000E+00 -0.18581182631E+04  0.18581182631E+04  0.25500000920E-02 0.  1.
    10030    2    1    2    0    0  0.00000000000E+00  0.00000000000E+00 -0.40212506423E+03  0.33141114620E+04  0.32896246313E+04 0.  0.
        4    1    3    3  502    0  0.75161027191E+03 -0.13584297022E+04 -0.74838979012E+03  0.17234668977E+04  0.12699999809E+01 0.  1.
       -4    1    3    3    0  502 -0.75161027191E+03  0.13584297022E+04  0.34626472588E+03  0.15906445643E+04  0.12699999809E+01 0. -1.
</event>
<event>
 5   0  0.6351753E-07  0.3309775E+04  0.7818609E-02  0.8160413E-01
        2   -1    0    0  501    0  0.00000000000E+00  0.00000000000E+00  0.25481367909E+04  0.25481367909E+04  0.25500000920E-02 0. -1.
       -2   -1    0    0    0  501  0.00000000000E+00  0.00000000000E+00 -0.10747664879E+04  0.10747664879E+04  0.25500000920E-02 0.  1.
    10030    2    1    2    0    0  0.00000000000E+00  0.00000000000E+00  0.14733703030E+04  0.36229032788E+04  0.33097746325E+04 0.  0.
        3    1    3    3  502    0 -0.48121717675E+03  0.44673136524E+03  0.23994483649E+04  0.24876678536E+04  0.10100000352E+00 0. -1.
       -3    1    3    3    0  502  0.48121717675E+03 -0.44673136524E+03 -0.92607806185E+03  0.11352354252E+04  0.10100000352E+00 0.  1.
</event>
<event>
 5   0  0.2057130E-07  0.3291145E+04  0.7818609E-02  0.8165152E-01
        1   -1    0    0  501    0  0.00000000000E+00  0.00000000000E+00  0.15569329881E+04  0.15569329881E+04  0.50400001928E-02 0. -1.
       -1   -1    0    0    0  501  0.00000000000E+00  0.00000000000E+00 -0.17392587152E+04  0.17392587152E+04  0.50400001928E-02 0.  1.
    10030    2    1    2    0    0  0.00000000000E+00  0.00000000000E+00 -0.18232572709E+03  0.32961917034E+04  0.32911452527E+04 0.  0.
        2    1    3    3  502    0 -0.11906095485E+04  0.56156185446E+02  0.10451272096E+04  0.15852430408E+04  0.25500000920E-02 0. -1.
       -2    1    3    3    0  502  0.11906095485E+04 -0.56156185446E+02 -0.12274529367E+04  0.17109486626E+04  0.25500000920E-02 0.  1.
</event>
<event>
 5   0  0.2080770E-07  0.3304448E+04  0.7818609E-02  0.8161765E-01
        1   -1    0    0  501    0  0.00000000000E+00  0.00000000000E+00  0.11990733709E+04  0.11990733709E+04  0.50400001928E-02 0.  1.
       -1   -1    0    0    0  501  0.00000000000E+00  0.00000000000E+00 -0.22766279759E+04  0.22766279759E+04  0.50400001928E-02 0. -1.
    10030    2    1    2    0    0  0.00000000000E+00  0.00000000000E+00 -0.10775546051E+04  0.34757013468E+04  0.33044479002E+04 0.  0.
        4    1    3    3  502    0 -0.57865619014E+03  0.15447562826E+04 -0.44051516253E+03  0.17073869451E+04  0.12699999809E+01 0.  1.
       -4    1    3    3    0  502  0.57865619014E+03 -0.15447562826E+04 -0.63703944252E+03  0.17683144017E+04  0.12699999809E+01 0. -1.
</event>
<event>
 5   0  0.2037333E-07  0.3304915E+04  0.7818609E-02  0.8161646E-01
        1   -1    0    0  501    0  0.00000000000E+00  0.00000000000E+00  0.21875344276E+04  0.21875344276E+04  0.50400001928E-02 0. -1.
       -1   -1    0    0    0  501  0.00000000000E+00  0.00000000000E+00 -0.12482616326E+04  0.12482616326E+04  0.50400001928E-02 0.  1.
    10030    2    1    2    0    0  0.00000000000E+00  0.00000000000E+00  0.93927279496E+03  0.34357960602E+04  0.33049147015E+04 0.  0.
        3    1    3    3  502    0 -0.10854049415E+04  0.36671560252E+03  0.17076060398E+04  0.20563323218E+04  0.10100000352E+00 0. -1.
       -3    1    3    3    0  502  0.10854049415E+04 -0.36671560252E+03 -0.76833324485E+03  0.13794637384E+04  0.10100000352E+00 0.  1.
</event>
<event>
 5   0  0.2087665E-07  0.3308449E+04  0.7818609E-02  0.8160749E-01
       -1   -1    0    0    0  501  0.00000000000E+00  0.00000000000E+00  0.12619804158E+04  0.12619804159E+04  0.50400001928E-02 0. -1.
        1   -1    0    0  501    0  0.00000000000E+00  0.00000000000E+00 -0.21683842631E+04  0.21683842631E+04  0.50400001928E-02 0.  1.
    10030    2    1    2    0    0  0.00000000000E+00  0.00000000000E+00 -0.90640384722E+03  0.34303646789E+04  0.33084488656E+04 0.  0.
        5    1    3    3  502    0 -0.10248304680E+04  0.61181531968E+03 -0.16407643558E+04  0.20289714721E+04  0.46999998093E+01 0.  1.
       -5    1    3    3    0  502  0.10248304680E+04 -0.61181531968E+03  0.73436050853E+03  0.14013932068E+04  0.46999998093E+01 0. -1.
</event>
<event>
 5   0  0.6426079E-07  0.3330334E+04  0.7818609E-02  0.8155220E-01
        2   -1    0    0  501    0  0.00000000000E+00  0.00000000000E+00  0.18568471277E+04  0.18568471277E+04  0.25500000920E-02 0. -1.
       -2   -1    0    0    0  501  0.00000000000E+00  0.00000000000E+00 -0.14932734287E+04  0.14932734287E+04  0.25500000920E-02 0.  1.
    10030    2    1    2    0    0  0.00000000000E+00  0.00000000000E+00  0.36357369906E+03  0.33501205564E+04  0.33303336030E+04 0.  0.
        4    1    3    3  502    0  0.65553168127E+03  0.36887309380E+03 -0.13126337706E+04  0.15128774481E+04  0.12699999809E+01 0.  1.
       -4    1    3    3    0  502 -0.65553168127E+03 -0.36887309380E+03  0.16762074697E+04  0.18372431082E+04  0.12699999809E+01 0. -1.
</event>
<event>
 5   0  0.6377741E-07  0.3307945E+04  0.7818609E-02  0.8160877E-01
        2   -1    0    0  501    0  0.00000000000E+00  0.00000000000E+00  0.16479141881E+04  0.16479141882E+04  0.25500000920E-02 0. -1.
       -2   -1    0    0    0  501  0.00000000000E+00  0.00000000000E+00 -0.16600534893E+04  0.16600534893E+04  0.25500000920E-02 0.  1.
    10030    2    1    2    0    0  0.00000000000E+00  0.00000000000E+00 -0.12139301125E+02  0.33079676774E+04  0.33079454035E+04 0.  0.
        1    1    3    3  502    0 -0.96210972577E+03 -0.12868941725E+04  0.38620070865E+03  0.16525443180E+04  0.50400001928E-02 0. -1.
       -1    1    3    3    0  502  0.96210972577E+03  0.12868941725E+04 -0.39834000977E+03  0.16554233594E+04  0.50400001928E-02 0.  1.
</event>
<event>
 5   0  0.6258718E-07  0.3305634E+04  0.7818609E-02  0.8161463E-01
        2   -1    0    0  501    0  0.00000000000E+00  0.00000000000E+00  0.23879692275E+04  0.23879692275E+04  0.25500000920E-02 0. -1.
       -2   -1    0    0    0  501  0.00000000000E+00  0.00000000000E+00 -0.11439861386E+04  0.11439861386E+04  0.25500000920E-02 0.  1.
    10030    2    1    2    0    0  0.00000000000E+00  0.00000000000E+00  0.12439830889E+04  0.35319553661E+04  0.33056337944E+04 0.  0.
        5    1    3    3  502    0  0.92522785024E+03 -0.22093536777E+03 -0.82218584203E+03  0.12573267914E+04  0.46999998093E+01 0.  1.
       -5    1    3    3    0  502 -0.92522785024E+03  0.22093536777E+03  0.20661689309E+04  0.22746285746E+04  0.46999998093E+01 0. -1.
</event>
<event>
 5   0  0.6426079E-07  0.3284057E+04  0.7818609E-02  0.8166964E-01
       -2   -1    0    0    0  501  0.00000000000E+00  0.00000000000E+00  0.17544133150E+04  0.17544133150E+04  0.25500000920E-02 0. -1.
        2   -1    0    0  501    0  0.00000000000E+00  0.00000000000E+00 -0.15368428897E+04  0.15368428897E+04  0.25500000920E-02 0.  1.
    10030    2    1    2    0    0  0.00000000000E+00  0.00000000000E+00  0.21757042530E+03  0.32912562047E+04  0.32840570207E+04 0.  0.
        4    1    3    3  502    0  0.25309245395E+03 -0.16106296123E+04 -0.86764224805E+02  0.16327011919E+04  0.12699999809E+01 0. -1.
       -4    1    3    3    0  502 -0.25309245395E+03  0.16106296123E+04  0.30433465010E+03  0.16585550128E+04  0.12699999809E+01 0.  1.
</event>
<event>
 5   0  0.6424183E-07  0.3299014E+04  0.7818609E-02  0.8163146E-01
        2   -1    0    0  501    0  0.00000000000E+00  0.00000000000E+00  0.24714210736E+04  0.24714210736E+04  0.25500000920E-02 0.  1.
       -2   -1    0    0    0  501  0.00000000000E+00  0.00000000000E+00 -0.11009348441E+04  0.11009348442E+04  0.25500000920E-02 0. -1.
    10030    2    1    2    0    0  0.00000000000E+00  0.00000000000E+00  0.13704862294E+04  0.35723559177E+04  0.32990141403E+04 0.  0.
        2    1    3    3  502    0 -0.23857908340E+03 -0.51733817210E+03 -0.99102112666E+03  0.11431017614E+04  0.25500000920E-02 0. -1.
       -2    1    3    3    0  502  0.23857908340E+03  0.51733817210E+03  0.23615073561E+04  0.24292541563E+04  0.25500000920E-02 0.  1.
</event>
<event>
 5   0  0.6258718E-07  0.3296331E+04  0.7818609E-02  0.8163830E-01
        2   -1    0    0  501    0  0.00000000000E+00  0.00000000000E+00  0.16969691575E+04  0.16969691575E+04  0.25500000920E-02 0. -1.
       -2   -1    0    0    0  501  0.00000000000E+00  0.00000000000E+00 -0.16007650451E+04  0.16007650451E+04  0.25500000920E-02 0.  1.
    10030    2    1    2    0    0  0.00000000000E+00  0.00000000000E+00  0.96204112394E+02  0.32977342026E+04  0.32963306326E+04 0.  0.
        5    1    3    3  502    0  0.57461011904E+03  0.15166349063E+04 -0.24539735296E+03  0.16403049042E+04  0.46999998093E+01 0.  1.
       -5    1    3    3    0  502 -0.57461011904E+03 -0.15166349063E+04  0.34160146535E+03  0.16574292984E+04  0.46999998093E+01 0. -1.
</event>
<event>
 5   0  0.6258718E-07  0.3306891E+04  0.7818609E-02  0.8161144E-01
        2   -1    0    0  501    0  0.00000000000E+00  0.00000000000E+00  0.24499644892E+04  0.24499644892E+04  0.25500000920E-02 0. -1.
       -2   -1    0    0    0  501  0.00000000000E+00  0.00000000000E+00 -0.11158866042E+04  0.11158866042E+04  0.25500000920E-02 0.  1.
    10030    2    1    2    0    0  0.00000000000E+00  0.00000000000E+00  0.13340778850E+04  0.35658510935E+04  0.33068913223E+04 0.  0.
        5    1    3    3  502    0  0.15012143442E+04 -0.46680247095E+03  0.12193094762E+04  0.19895443556E+04  0.46999998093E+01 0. -1.
       -5    1    3    3    0  502 -0.15012143442E+04  0.46680247095E+03  0.11476840875E+03  0.15763067378E+04  0.46999998093E+01 0.  1.
</event>
<event>
 5   0  0.2057130E-07  0.3316226E+04  0.7818609E-02  0.8158779E-01
        1   -1    0    0  501    0  0.00000000000E+00  0.00000000000E+00  0.23451873375E+04  0.23451873375E+04  0.50400001928E-02 0. -1.
       -1   -1    0    0    0  501  0.00000000000E+00  0.00000000000E+00 -0.11723321658E+04  0.11723321658E+04  0.50400001928E-02 0.  1.
    10030    2    1    2    0    0  0.00000000000E+00  0.00000000000E+00  0.11728551717E+04  0.35175195033E+04  0.33162258974E+04 0.  0.
        2    1    3    3  502    0 -0.73823012704E+03  0.12065108380E+04 -0.33136044120E+03  0.14527394345E+04  0.25500000920E-02 0. -1.
       -2    1    3    3    0  502  0.73823012704E+03 -0.12065108380E+04  0.15042156129E+04  0.20647800688E+04  0.25500000920E-02 0.  1.
</event>
<event>
 5   0  0.2057130E-07  0.3308799E+04  0.7818609E-02  0.8160660E-01
       -1   -1    0    0    0  501  0.00000000000E+00  0.00000000000E+00  0.11469906343E+04  0.11469906344E+04  0.50400001928E-02 0.  1.
        1   -1    0    0  501    0  0.00000000000E+00  0.00000000000E+00 -0.23862775458E+04  0.23862775458E+04  0.50400001928E-02 0. -1.
    10030    2    1    2    0    0  0.00000000000E+00  0.00000000000E+00 -0.12392869115E+04  0.35332681802E+04  0.33087991756E+04 0.  0.
        2    1    3    3  502    0  0.20421314049E+03  0.16682801295E+02  0.11333897581E+04  0.11517611151E+04  0.25500000920E-02 0.  1.
       -2    1    3    3    0  502 -0.20421314049E+03 -0.16682801295E+02 -0.23726766696E+04  0.23815070651E+04  0.25500000920E-02 0. -1.
</event>
<event>
 5   0  0.2057130E-07  0.3299275E+04  0.7818609E-02  0.8163080E-01
       -1   -1    0    0    0  501  0.00000000000E+00  0.00000000000E+00  0.22847354846E+04  0.22847354846E+04  0.50400001928E-02 0. -1.
        1   -1    0    0  501    0  0.00000000000E+00  0.00000000000E+00 -0.11910808433E+04  0.11910808433E+04  0.50400001928E-02 0.  1.
    10030    2    1    2    0    0  0.00000000000E+00  0.00000000000E+00  0.10936546413E+04  0.34758163279E+04  0.32992754767E+04 0.  0.
        2    1    3    3  502    0  0.16274476586E+04  0.26296213097E+03  0.60977132040E+03  0.17577132949E+04  0.25500000920E-02 0.  1.
       -2    1    3    3    0  502 -0.16274476586E+04 -0.26296213097E+03  0.48388332091E+03  0.17181030330E+04  0.25500000920E-02 0. -1.
</event>
<event>
 5   0  0.2087665E-07  0.3295587E+04  0.7818609E-02  0.8164019E-01
       -1   -1    0    0    0  501  0.00000000000E+00  0.00000000000E+00  0.13717986482E+04  0.13717986482E+04  0.50400001928E-02 0. -1.
        1   -1    0    0  501    0  0.00000000000E+00  0.00000000000E+00 -0.19793157593E+04  0.19793157593E+04  0.50400001928E-02 0.  1.
    10030    2    1    2    0    0  0.00000000000E+00  0.00000000000E+00 -0.60751711105E+03  0.33511144075E+04  0.32955865536E+04 0.  0.
        5    1    3    3  502    0 -0.25478136786E+03  0.52057005233E+03 -0.18722442984E+04  0.19599049793E+04  0.46999998093E+01 0.  1.
       -5    1    3    3    0  502  0.25478136786E+03 -0.52057005233E+03  0.12647271874E+04  0.13912094283E+04  0.46999998093E+01 0. -1.
</event>
<event>
 5   0  0.6258718E-07  0.3298899E+04  0.7818609E-02  0.8163176E-01
       -2   -1    0    0    0  501  0.00000000000E+00  0.00000000000E+00  0.14569111168E+04  0.14569111168E+04  0.25500000920E-02 0.  1.
        2   -1    0    0  501    0  0.00000000000E+00  0.00000000000E+00 -0.18674327695E+04  0.18674327695E+04  0.25500000920E-02 0. -1.
    10030    2    1    2    0    0  0.00000000000E+00  0.00000000000E+00 -0.41052165270E+03  0.33243438863E+04  0.32988989447E+04 0.  0.
        5    1    3    3  502    0  0.97848108119E+03 -0.53579501599E+03  0.10190836875E+04  0.15109782188E+04  0.46999998093E+01 0.  1.
       -5    1    3    3    0  502 -0.97848108119E+03  0.53579501599E+03 -0.14296053402E+04  0.18133656675E+04  0.46999998093E+01 0. -1.
</event>
<event>
 5   0  0.2037333E-07  0.3288853E+04  0.7818609E-02  0.8165738E-01
       -1   -1    0    0    0  501  0.00000000000E+00  0.00000000000E+00  0.26191540353E+04  0.26191540353E+04  0.50400001928E-02 0. -1.
        1   -1    0    0  501    0  0.00000000000E+00  0.00000000000E+00 -0.10324472561E+04  0.10324472561E+04  0.50400001928E-02 0.  1.
    10030    2    1    2    0    0  0.00000000000E+00  0.00000000000E+00  0.15867067792E+04  0.36516012915E+04  0.32888529290E+04 0.  0.
        3    1    3    3  502    0 -0.12539652062E+04  0.33133592972E+03 -0.32904918747E+03  0.13380902864E+04  0.10100000352E+00 0.  1.
       -3    1    3    3    0  502  0.12539652062E+04 -0.33133592972E+03  0.19157559667E+04  0.23135110051E+04  0.10100000352E+00 0. -1.
</event>
<event>
 5   0  0.2057130E-07  0.3299083E+04  0.7818609E-02  0.8163129E-01
        1   -1    0    0  501    0  0.00000000000E+00  0.00000000000E+00  0.17324052451E+04  0.17324052451E+04  0.50400001928E-02 0. -1.
       -1   -1    0    0    0  501  0.00000000000E+00  0.00000000000E+00 -0.15706417049E+04  0.15706417049E+04  0.50400001928E-02 0.  1.
    10030    2    1    2    0    0  0.00000000000E+00  0.00000000000E+00  0.16176354017E+03  0.33030469500E+04  0.32990834653E+04 0.  0.
        2    1    3    3  502    0  0.84628687759E+03 -0.13989588322E+04 -0.13778536791E+03  0.16408144627E+04  0.25500000920E-02 0.  1.
       -2    1    3    3    0  502 -0.84628687759E+03  0.13989588322E+04  0.29954890808E+03  0.16622324873E+04  0.25500000920E-02 0. -1.
</event>
<event>
 5   0  0.2087665E-07  0.3311855E+04  0.7818609E-02  0.8159885E-01
       -1   -1    0    0    0  501  0.00000000000E+00  0.00000000000E+00  0.23277568027E+04  0.23277568027E+04  0.50400001928E-02 0. -1.
        1   -1    0    0  501    0  0.00000000000E+00  0.00000000000E+00 -0.11779993479E+04  0.11779993479E+04  0.50400001928E-02 0.  1.
    10030    2    1    2    0    0  0.00000000000E+00  0.00000000000E+00  0.11497574548E+04  0.35057561506E+04  0.33118550667E+04 0.  0.
        5    1    3    3  502    0 -0.42341267498E+03 -0.90411507096E+03  0.19733525071E+04  0.22115253926E+04  0.46999998093E+01 0. -1.
       -5    1    3    3    0  502  0.42341267498E+03  0.90411507096E+03 -0.82359505230E+03  0.12942307580E+04  0.46999998093E+01 0.  1.
</event>
<event>
 5   0  0.6424183E-07  0.3302761E+04  0.7818609E-02  0.8162193E-01
       -2   -1    0    0    0  501  0.00000000000E+00  0.00000000000E+00  0.19904247540E+04  0.19904247540E+04  0.25500000920E-02 0.  1.
        2   -1    0    0  501    0  0.00000000000E+00  0.00000000000E+00 -0.13700884251E+04  0.13700884251E+04  0.25500000920E-02 0. -1.
    10030    2    1    2    0    0  0.00000000000E+00  0.00000000000E+00  0.62033632893E+03  0.33605131791E+04  0.33027612185E+04 0.  0.
        2    1    3    3  502    0  0.61869905901E+03  0.10204568426E+04  0.14715904960E+04  0.18946501738E+04  0.25500000920E-02 0.  1.
       -2    1    3    3    0  502 -0.61869905901E+03 -0.10204568426E+04 -0.85125416711E+03  0.14658630053E+04  0.25500000920E-02 0. -1.
</event>
<event>
 5   0  0.6426079E-07  0.3296703E+04  0.7818609E-02  0.8163735E-01
        2   -1    0    0  501    0  0.00000000000E+00  0.00000000000E+00  0.18919361306E+04  0.18919361306E+04  0.25500000920E-02 0. -1.
       -2   -1    0    0    0  501  0.00000000000E+00  0.00000000000E+00 -0.14361281931E+04  0.14361281931E+04  0.25500000920E-02 0.  1.
    10030    2    1    2    0    0  0.00000000000E+00  0.00000000000E+00  0.45580793753E+03  0.33280643237E+04  0.32967030905E+04 0.  0.
        4    1    3    3  502    0  0.28459897660E+03  0.43291565022E+03  0.18076057750E+04  0.18803863402E+04  0.12699999809E+01 0. -1.
       -4    1    3    3    0  502 -0.28459897660E+03 -0.43291565022E+03 -0.13517978374E+04  0.14476779835E+04  0.12699999809E+01 0.  1.
</event>
<event>
 5   0  0.2037333E-07  0.3307021E+04  0.7818609E-02  0.8161111E-01
        1   -1    0    0  501    0  0.00000000000E+00  0.00000000000E+00  0.21913875281E+04  0.21913875281E+04  0.50400001928E-02 0. -1.
       -1   -1    0    0    0  501  0.00000000000E+00  0.00000000000E+00 -0.12476554065E+04  0.12476554066E+04  0.50400001928E-02 0.  1.
    10030    2    1    2    0    0  0.00000000000E+00  0.00000000000E+00  0.94373212153E+03  0.34390429346E+04  0.33070207119E+04 0.  0.
        3    1    3    3  502    0 -0.97190561530E+03  0.18465588156E+02 -0.91912604151E+03  0.13378094757E+04  0.10100000352E+00 0.  1.
       -3    1    3    3    0  502  0.97190561530E+03 -0.18465588156E+02  0.18628581630E+04  0.21012334589E+04  0.10100000352E+00 0. -1.
</event>
<event>
 5   0  0.6424183E-07  0.3329020E+04  0.7818609E-02  0.8155550E-01
       -2   -1    0    0    0  501  0.00000000000E+00  0.00000000000E+00  0.17078009436E+04  0.17078009436E+04  0.25500000920E-02 0. -1.
        2   -1    0    0  501    0  0.00000000000E+00  0.00000000000E+00 -0.16223160193E+04  0.16223160193E+04  0.25500000920E-02 0.  1.
    10030    2    1    2    0    0  0.00000000000E+00  0.00000000000E+00  0.85484924285E+02  0.33301169629E+04  0.33290195726E+04 0.  0.
        2    1    3    3  502    0 -0.12513660583E+04  0.48551276616E+03 -0.94193621364E+03  0.16397815368E+04  0.25500000920E-02 0.  1.
       -2    1    3    3    0  502  0.12513660583E+04 -0.48551276616E+03  0.10274211379E+04  0.16903354261E+04  0.25500000920E-02 0. -1.
</event>
<event>
 5   0  0.2087665E-07  0.3287015E+04  0.7818609E-02  0.8166207E-01
        1   -1    0    0  501    0  0.00000000000E+00  0.00000000000E+00  0.19135097424E+04  0.19135097424E+04  0.50400001928E-02 0.  1.
       -1   -1    0    0    0  501  0.00000000000E+00  0.00000000000E+00 -0.14116036877E+04  0.14116036877E+04  0.50400001928E-02 0. -1.
    10030    2    1    2    0    0  0.00000000000E+00  0.00000000000E+00  0.50190605468E+03  0.33251134301E+04  0.32870153080E+04 0.  0.
        5    1    3    3  502    0 -0.74292438398E+03  0.12397077597E+04  0.10425077837E+04  0.17820371879E+04  0.46999998093E+01 0.  1.
       -5    1    3    3    0  502  0.74292438398E+03 -0.12397077597E+04 -0.54060172903E+03  0.15430762422E+04  0.46999998093E+01 0. -1.
</event>
<event>
 5   0  0.2080828E-07  0.3300822E+04  0.7818609E-02  0.8162686E-01
       -1   -1    0    0    0  501  0.00000000000E+00  0.00000000000E+00  0.10190695907E+04  0.10190695907E+04  0.50400001928E-02 0. -1.
        1   -1    0    0  501    0  0.00000000000E+00  0.00000000000E+00 -0.26728858844E+04  0.26728858844E+04  0.50400001928E-02 0.  1.
    10030    2    1    2    0    0  0.00000000000E+00  0.00000000000E+00 -0.16538162937E+04  0.36919554751E+04  0.33008221547E+04 0.  0.
        1    1    3    3  502    0  0.16205380049E+04 -0.42783143520E+02 -0.11732499494E+04  0.20011220019E+04  0.50400001928E-02 0. -1.
       -1    1    3    3    0  502 -0.16205380049E+04  0.42783143520E+02 -0.48056634435E+03  0.16908334732E+04  0.50400001928E-02 0.  1.
</event>
<event>
 5   0  0.2080770E-07  0.3307111E+04  0.7818609E-02  0.8161088E-01
       -1   -1    0    0    0  501  0.00000000000E+00  0.00000000000E+00  0.10584181219E+04  0.10584181219E+04  0.50400001928E-02 0.  1.
        1   -1    0    0  501    0  0.00000000000E+00  0.00000000000E+00 -0.25833319329E+04  0.25833319329E+04  0.50400001928E-02 0. -1.
    10030    2    1    2    0    0  0.00000000000E+00  0.00000000000E+00 -0.15249138110E+04  0.36417500548E+04  0.33071107225E+04 0.  0.
        4    1    3    3  502    0 -0.57565662862E+03  0.99848379535E+03  0.54322557539E+03  0.12741452360E+04  0.12699999809E+01 0.  1.
       -4    1    3    3    0  502  0.57565662862E+03 -0.99848379535E+03 -0.20681393864E+04  0.23676048188E+04  0.12699999809E+01 0. -1.
</event>
<event>
 5   0  0.2087665E-07  0.3311229E+04  0.7818609E-02  0.8160044E-01
        1   -1    0    0  501    0  0.00000000000E+00  0.00000000000E+00  0.18151303992E+04  0.18151303992E+04  0.50400001928E-02 0.  1.
       -1   -1    0    0    0  501  0.00000000000E+00  0.00000000000E+00 -0.15101165999E+04  0.15101165999E+04  0.50400001928E-02 0. -1.
    10030    2    1    2    0    0  0.00000000000E+00  0.00000000000E+00  0.30501379933E+03  0.33252469991E+04  0.33112285012E+04 0.  0.
        5    1    3    3  502    0  0.87843713266E+03 -0.16812995178E+03  0.15516450960E+04  0.17909617725E+04  0.46999998093E+01 0.  1.
       -5    1    3    3    0  502 -0.87843713266E+03  0.16812995178E+03 -0.12466312967E+04  0.15342852266E+04  0.46999998093E+01 0. -1.
</event>
<event>
 5   0  0.2037333E-07  0.3264095E+04  0.7818609E-02  0.8172092E-01
       -1   -1    0    0    0  501  0.00000000000E+00  0.00000000000E+00  0.18056123762E+04  0.18056123762E+04  0.50400001928E-02 0. -1.
        1   -1    0    0  501    0  0.00000000000E+00  0.00000000000E+00 -0.14751664510E+04  0.14751664510E+04  0.50400001928E-02 0.  1.
    10030    2    1    2    0    0  0.00000000000E+00  0.00000000000E+00  0.33044592521E+03  0.32807788272E+04  0.32640948521E+04 0.  0.
        3    1    3    3  502    0  0.12713535162E+03  0.10359303980E+04  0.14263327912E+04  0.17674106564E+04  0.10100000352E+00 0. -1.
       -3    1    3    3    0  502 -0.12713535162E+03 -0.10359303980E+04 -0.10958868660E+04  0.15133681708E+04  0.10100000352E+00 0.  1.
</event>
<event>
 5   0  0.6351753E-07  0.3297052E+04  0.7818609E-02  0.8163646E-01
       -2   -1    0    0    0  501  0.00000000000E+00  0.00000000000E+00  0.18583221705E+04  0.18583221705E+04  0.25500000920E-02 0. -1.
        2   -1    0    0  501    0  0.00000000000E+00  0.00000000000E+00 -0.14624146006E+04  0.14624146006E+04  0.25500000920E-02 0.  1.
    10030    2    1    2    0    0  0.00000000000E+00  0.00000000000E+00  0.39590756990E+03  0.33207367712E+04  0.32970516980E+04 0.  0.
        3    1    3    3  502    0  0.25227187275E+03 -0.37499361251E+03 -0.13987981081E+04  0.14699991376E+04  0.10100000352E+00 0.  1.
       -3    1    3    3    0  502 -0.25227187275E+03  0.37499361251E+03  0.17947056780E+04  0.18507376335E+04  0.10100000352E+00 0. -1.
</event>
<event>
 5   0  0.6351753E-07  0.3086084E+04  0.7818609E-02  0.8219567E-01
       -2   -1    0    0    0  501  0.00000000000E+00  0.00000000000E+00  0.78479727410E+03  0.78479727411E+03  0.25500000920E-02 0. -1.
        2   -1    0    0  501    0  0.00000000000E+00  0.00000000000E+00 -0.30338773907E+04  0.30338773907E+04  0.25500000920E-02 0.  1.
    10030    2    1    2    0    0  0.00000000000E+00  0.00000000000E+00 -0.22490801166E+04  0.38186746648E+04  0.30860840599E+04 0.  0.
        3    1    3    3  502    0  0.10685106421E+04  0.10963400155E+04 -0.13635261151E+04  0.20500926561E+04  0.10100000352E+00 0.  1.
       -3    1    3    3    0  502 -0.10685106421E+04 -0.10963400155E+04 -0.88555400153E+03  0.17685820087E+04  0.10100000352E+00 0. -1.
</event>
<event>
 5   0  0.2087665E-07  0.3306208E+04  0.7818609E-02  0.8161317E-01
       -1   -1    0    0    0  501  0.00000000000E+00  0.00000000000E+00  0.10426758570E+04  0.10426758570E+04  0.50400001928E-02 0.  1.
        1   -1    0    0  501    0  0.00000000000E+00  0.00000000000E+00 -0.26209039206E+04  0.26209039206E+04  0.50400001928E-02 0. -1.
    10030    2    1    2    0    0  0.00000000000E+00  0.00000000000E+00 -0.15782280637E+04  0.36635797776E+04  0.33062082460E+04 0.  0.
        5    1    3    3  502    0 -0.62075017473E+02 -0.15086952798E+04 -0.43543798799E+02  0.15106068010E+04  0.46999998093E+01 0.  1.
       -5    1    3    3    0  502  0.62075017473E+02  0.15086952798E+04 -0.15346842649E+04  0.21529729766E+04  0.46999998093E+01 0. -1.
</event>
<event>
 5   0  0.2037333E-07  0.3300055E+04  0.7818609E-02  0.8162882E-01
       -1   -1    0    0    0  501  0.00000000000E+00  0.00000000000E+00  0.20486676141E+04  0.20486676141E+04  0.50400001928E-02 0. -1.
        1   -1    0    0  501    0  0.00000000000E+00  0.00000000000E+00 -0.13289564283E+04  0.13289564283E+04  0.50400001928E-02 0.  1.
    10030    2    1    2    0    0  0.00000000000E+00  0.00000000000E+00  0.71971118588E+03  0.33776240424E+04  0.33000545421E+04 0.  0.
        3    1    3    3  502    0 -0.79935469787E+03 -0.41280106911E+03 -0.10558480269E+04  0.13871509369E+04  0.10100000352E+00 0.  1.
       -3    1    3    3    0  502  0.79935469787E+03  0.41280106911E+03  0.17755592127E+04  0.19904731055E+04  0.10100000352E+00 0. -1.
</event>
<event>
 5   0  0.2037333E-07  0.3301863E+04  0.7818609E-02  0.8162422E-01
        1   -1    0    0  501    0  0.00000000000E+00  0.00000000000E+00  0.11726843085E+04  0.11726843085E+04  0.50400001928E-02 0. -1.
       -1   -1    0    0    0  501  0.00000000000E+00  0.00000000000E+00 -0.23242181719E+04  0.23242181719E+04  0.50400001928E-02 0.  1.
    10030    2    1    2    0    0  0.00000000000E+00  0.00000000000E+00 -0.11515338634E+04  0.34969024804E+04  0.33018626135E+04 0.  0.
        3    1    3    3  502    0 -0.11429325050E+04 -0.46518065911E+03 -0.17373140507E+04  0.21309499942E+04  0.10100000352E+00 0.  1.
       -3    1    3    3    0  502  0.11429325050E+04  0.46518065911E+03  0.58578018733E+03  0.13659524862E+04  0.10100000352E+00 0. -1.
</event>
<event>
 5   0  0.6424183E-07  0.3270382E+04  0.7818609E-02  0.8170473E-01
       -2   -1    0    0    0  501  0.00000000000E+00  0.00000000000E+00  0.12502955316E+04  0.12502955316E+04  0.25500000920E-02 0. -1.
        2   -1    0    0  501    0  0.00000000000E+00  0.00000000000E+00 -0.21385744994E+04  0.21385744994E+04  0.25500000920E-02 0.  1.
    10030    2    1    2    0    0  0.00000000000E+00  0.00000000000E+00 -0.88827896780E+03  0.33888700310E+04  0.32703823266E+04 0.  0.
        2    1    3    3  502    0 -0.12488711021E+04  0.10199525674E+04 -0.16250607107E+03  0.16206142331E+04  0.25500000920E-02 0. -1.
       -2    1    3    3    0  502  0.12488711021E+04 -0.10199525674E+04 -0.72577289674E+03  0.17682557979E+04  0.25500000920E-02 0.  1.
</event>
<event>
 5   0  0.6424183E-07  0.3273406E+04  0.7818609E-02  0.8169695E-01
       -2   -1    0    0    0  501  0.00000000000E+00  0.00000000000E+00  0.13388239692E+04  0.13388239692E+04  0.25500000920E-02 0. -1.
        2   -1    0    0  501    0  0.00000000000E+00  0.00000000000E+00 -0.20008581955E+04  0.20008581955E+04  0.25500000920E-02 0.  1.
    10030    2    1    2    0    0  0.00000000000E+00  0.00000000000E+00 -0.66203422628E+03  0.33396821647E+04  0.32734061227E+04 0.  0.
        2    1    3    3  502    0 -0.48672355018E+03 -0.15384416571E+04 -0.61059892839E+03  0.17252633416E+04  0.25500000920E-02 0.  1.
       -2    1    3    3    0  502  0.48672355018E+03  0.15384416571E+04 -0.51435297898E+02  0.16144188231E+04  0.25500000920E-02 0. -1.
</event>
<event>
 5   0  0.2080828E-07  0.3317238E+04  0.7818609E-02  0.8158523E-01
       -1   -1    0    0    0  501  0.00000000000E+00  0.00000000000E+00  0.16608405628E+04  0.16608405628E+04  0.50400001928E-02 0. -1.
        1   -1    0    0  501    0  0.00000000000E+00  0.00000000000E+00 -0.16564005194E+04  0.16564005194E+04  0.50400001928E-02 0.  1.
    10030    2    1    2    0    0  0.00000000000E+00  0.00000000000E+00  0.44400433694E+01  0.33172410822E+04  0.33172381108E+04 0.  0.
        1    1    3    3  502    0 -0.64760835517E+03 -0.11174385733E+04  0.10428705703E+04  0.16600134256E+04  0.50400001928E-02 0. -1.
       -1    1    3    3    0  502  0.64760835517E+03  0.11174385733E+04 -0.10384305269E+04  0.16572276566E+04  0.50400001928E-02 0.  1.
</event>
<event>
 5   0  0.6351753E-07  0.3273373E+04  0.7818609E-02  0.8169704E-01
        2   -1    0    0  501    0  0.00000000000E+00  0.00000000000E+00  0.26667704833E+04  0.26667704833E+04  0.25500000920E-02 0.  1.
       -2   -1    0    0    0  501  0.00000000000E+00  0.00000000000E+00 -0.10044894581E+04  0.10044894581E+04  0.25500000920E-02 0. -1.
    10030    2    1    2    0    0  0.00000000000E+00  0.00000000000E+00  0.16622810252E+04  0.36712599414E+04  0.32733730845E+04 0.  0.
        3    1    3    3  502    0  0.29048506010E+02 -0.16203122278E+04  0.57419163284E+03  0.17192881006E+04  0.10100000352E+00 0. -1.
       -3    1    3    3    0  502 -0.29048506010E+02  0.16203122278E+04  0.10880893924E+04  0.19519718408E+04  0.10100000352E+00 0.  1.
</event>
<event>
 5   0  0.2057130E-07  0.3309882E+04  0.7818609E-02  0.8160385E-01
        1   -1    0    0  501    0  0.00000000000E+00  0.00000000000E+00  0.32358266294E+04  0.32358266294E+04  0.50400001928E-02 0. -1.
       -1   -1    0    0    0  501  0.00000000000E+00  0.00000000000E+00 -0.84640823753E+03  0.84640823754E+03  0.50400001928E-02 0.  1.
    10030    2    1    2    0    0  0.00000000000E+00  0.00000000000E+00  0.23894183919E+04  0.40822348670E+04  0.33098823631E+04 0.  0.
        2    1    3    3  502    0  0.10440432306E+04  0.12416780692E+04  0.79119603182E+03  0.18049326457E+04  0.25500000920E-02 0.  1.
       -2    1    3    3    0  502 -0.10440432306E+04 -0.12416780692E+04  0.15982223601E+04  0.22773022213E+04  0.25500000920E-02 0. -1.
</event>
<event>
 5   0  0.2057130E-07  0.3292296E+04  0.7818609E-02  0.8164859E-01
        1   -1    0    0  501    0  0.00000000000E+00  0.00000000000E+00  0.18659336525E+04  0.18659336525E+04  0.50400001928E-02 0.  1.
       -1   -1    0    0    0  501  0.00000000000E+00  0.00000000000E+00 -0.14522501777E+04  0.14522501777E+04  0.50400001928E-02 0. -1.
    10030    2    1    2    0    0  0.00000000000E+00  0.00000000000E+00  0.41368347479E+03  0.33181838303E+04  0.32922955387E+04 0.  0.
        2    1    3    3  502    0  0.56253537806E+03  0.28293339595E+03  0.17397567896E+04  0.18502029740E+04  0.25500000920E-02 0.  1.
       -2    1    3    3    0  502 -0.56253537806E+03 -0.28293339595E+03 -0.13260733148E+04  0.14679808563E+04  0.25500000920E-02 0. -1.
</event>
<event>
 5   0  0.6424183E-07  0.3286994E+04  0.7818609E-02  0.8166213E-01
       -2   -1    0    0    0  501  0.00000000000E+00  0.00000000000E+00  0.12168564286E+04  0.12168564286E+04  0.25500000920E-02 0.  1.
        2   -1    0    0  501    0  0.00000000000E+00  0.00000000000E+00 -0.22197216095E+04  0.22197216095E+04  0.25500000920E-02 0. -1.
    10030    2    1    2    0    0  0.00000000000E+00  0.00000000000E+00 -0.10028651809E+04  0.34365780381E+04  0.32869940738E+04 0.  0.
        2    1    3    3  502    0 -0.15261700108E+04  0.48118213900E+03 -0.89311638011E+03  0.18325905219E+04  0.25500000920E-02 0. -1.
       -2    1    3    3    0  502  0.15261700108E+04 -0.48118213900E+03 -0.10974880074E+03  0.16039875162E+04  0.25500000920E-02 0.  1.
</event>
<event>
 5   0  0.1994250E-07  0.3334421E+04  0.7818609E-02  0.8154192E-01
       -3   -1    0    0    0  501  0.00000000000E+00  0.00000000000E+00  0.21909280205E+04  0.21909280228E+04  0.10100000352E+00 0.  1.
        3   -1    0    0  501    0  0.00000000000E+00  0.00000000000E+00 -0.12686820085E+04  0.12686820125E+04  0.10100000352E+00 0. -1.
    10030    2    1    2    0    0  0.00000000000E+00  0.00000000000E+00  0.92224601195E+03  0.34596100353E+04  0.33344210727E+04 0.  0.
        4    1    3    3  502    0  0.81838203566E+03  0.71216292575E+03  0.17746166337E+04  0.20799497587E+04  0.12699999809E+01 0.  1.
       -4    1    3    3    0  502 -0.81838203566E+03 -0.71216292575E+03 -0.85237062180E+03  0.13796602766E+04  0.12699999809E+01 0. -1.
</event>
<event>
 5   0  0.6258718E-07  0.3295459E+04  0.7818609E-02  0.8164052E-01
       -2   -1    0    0    0  501  0.00000000000E+00  0.00000000000E+00  0.15268333173E+04  0.15268333173E+04  0.25500000920E-02 0. -1.
        2   -1    0    0  501    0  0.00000000000E+00  0.00000000000E+00 -0.17781984693E+04  0.17781984693E+04  0.25500000920E-02 0.  1.
    10030    2    1    2    0    0  0.00000000000E+00  0.00000000000E+00 -0.25136515201E+03  0.33050317866E+04  0.32954590986E+04 0.  0.
        5    1    3    3  502    0 -0.10760797813E+04  0.90660349702E+03  0.73419527194E+03  0.15871176339E+04  0.46999998093E+01 0. -1.
       -5    1    3    3    0  502  0.10760797813E+04 -0.90660349702E+03 -0.98556042395E+03  0.17179141526E+04  0.46999998093E+01 0.  1.
</event>
<event>
 5   0  0.2037333E-07  0.3306830E+04  0.7818609E-02  0.8161160E-01
       -1   -1    0    0    0  501  0.00000000000E+00  0.00000000000E+00  0.15716172237E+04  0.15716172237E+04  0.50400001928E-02 0.  1.
        1   -1    0    0  501    0  0.00000000000E+00  0.00000000000E+00 -0.17394698008E+04  0.17394698008E+04  0.50400001928E-02 0. -1.
    10030    2    1    2    0    0  0.00000000000E+00  0.00000000000E+00 -0.16785257717E+03  0.33110870245E+04  0.33068297199E+04 0.  0.
        3    1    3    3  502    0  0.14583507982E+04 -0.76741362075E+03  0.50671373242E+02  0.16487202049E+04  0.10100000352E+00 0.  1.
       -3    1    3    3    0  502 -0.14583507982E+04  0.76741362075E+03 -0.21852395041E+03  0.16623668196E+04  0.10100000352E+00 0. -1.
</event>
<event>
 5   0  0.6426079E-07  0.3208712E+04  0.7818609E-02  0.8186520E-01
        2   -1    0    0  501    0  0.00000000000E+00  0.00000000000E+00  0.20924023961E+04  0.20924023961E+04  0.25500000920E-02 0. -1.
       -2   -1    0    0    0  501  0.00000000000E+00  0.00000000000E+00 -0.12301452801E+04  0.12301452801E+04  0.25500000920E-02 0.  1.
    10030    2    1    2    0    0  0.00000000000E+00  0.00000000000E+00  0.86225711594E+03  0.33225476762E+04  0.32087124718E+04 0.  0.
        4    1    3    3  502    0  0.15701541382E+04 -0.15520012737E+02  0.77194431245E+03  0.17497212701E+04  0.12699999809E+01 0. -1.
       -4    1    3    3    0  502 -0.15701541382E+04  0.15520012737E+02  0.90312803488E+02  0.15728264062E+04  0.12699999809E+01 0.  1.
</event>
<event>
 5   0  0.2080770E-07  0.3295439E+04  0.7818609E-02  0.8164057E-01
       -1   -1    0    0    0  501  0.00000000000E+00  0.00000000000E+00  0.10392850510E+04  0.10392850510E+04  0.50400001928E-02 0.  1.
        1   -1    0    0  501    0  0.00000000000E+00  0.00000000000E+00 -0.26123532959E+04  0.26123532959E+04  0.50400001928E-02 0. -1.
    10030    2    1    2    0    0  0.00000000000E+00  0.00000000000E+00 -0.15730682450E+04  0.36516383469E+04  0.32954391078E+04 0.  0.
        4    1    3    3  502    0  0.90139247922E+03 -0.27825417139E+03  0.71042925865E+03  0.11809509431E+04  0.12699999809E+01 0.  1.
       -4    1    3    3    0  502 -0.90139247922E+03  0.27825417139E+03 -0.22834975036E+04  0.24706874038E+04  0.12699999809E+01 0. -1.
</event>
<event>
 5   0  0.2080828E-07  0.3419292E+04  0.7818609E-02  0.8133188E-01
       -1   -1    0    0    0  501  0.00000000000E+00  0.00000000000E+00  0.18093815731E+04  0.18093815731E+04  0.50400001928E-02 0. -1.
        1   -1    0    0  501    0  0.00000000000E+00  0.00000000000E+00 -0.16154075198E+04  0.16154075198E+04  0.50400001928E-02 0.  1.
    10030    2    1    2    0    0  0.00000000000E+00  0.00000000000E+00  0.19397405328E+03  0.34247890929E+04  0.34192915052E+04 0.  0.
        1    1    3    3  502    0  0.14443120761E+04  0.29464716077E+03 -0.77045060700E+03  0.16632643988E+04  0.50400001928E-02 0.  1.
       -1    1    3    3    0  502 -0.14443120761E+04 -0.29464716077E+03  0.96442466027E+03  0.17615246941E+04  0.50400001928E-02 0. -1.
</event>
<event>
 5   0  0.6258718E-07  0.3293576E+04  0.7818609E-02  0.8164532E-01
        2   -1    0    0  501    0  0.00000000000E+00  0.00000000000E+00  0.20100105121E+04  0.20100105121E+04  0.25500000920E-02 0.  1.
       -2   -1    0    0    0  501  0.00000000000E+00  0.00000000000E+00 -0.13492021123E+04  0.13492021123E+04  0.25500000920E-02 0. -1.
    10030    2    1    2    0    0  0.00000000000E+00  0.00000000000E+00  0.66080839976E+03  0.33592126244E+04  0.32935758249E+04 0.  0.
        5    1    3    3  502    0  0.59783828526E+03 -0.13863547198E+04 -0.34034789382E+03  0.15476591367E+04  0.46999998093E+01 0. -1.
       -5    1    3    3    0  502 -0.59783828526E+03  0.13863547198E+04  0.10011562936E+04  0.18115534877E+04  0.46999998093E+01 0.  1.
</event>
<event>
 5   0  0.2087665E-07  0.3295889E+04  0.7818609E-02  0.8163942E-01
        1   -1    0    0  501    0  0.00000000000E+00  0.00000000000E+00  0.24657657313E+04  0.24657657313E+04  0.50400001928E-02 0. -1.
       -1   -1    0    0    0  501  0.00000000000E+00  0.00000000000E+00 -0.11013704821E+04  0.11013704821E+04  0.50400001928E-02 0.  1.
    10030    2    1    2    0    0  0.00000000000E+00  0.00000000000E+00  0.13643952492E+04  0.35671362134E+04  0.32958893138E+04 0.  0.
        5    1    3    3  502    0 -0.10447340289E+04 -0.41567313478E+03  0.19861073961E+04  0.22823010373E+04  0.46999998093E+01 0. -1.
       -5    1    3    3    0  502  0.10447340289E+04  0.41567313478E+03 -0.62171214691E+03  0.12848351761E+04  0.46999998093E+01 0.  1.
</event>
<event>
 5   0  0.6351753E-07  0.3304530E+04  0.7818609E-02  0.8161744E-01
       -2   -1    0    0    0  501  0.00000000000E+00  0.00000000000E+00  0.82177695719E+03  0.82177695719E+03  0.25500000920E-02 0. -1.
        2   -1    0    0  501    0  0.00000000000E+00  0.00000000000E+00 -0.33220444355E+04  0.33220444355E+04  0.25500000920E-02 0.  1.
    10030    2    1    2    0    0  0.00000000000E+00  0.00000000000E+00 -0.25002674783E+04  0.41438213927E+04  0.33045299623E+04 0.  0.
        3    1    3    3  502    0 -0.13999201962E+04 -0.96691490884E+02 -0.15632363967E+03  0.14119358663E+04  0.10100000352E+00 0. -1.
       -3    1    3    3    0  502  0.13999201962E+04  0.96691490884E+02 -0.23439438386E+04  0.27318855263E+04  0.10100000352E+00 0.  1.
</event>
<event>
 5   0  0.6377741E-07  0.3271863E+04  0.7818609E-02  0.8170092E-01
       -2   -1    0    0    0  501  0.00000000000E+00  0.00000000000E+00  0.13048661605E+04  0.13048661605E+04  0.25500000920E-02 0.  1.
        2   -1    0    0  501    0  0.00000000000E+00  0.00000000000E+00 -0.20509938935E+04  0.20509938935E+04  0.25500000920E-02 0. -1.
    10030    2    1    2    0    0  0.00000000000E+00  0.00000000000E+00 -0.74612773296E+03  0.33558600540E+04  0.32718633999E+04 0.  0.
        1    1    3    3  502    0  0.72773858165E+03 -0.11842456334E+04  0.51177188549E+03  0.14811993877E+04  0.50400001928E-02 0.  1.
       -1    1    3    3    0  502 -0.72773858165E+03  0.11842456334E+04 -0.12578996185E+04  0.18746606662E+04  0.50400001928E-02 0. -1.
</event>
<event>
 5   0  0.2057130E-07  0.3313859E+04  0.7818609E-02  0.8159378E-01
       -1   -1    0    0    0  501  0.00000000000E+00  0.00000000000E+00  0.12905785160E+04  0.12905785160E+04  0.50400001928E-02 0.  1.
        1   -1    0    0  501    0  0.00000000000E+00  0.00000000000E+00 -0.21272743665E+04  0.21272743665E+04  0.50400001928E-02 0. -1.
    10030    2    1    2    0    0  0.00000000000E+00  0.00000000000E+00 -0.83669585053E+03  0.34178528825E+04  0.33138585335E+04 0.  0.
        2    1    3    3  502    0  0.12574237721E+04  0.10696271603E+04 -0.56492678260E+03  0.17448091799E+04  0.25500000920E-02 0. -1.
       -2    1    3    3    0  502 -0.12574237721E+04 -0.10696271603E+04 -0.27176906793E+03  0.16730437026E+04  0.25500000920E-02 0.  1.
</event>
<event>
 5   0  0.2057130E-07  0.3307120E+04  0.7818609E-02  0.8161086E-01
        1   -1    0    0  501    0  0.00000000000E+00  0.00000000000E+00  0.23602426241E+04  0.23602426241E+04  0.50400001928E-02 0. -1.
       -1   -1    0    0    0  501  0.00000000000E+00  0.00000000000E+00 -0.11584662383E+04  0.11584662383E+04  0.50400001928E-02 0.  1.
    10030    2    1    2    0    0  0.00000000000E+00  0.00000000000E+00  0.12017763858E+04  0.35187088624E+04  0.33071204358E+04 0.  0.
        2    1    3    3  502    0 -0.15546402957E+04  0.29769849260E+02  0.11994358101E+04  0.19637817994E+04  0.25500000920E-02 0. -1.
       -2    1    3    3    0  502  0.15546402957E+04 -0.29769849260E+02  0.23405756656E+01  0.15549270630E+04  0.25500000920E-02 0.  1.
</event>
<event>
 5   0  0.6351753E-07  0.3293227E+04  0.7818609E-02  0.8164621E-01
       -2   -1    0    0    0  501  0.00000000000E+00  0.00000000000E+00  0.16609165434E+04  0.16609165434E+04  0.25500000920E-02 0. -1.
        2   -1    0    0  501    0  0.00000000000E+00  0.00000000000E+00 -0.16324332951E+04  0.16324332951E+04  0.25500000920E-02 0.  1.
    10030    2    1    2    0    0  0.00000000000E+00  0.00000000000E+00  0.28483248312E+02  0.32933498385E+04  0.32932266645E+04 0.  0.
        3    1    3    3  502    0  0.12014166565E+04 -0.11111714157E+04 -0.16806044407E+03  0.16450982404E+04  0.10100000352E+00 0.  1.
       -3    1    3    3    0  502 -0.12014166565E+04  0.11111714157E+04  0.19654369238E+03  0.16482515981E+04  0.10100000352E+00 0. -1.
</event>
<event>
 5   0  0.6258718E-07  0.3301316E+04  0.7818609E-02  0.8162561E-01
       -2   -1    0    0    0  501  0.00000000000E+00  0.00000000000E+00  0.11564512853E+04  0.11564512853E+04  0.25500000920E-02 0.  1.
        2   -1    0    0  501    0  0.00000000000E+00  0.00000000000E+00 -0.23560624703E+04  0.23560624703E+04  0.25500000920E-02 0. -1.
    10030    2    1    2    0    0  0.00000000000E+00  0.00000000000E+00 -0.11996111850E+04  0.35125137555E+04  0.33013157813E+04 0.  0.
        5    1    3    3  502    0 -0.15103451803E+04  0.50043182350E+03 -0.10673186790E+04  0.19159242746E+04  0.46999998093E+01 0.  1.
       -5    1    3    3    0  502  0.15103451803E+04 -0.50043182350E+03 -0.13229250602E+03  0.15965894809E+04  0.46999998093E+01 0. -1.
</event>
<event>
 5   0  0.2080770E-07  0.3083318E+04  0.7818609E-02  0.8220331E-01
        1   -1    0    0  501    0  0.00000000000E+00  0.00000000000E+00  0.28601264357E+04  0.28601264357E+04  0.50400001928E-02 0.  1.
       -1   -1    0    0    0  501  0.00000000000E+00  0.00000000000E+00 -0.83098173179E+03  0.83098173180E+03  0.50400001928E-02 0. -1.
    10030    2    1    2    0    0  0.00000000000E+00  0.00000000000E+00  0.20291447039E+04  0.36911081675E+04  0.30833182247E+04 0.  0.
        4    1    3    3  502    0  0.10754344843E+03  0.39861900505E+02 -0.82586665633E+03  0.83379368632E+03  0.12699999809E+01 0. -1.
       -4    1    3    3    0  502 -0.10754344843E+03 -0.39861900505E+02  0.28550113603E+04  0.28573144812E+04  0.12699999809E+01 0.  1.
</event>
<event>
 5   0  0.2080770E-07  0.3313497E+04  0.7818609E-02  0.8159470E-01
       -1   -1    0    0    0  501  0.00000000000E+00  0.00000000000E+00  0.22969428014E+04  0.22969428014E+04  0.50400001928E-02 0. -1.
        1   -1    0    0  501    0  0.00000000000E+00  0.00000000000E+00 -0.11949861348E+04  0.11949861348E+04  0.50400001928E-02 0.  1.
    10030    2    1    2    0    0  0.00000000000E+00  0.00000000000E+00  0.11019566666E+04  0.34919289363E+04  0.33134965219E+04 0.  0.
        4    1    3    3  502    0 -0.55204999747E+03  0.18262773157E+03  0.21858736734E+04  0.22618924415E+04  0.12699999809E+01 0. -1.
       -4    1    3    3    0  502  0.55204999747E+03 -0.18262773157E+03 -0.10839170068E+04  0.12300364948E+04  0.12699999809E+01 0.  1.
</event>
<event>
 5   0  0.2080828E-07  0.3301778E+04  0.7818609E-02  0.8162443E-01
       -1   -1    0    0    0  501  0.00000000000E+00  0.00000000000E+00  0.16754875652E+04  0.16754875652E+04  0.50400001928E-02 0. -1.
        1   -1    0    0  501    0  0.00000000000E+00  0.00000000000E+00 -0.16266519160E+04  0.16266519160E+04  0.50400001928E-02 0.  1.
    10030    2    1    2    0    0  0.00000000000E+00  0.00000000000E+00  0.48835649113E+02  0.33021394812E+04  0.33017783440E+04 0.  0.
        1    1    3    3  502    0  0.32350525817E+03  0.15652595866E+04  0.43767220753E+03  0.16571813983E+04  0.50400001928E-02 0.  1.
       -1    1    3    3    0  502 -0.32350525817E+03 -0.15652595866E+04 -0.38883655841E+03  0.16449580829E+04  0.50400001928E-02 0. -1.
</event>
<event>
 5   0  0.2080828E-07  0.3325864E+04  0.7818609E-02  0.8156345E-01
       -1   -1    0    0    0  501  0.00000000000E+00  0.00000000000E+00  0.16863845623E+04  0.16863845623E+04  0.50400001928E-02 0. -1.
        1   -1    0    0  501    0  0.00000000000E+00  0.00000000000E+00 -0.16398055184E+04  0.16398055184E+04  0.50400001928E-02 0.  1.
    10030    2    1    2    0    0  0.00000000000E+00  0.00000000000E+00  0.46579043910E+02  0.33261900807E+04  0.33258639247E+04 0.  0.
        1    1    3    3  502    0  0.15845065020E+04  0.45499677582E+03 -0.19504311049E+03  0.16600375707E+04  0.50400001928E-02 0. -1.
       -1    1    3    3    0  502 -0.15845065020E+04 -0.45499677582E+03  0.24162215440E+03  0.16661525100E+04  0.50400001928E-02 0.  1.
</event>
<event>
 5   0  0.2057130E-07  0.3295717E+04  0.7818609E-02  0.8163986E-01
        1   -1    0    0  501    0  0.00000000000E+00  0.00000000000E+00  0.23341002423E+04  0.23341002423E+04  0.50400001928E-02 0. -1.
       -1   -1    0    0    0  501  0.00000000000E+00  0.00000000000E+00 -0.11633763676E+04  0.11633763677E+04  0.50400001928E-02 0.  1.
    10030    2    1    2    0    0  0.00000000000E+00  0.00000000000E+00  0.11707238747E+04  0.34974766100E+04  0.32957166514E+04 0.  0.
        2    1    3    3  502    0  0.11804254468E+03  0.12386354295E+04 -0.56118927853E+03  0.13649487814E+04  0.25500000920E-02 0. -1.
       -2    1    3    3    0  502 -0.11804254468E+03 -0.12386354295E+04  0.17319131532E+04  0.21325278286E+04  0.25500000920E-02 0.  1.
</event>
<event>
 5   0  0.2087665E-07  0.3299916E+04  0.7818609E-02  0.8162917E-01
       -1   -1    0    0    0  501  0.00000000000E+00  0.00000000000E+00  0.16475436854E+04  0.16475436854E+04  0.50400001928E-02 0.  1.
        1   -1    0    0  501    0  0.00000000000E+00  0.00000000000E+00 -0.16523763151E+04  0.16523763151E+04  0.50400001928E-02 0. -1.
    10030    2    1    2    0    0  0.00000000000E+00  0.00000000000E+00 -0.48326296655E+01  0.32999200005E+04  0.32999164619E+04 0.  0.
        5    1    3    3  502    0  0.45285351554E+03 -0.70606704417E+02  0.15826022493E+04  0.16476387901E+04  0.46999998093E+01 0.  1.
       -5    1    3    3    0  502 -0.45285351554E+03  0.70606704417E+02 -0.15874348790E+04  0.16522812104E+04  0.46999998093E+01 0. -1.
</event>
<event>
 5   0  0.2057130E-07  0.3296152E+04  0.7818609E-02  0.8163875E-01
        1   -1    0    0  501    0  0.00000000000E+00  0.00000000000E+00  0.21329232636E+04  0.21329232636E+04  0.50400001928E-02 0. -1.
       -1   -1    0    0    0  501  0.00000000000E+00  0.00000000000E+00 -0.12734419156E+04  0.12734419156E+04  0.50400001928E-02 0.  1.
    10030    2    1    2    0    0  0.00000000000E+00  0.00000000000E+00  0.85948134799E+03  0.34063651792E+04  0.32961516267E+04 0.  0.
        2    1    3    3  502    0  0.14317960977E+04  0.38278890930E+03 -0.31518499701E+03  0.15152257247E+04  0.25500000920E-02 0.  1.
       -2    1    3    3    0  502 -0.14317960977E+04 -0.38278890930E+03  0.11746663450E+04  0.18911394545E+04  0.25500000920E-02 0. -1.
</event>
<event>
 5   0  0.6377741E-07  0.3294547E+04  0.7818609E-02  0.8164284E-01
       -2   -1    0    0    0  501  0.00000000000E+00  0.00000000000E+00  0.22110039536E+04  0.22110039536E+04  0.25500000920E-02 0.  1.
        2   -1    0    0  501    0  0.00000000000E+00  0.00000000000E+00 -0.12272752182E+04  0.12272752182E+04  0.25500000920E-02 0. -1.
    10030    2    1    2    0    0  0.00000000000E+00  0.00000000000E+00  0.98372873539E+03  0.34382791717E+04  0.32945472281E+04 0.  0.
        1    1    3    3  502    0  0.14351677520E+04 -0.78770433763E+03  0.30134662511E+03  0.16646304060E+04  0.50400001928E-02 0.  1.
       -1    1    3    3    0  502 -0.14351677520E+04  0.78770433763E+03  0.68238211028E+03  0.17736487658E+04  0.50400001928E-02 0. -1.
</event>
<event>
 5   0  0.6377741E-07  0.3228511E+04  0.7818609E-02  0.8181328E-01
       -2   -1    0    0    0  501  0.00000000000E+00  0.00000000000E+00  0.12306335658E+04  0.12306335658E+04  0.25500000920E-02 0.  1.
        2   -1    0    0  501    0  0.00000000000E+00  0.00000000000E+00 -0.21174633958E+04  0.21174633958E+04  0.25500000920E-02 0. -1.
    10030    2    1    2    0    0  0.00000000000E+00  0.00000000000E+00 -0.88682982994E+03  0.33480969616E+04  0.32285114398E+04 0.  0.
        1    1    3    3  502    0 -0.10952788600E+04 -0.95607367061E+03 -0.11709036956E+04  0.18667426468E+04  0.50400001928E-02 0. -1.
       -1    1    3    3    0  502  0.10952788600E+04  0.95607367061E+03  0.28407386563E+03  0.14813543148E+04  0.50400001928E-02 0.  1.
</event>
<event>
 5   0  0.6424183E-07  0.3296136E+04  0.7818609E-02  0.8163879E-01
        2   -1    0    0  501    0  0.00000000000E+00  0.00000000000E+00  0.18532232340E+04  0.18532232340E+04  0.25500000920E-02 0.  1.
       -2   -1    0    0    0  501  0.00000000000E+00  0.00000000000E+00 -0.14656239369E+04  0.14656239369E+04  0.25500000920E-02 0. -1.
    10030    2    1    2    0    0  0.00000000000E+00  0.00000000000E+00  0.38759929713E+03  0.33188471709E+04  0.32961361211E+04 0.  0.
        2    1    3    3  502    0  0.38167327304E+03 -0.11927306823E+04  0.12725580380E+04  0.17854088966E+04  0.25500000920E-02 0.  1.
       -2    1    3    3    0  502 -0.38167327304E+03  0.11927306823E+04 -0.88495874089E+03  0.15334382743E+04  0.25500000920E-02 0. -1.
</event>
<event>
 5   0  0.2080770E-07  0.3297868E+04  0.7818609E-02  0.8163438E-01
        1   -1    0    0  501    0  0.00000000000E+00  0.00000000000E+00  0.16889332787E+04  0.16889332787E+04  0.50400001928E-02 0. -1.
       -1   -1    0    0    0  501  0.00000000000E+00  0.00000000000E+00 -0.16098819270E+04  0.16098819270E+04  0.50400001928E-02 0.  1.
    10030    2    1    2    0    0  0.00000000000E+00  0.00000000000E+00  0.79051351731E+02  0.32988152058E+04  0.32978678939E+04 0.  0.
        4    1    3    3  502    0 -0.93900721256E+02  0.15979187838E+04 -0.35659282827E+03  0.16399151939E+04  0.12699999809E+01 0.  1.
       -4    1    3    3    0  502  0.93900721256E+02 -0.15979187838E+04  0.43564418000E+03  0.16589000119E+04  0.12699999809E+01 0. -1.
</event>
<event>
 5   0  0.2080770E-07  0.3298433E+04  0.7818609E-02  0.8163294E-01
        1   -1    0    0  501    0  0.00000000000E+00  0.00000000000E+00  0.11457071560E+04  0.11457071560E+04  0.50400001928E-02 0. -1.
       -1   -1    0    0    0  501  0.00000000000E+00  0.00000000000E+00 -0.23740061239E+04  0.23740061239E+04  0.50400001928E-02 0.  1.
    10030    2    1    2    0    0  0.00000000000E+00  0.00000000000E+00 -0.12282989679E+04  0.35197132799E+04  0.32984334491E+04 0.  0.
        4    1    3    3  502    0 -0.67063041968E+03 -0.13841476214E+04 -0.12493163430E+04  0.19815152625E+04  0.12699999809E+01 0.  1.
       -4    1    3    3    0  502  0.67063041968E+03  0.13841476214E+04  0.21017375166E+02  0.15381980174E+04  0.12699999809E+01 0. -1.
</event>
<event>
 5   0  0.2080828E-07  0.3283242E+04  0.7818609E-02  0.8167173E-01
        1   -1    0    0  501    0  0.00000000000E+00  0.00000000000E+00  0.19496895549E+04  0.19496895549E+04  0.50400001928E-02 0.  1.
       -1   -1    0    0    0  501  0.00000000000E+00  0.00000000000E+00 -0.13822299953E+04  0.13822299953E+04  0.50400001928E-02 0. -1.
    10030    2    1    2    0    0  0.00000000000E+00  0.00000000000E+00  0.56745955956E+03  0.33319195502E+04  0.32832419249E+04 0.  0.
        1    1    3    3  502    0 -0.11279924650E+04 -0.10027125605E+04 -0.37169382628E+03  0.15543345137E+04  0.50400001928E-02 0. -1.
       -1    1    3    3    0  502  0.11279924650E+04  0.10027125605E+04  0.93915338584E+03  0.17775850365E+04  0.50400001928E-02 0.  1.
</event>
<event>
 5   0  0.2057130E-07  0.3294587E+04  0.7818609E-02  0.8164274E-01
        1   -1    0    0  501    0  0.00000000000E+00  0.00000000000E+00  0.11830864780E+04  0.11830864780E+04  0.50400001928E-02 0.  1.
       -1   -1    0    0    0  501  0.00000000000E+00  0.00000000000E+00 -0.22936410748E+04  0.22936410748E+04  0.50400001928E-02 0. -1.
    10030    2    1    2    0    0  0.00000000000E+00  0.00000000000E+00 -0.11105545968E+04  0.34767275528E+04  0.32945869186E+04 0.  0.
        2    1    3    3  502    0  0.44109403536E+03 -0.53608233910E+03  0.10211739462E+04  0.12348054303E+04  0.25500000920E-02 0.  1.
       -2    1    3    3    0  502 -0.44109403536E+03  0.53608233910E+03 -0.21317285430E+04  0.22419221225E+04  0.25500000920E-02 0. -1.
</event>
<event>
 5   0  0.2057130E-07  0.3303861E+04  0.7818609E-02  0.8161914E-01
        1   -1    0    0  501    0  0.00000000000E+00  0.00000000000E+00  0.14341888559E+04  0.14341888559E+04  0.50400001928E-02 0.  1.
       -1   -1    0    0    0  501  0.00000000000E+00  0.00000000000E+00 -0.19027297283E+04  0.19027297283E+04  0.50400001928E-02 0. -1.
    10030    2    1    2    0    0  0.00000000000E+00  0.00000000000E+00 -0.46854087241E+03  0.33369185842E+04  0.33038606340E+04 0.  0.
        2    1    3    3  502    0 -0.11952493774E+03 -0.15379335441E+04  0.36270025114E+03  0.15846378983E+04  0.25500000920E-02 0. -1.
       -2    1    3    3    0  502  0.11952493774E+03  0.15379335441E+04 -0.83124112355E+03  0.17522806859E+04  0.25500000920E-02 0.  1.
</event>
<event>
 5   0  0.6351753E-07  0.3270559E+04  0.7818609E-02  0.8170427E-01
       -2   -1    0    0    0  501  0.00000000000E+00  0.00000000000E+00  0.14192026738E+04  0.14192026738E+04  0.25500000920E-02 0. -1.
        2   -1    0    0  501    0  0.00000000000E+00  0.00000000000E+00 -0.18842541745E+04  0.18842541745E+04  0.25500000920E-02 0.  1.
    10030    2    1    2    0    0  0.00000000000E+00  0.00000000000E+00 -0.46505150077E+03  0.33034568483E+04  0.32705587061E+04 0.  0.
        3    1    3    3  502    0  0.14957423389E+04 -0.56054512319E+03  0.12125819961E+03  0.16019237001E+04  0.10100000352E+00 0. -1.
       -3    1    3    3    0  502 -0.14957423389E+04  0.56054512319E+03 -0.58630970038E+03  0.17015331482E+04  0.10100000352E+00 0.  1.
</event>
<event>
 5   0  0.6377741E-07  0.3303389E+04  0.7818609E-02  0.8162034E-01
       -2   -1    0    0    0  501  0.00000000000E+00  0.00000000000E+00  0.12404279125E+04  0.12404279125E+04  0.25500000920E-02 0.  1.
        2   -1    0    0  501    0  0.00000000000E+00  0.00000000000E+00 -0.21993178401E+04  0.21993178401E+04  0.25500000920E-02 0. -1.
    10030    2    1    2    0    0  0.00000000000E+00  0.00000000000E+00 -0.95888992762E+03  0.34397457527E+04  0.33033893125E+04 0.  0.
        1    1    3    3  502    0 -0.40177846799E+02 -0.13515688378E+04 -0.14671465213E+04  0.19952121436E+04  0.50400001928E-02 0. -1.
       -1    1    3    3    0  502  0.40177846799E+02  0.13515688378E+04  0.50825659372E+03  0.14445336091E+04  0.50400001928E-02 0.  1.
</event>
<event>
 5   0  0.6351753E-07  0.3301019E+04  0.7818609E-02  0.8162636E-01
       -2   -1    0    0    0  501  0.00000000000E+00  0.00000000000E+00  0.13034072987E+04  0.13034072987E+04  0.25500000920E-02 0.  1.
        2   -1    0    0  501    0  0.00000000000E+00  0.00000000000E+00 -0.20900460106E+04  0.20900460106E+04  0.25500000920E-02 0. -1.
    10030    2    1    2    0    0  0.00000000000E+00  0.00000000000E+00 -0.78663871190E+03  0.33934533094E+04  0.33010187670E+04 0.  0.
        3    1    3    3  502    0  0.46331427282E+03 -0.13466901135E+04 -0.12509137187E+04  0.18955261852E+04  0.10100000352E+00 0. -1.
       -3    1    3    3    0  502 -0.46331427282E+03  0.13466901135E+04  0.46427500676E+03  0.14979271241E+04  0.10100000352E+00 0.  1.
</event>
<event>
 5   0  0.2080828E-07  0.3280776E+04  0.7818609E-02  0.8167804E-01
       -1   -1    0    0    0  501  0.00000000000E+00  0.00000000000E+00  0.15468096864E+04  0.15468096864E+04  0.50400001928E-02 0. -1.
        1   -1    0    0  501    0  0.00000000000E+00  0.00000000000E+00 -0.17396271756E+04  0.17396271756E+04  0.50400001928E-02 0.  1.
    10030    2    1    2    0    0  0.00000000000E+00  0.00000000000E+00 -0.19281748923E+03  0.32864368620E+04  0.32807756192E+04 0.  0.
        1    1    3    3  502    0 -0.63691815974E+03 -0.11790338779E+04  0.85131394246E+03  0.15876148954E+04  0.50400001928E-02 0. -1.
       -1    1    3    3    0  502  0.63691815974E+03  0.11790338779E+04 -0.10441314317E+04  0.16988219666E+04  0.50400001928E-02 0.  1.
</event>
<event>
 5   0  0.6424183E-07  0.3299306E+04  0.7818609E-02  0.8163072E-01
        2   -1    0    0  501    0  0.00000000000E+00  0.00000000000E+00  0.21424043615E+04  0.21424043615E+04  0.25500000920E-02 0.  1.
       -2   -1    0    0    0  501  0.00000000000E+00  0.00000000000E+00 -0.12702339025E+04  0.12702339025E+04  0.25500000920E-02 0. -1.
    10030    2    1    2    0    0  0.00000000000E+00  0.00000000000E+00  0.87217045893E+03  0.34126382640E+04  0.32993057772E+04 0.  0.
        2    1    3    3  502    0 -0.13401276784E+04  0.89797245528E+03  0.79298547669E+03  0.17975323894E+04  0.25500000920E-02 0.  1.
       -2    1    3    3    0  502  0.13401276784E+04 -0.89797245528E+03  0.79184982244E+02  0.16151058746E+04  0.25500000920E-02 0. -1.
</event>
<event>
 5   0  0.6424183E-07  0.3319557E+04  0.7818609E-02  0.8157937E-01
       -2   -1    0    0    0  501  0.00000000000E+00  0.00000000000E+00  0.17798473917E+04  0.17798473917E+04  0.25500000920E-02 0.  1.
        2   -1    0    0  501    0  0.00000000000E+00  0.00000000000E+00 -0.15478092118E+04  0.15478092118E+04  0.25500000920E-02 0. -1.
    10030    2    1    2    0    0  0.00000000000E+00  0.00000000000E+00  0.23203817989E+03  0.33276566036E+04  0.33195567105E+04 0.  0.
        2    1    3    3  502    0 -0.51871364376E+03  0.36694327948E+03 -0.14210693416E+04  0.15566468091E+04  0.25500000920E-02 0. -1.
       -2    1    3    3    0  502  0.51871364376E+03 -0.36694327948E+03  0.16531075215E+04  0.17710097945E+04  0.25500000920E-02 0.  1.
</event>
<event>
 5   0  0.2080828E-07  0.3290648E+04  0.7818609E-02  0.8165279E-01
        1   -1    0    0  501    0  0.00000000000E+00  0.00000000000E+00  0.15218624492E+04  0.15218624493E+04  0.50400001928E-02 0.  1.
       -1   -1    0    0    0  501  0.00000000000E+00  0.00000000000E+00 -0.17788009937E+04  0.17788009937E+04  0.50400001928E-02 0. -1.
    10030    2    1    2    0    0  0.00000000000E+00  0.00000000000E+00 -0.25693854440E+03  0.33006634429E+04  0.32906476183E+04 0.  0.
        1    1    3    3  502    0  0.44456679880E+03  0.10023391871E+04 -0.13588924046E+04  0.17461134133E+04  0.50400001928E-02 0. -1.
       -1    1    3    3    0  502 -0.44456679880E+03 -0.10023391871E+04  0.11019538602E+04  0.15545500297E+04  0.50400001928E-02 0.  1.
</event>
<event>
 5   0  0.2080770E-07  0.3290759E+04  0.7818609E-02  0.8165251E-01
       -1   -1    0    0    0  501  0.00000000000E+00  0.00000000000E+00  0.13274059259E+04  0.13274059259E+04  0.50400001928E-02 0.  1.
        1   -1    0    0  501    0  0.00000000000E+00  0.00000000000E+00 -0.20395222245E+04  0.20395222245E+04  0.50400001928E-02 0. -1.
    10030    2    1    2    0    0  0.00000000000E+00  0.00000000000E+00 -0.71211629859E+03  0.33669281505E+04  0.32907591142E+04 0.  0.
        4    1    3    3  502    0 -0.57526174368E+03 -0.48820629829E+03 -0.18520929242E+04  0.19998803154E+04  0.12699999809E+01 0. -1.
       -4    1    3    3    0  502  0.57526174368E+03  0.48820629829E+03  0.11399766256E+04  0.13670478350E+04  0.12699999809E+01 0.  1.
</event>
<event>
 5   0  0.2087665E-07  0.3321322E+04  0.7818609E-02  0.8157491E-01
        1   -1    0    0  501    0  0.00000000000E+00  0.00000000000E+00  0.20608934638E+04  0.20608934638E+04  0.50400001928E-02 0.  1.
       -1   -1    0    0    0  501  0.00000000000E+00  0.00000000000E+00 -0.13381550940E+04  0.13381550941E+04  0.50400001928E-02 0. -1.
    10030    2    1    2    0    0  0.00000000000E+00  0.00000000000E+00  0.72273836973E+03  0.33990485578E+04  0.33213220783E+04 0.  0.
        5    1    3    3  502    0 -0.12145463847E+04 -0.11144743174E+04  0.56757159365E+03  0.17433690167E+04  0.46999998093E+01 0.  1.
       -5    1    3    3    0  502  0.12145463847E+04  0.11144743174E+04  0.15516677608E+03  0.16556795411E+04  0.46999998093E+01 0. -1.
</event>
<event>
 5   0  0.6426079E-07  0.3303020E+04  0.7818609E-02  0.8162127E-01
        2   -1    0    0  501    0  0.00000000000E+00  0.00000000000E+00  0.10692435458E+04  0.10692435458E+04  0.25500000920E-02 0.  1.
       -2   -1    0    0    0  501  0.00000000000E+00  0.00000000000E+00 -0.25508548564E+04  0.25508548564E+04  0.25500000920E-02 0. -1.
    10030    2    1    2    0    0  0.00000000000E+00  0.00000000000E+00 -0.14816113106E+04  0.36200984021E+04  0.33030198857E+04 0.  0.
        4    1    3    3  502    0  0.72514072583E+03  0.57914049516E+03  0.75644385051E+03  0.11972642554E+04  0.12699999809E+01 0.  1.
       -4    1    3    3    0  502 -0.72514072583E+03 -0.57914049516E+03 -0.22380551611E+04  0.24228341467E+04  0.12699999809E+01 0. -1.
</event>
<event>
 5   0  0.2087665E-07  0.3290354E+04  0.7818609E-02  0.8165354E-01
       -1   -1    0    0    0  501  0.00000000000E+00  0.00000000000E+00  0.10341694661E+04  0.10341694661E+04  0.50400001928E-02 0.  1.
        1   -1    0    0  501    0  0.00000000000E+00  0.00000000000E+00 -0.26171801870E+04  0.26171801870E+04  0.50400001928E-02 0. -1.
    10030    2    1    2    0    0  0.00000000000E+00  0.00000000000E+00 -0.15830107209E+04  0.36513496531E+04  0.32903542889E+04 0.  0.
        5    1    3    3  502    0  0.15435054174E+04 -0.37176325553E+03 -0.12700592697E+04  0.20331476902E+04  0.46999998093E+01 0. -1.
       -5    1    3    3    0  502 -0.15435054174E+04  0.37176325553E+03 -0.31295145121E+03  0.16182019628E+04  0.46999998093E+01 0.  1.
</event>
<event>
 5   0  0.6351753E-07  0.3304367E+04  0.7818609E-02  0.8161785E-01
       -2   -1    0    0    0  501  0.00000000000E+00  0.00000000000E+00  0.12491281518E+04  0.12491281518E+04  0.25500000920E-02 0.  1.
        2   -1    0    0  501    0  0.00000000000E+00  0.00000000000E+00 -0.21852923378E+04  0.21852923378E+04  0.25500000920E-02 0. -1.
    10030    2    1    2    0    0  0.00000000000E+00  0.00000000000E+00 -0.93616418602E+03  0.34344204896E+04  0.33043669161E+04 0.  0.
        3    1    3    3  502    0 -0.98150773893E+03 -0.12157673683E+04  0.89950063062E+02  0.15651002394E+04  0.10100000352E+00 0.  1.
       -3    1    3    3    0  502  0.98150773893E+03  0.12157673683E+04 -0.10261142491E+04  0.18693202502E+04  0.10100000352E+00 0. -1.
</event>
<event>
 5   0  0.2087665E-07  0.3307595E+04  0.7818609E-02  0.8160966E-01
       -1   -1    0    0    0  501  0.00000000000E+00  0.00000000000E+00  0.14289746522E+04  0.14289746523E+04  0.50400001928E-02 0.  1.
        1   -1    0    0  501    0  0.00000000000E+00  0.00000000000E+00 -0.19139915858E+04  0.19139915858E+04  0.50400001928E-02 0. -1.
    10030    2    1    2    0    0  0.00000000000E+00  0.00000000000E+00 -0.48501693351E+03  0.33429662380E+04  0.33075945705E+04 0.  0.
        5    1    3    3  502    0  0.15636288274E+04 -0.13972007119E+03  0.28321429686E+03  0.15952082109E+04  0.46999998093E+01 0.  1.
       -5    1    3    3    0  502 -0.15636288274E+04  0.13972007119E+03 -0.76823123037E+03  0.17477580271E+04  0.46999998093E+01 0. -1.
</event>
<event>
 5   0  0.2037333E-07  0.3283537E+04  0.7818609E-02  0.8167097E-01
       -1   -1    0    0    0  501  0.00000000000E+00  0.00000000000E+00  0.15065227005E+04  0.15065227005E+04  0.50400001928E-02 0.  1.
        1   -1    0    0  501    0  0.00000000000E+00  0.00000000000E+00 -0.17891554630E+04  0.17891554630E+04  0.50400001928E-02 0. -1.
    10030    2    1    2    0    0  0.00000000000E+00  0.00000000000E+00 -0.28263276247E+03  0.32956781635E+04  0.32835367029E+04 0.  0.
        3    1    3    3  502    0 -0.10895201748E+04 -0.11917947183E+03  0.10855558685E+04  0.15426242289E+04  0.10100000352E+00 0.  1.
       -3    1    3    3    0  502  0.10895201748E+04  0.11917947183E+03 -0.13681886309E+04  0.17530539347E+04  0.10100000352E+00 0. -1.
</event>
<event>
 5   0  0.2037333E-07  0.3289487E+04  0.7818609E-02  0.8165576E-01
        1   -1    0    0  501    0  0.00000000000E+00  0.00000000000E+00  0.22483848329E+04  0.22483848329E+04  0.50400001928E-02 0. -1.
       -1   -1    0    0    0  501  0.00000000000E+00  0.00000000000E+00 -0.12031665953E+04  0.12031665953E+04  0.50400001928E-02 0.  1.
    10030    2    1    2    0    0  0.00000000000E+00  0.00000000000E+00  0.10452182376E+04  0.34515514282E+04  0.32894872089E+04 0.  0.
        3    1    3    3  502    0  0.50800659519E+03 -0.90212724536E+03 -0.81835174393E+03  0.13196983953E+04  0.10100000352E+00 0.  1.
       -3    1    3    3    0  502 -0.50800659519E+03  0.90212724536E+03  0.18635699815E+04  0.21318530329E+04  0.10100000352E+00 0. -1.
</event>
<event>
 5   0  0.1994250E-07  0.3301846E+04  0.7818609E-02  0.8162426E-01
        3   -1    0    0  501    0  0.00000000000E+00  0.00000000000E+00  0.28133149915E+04  0.28133149933E+04  0.10100000352E+00 0. -1.
       -3   -1    0    0    0  501  0.00000000000E+00  0.00000000000E+00 -0.96880258294E+03  0.96880258820E+03  0.10100000352E+00 0.  1.
    10030    2    1    2    0    0  0.00000000000E+00  0.00000000000E+00  0.18445124086E+04  0.37821175815E+04  0.33018460556E+04 0.  0.
        2    1    3    3  502    0 -0.11600033153E+02  0.11934128560E+04  0.22288679794E+04  0.25282842552E+04  0.25500000920E-02 0. -1.
       -2    1    3    3    0  502  0.11600033153E+02 -0.11934128560E+04 -0.38435557077E+03  0.12538333264E+04  0.25500000920E-02 0.  1.
</event>
<event>
 5   0  0.6426079E-07  0.3246135E+04  0.7818609E-02  0.8176738E-01
        2   -1    0    0  501    0  0.00000000000E+00  0.00000000000E+00  0.18231110779E+04  0.18231110779E+04  0.25500000920E-02 0. -1.
       -2   -1    0    0    0  501  0.00000000000E+00  0.00000000000E+00 -0.14449735746E+04  0.14449735746E+04  0.25500000920E-02 0.  1.
    10030    2    1    2    0    0  0.00000000000E+00  0.00000000000E+00  0.37813750338E+03  0.32680846525E+04  0.32461345204E+04 0.  0.
        4    1    3    3  502    0  0.28618120261E+03 -0.13709751005E+04  0.10149040386E+04  0.17295965504E+04  0.12699999809E+01 0. -1.
       -4    1    3    3    0  502 -0.28618120261E+03  0.13709751005E+04 -0.63676653517E+03  0.15384881020E+04  0.12699999809E+01 0.  1.
</event>
<event>
 5   0  0.6351753E-07  0.3267209E+04  0.7818609E-02  0.8171290E-01
        2   -1    0    0  501    0  0.00000000000E+00  0.00000000000E+00  0.18190063925E+04  0.18190063925E+04  0.25500000920E-02 0.  1.
       -2   -1    0    0    0  501  0.00000000000E+00  0.00000000000E+00 -0.14670996945E+04  0.14670996945E+04  0.25500000920E-02 0. -1.
    10030    2    1    2    0    0  0.00000000000E+00  0.00000000000E+00  0.35190669800E+03  0.32861060870E+04  0.32672090370E+04 0.  0.
        3    1    3    3  502    0 -0.90214335285E+02 -0.12670778354E+04  0.12090450750E+04  0.17536860810E+04  0.10100000352E+00 0.  1.
       -3    1    3    3    0  502  0.90214335285E+02  0.12670778354E+04 -0.85713837695E+03  0.15324200060E+04  0.10100000352E+00 0. -1.
</event>
<event>
 5   0  0.6424183E-07  0.3106497E+04  0.7818609E-02  0.8213957E-01
       -2   -1    0    0    0  501  0.00000000000E+00  0.00000000000E+00  0.13122987501E+04  0.13122987501E+04  0.25500000920E-02 0. -1.
        2   -1    0    0  501    0  0.00000000000E+00  0.00000000000E+00 -0.18384390731E+04  0.18384390731E+04  0.25500000920E-02 0.  1.
    10030    2    1    2    0    0  0.00000000000E+00  0.00000000000E+00 -0.52614032308E+03  0.31507378232E+04  0.31064972543E+04 0.  0.
        2    1    3    3  502    0 -0.97327771864E+03 -0.10841162233E+04  0.28311906897E+03  0.14841610123E+04  0.25500000920E-02 0. -1.
       -2    1    3    3    0  502  0.97327771864E+03  0.10841162233E+04 -0.80925939205E+03  0.16665768109E+04  0.25500000920E-02 0.  1.
</event>
<event>
 5   0  0.6377741E-07  0.3296423E+04  0.7818609E-02  0.8163806E-01
       -2   -1    0    0    0  501  0.00000000000E+00  0.00000000000E+00  0.13938749996E+04  0.13938749996E+04  0.25500000920E-02 0. -1.
        2   -1    0    0  501    0  0.00000000000E+00  0.00000000000E+00 -0.19489558873E+04  0.19489558873E+04  0.25500000920E-02 0.  1.
    10030    2    1    2    0    0  0.00000000000E+00  0.00000000000E+00 -0.55508088765E+03  0.33428308869E+04  0.32964228410E+04 0.  0.
        1    1    3    3  502    0 -0.61920463652E+03  0.10456673632E+04 -0.14066638231E+04  0.18589076705E+04  0.50400001928E-02 0.  1.
       -1    1    3    3    0  502  0.61920463652E+03 -0.10456673632E+04  0.85158293542E+03  0.14839232164E+04  0.50400001928E-02 0. -1.
</event>
<event>
 5   0  0.6258718E-07  0.3301229E+04  0.7818609E-02  0.8162583E-01
        2   -1    0    0  501    0  0.00000000000E+00  0.00000000000E+00  0.22202816298E+04  0.22202816298E+04  0.25500000920E-02 0. -1.
       -2   -1    0    0    0  501  0.00000000000E+00  0.00000000000E+00 -0.12271094262E+04  0.12271094262E+04  0.25500000920E-02 0.  1.
    10030    2    1    2    0    0  0.00000000000E+00  0.00000000000E+00  0.99317220358E+03  0.34473910561E+04  0.33012291752E+04 0.  0.
        5    1    3    3  502    0 -0.74219889005E+03 -0.85940806352E+03  0.17475669600E+04  0.20840954349E+04  0.46999998093E+01 0. -1.
       -5    1    3    3    0  502  0.74219889005E+03  0.85940806352E+03 -0.75439475646E+03  0.13632956211E+04  0.46999998093E+01 0.  1.
</event>
<event>
 5   0  0.6351753E-07  0.3284102E+04  0.7818609E-02  0.8166953E-01
       -2   -1    0    0    0  501  0.00000000000E+00  0.00000000000E+00  0.15047047199E+04  0.15047047200E+04  0.25500000920E-02 0.  1.
        2   -1    0    0  501    0  0.00000000000E+00  0.00000000000E+00 -0.17919335074E+04  0.17919335074E+04  0.25500000920E-02 0. -1.
    10030    2    1    2    0    0  0.00000000000E+00  0.00000000000E+00 -0.28722878748E+03  0.32966382274E+04  0.32841015858E+04 0.  0.
        3    1    3    3  502    0  0.13160498443E+03  0.47651045942E+03  0.14282330683E+04  0.15113675256E+04  0.10100000352E+00 0.  1.
       -3    1    3    3    0  502 -0.13160498443E+03 -0.47651045942E+03 -0.17154618558E+04  0.17852707018E+04  0.10100000352E+00 0. -1.
</event>
<event>
 5   0  0.2037333E-07  0.3328439E+04  0.7818609E-02  0.8155697E-01
        1   -1    0    0  501    0  0.00000000000E+00  0.00000000000E+00  0.12473457051E+04  0.12473457052E+04  0.50400001928E-02 0. -1.
       -1   -1    0    0    0  501  0.00000000000E+00  0.00000000000E+00 -0.22204159882E+04  0.22204159882E+04  0.50400001928E-02 0.  1.
    10030    2    1    2    0    0  0.00000000000E+00  0.00000000000E+00 -0.97307028306E+03  0.34677616934E+04  0.33284388812E+04 0.  0.
        3    1    3    3  502    0  0.55964013775E+03 -0.22803078898E+03  0.11289941500E+04  0.12805557096E+04  0.10100000352E+00 0. -1.
       -3    1    3    3    0  502 -0.55964013775E+03  0.22803078898E+03 -0.21020644330E+04  0.21872059838E+04  0.10100000352E+00 0.  1.
</event>
<event>
 5   0  0.2037333E-07  0.3277596E+04  0.7818609E-02  0.8168620E-01
        1   -1    0    0  501    0  0.00000000000E+00  0.00000000000E+00  0.23828890566E+04  0.23828890567E+04  0.50400001928E-02 0.  1.
       -1   -1    0    0    0  501  0.00000000000E+00  0.00000000000E+00 -0.11270597119E+04  0.11270597119E+04  0.50400001928E-02 0. -1.
    10030    2    1    2    0    0  0.00000000000E+00  0.00000000000E+00  0.12558293448E+04  0.35099487686E+04  0.32775956149E+04 0.  0.
        3    1    3    3  502    0  0.15794139569E+04  0.40625755673E+03  0.80080507655E+03  0.18168330772E+04  0.10100000352E+00 0. -1.
       -3    1    3    3    0  502 -0.15794139569E+04 -0.40625755673E+03  0.45502426820E+03  0.16931156914E+04  0.10100000352E+00 0.  1.
</event>
<event>
 5   0  0.2087665E-07  0.3292570E+04  0.7818609E-02  0.8164789E-01
       -1   -1    0    0    0  501  0.00000000000E+00  0.00000000000E+00  0.11567852412E+04  0.11567852412E+04  0.50400001928E-02 0.  1.
        1   -1    0    0  501    0  0.00000000000E+00  0.00000000000E+00 -0.23429185299E+04  0.23429185299E+04  0.50400001928E-02 0. -1.
    10030    2    1    2    0    0  0.00000000000E+00  0.00000000000E+00 -0.11861332887E+04  0.34997037711E+04  0.32925695599E+04 0.  0.
        5    1    3    3  502    0 -0.12796685752E+04 -0.13700624027E+03  0.49811714858E+03  0.13800236070E+04  0.46999998093E+01 0.  1.
       -5    1    3    3    0  502  0.12796685752E+04  0.13700624027E+03 -0.16842504373E+04  0.21196801641E+04  0.46999998093E+01 0. -1.
</event>
<event>
 5   0  0.2037333E-07  0.3322247E+04  0.7818609E-02  0.8157258E-01
       -1   -1    0    0    0  501  0.00000000000E+00  0.00000000000E+00  0.20137714043E+04  0.20137714043E+04  0.50400001928E-02 0. -1.
        1   -1    0    0  501    0  0.00000000000E+00  0.00000000000E+00 -0.13702303581E+04  0.13702303581E+04  0.50400001928E-02 0.  1.
    10030    2    1    2    0    0  0.00000000000E+00  0.00000000000E+00  0.64354104626E+03  0.33840017624E+04  0.33222466570E+04 0.  0.
        3    1    3    3  502    0 -0.98927566476E+02  0.11694033817E+04 -0.87568385920E+03  0.14642790595E+04  0.10100000352E+00 0.  1.
       -3    1    3    3    0  502  0.98927566476E+02 -0.11694033817E+04  0.15192249055E+04  0.19197227029E+04  0.10100000352E+00 0. -1.
</event>
<event>
 5   0  0.6424183E-07  0.3315848E+04  0.7818609E-02  0.8158874E-01
        2   -1    0    0  501    0  0.00000000000E+00  0.00000000000E+00  0.17363860753E+04  0.17363860753E+04  0.25500000920E-02 0. -1.
       -2   -1    0    0    0  501  0.00000000000E+00  0.00000000000E+00 -0.15830077420E+04  0.15830077420E+04  0.25500000920E-02 0.  1.
    10030    2    1    2    0    0  0.00000000000E+00  0.00000000000E+00  0.15337833330E+03  0.33193938173E+04  0.33158483682E+04 0.  0.
        2    1    3    3  502    0 -0.22652040876E+03 -0.12199502557E+03 -0.15629016102E+04  0.15839367806E+04  0.25500000920E-02 0.  1.
       -2    1    3    3    0  502  0.22652040876E+03  0.12199502557E+03  0.17162799435E+04  0.17354570367E+04  0.25500000920E-02 0. -1.
</event>
<event>
 5   0  0.6351753E-07  0.3295007E+04  0.7818609E-02  0.8164167E-01
       -2   -1    0    0    0  501  0.00000000000E+00  0.00000000000E+00  0.22863809987E+04  0.22863809987E+04  0.25500000920E-02 0. -1.
        2   -1    0    0  501    0  0.00000000000E+00  0.00000000000E+00 -0.11871459450E+04  0.11871459450E+04  0.25500000920E-02 0.  1.
    10030    2    1    2    0    0  0.00000000000E+00  0.00000000000E+00  0.10992350537E+04  0.34735269436E+04  0.32950070903E+04 0.  0.
        3    1    3    3  502    0 -0.22049603958E+03 -0.10279130406E+04 -0.78758843883E+03  0.13135902259E+04  0.10100000352E+00 0.  1.
       -3    1    3    3    0  502  0.22049603958E+03  0.10279130406E+04  0.18868234925E+04  0.21599367177E+04  0.10100000352E+00 0. -1.
</event>
<event>
 5   0  0.2037333E-07  0.3317136E+04  0.7818609E-02  0.8158549E-01
        1   -1    0    0  501    0  0.00000000000E+00  0.00000000000E+00  0.18289578617E+04  0.18289578618E+04  0.50400001928E-02 0. -1.
       -1   -1    0    0    0  501  0.00000000000E+00  0.00000000000E+00 -0.15040520347E+04  0.15040520347E+04  0.50400001928E-02 0.  1.
    10030    2    1    2    0    0  0.00000000000E+00  0.00000000000E+00  0.32490582703E+03  0.33330098965E+04  0.33171359896E+04 0.  0.
        3    1    3    3  502    0  0.48601472785E+03  0.79574738943E+03 -0.12157609556E+04  0.15321549970E+04  0.10100000352E+00 0.  1.
       -3    1    3    3    0  502 -0.48601472785E+03 -0.79574738943E+03  0.15406667827E+04  0.18008548995E+04  0.10100000352E+00 0. -1.
</event>
<event>
 5   0  0.2057130E-07  0.3284781E+04  0.7818609E-02  0.8166779E-01
       -1   -1    0    0    0  501  0.00000000000E+00  0.00000000000E+00  0.11126314143E+04  0.11126314143E+04  0.50400001928E-02 0.  1.
        1   -1    0    0  501    0  0.00000000000E+00  0.00000000000E+00 -0.24243842097E+04  0.24243842097E+04  0.50400001928E-02 0. -1.
    10030    2    1    2    0    0  0.00000000000E+00  0.00000000000E+00 -0.13117527954E+04  0.35370156240E+04  0.32847806819E+04 0.  0.
        2    1    3    3  502    0 -0.85263877291E+03  0.13939468562E+04 -0.47774895166E+03  0.17024467028E+04  0.25500000920E-02 0. -1.
       -2    1    3    3    0  502  0.85263877291E+03 -0.13939468562E+04 -0.83400384372E+03  0.18345689211E+04  0.25500000920E-02 0.  1.
</event>
<event>
 5   0  0.6424183E-07  0.3241693E+04  0.7818609E-02  0.8177892E-01
        2   -1    0    0  501    0  0.00000000000E+00  0.00000000000E+00  0.83542071860E+03  0.83542071860E+03  0.25500000920E-02 0. -1.
       -2   -1    0    0    0  501  0.00000000000E+00  0.00000000000E+00 -0.31446954975E+04  0.31446954975E+04  0.25500000920E-02 0.  1.
    10030    2    1    2    0    0  0.00000000000E+00  0.00000000000E+00 -0.23092747789E+04  0.39801162161E+04  0.32416932442E+04 0.  0.
        2    1    3    3  502    0  0.66632197828E+03  0.70842715211E+03  0.43737015608E+03  0.10663707901E+04  0.25500000920E-02 0. -1.
       -2    1    3    3    0  502 -0.66632197828E+03 -0.70842715211E+03 -0.27466449350E+04  0.29137454260E+04  0.25500000920E-02 0.  1.
</event>
<event>
 5   0  0.2080770E-07  0.3304608E+04  0.7818609E-02  0.8161724E-01
        1   -1    0    0  501    0  0.00000000000E+00  0.00000000000E+00  0.19031510196E+04  0.19031510196E+04  0.50400001928E-02 0.  1.
       -1   -1    0    0    0  501  0.00000000000E+00  0.00000000000E+00 -0.14345197776E+04  0.14345197776E+04  0.50400001928E-02 0. -1.
    10030    2    1    2    0    0  0.00000000000E+00  0.00000000000E+00  0.46863124204E+03  0.33376707972E+04  0.33046075575E+04 0.  0.
        4    1    3    3  502    0  0.12205555766E+04 -0.93966215409E+03 -0.36948275501E+03  0.15840580793E+04  0.12699999809E+01 0. -1.
       -4    1    3    3    0  502 -0.12205555766E+04  0.93966215409E+03  0.83811399705E+03  0.17536127179E+04  0.12699999809E+01 0.  1.
</event>
<event>
 5   0  0.6377741E-07  0.3301752E+04  0.7818609E-02  0.8162450E-01
        2   -1    0    0  501    0  0.00000000000E+00  0.00000000000E+00  0.23530388775E+04  0.23530388775E+04  0.25500000920E-02 0. -1.
       -2   -1    0    0    0  501  0.00000000000E+00  0.00000000000E+00 -0.11582431291E+04  0.11582431291E+04  0.25500000920E-02 0.  1.
    10030    2    1    2    0    0  0.00000000000E+00  0.00000000000E+00  0.11947957484E+04  0.35112820065E+04  0.33017517243E+04 0.  0.
        1    1    3    3  502    0  0.10711074066E+04 -0.67306679583E+03  0.17254185940E+04  0.21394764109E+04  0.50400001928E-02 0. -1.
       -1    1    3    3    0  502 -0.10711074066E+04  0.67306679583E+03 -0.53062284559E+03  0.13718055957E+04  0.50400001928E-02 0.  1.
</event>
<event>
 5   0  0.2080770E-07  0.3299935E+04  0.7818609E-02  0.8162912E-01
       -1   -1    0    0    0  501  0.00000000000E+00  0.00000000000E+00  0.13283892916E+04  0.13283892916E+04  0.50400001928E-02 0. -1.
        1   -1    0    0  501    0  0.00000000000E+00  0.00000000000E+00 -0.20493932498E+04  0.20493932498E+04  0.50400001928E-02 0.  1.
    10030    2    1    2    0    0  0.00000000000E+00  0.00000000000E+00 -0.72100395828E+03  0.33777825414E+04  0.32999345735E+04 0.  0.
        4    1    3    3  502    0 -0.49308743572E+03  0.14971016703E+04 -0.85980217017E+03  0.17954693022E+04  0.12699999809E+01 0.  1.
       -4    1    3    3    0  502  0.49308743572E+03 -0.14971016703E+04  0.13879821189E+03  0.15823132392E+04  0.12699999809E+01 0. -1.
</event>
<event>
 5   0  0.2037333E-07  0.3292763E+04  0.7818609E-02  0.8164739E-01
       -1   -1    0    0    0  501  0.00000000000E+00  0.00000000000E+00  0.15181478986E+04  0.15181478987E+04  0.50400001928E-02 0.  1.
        1   -1    0    0  501    0  0.00000000000E+00  0.00000000000E+00 -0.17854468290E+04  0.17854468290E+04  0.50400001928E-02 0. -1.
    10030    2    1    2    0    0  0.00000000000E+00  0.00000000000E+00 -0.26729893031E+03  0.33035947276E+04  0.32927631871E+04 0.  0.
        3    1    3    3  502    0  0.27721022248E+03 -0.14574364188E+04 -0.84986460705E+03  0.17097474325E+04  0.10100000352E+00 0. -1.
       -3    1    3    3    0  502 -0.27721022248E+03  0.14574364188E+04  0.58256567674E+03  0.15938472951E+04  0.10100000352E+00 0.  1.
</event>
<event>
 5   0  0.2057130E-07  0.3305264E+04  0.7818609E-02  0.8161557E-01
       -1   -1    0    0    0  501  0.00000000000E+00  0.00000000000E+00  0.16523770204E+04  0.16523770204E+04  0.50400001928E-02 0.  1.
        1   -1    0    0  501    0  0.00000000000E+00  0.00000000000E+00 -0.16528866639E+04  0.16528866639E+04  0.50400001928E-02 0. -1.
    10030    2    1    2    0    0  0.00000000000E+00  0.00000000000E+00 -0.50964350598E+00  0.33052636843E+04  0.33052636450E+04 0.  0.
        2    1    3    3  502    0 -0.44602885656E+03  0.10547685721E+04  0.11912624853E+04  0.16524481203E+04  0.25500000920E-02 0.  1.
       -2    1    3    3    0  502  0.44602885656E+03 -0.10547685721E+04 -0.11917721288E+04  0.16528155640E+04  0.25500000920E-02 0. -1.
</event>
<event>
 5   0  0.6377741E-07  0.3295201E+04  0.7818609E-02  0.8164118E-01
       -2   -1    0    0    0  501  0.00000000000E+00  0.00000000000E+00  0.29132678541E+04  0.29132678541E+04  0.25500000920E-02 0.  1.
        2   -1    0    0  501    0  0.00000000000E+00  0.00000000000E+00 -0.93180131320E+03  0.93180131320E+03  0.25500000920E-02 0. -1.
    10030    2    1    2    0    0  0.00000000000E+00  0.00000000000E+00  0.19814665409E+04  0.38450691673E+04  0.32952006386E+04 0.  0.
        1    1    3    3  502    0 -0.12706899191E+04  0.67563655204E+03  0.19267409740E+04  0.24048842803E+04  0.50400001928E-02 0.  1.
       -1    1    3    3    0  502  0.12706899191E+04 -0.67563655204E+03  0.54725566898E+02  0.14401848870E+04  0.50400001928E-02 0. -1.
</event>
<event>
 5   0  0.6258718E-07  0.3297164E+04  0.7818609E-02  0.8163617E-01
       -2   -1    0    0    0  501  0.00000000000E+00  0.00000000000E+00  0.13225614037E+04  0.13225614037E+04  0.25500000920E-02 0. -1.
        2   -1    0    0  501    0  0.00000000000E+00  0.00000000000E+00 -0.20549687954E+04  0.20549687954E+04  0.25500000920E-02 0.  1.
    10030    2    1    2    0    0  0.00000000000E+00  0.00000000000E+00 -0.73240739166E+03  0.33775301991E+04  0.32971638810E+04 0.  0.
        5    1    3    3  502    0  0.12339048441E+04  0.10433832402E+04 -0.70070636025E+03  0.17613010088E+04  0.46999998093E+01 0. -1.
       -5    1    3    3    0  502 -0.12339048441E+04 -0.10433832402E+04 -0.31701031408E+02  0.16162291903E+04  0.46999998093E+01 0.  1.
</event>
<event>
 5   0  0.2087665E-07  0.3280830E+04  0.7818609E-02  0.8167790E-01
       -1   -1    0    0    0  501  0.00000000000E+00  0.00000000000E+00  0.13541275296E+04  0.13541275296E+04  0.50400001928E-02 0.  1.
        1   -1    0    0  501    0  0.00000000000E+00  0.00000000000E+00 -0.19872291384E+04  0.19872291384E+04  0.50400001928E-02 0. -1.
    10030    2    1    2    0    0  0.00000000000E+00  0.00000000000E+00 -0.63310160882E+03  0.33413566680E+04  0.32808301900E+04 0.  0.
        5    1    3    3  502    0  0.17155062371E+03 -0.10490089938E+04 -0.15890369703E+04  0.19117819092E+04  0.46999998093E+01 0. -1.
       -5    1    3    3    0  502 -0.17155062371E+03  0.10490089938E+04  0.95593536144E+03  0.14295747587E+04  0.46999998093E+01 0.  1.
</event>
<event>
 5   0  0.6426079E-07  0.3291623E+04  0.7818609E-02  0.8165030E-01
       -2   -1    0    0    0  501  0.00000000000E+00  0.00000000000E+00  0.18589373953E+04  0.18589373953E+04  0.25500000920E-02 0.  1.
        2   -1    0    0  501    0  0.00000000000E+00  0.00000000000E+00 -0.14571206353E+04  0.14571206353E+04  0.25500000920E-02 0. -1.
    10030    2    1    2    0    0  0.00000000000E+00  0.00000000000E+00  0.40181675998E+03  0.33160580306E+04  0.32916233311E+04 0.  0.
        4    1    3    3  502    0 -0.93318153077E+03 -0.46274195881E+03 -0.10828100359E+04  0.15024769804E+04  0.12699999809E+01 0. -1.
       -4    1    3    3    0  502  0.93318153077E+03  0.46274195881E+03  0.14846267959E+04  0.18135810502E+04  0.12699999809E+01 0.  1.
</event>
<event>
 5   0  0.2080828E-07  0.3300537E+04  0.7818609E-02  0.8162759E-01
       -1   -1    0    0    0  501  0.00000000000E+00  0.00000000000E+00  0.11132446411E+04  0.11132446411E+04  0.50400001928E-02 0.  1.
        1   -1    0    0  501    0  0.00000000000E+00  0.00000000000E+00 -0.24463501374E+04  0.24463501374E+04  0.50400001928E-02 0. -1.
    10030    2    1    2    0    0  0.00000000000E+00  0.00000000000E+00 -0.13331054963E+04  0.35595947786E+04  0.33005370356E+04 0.  0.
        1    1    3    3  502    0  0.13221021849E+04 -0.39643391962E+03 -0.16421371171E+04  0.21451639451E+04  0.50400001928E-02 0. -1.
       -1    1    3    3    0  502 -0.13221021849E+04  0.39643391962E+03  0.30903162079E+03  0.14144308335E+04  0.50400001928E-02 0.  1.
</event>
<event>
 5   0  0.2087665E-07  0.3313462E+04  0.7818609E-02  0.8159478E-01
        1   -1    0    0  501    0  0.00000000000E+00  0.00000000000E+00  0.28657604003E+04  0.28657604003E+04  0.50400001928E-02 0. -1.
       -1   -1    0    0    0  501  0.00000000000E+00  0.00000000000E+00 -0.95777637593E+03  0.95777637595E+03  0.50400001928E-02 0.  1.
    10030    2    1    2    0    0  0.00000000000E+00  0.00000000000E+00  0.19079840244E+04  0.38235367762E+04  0.33134620025E+04 0.  0.
        5    1    3    3  502    0 -0.15210258144E+04 -0.60951296202E+03  0.12359644117E+04  0.20524755043E+04  0.46999998093E+01 0. -1.
       -5    1    3    3    0  502  0.15210258144E+04  0.60951296202E+03  0.67201961270E+03  0.17710612719E+04  0.46999998093E+01 0.  1.
</event>
<event>
 5   0  0.2057130E-07  0.3303651E+04  0.7818609E-02  0.8161967E-01
       -1   -1    0    0    0  501  0.00000000000E+00  0.00000000000E+00  0.28917781670E+04  0.28917781670E+04  0.50400001928E-02 0.  1.
        1   -1    0    0  501    0  0.00000000000E+00  0.00000000000E+00 -0.94354670881E+03  0.94354670882E+03  0.50400001928E-02 0. -1.
    10030    2    1    2    0    0  0.00000000000E+00  0.00000000000E+00  0.19482314582E+04  0.38353248758E+04  0.33036511753E+04 0.  0.
        2    1    3    3  502    0  0.79612929737E+03 -0.14363883507E+04  0.11801430330E+04  0.20223182070E+04  0.25500000920E-02 0.  1.
       -2    1    3    3    0  502 -0.79612929737E+03  0.14363883507E+04  0.76808842517E+03  0.18130066688E+04  0.25500000920E-02 0. -1.
</event>
<event>
 5   0  0.2057130E-07  0.3321652E+04  0.7818609E-02  0.8157408E-01
        1   -1    0    0  501    0  0.00000000000E+00  0.00000000000E+00  0.15607105112E+04  0.15607105112E+04  0.50400001928E-02 0. -1.
       -1   -1    0    0    0  501  0.00000000000E+00  0.00000000000E+00 -0.17673639447E+04  0.17673639448E+04  0.50400001928E-02 0.  1.
    10030    2    1    2    0    0  0.00000000000E+00  0.00000000000E+00 -0.20665343354E+03  0.33280744560E+04  0.33216522911E+04 0.  0.
        2    1    3    3  502    0 -0.49791524315E+02  0.15983675416E+04  0.34596585015E+03  0.16361388583E+04  0.25500000920E-02 0.  1.
       -2    1    3    3    0  502  0.49791524315E+02 -0.15983675416E+04 -0.55261928369E+03  0.16919355977E+04  0.25500000920E-02 0. -1.
</event>
<event>
 5   0  0.1994250E-07  0.3298233E+04  0.7818609E-02  0.8163345E-01
        3   -1    0    0  501    0  0.00000000000E+00  0.00000000000E+00  0.21409327013E+04  0.21409327037E+04  0.10100000352E+00 0.  1.
       -3   -1    0    0    0  501  0.00000000000E+00  0.00000000000E+00 -0.12702803082E+04  0.12702803122E+04  0.10100000352E+00 0. -1.
    10030    2    1    2    0    0  0.00000000000E+00  0.00000000000E+00  0.87065239310E+03  0.34112130159E+04  0.32982326556E+04 0.  0.
        4    1    3    3  502    0  0.43659859528E+03  0.13552434519E+04  0.12958609507E+04  0.19252429363E+04  0.12699999809E+01 0.  1.
       -4    1    3    3    0  502 -0.43659859528E+03 -0.13552434519E+04 -0.42520855757E+03  0.14859700796E+04  0.12699999809E+01 0. -1.
</event>
<event>
 5   0  0.1994250E-07  0.3282761E+04  0.7818609E-02  0.8167296E-01
        3   -1    0    0  501    0  0.00000000000E+00  0.00000000000E+00  0.27324402556E+04  0.27324402575E+04  0.10100000352E+00 0. -1.
       -3   -1    0    0    0  501  0.00000000000E+00  0.00000000000E+00 -0.98597953852E+03  0.98597954370E+03  0.10100000352E+00 0.  1.
    10030    2    1    2    0    0  0.00000000000E+00  0.00000000000E+00  0.17464607171E+04  0.37184198012E+04  0.32827611520E+04 0.  0.
        2    1    3    3  502    0  0.15338464089E+04  0.57158339253E+03  0.73571991619E+03  0.17946242436E+04  0.25500000920E-02 0.  1.
       -2    1    3    3    0  502 -0.15338464089E+04 -0.57158339253E+03  0.10107408009E+04  0.19237955575E+04  0.25500000920E-02 0. -1.
</event>
<event>
 5   0  0.2080770E-07  0.3303805E+04  0.7818609E-02  0.8161928E-01
       -1   -1    0    0    0  501  0.00000000000E+00  0.00000000000E+00  0.10809774604E+04  0.10809774604E+04  0.50400001928E-02 0. -1.
        1   -1    0    0  501    0  0.00000000000E+00  0.00000000000E+00 -0.25243644572E+04  0.25243644572E+04  0.50400001928E-02 0.  1.
    10030    2    1    2    0    0  0.00000000000E+00  0.00000000000E+00 -0.14433869968E+04  0.36053419176E+04  0.33038045221E+04 0.  0.
        4    1    3    3  502    0  0.23614694368E+03  0.16249479684E+04 -0.91860098479E+03  0.18815022352E+04  0.12699999809E+01 0.  1.
       -4    1    3    3    0  502 -0.23614694368E+03 -0.16249479684E+04 -0.52478601199E+03  0.17238396823E+04  0.12699999809E+01 0. -1.
</event>
<event>
 5   0  0.2057130E-07  0.3300176E+04  0.7818609E-02  0.8162850E-01
       -1   -1    0    0    0  501  0.00000000000E+00  0.00000000000E+00  0.15991855844E+04  0.15991855844E+04  0.50400001928E-02 0. -1.
        1   -1    0    0  501    0  0.00000000000E+00  0.00000000000E+00 -0.17026111067E+04  0.17026111067E+04  0.50400001928E-02 0.  1.
    10030    2    1    2    0    0  0.00000000000E+00  0.00000000000E+00 -0.10342552231E+03  0.33017966910E+04  0.33001764423E+04 0.  0.
        2    1    3    3  502    0  0.59316571734E+03 -0.10446747052E+04 -0.11834623354E+04  0.16863492838E+04  0.25500000920E-02 0.  1.
       -2    1    3    3    0  502 -0.59316571734E+03  0.10446747052E+04  0.10800368131E+04  0.16154474072E+04  0.25500000920E-02 0. -1.
</event>
<event>
 5   0  0.2057130E-07  0.3295115E+04  0.7818609E-02  0.8164140E-01
        1   -1    0    0  501    0  0.00000000000E+00  0.00000000000E+00  0.12127850949E+04  0.12127850949E+04  0.50400001928E-02 0. -1.
       -1   -1    0    0    0  501  0.00000000000E+00  0.00000000000E+00 -0.22381914502E+04  0.22381914502E+04  0.50400001928E-02 0.  1.
    10030    2    1    2    0    0  0.00000000000E+00  0.00000000000E+00 -0.10254063553E+04  0.34509765451E+04  0.32951147053E+04 0.  0.
        2    1    3    3  502    0 -0.12226743660E+04  0.11018323629E+04 -0.59021808448E+03  0.17485206743E+04  0.25500000920E-02 0.  1.
       -2    1    3    3    0  502  0.12226743660E+04 -0.11018323629E+04 -0.43518827086E+03  0.17024558708E+04  0.25500000920E-02 0. -1.
</event>
<event>
 5   0  0.6377741E-07  0.3303340E+04  0.7818609E-02  0.8162046E-01
       -2   -1    0    0    0  501  0.00000000000E+00  0.00000000000E+00  0.17197707938E+04  0.17197707938E+04  0.25500000920E-02 0.  1.
        2   -1    0    0  501    0  0.00000000000E+00  0.00000000000E+00 -0.15862663283E+04  0.15862663283E+04  0.25500000920E-02 0. -1.
    10030    2    1    2    0    0  0.00000000000E+00  0.00000000000E+00  0.13350446550E+03  0.33060371221E+04  0.33033404321E+04 0.  0.
        1    1    3    3  502    0 -0.64129222717E+03 -0.36494105029E+03 -0.14121471565E+04  0.15932976126E+04  0.50400001928E-02 0. -1.
       -1    1    3    3    0  502  0.64129222717E+03  0.36494105029E+03  0.15456516220E+04  0.17127395095E+04  0.50400001928E-02 0.  1.
</event>
<event>
 5   0  0.2087665E-07  0.3303928E+04  0.7818609E-02  0.8161897E-01
       -1   -1    0    0    0  501  0.00000000000E+00  0.00000000000E+00  0.22190332156E+04  0.22190332156E+04  0.50400001928E-02 0. -1.
        1   -1    0    0  501    0  0.00000000000E+00  0.00000000000E+00 -0.12298079456E+04  0.12298079456E+04  0.50400001928E-02 0.  1.
    10030    2    1    2    0    0  0.00000000000E+00  0.00000000000E+00  0.98922526999E+03  0.34488411612E+04  0.33039277717E+04 0.  0.
        5    1    3    3  502    0  0.97391772786E+03 -0.26387607596E+03 -0.87073843180E+03  0.13327992462E+04  0.46999998093E+01 0.  1.
       -5    1    3    3    0  502 -0.97391772786E+03  0.26387607596E+03  0.18599637018E+04  0.21160419150E+04  0.46999998093E+01 0. -1.
</event>
<event>
 5   0  0.2057130E-07  0.3309500E+04  0.7818609E-02  0.8160482E-01
       -1   -1    0    0    0  501  0.00000000000E+00  0.00000000000E+00  0.13897020434E+04  0.13897020434E+04  0.50400001928E-02 0. -1.
        1   -1    0    0  501    0  0.00000000000E+00  0.00000000000E+00 -0.19703488601E+04  0.19703488601E+04  0.50400001928E-02 0.  1.
    10030    2    1    2    0    0  0.00000000000E+00  0.00000000000E+00 -0.58064681670E+03  0.33600509035E+04  0.33095001659E+04 0.  0.
        2    1    3    3  502    0  0.13143758603E+04  0.87161314993E+03 -0.79887806233E+03  0.17679082397E+04  0.25500000920E-02 0.  1.
       -2    1    3    3    0  502 -0.13143758603E+04 -0.87161314993E+03  0.21823124562E+03  0.15921426638E+04  0.25500000920E-02 0. -1.
</event>
<event>
 5   0  0.2080828E-07  0.3307574E+04  0.7818609E-02  0.8160971E-01
       -1   -1    0    0    0  501  0.00000000000E+00  0.00000000000E+00  0.11460114426E+04  0.11460114426E+04  0.50400001928E-02 0. -1.
        1   -1    0    0  501    0  0.00000000000E+00  0.00000000000E+00 -0.23865478811E+04  0.23865478811E+04  0.50400001928E-02 0.  1.
    10030    2    1    2    0    0  0.00000000000E+00  0.00000000000E+00 -0.12405364385E+04  0.35325593237E+04  0.33075738420E+04 0.  0.
        1    1    3    3  502    0 -0.12873701125E+04  0.95550249091E+03 -0.18682474622E+03  0.16140663873E+04  0.50400001928E-02 0. -1.
       -1    1    3    3    0  502  0.12873701125E+04 -0.95550249091E+03 -0.10537116922E+04  0.19184929364E+04  0.50400001928E-02 0.  1.
</event>
<event>
 5   0  0.6258718E-07  0.3298996E+04  0.7818609E-02  0.8163151E-01
       -2   -1    0    0    0  501  0.00000000000E+00  0.00000000000E+00  0.34410720212E+04  0.34410720212E+04  0.25500000920E-02 0. -1.
        2   -1    0    0  501    0  0.00000000000E+00  0.00000000000E+00 -0.79069630960E+03  0.79069630961E+03  0.25500000920E-02 0.  1.
    10030    2    1    2    0    0  0.00000000000E+00  0.00000000000E+00  0.26503757116E+04  0.42317683308E+04  0.32989955733E+04 0.  0.
        5    1    3    3  502    0  0.12680422867E+03 -0.15450051226E+04  0.60216962399E+03  0.16630545654E+04  0.46999998093E+01 0.  1.
       -5    1    3    3    0  502 -0.12680422867E+03  0.15450051226E+04  0.20482060876E+04  0.25687137654E+04  0.46999998093E+01 0. -1.
</event>
<event>
 5   0  0.6258718E-07  0.3293587E+04  0.7818609E-02  0.8164529E-01
        2   -1    0    0  501    0  0.00000000000E+00  0.00000000000E+00  0.24831191809E+04  0.24831191809E+04  0.25500000920E-02 0.  1.
       -2   -1    0    0    0  501  0.00000000000E+00  0.00000000000E+00 -0.10921463485E+04  0.10921463485E+04  0.25500000920E-02 0. -1.
    10030    2    1    2    0    0  0.00000000000E+00  0.00000000000E+00  0.13909728324E+04  0.35752655294E+04  0.32935874339E+04 0.  0.
        5    1    3    3  502    0 -0.30637919362E+03 -0.14841284599E+04  0.13951243936E+04  0.20598300074E+04  0.46999998093E+01 0.  1.
       -5    1    3    3    0  502  0.30637919362E+03  0.14841284599E+04 -0.41515611917E+01  0.15154355220E+04  0.46999998093E+01 0. -1.
</event>
<event>
 5   0  0.6426079E-07  0.3295534E+04  0.7818609E-02  0.8164033E-01
        2   -1    0    0  501    0  0.00000000000E+00  0.00000000000E+00  0.25974568301E+04  0.25974568301E+04  0.25500000920E-02 0. -1.
       -2   -1    0    0    0  501  0.00000000000E+00  0.00000000000E+00 -0.10453052693E+04  0.10453052694E+04  0.25500000920E-02 0.  1.
    10030    2    1    2    0    0  0.00000000000E+00  0.00000000000E+00  0.15521515608E+04  0.36427620995E+04  0.32955335298E+04 0.  0.
        4    1    3    3  502    0  0.12732402573E+04 -0.72439873947E+03 -0.57898304447E+02  0.14660314161E+04  0.12699999809E+01 0.  1.
       -4    1    3    3    0  502 -0.12732402573E+04  0.72439873947E+03  0.16100498652E+04  0.21767306834E+04  0.12699999809E+01 0. -1.
</event>
<event>
 5   0  0.2087665E-07  0.3301518E+04  0.7818609E-02  0.8162509E-01
        1   -1    0    0  501    0  0.00000000000E+00  0.00000000000E+00  0.19763241835E+04  0.19763241835E+04  0.50400001928E-02 0.  1.
       -1   -1    0    0    0  501  0.00000000000E+00  0.00000000000E+00 -0.13788247379E+04  0.13788247379E+04  0.50400001928E-02 0. -1.
    10030    2    1    2    0    0  0.00000000000E+00  0.00000000000E+00  0.59749944559E+03  0.33551489214E+04  0.33015176355E+04 0.  0.
        5    1    3    3  502    0 -0.16505560479E+04  0.27704123596E+01  0.32445170869E+03  0.16821515816E+04  0.46999998093E+01 0. -1.
       -5    1    3    3    0  502  0.16505560479E+04 -0.27704123596E+01  0.27304773691E+03  0.16729973398E+04  0.46999998093E+01 0.  1.
</event>
<event>
 5   0  0.6424183E-07  0.3301352E+04  0.7818609E-02  0.8162551E-01
       -2   -1    0    0    0  501  0.00000000000E+00  0.00000000000E+00  0.21456799314E+04  0.21456799314E+04  0.25500000920E-02 0. -1.
        2   -1    0    0  501    0  0.00000000000E+00  0.00000000000E+00 -0.12698686651E+04  0.12698686651E+04  0.25500000920E-02 0.  1.
    10030    2    1    2    0    0  0.00000000000E+00  0.00000000000E+00  0.87581126626E+03  0.34155485966E+04  0.33013522747E+04 0.  0.
        2    1    3    3  502    0 -0.46492802587E+03  0.69219390622E+03  0.19117676970E+04  0.20857004100E+04  0.25500000920E-02 0. -1.
       -2    1    3    3    0  502  0.46492802587E+03 -0.69219390622E+03 -0.10359564307E+04  0.13298481866E+04  0.25500000920E-02 0.  1.
</event>
<event>
 5   0  0.2057130E-07  0.3348619E+04  0.7818609E-02  0.8150633E-01
       -1   -1    0    0    0  501  0.00000000000E+00  0.00000000000E+00  0.12601707462E+04  0.12601707462E+04  0.50400001928E-02 0. -1.
        1   -1    0    0  501    0  0.00000000000E+00  0.00000000000E+00 -0.22245500313E+04  0.22245500314E+04  0.50400001928E-02 0.  1.
    10030    2    1    2    0    0  0.00000000000E+00  0.00000000000E+00 -0.96437928516E+03  0.34847207775E+04  0.33486193411E+04 0.  0.
        2    1    3    3  502    0 -0.11588527184E+03  0.13813997740E+04 -0.14592974030E+04  0.20127701414E+04  0.25500000920E-02 0.  1.
       -2    1    3    3    0  502  0.11588527184E+03 -0.13813997740E+04  0.49491811779E+03  0.14719506361E+04  0.25500000920E-02 0. -1.
</event>
<event>
 5   0  0.6424183E-07  0.3317458E+04  0.7818609E-02  0.8158467E-01
       -2   -1    0    0    0  501  0.00000000000E+00  0.00000000000E+00  0.19510384875E+04  0.19510384875E+04  0.25500000920E-02 0. -1.
        2   -1    0    0  501    0  0.00000000000E+00  0.00000000000E+00 -0.14102137693E+04  0.14102137693E+04  0.25500000920E-02 0.  1.
    10030    2    1    2    0    0  0.00000000000E+00  0.00000000000E+00  0.54082471820E+03  0.33612522569E+04  0.33174576649E+04 0.  0.
        2    1    3    3  502    0  0.52861739579E+03  0.61406694879E+03  0.17368848527E+04  0.19165812168E+04  0.25500000920E-02 0. -1.
       -2    1    3    3    0  502 -0.52861739579E+03 -0.61406694879E+03 -0.11960601345E+04  0.14446710401E+04  0.25500000920E-02 0.  1.
</event>
<event>
 5   0  0.2087665E-07  0.3180315E+04  0.7818609E-02  0.8194035E-01
       -1   -1    0    0    0  501  0.00000000000E+00  0.00000000000E+00  0.13698790629E+04  0.13698790629E+04  0.50400001928E-02 0. -1.
        1   -1    0    0  501    0  0.00000000000E+00  0.00000000000E+00 -0.18458566966E+04  0.18458566966E+04  0.50400001928E-02 0.  1.
    10030    2    1    2    0    0  0.00000000000E+00  0.00000000000E+00 -0.47597763369E+03  0.32157357596E+04  0.31803147278E+04 0.  0.
        5    1    3    3  502    0  0.81024352277E+03  0.10591330366E+04  0.63786939161E+03  0.14782275895E+04  0.46999998093E+01 0.  1.
       -5    1    3    3    0  502 -0.81024352277E+03 -0.10591330366E+04 -0.11138470253E+04  0.17375081701E+04  0.46999998093E+01 0. -1.
</event>
<event>
 5   0  0.6426079E-07  0.3294162E+04  0.7818609E-02  0.8164382E-01
        2   -1    0    0  501    0  0.00000000000E+00  0.00000000000E+00  0.14679192196E+04  0.14679192196E+04  0.25500000920E-02 0.  1.
       -2   -1    0    0    0  501  0.00000000000E+00  0.00000000000E+00 -0.18481096378E+04  0.18481096378E+04  0.25500000920E-02 0. -1.
    10030    2    1    2    0    0  0.00000000000E+00  0.00000000000E+00 -0.38019041819E+03  0.33160288574E+04  0.32941619009E+04 0.  0.
        4    1    3    3  502    0  0.77571053083E+03  0.65979303253E+03  0.11130328435E+04  0.15086077678E+04  0.12699999809E+01 0.  1.
       -4    1    3    3    0  502 -0.77571053083E+03 -0.65979303253E+03 -0.14932232616E+04  0.18074210897E+04  0.12699999809E+01 0. -1.
</event>
<event>
 5   0  0.2080828E-07  0.3315817E+04  0.7818609E-02  0.8158882E-01
       -1   -1    0    0    0  501  0.00000000000E+00  0.00000000000E+00  0.12539340124E+04  0.12539340124E+04  0.50400001928E-02 0. -1.
        1   -1    0    0  501    0  0.00000000000E+00  0.00000000000E+00 -0.21920303305E+04  0.21920303305E+04  0.50400001928E-02 0.  1.
    10030    2    1    2    0    0  0.00000000000E+00  0.00000000000E+00 -0.93809631811E+03  0.34459643430E+04  0.33158174785E+04 0.  0.
        1    1    3    3  502    0  0.24722049429E+03  0.82569153530E+03 -0.19408911222E+04  0.21236625985E+04  0.50400001928E-02 0.  1.
       -1    1    3    3    0  502 -0.24722049429E+03 -0.82569153530E+03  0.10027948041E+04  0.13223017444E+04  0.50400001928E-02 0. -1.
</event>
<event>
 5   0  0.2087665E-07  0.3257019E+04  0.7818609E-02  0.8173919E-01
       -1   -1    0    0    0  501  0.00000000000E+00  0.00000000000E+00  0.18218672640E+04  0.18218672640E+04  0.50400001928E-02 0.  1.
        1   -1    0    0  501    0  0.00000000000E+00  0.00000000000E+00 -0.14556728137E+04  0.14556728137E+04  0.50400001928E-02 0. -1.
    10030    2    1    2    0    0  0.00000000000E+00  0.00000000000E+00  0.36619445033E+03  0.32775400778E+04  0.32570186653E+04 0.  0.
        5    1    3    3  502    0  0.99098852553E+03  0.47191223200E+03 -0.10275042944E+04  0.15035114158E+04  0.46999998093E+01 0.  1.
       -5    1    3    3    0  502 -0.99098852553E+03 -0.47191223200E+03  0.13936987447E+04  0.17740286620E+04  0.46999998093E+01 0. -1.
</event>
<event>
 5   0  0.2080828E-07  0.3325854E+04  0.7818609E-02  0.8156348E-01
       -1   -1    0    0    0  501  0.00000000000E+00  0.00000000000E+00  0.13540993287E+04  0.13540993287E+04  0.50400001928E-02 0.  1.
        1   -1    0    0  501    0  0.00000000000E+00  0.00000000000E+00 -0.20421890138E+04  0.20421890138E+04  0.50400001928E-02 0. -1.
    10030    2    1    2    0    0  0.00000000000E+00  0.00000000000E+00 -0.68808968508E+03  0.33962883425E+04  0.33258543400E+04 0.  0.
        1    1    3    3  502    0  0.15043585700E+04  0.38331262076E+03 -0.95274171826E+03  0.18214664570E+04  0.50400001928E-02 0. -1.
       -1    1    3    3    0  502 -0.15043585700E+04 -0.38331262076E+03  0.26465203318E+03  0.15748218855E+04  0.50400001928E-02 0.  1.
</event>
<event>
 5   0  0.6424183E-07  0.3298353E+04  0.7818609E-02  0.8163315E-01
        2   -1    0    0  501    0  0.00000000000E+00  0.00000000000E+00  0.11811868992E+04  0.11811868992E+04  0.25500000920E-02 0. -1.
       -2   -1    0    0    0  501  0.00000000000E+00  0.00000000000E+00 -0.23025843284E+04  0.23025843284E+04  0.25500000920E-02 0.  1.
    10030    2    1    2    0    0  0.00000000000E+00  0.00000000000E+00 -0.11213974291E+04  0.34837712276E+04  0.32983525846E+04 0.  0.
        2    1    3    3  502    0 -0.11890015308E+04  0.42956047278E+03  0.55786076250E+03  0.13818304781E+04  0.25500000920E-02 0. -1.
       -2    1    3    3    0  502  0.11890015308E+04 -0.42956047278E+03 -0.16792581916E+04  0.21019407495E+04  0.25500000920E-02 0.  1.
</event>
<event>
 5   0  0.6351753E-07  0.3294140E+04  0.7818609E-02  0.8164388E-01
        2   -1    0    0  501    0  0.00000000000E+00  0.00000000000E+00  0.17604134624E+04  0.17604134624E+04  0.25500000920E-02 0. -1.
       -2   -1    0    0    0  501  0.00000000000E+00  0.00000000000E+00 -0.15410238596E+04  0.15410238596E+04  0.25500000920E-02 0.  1.
    10030    2    1    2    0    0  0.00000000000E+00  0.00000000000E+00  0.21938960279E+03  0.33014373220E+04  0.32941397350E+04 0.  0.
        3    1    3    3  502    0  0.10687615939E+04  0.10660947727E+04 -0.55057400161E+03  0.16068419806E+04  0.10100000352E+00 0.  1.
       -3    1    3    3    0  502 -0.10687615939E+04 -0.10660947727E+04  0.76996360440E+03  0.16945953415E+04  0.10100000352E+00 0. -1.
</event>
<event>
 5   0  0.2087665E-07  0.3293722E+04  0.7818609E-02  0.8164495E-01
        1   -1    0    0  501    0  0.00000000000E+00  0.00000000000E+00  0.13347484740E+04  0.13347484740E+04  0.50400001928E-02 0. -1.
       -1   -1    0    0    0  501  0.00000000000E+00  0.00000000000E+00 -0.20319566824E+04  0.20319566824E+04  0.50400001928E-02 0.  1.
    10030    2    1    2    0    0  0.00000000000E+00  0.00000000000E+00 -0.69720820840E+03  0.33667051565E+04  0.32937219562E+04 0.  0.
        5    1    3    3  502    0 -0.65479934042E+03 -0.81452618969E+03  0.95235641030E+03  0.14139377328E+04  0.46999998093E+01 0. -1.
       -5    1    3    3    0  502  0.65479934042E+03  0.81452618969E+03 -0.16495646187E+04  0.19527674237E+04  0.46999998093E+01 0.  1.
</event>
<event>
 5   0  0.1994250E-07  0.3296326E+04  0.7818609E-02  0.8163831E-01
       -4   -1    0    0    0  501  0.00000000000E+00  0.00000000000E+00  0.19099298402E+04  0.19099302624E+04  0.12699999809E+01 0. -1.
        4   -1    0    0  501    0  0.00000000000E+00  0.00000000000E+00 -0.14222721388E+04  0.14222727058E+04  0.12699999809E+01 0.  1.
    10030    2    1    2    0    0  0.00000000000E+00  0.00000000000E+00  0.48765770136E+03  0.33322029683E+04  0.32963262260E+04 0.  0.
        5    1    3    3  502    0  0.13828623884E+04 -0.64438984820E+03  0.87421272907E+03  0.17583562345E+04  0.46999998093E+01 0. -1.
       -5    1    3    3    0  502 -0.13828623884E+04  0.64438984820E+03 -0.38655502771E+03  0.15738467337E+04  0.46999998093E+01 0.  1.
</event>
<event>
 5   0  0.6258718E-07  0.3303338E+04  0.7818609E-02  0.8162046E-01
       -2   -1    0    0    0  501  0.00000000000E+00  0.00000000000E+00  0.13251845553E+04  0.13251845553E+04  0.25500000920E-02 0.  1.
        2   -1    0    0  501    0  0.00000000000E+00  0.00000000000E+00 -0.20585895818E+04  0.20585895818E+04  0.25500000920E-02 0. -1.
    10030    2    1    2    0    0  0.00000000000E+00  0.00000000000E+00 -0.73340502644E+03  0.33837741371E+04  0.33033383838E+04 0.  0.
        5    1    3    3  502    0  0.14175779614E+04  0.17610101655E+03 -0.12160177580E+04  0.18759691155E+04  0.46999998093E+01 0. -1.
       -5    1    3    3    0  502 -0.14175779614E+04 -0.17610101655E+03  0.48261273155E+03  0.15078050216E+04  0.46999998093E+01 0.  1.
</event>
<event>
 5   0  0.6258718E-07  0.3299640E+04  0.7818609E-02  0.8162987E-01
       -2   -1    0    0    0  501  0.00000000000E+00  0.00000000000E+00  0.13000742839E+04  0.13000742839E+04  0.25500000920E-02 0.  1.
        2   -1    0    0  501    0  0.00000000000E+00  0.00000000000E+00 -0.20936545024E+04  0.20936545024E+04  0.25500000920E-02 0. -1.
    10030    2    1    2    0    0  0.00000000000E+00  0.00000000000E+00 -0.79358021848E+03  0.33937287863E+04  0.32996402095E+04 0.  0.
        5    1    3    3  502    0 -0.10178975070E+03  0.15119748791E+04  0.27407840826E+03  0.15399903416E+04  0.46999998093E+01 0.  1.
       -5    1    3    3    0  502  0.10178975070E+03 -0.15119748791E+04 -0.10676586267E+04  0.18537384447E+04  0.46999998093E+01 0. -1.
</event>
<event>
 5   0  0.2080828E-07  0.3250821E+04  0.7818609E-02  0.8175523E-01
        1   -1    0    0  501    0  0.00000000000E+00  0.00000000000E+00  0.25611889203E+04  0.25611889203E+04  0.50400001928E-02 0.  1.
       -1   -1    0    0    0  501  0.00000000000E+00  0.00000000000E+00 -0.10315361906E+04  0.10315361906E+04  0.50400001928E-02 0. -1.
    10030    2    1    2    0    0  0.00000000000E+00  0.00000000000E+00  0.15296527298E+04  0.35927251109E+04  0.32508208578E+04 0.  0.
        1    1    3    3  502    0  0.43259383312E+03 -0.10007172505E+04 -0.56753346700E+03  0.12290918095E+04  0.50400001928E-02 0. -1.
       -1    1    3    3    0  502 -0.43259383312E+03  0.10007172505E+04  0.20971861968E+04  0.23636333015E+04  0.50400001928E-02 0.  1.
</event>
<event>
 5   0  0.6426079E-07  0.3297131E+04  0.7818609E-02  0.8163626E-01
        2   -1    0    0  501    0  0.00000000000E+00  0.00000000000E+00  0.19848132810E+04  0.19848132810E+04  0.25500000920E-02 0. -1.
       -2   -1    0    0    0  501  0.00000000000E+00  0.00000000000E+00 -0.13692816090E+04  0.13692816090E+04  0.25500000920E-02 0.  1.
    10030    2    1    2    0    0  0.00000000000E+00  0.00000000000E+00  0.61553167200E+03  0.33540948901E+04  0.32971310700E+04 0.  0.
        4    1    3    3  502    0 -0.59842885464E+03 -0.39024539708E+03 -0.12036206509E+04  0.13996831242E+04  0.12699999809E+01 0.  1.
       -4    1    3    3    0  502  0.59842885464E+03  0.39024539708E+03  0.18191523229E+04  0.19544117659E+04  0.12699999809E+01 0. -1.
</event>
<event>
 5   0  0.2080828E-07  0.3284830E+04  0.7818609E-02  0.8166766E-01
       -1   -1    0    0    0  501  0.00000000000E+00  0.00000000000E+00  0.13632809711E+04  0.13632809712E+04  0.50400001928E-02 0.  1.
        1   -1    0    0  501    0  0.00000000000E+00  0.00000000000E+00 -0.19787027327E+04  0.19787027327E+04  0.50400001928E-02 0. -1.
    10030    2    1    2    0    0  0.00000000000E+00  0.00000000000E+00 -0.61542176152E+03  0.33419837038E+04  0.32848304571E+04 0.  0.
        1    1    3    3  502    0 -0.10712612950E+04 -0.10551208325E+04  0.36457909235E+03  0.15471905662E+04  0.50400001928E-02 0.  1.
       -1    1    3    3    0  502  0.10712612950E+04  0.10551208325E+04 -0.98000085387E+03  0.17947931377E+04  0.50400001928E-02 0. -1.
</event>
<event>
 5   0  0.2037333E-07  0.3303300E+04  0.7818609E-02  0.8162056E-01
       -1   -1    0    0    0  501  0.00000000000E+00  0.00000000000E+00  0.15086842000E+04  0.15086842001E+04  0.50400001928E-02 0.  1.
        1   -1    0    0  501    0  0.00000000000E+00  0.00000000000E+00 -0.18081639888E+04  0.18081639888E+04  0.50400001928E-02 0. -1.
    10030    2    1    2    0    0  0.00000000000E+00  0.00000000000E+00 -0.29947978877E+03  0.33168481889E+04  0.33033004350E+04 0.  0.
        3    1    3    3  502    0  0.12838221176E+04  0.95787668439E+02 -0.11886688497E+04  0.17522294803E+04  0.10100000352E+00 0. -1.
       -3    1    3    3    0  502 -0.12838221176E+04 -0.95787668439E+02  0.88918906095E+03  0.15646187086E+04  0.10100000352E+00 0.  1.
</event>
<event>
 5   0  0.2080770E-07  0.3327225E+04  0.7818609E-02  0.8156002E-01
       -1   -1    0    0    0  501  0.00000000000E+00  0.00000000000E+00  0.16444747329E+04  0.16444747329E+04  0.50400001928E-02 0.  1.
        1   -1    0    0  501    0  0.00000000000E+00  0.00000000000E+00 -0.16829728437E+04  0.16829728437E+04  0.50400001928E-02 0. -1.
    10030    2    1    2    0    0  0.00000000000E+00  0.00000000000E+00 -0.38498110845E+02  0.33274475766E+04  0.33272248603E+04 0.  0.
        4    1    3    3  502    0 -0.76512718821E+03 -0.12944059676E+04  0.69262601660E+03  0.16554874916E+04  0.12699999809E+01 0.  1.
       -4    1    3    3    0  502  0.76512718821E+03  0.12944059676E+04 -0.73112412744E+03  0.16719600850E+04  0.12699999809E+01 0. -1.
</event>
<event>
 5   0  0.6426079E-07  0.3239657E+04  0.7818609E-02  0.8178422E-01
        2   -1    0    0  501    0  0.00000000000E+00  0.00000000000E+00  0.14750091322E+04  0.14750091322E+04  0.25500000920E-02 0. -1.
       -2   -1    0    0    0  501  0.00000000000E+00  0.00000000000E+00 -0.17788670075E+04  0.17788670075E+04  0.25500000920E-02 0.  1.
    10030    2    1    2    0    0  0.00000000000E+00  0.00000000000E+00 -0.30385787529E+03  0.32538761397E+04  0.32396574393E+04 0.  0.
        4    1    3    3  502    0  0.12089951144E+04  0.67498104416E+03  0.69234040808E+03  0.15480973646E+04  0.12699999809E+01 0. -1.
       -4    1    3    3    0  502 -0.12089951144E+04 -0.67498104416E+03 -0.99619828338E+03  0.17057787751E+04  0.12699999809E+01 0.  1.
</event>
<event>
 5   0  0.2080770E-07  0.3297526E+04  0.7818609E-02  0.8163525E-01
        1   -1    0    0  501    0  0.00000000000E+00  0.00000000000E+00  0.10750608675E+04  0.10750608675E+04  0.50400001928E-02 0. -1.
       -1   -1    0    0    0  501  0.00000000000E+00  0.00000000000E+00 -0.25286185031E+04  0.25286185031E+04  0.50400001928E-02 0.  1.
    10030    2    1    2    0    0  0.00000000000E+00  0.00000000000E+00 -0.14535576356E+04  0.36036793706E+04  0.32975256187E+04 0.  0.
        4    1    3    3  502    0 -0.56348270431E+03  0.11094765473E+04  0.45529507858E+03  0.13250457308E+04  0.12699999809E+01 0. -1.
       -4    1    3    3    0  502  0.56348270431E+03 -0.11094765473E+04 -0.19088527142E+04  0.22786336398E+04  0.12699999809E+01 0.  1.
</event>
<event>
 5   0  0.2037333E-07  0.3283527E+04  0.7818609E-02  0.8167100E-01
        1   -1    0    0  501    0  0.00000000000E+00  0.00000000000E+00  0.16866475694E+04  0.16866475694E+04  0.50400001928E-02 0. -1.
       -1   -1    0    0    0  501  0.00000000000E+00  0.00000000000E+00 -0.15980741616E+04  0.15980741616E+04  0.50400001928E-02 0.  1.
    10030    2    1    2    0    0  0.00000000000E+00  0.00000000000E+00  0.88573407796E+02  0.32847217311E+04  0.32835273110E+04 0.  0.
        3    1    3    3  502    0  0.82356884213E+03  0.14113535171E+04 -0.11452715540E+03  0.16380784070E+04  0.10100000352E+00 0.  1.
       -3    1    3    3    0  502 -0.82356884213E+03 -0.14113535171E+04  0.20310056319E+03  0.16466433241E+04  0.10100000352E+00 0. -1.
</event>
<event>
 5   0  0.6377741E-07  0.3294379E+04  0.7818609E-02  0.8164327E-01
       -2   -1    0    0    0  501  0.00000000000E+00  0.00000000000E+00  0.96792414340E+03  0.96792414340E+03  0.25500000920E-02 0. -1.
        2   -1    0    0  501    0  0.00000000000E+00  0.00000000000E+00 -0.28031462389E+04  0.28031462389E+04  0.25500000920E-02 0.  1.
    10030    2    1    2    0    0  0.00000000000E+00  0.00000000000E+00 -0.18352220955E+04  0.37710703824E+04  0.32943788016E+04 0.  0.
        1    1    3    3  502    0 -0.45091967067E+03  0.11991735348E+04  0.26751801106E+03  0.13087824885E+04  0.50400001928E-02 0. -1.
       -1    1    3    3    0  502  0.45091967067E+03 -0.11991735348E+04 -0.21027401066E+04  0.24622878938E+04  0.50400001928E-02 0.  1.
</event>
<event>
 5   0  0.6258718E-07  0.3317826E+04  0.7818609E-02  0.8158374E-01
        2   -1    0    0  501    0  0.00000000000E+00  0.00000000000E+00  0.20248441133E+04  0.20248441133E+04  0.25500000920E-02 0.  1.
       -2   -1    0    0    0  501  0.00000000000E+00  0.00000000000E+00 -0.13591129014E+04  0.13591129014E+04  0.25500000920E-02 0. -1.
    10030    2    1    2    0    0  0.00000000000E+00  0.00000000000E+00  0.66573121190E+03  0.33839570148E+04  0.33178256481E+04 0.  0.
        5    1    3    3  502    0  0.34959350077E+03  0.10446445566E+04 -0.93220873740E+03  0.14430984323E+04  0.46999998093E+01 0. -1.
       -5    1    3    3    0  502 -0.34959350077E+03 -0.10446445566E+04  0.15979399493E+04  0.19408585824E+04  0.46999998093E+01 0.  1.
</event>
<event>
 5   0  0.2080770E-07  0.3303448E+04  0.7818609E-02  0.8162019E-01
        1   -1    0    0  501    0  0.00000000000E+00  0.00000000000E+00  0.11011258164E+04  0.11011258164E+04  0.50400001928E-02 0. -1.
       -1   -1    0    0    0  501  0.00000000000E+00  0.00000000000E+00 -0.24776382054E+04  0.24776382054E+04  0.50400001928E-02 0.  1.
    10030    2    1    2    0    0  0.00000000000E+00  0.00000000000E+00 -0.13765123890E+04  0.35787640218E+04  0.33034475274E+04 0.  0.
        4    1    3    3  502    0  0.90213391872E+03  0.12107182993E+04 -0.14137763367E+04  0.20684413336E+04  0.12699999809E+01 0.  1.
       -4    1    3    3    0  502 -0.90213391872E+03 -0.12107182993E+04  0.37263947686E+02  0.15103226881E+04  0.12699999809E+01 0. -1.
</event>
<event>
 5   0  0.6426079E-07  0.3292882E+04  0.7818609E-02  0.8164709E-01
       -2   -1    0    0    0  501  0.00000000000E+00  0.00000000000E+00  0.11309876145E+04  0.11309876145E+04  0.25500000920E-02 0. -1.
        2   -1    0    0  501    0  0.00000000000E+00  0.00000000000E+00 -0.23968149437E+04  0.23968149437E+04  0.25500000920E-02 0.  1.
    10030    2    1    2    0    0  0.00000000000E+00  0.00000000000E+00 -0.12658273292E+04  0.35278025583E+04  0.32928820299E+04 0.  0.
        4    1    3    3  502    0  0.77673002505E+03  0.64881607524E+03 -0.20242129837E+04  0.22631198925E+04  0.12699999809E+01 0.  1.
       -4    1    3    3    0  502 -0.77673002505E+03 -0.64881607524E+03  0.75838565450E+03  0.12646826658E+04  0.12699999809E+01 0. -1.
</event>
<event>
 5   0  0.6424183E-07  0.3302234E+04  0.7818609E-02  0.8162327E-01
       -2   -1    0    0    0  501  0.00000000000E+00  0.00000000000E+00  0.13344148579E+04  0.13344148579E+04  0.25500000920E-02 0.  1.
        2   -1    0    0  501    0  0.00000000000E+00  0.00000000000E+00 -0.20429829319E+04  0.20429829319E+04  0.25500000920E-02 0. -1.
    10030    2    1    2    0    0  0.00000000000E+00  0.00000000000E+00 -0.70856807395E+03  0.33773977898E+04  0.33022336554E+04 0.  0.
        2    1    3    3  502    0  0.48902710171E+03  0.12489420727E+03 -0.19621487852E+04  0.20260241668E+04  0.25500000920E-02 0. -1.
       -2    1    3    3    0  502 -0.48902710171E+03 -0.12489420727E+03  0.12535807113E+04  0.13513736230E+04  0.25500000920E-02 0.  1.
</event>
<event>
 5   0  0.2080828E-07  0.3297451E+04  0.7818609E-02  0.8163544E-01
       -1   -1    0    0    0  501  0.00000000000E+00  0.00000000000E+00  0.11894488572E+04  0.11894488572E+04  0.50400001928E-02 0. -1.
        1   -1    0    0  501    0  0.00000000000E+00  0.00000000000E+00 -0.22853404315E+04  0.22853404315E+04  0.50400001928E-02 0.  1.
    10030    2    1    2    0    0  0.00000000000E+00  0.00000000000E+00 -0.10958915743E+04  0.34747892888E+04  0.32974508728E+04 0.  0.
        1    1    3    3  502    0 -0.11855411523E+04 -0.64445676100E+03 -0.15462398099E+04  0.20522402126E+04  0.50400001928E-02 0.  1.
       -1    1    3    3    0  502  0.11855411523E+04  0.64445676100E+03  0.45034823557E+03  0.14225490761E+04  0.50400001928E-02 0. -1.
</event>
<event>
 5   0  0.6424183E-07  0.3295089E+04  0.7818609E-02  0.8164146E-01
       -2   -1    0    0    0  501  0.00000000000E+00  0.00000000000E+00  0.13701606196E+04  0.13701606196E+04  0.25500000920E-02 0. -1.
        2   -1    0    0  501    0  0.00000000000E+00  0.00000000000E+00 -0.19810833152E+04  0.19810833152E+04  0.25500000920E-02 0.  1.
    10030    2    1    2    0    0  0.00000000000E+00  0.00000000000E+00 -0.61092269560E+03  0.33512439347E+04  0.32950886741E+04 0.  0.
        2    1    3    3  502    0 -0.12215326807E+04 -0.11565435234E+03  0.81276908494E+03  0.14717715872E+04  0.25500000920E-02 0.  1.
       -2    1    3    3    0  502  0.12215326807E+04  0.11565435234E+03 -0.14236917805E+04  0.18794723476E+04  0.25500000920E-02 0. -1.
</event>
<event>
 5   0  0.2080770E-07  0.3307463E+04  0.7818609E-02  0.8160999E-01
        1   -1    0    0  501    0  0.00000000000E+00  0.00000000000E+00  0.16846746502E+04  0.16846746503E+04  0.50400001928E-02 0.  1.
       -1   -1    0    0    0  501  0.00000000000E+00  0.00000000000E+00 -0.16233571297E+04  0.16233571297E+04  0.50400001928E-02 0. -1.
    10030    2    1    2    0    0  0.00000000000E+00  0.00000000000E+00  0.61317520549E+02  0.33080317800E+04  0.33074634418E+04 0.  0.
        4    1    3    3  502    0  0.81647600965E+03 -0.53958847371E+03  0.13639437875E+04  0.16787295982E+04  0.12699999809E+01 0.  1.
       -4    1    3    3    0  502 -0.81647600965E+03  0.53958847371E+03 -0.13026262670E+04  0.16293021818E+04  0.12699999809E+01 0. -1.
</event>
<event>
 5   0  0.2080828E-07  0.3194360E+04  0.7818609E-02  0.8190308E-01
        1   -1    0    0  501    0  0.00000000000E+00  0.00000000000E+00  0.12315172024E+04  0.12315172024E+04  0.50400001928E-02 0.  1.
       -1   -1    0    0    0  501  0.00000000000E+00  0.00000000000E+00 -0.20714153841E+04  0.20714153841E+04  0.50400001928E-02 0. -1.
    10030    2    1    2    0    0  0.00000000000E+00  0.00000000000E+00 -0.83989818162E+03  0.33029325865E+04  0.31943598287E+04 0.  0.
        1    1    3    3  502    0 -0.53032340973E+03 -0.74634944361E+03 -0.17731333501E+04  0.19955656562E+04  0.50400001928E-02 0. -1.
       -1    1    3    3    0  502  0.53032340973E+03  0.74634944361E+03  0.93323516846E+03  0.13073669303E+04  0.50400001928E-02 0.  1.
</event>
<event>
 5   0  0.6377741E-07  0.3372824E+04  0.7818609E-02  0.8144609E-01
       -2   -1    0    0    0  501  0.00000000000E+00  0.00000000000E+00  0.11951123994E+04  0.11951123994E+04  0.25500000920E-02 0. -1.
        2   -1    0    0  501    0  0.00000000000E+00  0.00000000000E+00 -0.23796806672E+04  0.23796806672E+04  0.25500000920E-02 0.  1.
    10030    2    1    2    0    0  0.00000000000E+00  0.00000000000E+00 -0.11845682678E+04  0.35747930667E+04  0.33728242599E+04 0.  0.
        1    1    3    3  502    0  0.72271404701E+03  0.68397612881E+03 -0.20353765037E+04  0.22655896474E+04  0.50400001928E-02 0.  1.
       -1    1    3    3    0  502 -0.72271404701E+03 -0.68397612881E+03  0.85080823597E+03  0.13092034192E+04  0.50400001928E-02 0. -1.
</event>
<event>
 5   0  0.6424183E-07  0.3295762E+04  0.7818609E-02  0.8163974E-01
       -2   -1    0    0    0  501  0.00000000000E+00  0.00000000000E+00  0.12271198882E+04  0.12271198882E+04  0.25500000920E-02 0. -1.
        2   -1    0    0  501    0  0.00000000000E+00  0.00000000000E+00 -0.22129154832E+04  0.22129154832E+04  0.25500000920E-02 0.  1.
    10030    2    1    2    0    0  0.00000000000E+00  0.00000000000E+00 -0.98579559500E+03  0.34400353715E+04  0.32957624917E+04 0.  0.
        2    1    3    3  502    0  0.11290268726E+04 -0.10754605779E+04 -0.10493342515E+04  0.18794731988E+04  0.25500000920E-02 0.  1.
       -2    1    3    3    0  502 -0.11290268726E+04  0.10754605779E+04  0.63538656462E+02  0.15605621726E+04  0.25500000920E-02 0. -1.
</event>
<event>
 5   0  0.2080828E-07  0.3297840E+04  0.7818609E-02  0.8163445E-01
       -1   -1    0    0    0  501  0.00000000000E+00  0.00000000000E+00  0.14851582608E+04  0.14851582608E+04  0.50400001928E-02 0. -1.
        1   -1    0    0  501    0  0.00000000000E+00  0.00000000000E+00 -0.18307385846E+04  0.18307385846E+04  0.50400001928E-02 0.  1.
    10030    2    1    2    0    0  0.00000000000E+00  0.00000000000E+00 -0.34558032380E+03  0.33158968453E+04  0.32978396154E+04 0.  0.
        1    1    3    3  502    0  0.11039914956E+04  0.82688378913E+03 -0.10812874730E+04  0.17526313424E+04  0.50400001928E-02 0.  1.
       -1    1    3    3    0  502 -0.11039914956E+04 -0.82688378913E+03  0.73570714923E+03  0.15632655029E+04  0.50400001928E-02 0. -1.
</event>
<event>
 5   0  0.2057130E-07  0.3294316E+04  0.7818609E-02  0.8164343E-01
        1   -1    0    0  501    0  0.00000000000E+00  0.00000000000E+00  0.15823335554E+04  0.15823335554E+04  0.50400001928E-02 0.  1.
       -1   -1    0    0    0  501  0.00000000000E+00  0.00000000000E+00 -0.17146385866E+04  0.17146385866E+04  0.50400001928E-02 0. -1.
    10030    2    1    2    0    0  0.00000000000E+00  0.00000000000E+00 -0.13230503116E+03  0.32969721420E+04  0.32943164214E+04 0.  0.
        2    1    3    3  502    0  0.97720942624E+03  0.24835760206E+03  0.12373990959E+04  0.15961755178E+04  0.25500000920E-02 0.  1.
       -2    1    3    3    0  502 -0.97720942624E+03 -0.24835760206E+03 -0.13697041270E+04  0.17007966242E+04  0.25500000920E-02 0. -1.
</event>
<event>
 5   0  0.6377741E-07  0.3332547E+04  0.7818609E-02  0.8154663E-01
        2   -1    0    0  501    0  0.00000000000E+00  0.00000000000E+00  0.15446728530E+04  0.15446728530E+04  0.25500000920E-02 0. -1.
       -2   -1    0    0    0  501  0.00000000000E+00  0.00000000000E+00 -0.17974472623E+04  0.17974472623E+04  0.25500000920E-02 0.  1.
    10030    2    1    2    0    0  0.00000000000E+00  0.00000000000E+00 -0.25277440932E+03  0.33421201153E+04  0.33325473684E+04 0.  0.
        1    1    3    3  502    0  0.13704113704E+04  0.54848134986E+03 -0.90165946076E+03  0.17296961868E+04  0.50400001928E-02 0.  1.
       -1    1    3    3    0  502 -0.13704113704E+04 -0.54848134986E+03  0.64888505144E+03  0.16124239285E+04  0.50400001928E-02 0. -1.
</event>
<event>
 5   0  0.2057130E-07  0.3318148E+04  0.7818609E-02  0.8158293E-01
       -1   -1    0    0    0  501  0.00000000000E+00  0.00000000000E+00  0.13746563319E+04  0.13746563319E+04  0.50400001928E-02 0.  1.
        1   -1    0    0  501    0  0.00000000000E+00  0.00000000000E+00 -0.20023381968E+04  0.20023381968E+04  0.50400001928E-02 0. -1.
    10030    2    1    2    0    0  0.00000000000E+00  0.00000000000E+00 -0.62768186491E+03  0.33769945288E+04  0.33181482070E+04 0.  0.
        2    1    3    3  502    0  0.20078574419E+03 -0.15824152989E+04 -0.77819323026E+03  0.17748064111E+04  0.25500000920E-02 0. -1.
       -2    1    3    3    0  502 -0.20078574419E+03  0.15824152989E+04  0.15051136536E+03  0.16021881177E+04  0.25500000920E-02 0.  1.
</event>
<event>
 5   0  0.2037333E-07  0.3297375E+04  0.7818609E-02  0.8163564E-01
       -1   -1    0    0    0  501  0.00000000000E+00  0.00000000000E+00  0.12912955868E+04  0.12912955868E+04  0.50400001928E-02 0. -1.
        1   -1    0    0  501    0  0.00000000000E+00  0.00000000000E+00 -0.21049952782E+04  0.21049952782E+04  0.50400001928E-02 0.  1.
    10030    2    1    2    0    0  0.00000000000E+00  0.00000000000E+00 -0.81369969141E+03  0.33962908650E+04  0.32973753884E+04 0.  0.
        3    1    3    3  502    0  0.84043528377E+03 -0.13344161265E+04 -0.90207792723E+03  0.18167945569E+04  0.10100000352E+00 0.  1.
       -3    1    3    3    0  502 -0.84043528377E+03  0.13344161265E+04  0.88378235819E+02  0.15794963082E+04  0.10100000352E+00 0. -1.
</event>
<event>
 5   0  0.6377741E-07  0.3302700E+04  0.7818609E-02  0.8162209E-01
        2   -1    0    0  501    0  0.00000000000E+00  0.00000000000E+00  0.26942014560E+04  0.26942014560E+04  0.25500000920E-02 0. -1.
       -2   -1    0    0    0  501  0.00000000000E+00  0.00000000000E+00 -0.10121574696E+04  0.10121574696E+04  0.25500000920E-02 0.  1.
    10030    2    1    2    0    0  0.00000000000E+00  0.00000000000E+00  0.16820439863E+04  0.37063589256E+04  0.33026995796E+04 0.  0.
        1    1    3    3  502    0  0.11434244421E+04 -0.11490178648E+04  0.48739837629E+03  0.16926956861E+04  0.50400001928E-02 0.  1.
       -1    1    3    3    0  502 -0.11434244421E+04  0.11490178648E+04  0.11946456101E+04  0.20136632395E+04  0.50400001928E-02 0. -1.
</event>
<event>
 5   0  0.6426079E-07  0.3295503E+04  0.7818609E-02  0.8164041E-01
       -2   -1    0    0    0  501  0.00000000000E+00  0.00000000000E+00  0.19705645601E+04  0.19705645601E+04  0.25500000920E-02 0.  1.
        2   -1    0    0  501    0  0.00000000000E+00  0.00000000000E+00 -0.13778208822E+04  0.13778208822E+04  0.25500000920E-02 0. -1.
    10030    2    1    2    0    0  0.00000000000E+00  0.00000000000E+00  0.59274367784E+03  0.33483854423E+04  0.32955029969E+04 0.  0.
        4    1    3    3  502    0 -0.20409544121E+03  0.28515826248E+03 -0.13394677575E+04  0.13846102954E+04  0.12699999809E+01 0. -1.
       -4    1    3    3    0  502  0.20409544121E+03 -0.28515826248E+03  0.19322114353E+04  0.19637751469E+04  0.12699999809E+01 0.  1.
</event>
<event>
 5   0  0.6426079E-07  0.3420735E+04  0.7818609E-02  0.8132836E-01
       -2   -1    0    0    0  501  0.00000000000E+00  0.00000000000E+00  0.17586083202E+04  0.17586083202E+04  0.25500000920E-02 0. -1.
        2   -1    0    0  501    0  0.00000000000E+00  0.00000000000E+00 -0.16634503835E+04  0.16634503835E+04  0.25500000920E-02 0.  1.
    10030    2    1    2    0    0  0.00000000000E+00  0.00000000000E+00  0.95157936698E+02  0.34220587037E+04  0.34207354091E+04 0.  0.
        4    1    3    3  502    0  0.88083148831E+03  0.10327403884E+04 -0.99346727114E+03  0.16820807508E+04  0.12699999809E+01 0.  1.
       -4    1    3    3    0  502 -0.88083148831E+03 -0.10327403884E+04  0.10886252078E+04  0.17399779529E+04  0.12699999809E+01 0. -1.
</event>
<event>
 5   0  0.6351753E-07  0.3288339E+04  0.7818609E-02  0.8165869E-01
       -2   -1    0    0    0  501  0.00000000000E+00  0.00000000000E+00  0.12762527289E+04  0.12762527289E+04  0.25500000920E-02 0.  1.
        2   -1    0    0  501    0  0.00000000000E+00  0.00000000000E+00 -0.21181489413E+04  0.21181489413E+04  0.25500000920E-02 0. -1.
    10030    2    1    2    0    0  0.00000000000E+00  0.00000000000E+00 -0.84189621232E+03  0.33944016702E+04  0.32883390133E+04 0.  0.
        3    1    3    3  502    0  0.48225911583E+03 -0.15715392074E+04 -0.45332900176E+03  0.17052321042E+04  0.10100000352E+00 0.  1.
       -3    1    3    3    0  502 -0.48225911583E+03  0.15715392074E+04 -0.38856721055E+03  0.16891695660E+04  0.10100000352E+00 0. -1.
</event>
<event>
 5   0  0.2080828E-07  0.3312885E+04  0.7818609E-02  0.8159625E-01
        1   -1    0    0  501    0  0.00000000000E+00  0.00000000000E+00  0.25553580385E+04  0.25553580386E+04  0.50400001928E-02 0. -1.
       -1   -1    0    0    0  501  0.00000000000E+00  0.00000000000E+00 -0.10737442296E+04  0.10737442296E+04  0.50400001928E-02 0.  1.
    10030    2    1    2    0    0  0.00000000000E+00  0.00000000000E+00  0.14816138090E+04  0.36291022681E+04  0.33128845126E+04 0.  0.
        1    1    3    3  502    0 -0.61229904789E+03 -0.92202798394E+03 -0.60920252570E+03  0.12633975798E+04  0.50400001928E-02 0.  1.
       -1    1    3    3    0  502  0.61229904789E+03  0.92202798394E+03  0.20908163347E+04  0.23657046884E+04  0.50400001928E-02 0. -1.
</event>
<event>
 5   0  0.6424183E-07  0.3299422E+04  0.7818609E-02  0.8163042E-01
       -2   -1    0    0    0  501  0.00000000000E+00  0.00000000000E+00  0.10158873384E+04  0.10158873384E+04  0.25500000920E-02 0.  1.
        2   -1    0    0  501    0  0.00000000000E+00  0.00000000000E+00 -0.26789852502E+04  0.26789852502E+04  0.25500000920E-02 0. -1.
    10030    2    1    2    0    0  0.00000000000E+00  0.00000000000E+00 -0.16630979118E+04  0.36948725886E+04  0.32994224921E+04 0.  0.
        2    1    3    3  502    0 -0.14146541090E+04  0.71798736134E+03 -0.32476680199E+03  0.16193287421E+04  0.25500000920E-02 0.  1.
       -2    1    3    3    0  502  0.14146541090E+04 -0.71798736134E+03 -0.13383311098E+04  0.20755438465E+04  0.25500000920E-02 0. -1.
</event>
<event>
 5   0  0.6377741E-07  0.3311638E+04  0.7818609E-02  0.8159940E-01
       -2   -1    0    0    0  501  0.00000000000E+00  0.00000000000E+00  0.18327418376E+04  0.18327418376E+04  0.25500000920E-02 0. -1.
        2   -1    0    0  501    0  0.00000000000E+00  0.00000000000E+00 -0.14959750666E+04  0.14959750666E+04  0.25500000920E-02 0.  1.
    10030    2    1    2    0    0  0.00000000000E+00  0.00000000000E+00  0.33676677097E+03  0.33287169042E+04  0.33116377172E+04 0.  0.
        1    1    3    3  502    0 -0.65202110167E+03 -0.13334913767E+04 -0.56916193861E+03  0.15897408849E+04  0.50400001928E-02 0.  1.
       -1    1    3    3    0  502  0.65202110167E+03  0.13334913767E+04  0.90592870958E+03  0.17389760193E+04  0.50400001928E-02 0. -1.
</event>
<event>
 5   0  0.2057130E-07  0.3296815E+04  0.7818609E-02  0.8163706E-01
        1   -1    0    0  501    0  0.00000000000E+00  0.00000000000E+00  0.20136611599E+04  0.20136611600E+04  0.50400001928E-02 0. -1.
       -1   -1    0    0    0  501  0.00000000000E+00  0.00000000000E+00 -0.13494067904E+04  0.13494067904E+04  0.50400001928E-02 0.  1.
    10030    2    1    2    0    0  0.00000000000E+00  0.00000000000E+00  0.66425436951E+03  0.33630679504E+04  0.32968154591E+04 0.  0.
        2    1    3    3  502    0 -0.14556167008E+04  0.17910124522E+03  0.10998134421E+04  0.18331630705E+04  0.25500000920E-02 0. -1.
       -2    1    3    3    0  502  0.14556167008E+04 -0.17910124522E+03 -0.43555907262E+03  0.15299048799E+04  0.25500000920E-02 0.  1.
</event>
<event>
 5   0  0.2057130E-07  0.3309697E+04  0.7818609E-02  0.8160432E-01
        1   -1    0    0  501    0  0.00000000000E+00  0.00000000000E+00  0.13997675081E+04  0.13997675081E+04  0.50400001928E-02 0. -1.
       -1   -1    0    0    0  501  0.00000000000E+00  0.00000000000E+00 -0.19564130197E+04  0.19564130197E+04  0.50400001928E-02 0.  1.
    10030    2    1    2    0    0  0.00000000000E+00  0.00000000000E+00 -0.55664551165E+03  0.33561805278E+04  0.33096968909E+04 0.  0.
        2    1    3    3  502    0  0.18526467700E+03 -0.13296580008E+04  0.70284603142E+03  0.15153567050E+04  0.25500000920E-02 0. -1.
       -2    1    3    3    0  502 -0.18526467700E+03  0.13296580008E+04 -0.12594915431E+04  0.18408238228E+04  0.25500000920E-02 0.  1.
</event>
<event>
 5   0  0.6377741E-07  0.3261225E+04  0.7818609E-02  0.8172832E-01
        2   -1    0    0  501    0  0.00000000000E+00  0.00000000000E+00  0.24486280037E+04  0.24486280037E+04  0.25500000920E-02 0. -1.
       -2   -1    0    0    0  501  0.00000000000E+00  0.00000000000E+00 -0.10858720007E+04  0.10858720007E+04  0.25500000920E-02 0.  1.
    10030    2    1    2    0    0  0.00000000000E+00  0.00000000000E+00  0.13627560030E+04  0.35345000043E+04  0.32612246714E+04 0.  0.
        1    1    3    3  502    0 -0.49303380519E+03  0.14554640177E+04  0.12724576966E+04  0.19951457164E+04  0.50400001928E-02 0. -1.
       -1    1    3    3    0  502  0.49303380519E+03 -0.14554640177E+04  0.90298306315E+02  0.15393542880E+04  0.50400001928E-02 0.  1.
</event>
<event>
 5   0  0.6426079E-07  0.3303011E+04  0.7818609E-02  0.8162130E-01
       -2   -1    0    0    0  501  0.00000000000E+00  0.00000000000E+00  0.18587682681E+04  0.18587682681E+04  0.25500000920E-02 0. -1.
        2   -1    0    0  501    0  0.00000000000E+00  0.00000000000E+00 -0.14673536112E+04  0.14673536112E+04  0.25500000920E-02 0.  1.
    10030    2    1    2    0    0  0.00000000000E+00  0.00000000000E+00  0.39141465688E+03  0.33261218792E+04  0.33030109479E+04 0.  0.
        4    1    3    3  502    0 -0.97296036387E+03 -0.12931480604E+04 -0.13612060873E+03  0.16240117638E+04  0.12699999809E+01 0.  1.
       -4    1    3    3    0  502  0.97296036387E+03  0.12931480604E+04  0.52753526561E+03  0.17021101155E+04  0.12699999809E+01 0. -1.
</event>
<event>
 5   0  0.6426079E-07  0.3305559E+04  0.7818609E-02  0.8161482E-01
        2   -1    0    0  501    0  0.00000000000E+00  0.00000000000E+00  0.15240407700E+04  0.15240407700E+04  0.25500000920E-02 0. -1.
       -2   -1    0    0    0  501  0.00000000000E+00  0.00000000000E+00 -0.17923933462E+04  0.17923933462E+04  0.25500000920E-02 0.  1.
    10030    2    1    2    0    0  0.00000000000E+00  0.00000000000E+00 -0.26835257621E+03  0.33164341163E+04  0.33055592783E+04 0.  0.
        4    1    3    3  502    0 -0.11862513467E+03  0.11071334033E+04 -0.13596128724E+04  0.17573744823E+04  0.12699999809E+01 0.  1.
       -4    1    3    3    0  502  0.11862513467E+03 -0.11071334033E+04  0.10912602962E+04  0.15590596340E+04  0.12699999809E+01 0. -1.
</event>
<event>
 5   0  0.2037333E-07  0.3298448E+04  0.7818609E-02  0.8163291E-01
       -1   -1    0    0    0  501  0.00000000000E+00  0.00000000000E+00  0.13547117149E+04  0.13547117150E+04  0.50400001928E-02 0. -1.
        1   -1    0    0  501    0  0.00000000000E+00  0.00000000000E+00 -0.20077623354E+04  0.20077623354E+04  0.50400001928E-02 0.  1.
    10030    2    1    2    0    0  0.00000000000E+00  0.00000000000E+00 -0.65305062045E+03  0.33624740504E+04  0.32984476086E+04 0.  0.
        3    1    3    3  502    0 -0.61480147834E+03  0.75115992022E+03 -0.16857168779E+04  0.19452155372E+04  0.10100000352E+00 0.  1.
       -3    1    3    3    0  502  0.61480147834E+03 -0.75115992022E+03  0.10326662575E+04  0.14172585131E+04  0.10100000352E+00 0. -1.
</event>
<event>
 5   0  0.2087665E-07  0.3298165E+04  0.7818609E-02  0.8163362E-01
       -1   -1    0    0    0  501  0.00000000000E+00  0.00000000000E+00  0.19322022901E+04  0.19322022901E+04  0.50400001928E-02 0.  1.
        1   -1    0    0  501    0  0.00000000000E+00  0.00000000000E+00 -0.14074473183E+04  0.14074473183E+04  0.50400001928E-02 0. -1.
    10030    2    1    2    0    0  0.00000000000E+00  0.00000000000E+00  0.52475497173E+03  0.33396496084E+04  0.32981649029E+04 0.  0.
        5    1    3    3  502    0  0.12423867627E+04  0.84806612852E+03 -0.42192593379E+03  0.15623010626E+04  0.46999998093E+01 0. -1.
       -5    1    3    3    0  502 -0.12423867627E+04 -0.84806612852E+03  0.94668090552E+03  0.17773485458E+04  0.46999998093E+01 0.  1.
</event>
<event>
 5   0  0.6424183E-07  0.3294342E+04  0.7818609E-02  0.8164337E-01
        2   -1    0    0  501    0  0.00000000000E+00  0.00000000000E+00  0.24213057884E+04  0.24213057884E+04  0.25500000920E-02 0. -1.
       -2   -1    0    0    0  501  0.00000000000E+00  0.00000000000E+00 -0.11205409222E+04  0.11205409222E+04  0.25500000920E-02 0.  1.
    10030    2    1    2    0    0  0.00000000000E+00  0.00000000000E+00  0.13007648661E+04  0.35418467106E+04  0.32943419501E+04 0.  0.
        2    1    3    3  502    0 -0.10179508309E+04 -0.91354315484E+03  0.16371547841E+04  0.21333215363E+04  0.25500000920E-02 0. -1.
       -2    1    3    3    0  502  0.10179508309E+04  0.91354315484E+03 -0.33638991798E+03  0.14085251744E+04  0.25500000920E-02 0.  1.
</event>
<event>
 5   0  0.2057130E-07  0.3298124E+04  0.7818609E-02  0.8163373E-01
       -1   -1    0    0    0  501  0.00000000000E+00  0.00000000000E+00  0.10785372566E+04  0.10785372566E+04  0.50400001928E-02 0. -1.
        1   -1    0    0  501    0  0.00000000000E+00  0.00000000000E+00 -0.25213828069E+04  0.25213828069E+04  0.50400001928E-02 0.  1.
    10030    2    1    2    0    0  0.00000000000E+00  0.00000000000E+00 -0.14428455503E+04  0.35999200635E+04  0.32981238881E+04 0.  0.
        2    1    3    3  502    0 -0.11315992207E+04 -0.10348766296E+04 -0.13834897393E+04  0.20653160275E+04  0.25500000920E-02 0.  1.
       -2    1    3    3    0  502  0.11315992207E+04  0.10348766296E+04 -0.59355810986E+02  0.15346040360E+04  0.25500000920E-02 0. -1.
</event>
<event>
 5   0  0.2080770E-07  0.3275270E+04  0.7818609E-02  0.8169216E-01
       -1   -1    0    0    0  501  0.00000000000E+00  0.00000000000E+00  0.12386798358E+04  0.12386798358E+04  0.50400001928E-02 0. -1.
        1   -1    0    0  501    0  0.00000000000E+00  0.00000000000E+00 -0.21650866494E+04  0.21650866494E+04  0.50400001928E-02 0.  1.
    10030    2    1    2    0    0  0.00000000000E+00  0.00000000000E+00 -0.92640681359E+03  0.34037664851E+04  0.32752704775E+04 0.  0.
        4    1    3    3  502    0 -0.13985432866E+04  0.33733165760E+03 -0.12762865991E+04  0.19231809763E+04  0.12699999809E+01 0. -1.
       -4    1    3    3    0  502  0.13985432866E+04 -0.33733165760E+03  0.34987978552E+03  0.14805855088E+04  0.12699999809E+01 0.  1.
</event>
<event>
 5   0  0.2080828E-07  0.3297111E+04  0.7818609E-02  0.8163631E-01
        1   -1    0    0  501    0  0.00000000000E+00  0.00000000000E+00  0.19940685818E+04  0.19940685818E+04  0.50400001928E-02 0. -1.
       -1   -1    0    0    0  501  0.00000000000E+00  0.00000000000E+00 -0.13629093726E+04  0.13629093727E+04  0.50400001928E-02 0.  1.
    10030    2    1    2    0    0  0.00000000000E+00  0.00000000000E+00  0.63115920918E+03  0.33569779545E+04  0.32971107108E+04 0.  0.
        1    1    3    3  502    0  0.72673164268E+03  0.14552382465E+04  0.42611743266E+02  0.16271671688E+04  0.50400001928E-02 0.  1.
       -1    1    3    3    0  502 -0.72673164268E+03 -0.14552382465E+04  0.58854746591E+03  0.17298107857E+04  0.50400001928E-02 0. -1.
</event>
<event>
 5   0  0.6424183E-07  0.3299312E+04  0.7818609E-02  0.8163070E-01
       -2   -1    0    0    0  501  0.00000000000E+00  0.00000000000E+00  0.26732766584E+04  0.26732766584E+04  0.25500000920E-02 0.  1.
        2   -1    0    0  501    0  0.00000000000E+00  0.00000000000E+00 -0.10179884961E+04  0.10179884961E+04  0.25500000920E-02 0. -1.
    10030    2    1    2    0    0  0.00000000000E+00  0.00000000000E+00  0.16552881623E+04  0.36912651545E+04  0.32993119798E+04 0.  0.
        2    1    3    3  502    0  0.56561172125E+02  0.30686556322E+03  0.26399591934E+04  0.26583359800E+04  0.25500000920E-02 0.  1.
       -2    1    3    3    0  502 -0.56561172125E+02 -0.30686556322E+03 -0.98467103101E+03  0.10329291744E+04  0.25500000920E-02 0. -1.
</event>
<event>
 5   0  0.6426079E-07  0.3303140E+04  0.7818609E-02  0.8162097E-01
        2   -1    0    0  501    0  0.00000000000E+00  0.00000000000E+00  0.23109474903E+04  0.23109474903E+04  0.25500000920E-02 0.  1.
       -2   -1    0    0    0  501  0.00000000000E+00  0.00000000000E+00 -0.11803312521E+04  0.11803312521E+04  0.25500000920E-02 0. -1.
    10030    2    1    2    0    0  0.00000000000E+00  0.00000000000E+00  0.11306162382E+04  0.34912787424E+04  0.33031400483E+04 0.  0.
        4    1    3    3  502    0  0.67100678949E+03  0.14866666932E+04  0.83941281704E+03  0.18344054782E+04  0.12699999809E+01 0.  1.
       -4    1    3    3    0  502 -0.67100678949E+03 -0.14866666932E+04  0.29120342115E+03  0.16568732642E+04  0.12699999809E+01 0. -1.
</event>
<event>
 5   0  0.2037333E-07  0.3303393E+04  0.7818609E-02  0.8162033E-01
        1   -1    0    0  501    0  0.00000000000E+00  0.00000000000E+00  0.15230097198E+04  0.15230097198E+04  0.50400001928E-02 0. -1.
       -1   -1    0    0    0  501  0.00000000000E+00  0.00000000000E+00 -0.17912569113E+04  0.17912569113E+04  0.50400001928E-02 0.  1.
    10030    2    1    2    0    0  0.00000000000E+00  0.00000000000E+00 -0.26824719150E+03  0.33142666311E+04  0.33033932170E+04 0.  0.
        3    1    3    3  502    0  0.76474742446E+03 -0.22242905321E+03 -0.15858793734E+04  0.17746342451E+04  0.10100000352E+00 0.  1.
       -3    1    3    3    0  502 -0.76474742446E+03  0.22242905321E+03  0.13176321819E+04  0.15396323859E+04  0.10100000352E+00 0. -1.
</event>
<event>
 5   0  0.6377741E-07  0.3300176E+04  0.7818609E-02  0.8162851E-01
        2   -1    0    0  501    0  0.00000000000E+00  0.00000000000E+00  0.25463968992E+04  0.25463968992E+04  0.25500000920E-02 0.  1.
       -2   -1    0    0    0  501  0.00000000000E+00  0.00000000000E+00 -0.10692716137E+04  0.10692716137E+04  0.25500000920E-02 0. -1.
    10030    2    1    2    0    0  0.00000000000E+00  0.00000000000E+00  0.14771252855E+04  0.36156685129E+04  0.33001757054E+04 0.  0.
        1    1    3    3  502    0 -0.95241949490E+03  0.82527427626E+03 -0.42844777314E+03  0.13310702535E+04  0.50400001928E-02 0. -1.
       -1    1    3    3    0  502  0.95241949490E+03 -0.82527427626E+03  0.19055730586E+04  0.22845982595E+04  0.50400001928E-02 0.  1.
</event>
<event>
 5   0  0.2057130E-07  0.3251751E+04  0.7818609E-02  0.8175282E-01
        1   -1    0    0  501    0  0.00000000000E+00  0.00000000000E+00  0.16106094611E+04  0.16106094611E+04  0.50400001928E-02 0. -1.
       -1   -1    0    0    0  501  0.00000000000E+00  0.00000000000E+00 -0.16412867409E+04  0.16412867409E+04  0.50400001928E-02 0.  1.
    10030    2    1    2    0    0  0.00000000000E+00  0.00000000000E+00 -0.30677279804E+02  0.32518962020E+04  0.32517514993E+04 0.  0.
        2    1    3    3  502    0  0.78720621156E+03  0.13707299155E+04  0.36530650570E+03  0.16223572245E+04  0.25500000920E-02 0. -1.
       -2    1    3    3    0  502 -0.78720621156E+03 -0.13707299155E+04 -0.39598378550E+03  0.16295389775E+04  0.25500000920E-02 0.  1.
</event>
<event>
 5   0  0.2080828E-07  0.3292760E+04  0.7818609E-02  0.8164740E-01
       -1   -1    0    0    0  501  0.00000000000E+00  0.00000000000E+00  0.11640678841E+04  0.11640678841E+04  0.50400001928E-02 0. -1.
        1   -1    0    0  501    0  0.00000000000E+00  0.00000000000E+00 -0.23285298754E+04  0.23285298754E+04  0.50400001928E-02 0.  1.
    10030    2    1    2    0    0  0.00000000000E+00  0.00000000000E+00 -0.11644619913E+04  0.34925977595E+04  0.32927598426E+04 0.  0.
        1    1    3    3  502    0 -0.90376907671E+03  0.41617488490E+03  0.80908019887E+03  0.12824238173E+04  0.50400001928E-02 0. -1.
       -1    1    3    3    0  502  0.90376907671E+03 -0.41617488490E+03 -0.19735421901E+04  0.22101739423E+04  0.50400001928E-02 0.  1.
</event>
<event>
 5   0  0.2037333E-07  0.3331072E+04  0.7818609E-02  0.8155034E-01
       -1   -1    0    0    0  501  0.00000000000E+00  0.00000000000E+00  0.32032756361E+04  0.32032756361E+04  0.50400001928E-02 0.  1.
        1   -1    0    0  501    0  0.00000000000E+00  0.00000000000E+00 -0.86599185482E+03  0.86599185483E+03  0.50400001928E-02 0. -1.
    10030    2    1    2    0    0  0.00000000000E+00  0.00000000000E+00  0.23372837813E+04  0.40692674910E+04  0.33310722656E+04 0.  0.
        3    1    3    3  502    0  0.14368737690E+03 -0.16229552901E+04  0.15907261713E+04  0.22770682243E+04  0.10100000352E+00 0. -1.
       -3    1    3    3    0  502 -0.14368737690E+03  0.16229552901E+04  0.74655761006E+03  0.17921992667E+04  0.10100000352E+00 0.  1.
</event>
<event>
 5   0  0.2080828E-07  0.3258418E+04  0.7818609E-02  0.8173557E-01
        1   -1    0    0  501    0  0.00000000000E+00  0.00000000000E+00  0.20118694366E+04  0.20118694366E+04  0.50400001928E-02 0. -1.
       -1   -1    0    0    0  501  0.00000000000E+00  0.00000000000E+00 -0.13193310970E+04  0.13193310970E+04  0.50400001928E-02 0.  1.
    10030    2    1    2    0    0  0.00000000000E+00  0.00000000000E+00  0.69253833964E+03  0.33312005336E+04  0.32584179663E+04 0.  0.
        1    1    3    3  502    0  0.15020810287E+04 -0.47824282583E+03 -0.74454765856E+02  0.15781340657E+04  0.50400001928E-02 0.  1.
       -1    1    3    3    0  502 -0.15020810287E+04  0.47824282583E+03  0.76699310550E+03  0.17530664679E+04  0.50400001928E-02 0. -1.
</event>
<event>
 5   0  0.2080828E-07  0.3368700E+04  0.7818609E-02  0.8145631E-01
        1   -1    0    0  501    0  0.00000000000E+00  0.00000000000E+00  0.16600427573E+04  0.16600427573E+04  0.50400001928E-02 0.  1.
       -1   -1    0    0    0  501  0.00000000000E+00  0.00000000000E+00 -0.17090128636E+04  0.17090128636E+04  0.50400001928E-02 0. -1.
    10030    2    1    2    0    0  0.00000000000E+00  0.00000000000E+00 -0.48970106331E+02  0.33690556209E+04  0.33686997054E+04 0.  0.
        1    1    3    3  502    0 -0.14586938529E+04  0.12446751195E+03  0.80852221661E+03  0.16724198315E+04  0.50400001928E-02 0. -1.
       -1    1    3    3    0  502  0.14586938529E+04 -0.12446751195E+03 -0.85749232294E+03  0.16966357894E+04  0.50400001928E-02 0.  1.
</event>
<event>
 5   0  0.2057130E-07  0.3288356E+04  0.7818609E-02  0.8165864E-01
        1   -1    0    0  501    0  0.00000000000E+00  0.00000000000E+00  0.20367698319E+04  0.20367698319E+04  0.50400001928E-02 0.  1.
       -1   -1    0    0    0  501  0.00000000000E+00  0.00000000000E+00 -0.13272594794E+04  0.13272594794E+04  0.50400001928E-02 0. -1.
    10030    2    1    2    0    0  0.00000000000E+00  0.00000000000E+00  0.70951035243E+03  0.33640293113E+04  0.32883564690E+04 0.  0.
        2    1    3    3  502    0  0.94330380993E+03  0.11958839249E+04  0.98816559205E+03  0.18156077982E+04  0.25500000920E-02 0.  1.
       -2    1    3    3    0  502 -0.94330380993E+03 -0.11958839249E+04 -0.27865523963E+03  0.15484215131E+04  0.25500000920E-02 0. -1.
</event>
<event>
 5   0  0.2080828E-07  0.3326958E+04  0.7818609E-02  0.8156070E-01
       -1   -1    0    0    0  501  0.00000000000E+00  0.00000000000E+00  0.11555604266E+04  0.11555604266E+04  0.50400001928E-02 0.  1.
        1   -1    0    0  501    0  0.00000000000E+00  0.00000000000E+00 -0.23946493514E+04  0.23946493514E+04  0.50400001928E-02 0. -1.
    10030    2    1    2    0    0  0.00000000000E+00  0.00000000000E+00 -0.12390889248E+04  0.35502097780E+04  0.33269577852E+04 0.  0.
        1    1    3    3  502    0  0.16378206899E+04  0.26373893984E+03 -0.75087710946E+03  0.18209424137E+04  0.50400001928E-02 0. -1.
       -1    1    3    3    0  502 -0.16378206899E+04 -0.26373893984E+03 -0.48821181530E+03  0.17292673643E+04  0.50400001928E-02 0.  1.
</event>
<event>
 5   0  0.6424183E-07  0.3303596E+04  0.7818609E-02  0.8161981E-01
        2   -1    0    0  501    0  0.00000000000E+00  0.00000000000E+00  0.21579465696E+04  0.21579465696E+04  0.25500000920E-02 0. -1.
       -2   -1    0    0    0  501  0.00000000000E+00  0.00000000000E+00 -0.12643671082E+04  0.12643671082E+04  0.25500000920E-02 0.  1.
    10030    2    1    2    0    0  0.00000000000E+00  0.00000000000E+00  0.89357946140E+03  0.34223136779E+04  0.33035960189E+04 0.  0.
        2    1    3    3  502    0 -0.10456505395E+03 -0.65394425187E+03  0.20143971801E+04  0.21204652636E+04  0.25500000920E-02 0. -1.
       -2    1    3    3    0  502  0.10456505395E+03  0.65394425187E+03 -0.11208177187E+04  0.13018484142E+04  0.25500000920E-02 0.  1.
</event>
<event>
 5   0  0.2057130E-07  0.3290406E+04  0.7818609E-02  0.8165341E-01
        1   -1    0    0  501    0  0.00000000000E+00  0.00000000000E+00  0.16821314446E+04  0.16821314446E+04  0.50400001928E-02 0.  1.
       -1   -1    0    0    0  501  0.00000000000E+00  0.00000000000E+00 -0.16090857148E+04  0.16090857148E+04  0.50400001928E-02 0. -1.
    10030    2    1    2    0    0  0.00000000000E+00  0.00000000000E+00  0.73045729815E+02  0.32912171594E+04  0.32904064661E+04 0.  0.
        2    1    3    3  502    0  0.19391582621E+03 -0.14822671703E+04 -0.65065030515E+03  0.16303573631E+04  0.25500000920E-02 0. -1.
       -2    1    3    3    0  502 -0.19391582621E+03  0.14822671703E+04  0.72369603496E+03  0.16608597963E+04  0.25500000920E-02 0.  1.
</event>
<event>
 5   0  0.2087665E-07  0.3300890E+04  0.7818609E-02  0.8162669E-01
        1   -1    0    0  501    0  0.00000000000E+00  0.00000000000E+00  0.18235156183E+04  0.18235156183E+04  0.50400001928E-02 0.  1.
       -1   -1    0    0    0  501  0.00000000000E+00  0.00000000000E+00 -0.14938007750E+04  0.14938007750E+04  0.50400001928E-02 0. -1.
    10030    2    1    2    0    0  0.00000000000E+00  0.00000000000E+00  0.32971484329E+03  0.33173163934E+04  0.33008902096E+04 0.  0.
        5    1    3    3  502    0 -0.89567620977E+03  0.97827226024E+03  0.11519336863E+04  0.17567657202E+04  0.46999998093E+01 0.  1.
       -5    1    3    3    0  502  0.89567620977E+03 -0.97827226024E+03 -0.82221884301E+03  0.15605506732E+04  0.46999998093E+01 0. -1.
</event>
<event>
 5   0  0.6377741E-07  0.3306134E+04  0.7818609E-02  0.8161336E-01
        2   -1    0    0  501    0  0.00000000000E+00  0.00000000000E+00  0.93267747199E+03  0.93267747199E+03  0.25500000920E-02 0. -1.
       -2   -1    0    0    0  501  0.00000000000E+00  0.00000000000E+00 -0.29298776601E+04  0.29298776601E+04  0.25500000920E-02 0.  1.
    10030    2    1    2    0    0  0.00000000000E+00  0.00000000000E+00 -0.19972001881E+04  0.38625551321E+04  0.33061342316E+04 0.  0.
        1    1    3    3  502    0  0.10269633775E+04  0.65145514021E+03 -0.23066695654E+04  0.26076372567E+04  0.50400001928E-02 0. -1.
       -1    1    3    3    0  502 -0.10269633775E+04 -0.65145514021E+03  0.30946937728E+03  0.12549178754E+04  0.50400001928E-02 0.  1.
</event>
<event>
 5   0  0.6377741E-07  0.3311644E+04  0.7818609E-02  0.8159939E-01
       -2   -1    0    0    0  501  0.00000000000E+00  0.00000000000E+00  0.12277194150E+04  0.12277194150E+04  0.25500000920E-02 0.  1.
        2   -1    0    0  501    0  0.00000000000E+00  0.00000000000E+00 -0.22332027315E+04  0.22332027315E+04  0.25500000920E-02 0. -1.
    10030    2    1    2    0    0  0.00000000000E+00  0.00000000000E+00 -0.10054833165E+04  0.34609221465E+04  0.33116439127E+04 0.  0.
        1    1    3    3  502    0  0.14617145154E+03  0.13446700304E+04  0.49542581028E+03  0.14404687839E+04  0.50400001928E-02 0.  1.
       -1    1    3    3    0  502 -0.14617145154E+03 -0.13446700304E+04 -0.15009091268E+04  0.20204533627E+04  0.50400001928E-02 0. -1.
</event>
<event>
 5   0  0.6424183E-07  0.3243203E+04  0.7818609E-02  0.8177500E-01
       -2   -1    0    0    0  501  0.00000000000E+00  0.00000000000E+00  0.10668044501E+04  0.10668044501E+04  0.25500000920E-02 0.  1.
        2   -1    0    0  501    0  0.00000000000E+00  0.00000000000E+00 -0.24649230113E+04  0.24649230113E+04  0.25500000920E-02 0. -1.
    10030    2    1    2    0    0  0.00000000000E+00  0.00000000000E+00 -0.13981185612E+04  0.35317274614E+04  0.32432026379E+04 0.  0.
        2    1    3    3  502    0 -0.98818297905E+03 -0.22957618581E+03 -0.20766641115E+04  0.23112214643E+04  0.25500000920E-02 0. -1.
       -2    1    3    3    0  502  0.98818297905E+03  0.22957618581E+03  0.67854555028E+03  0.12205059971E+04  0.25500000920E-02 0.  1.
</event>
<event>
 5   0  0.6258718E-07  0.3309802E+04  0.7818609E-02  0.8160406E-01
       -2   -1    0    0    0  501  0.00000000000E+00  0.00000000000E+00  0.10613160306E+04  0.10613160306E+04  0.25500000920E-02 0.  1.
        2   -1    0    0  501    0  0.00000000000E+00  0.00000000000E+00 -0.25804737157E+04  0.25804737157E+04  0.25500000920E-02 0. -1.
    10030    2    1    2    0    0  0.00000000000E+00  0.00000000000E+00 -0.15191576851E+04  0.36417897463E+04  0.33098024842E+04 0.  0.
        5    1    3    3  502    0  0.16382331594E+03 -0.78823824991E+03  0.83130983089E+03  0.11572621753E+04  0.46999998093E+01 0.  1.
       -5    1    3    3    0  502 -0.16382331594E+03  0.78823824991E+03 -0.23504675160E+04  0.24845275710E+04  0.46999998093E+01 0. -1.
</event>
<event>
 5   0  0.2080770E-07  0.3307408E+04  0.7818609E-02  0.8161013E-01
        1   -1    0    0  501    0  0.00000000000E+00  0.00000000000E+00  0.24161844065E+04  0.24161844065E+04  0.50400001928E-02 0. -1.
       -1   -1    0    0    0  501  0.00000000000E+00  0.00000000000E+00 -0.11318414617E+04  0.11318414618E+04  0.50400001928E-02 0.  1.
    10030    2    1    2    0    0  0.00000000000E+00  0.00000000000E+00  0.12843429447E+04  0.35480258682E+04  0.33074084662E+04 0.  0.
        4    1    3    3  502    0  0.62609587083E+02  0.70595243586E+03 -0.96066622903E+03  0.11938048495E+04  0.12699999809E+01 0.  1.
       -4    1    3    3    0  502 -0.62609587083E+02 -0.70595243586E+03  0.22450091738E+04  0.23542210188E+04  0.12699999809E+01 0. -1.
</event>
<event>
 5   0  0.6377741E-07  0.3345729E+04  0.7818609E-02  0.8151356E-01
       -2   -1    0    0    0  501  0.00000000000E+00  0.00000000000E+00  0.14069839977E+04  0.14069839977E+04  0.25500000920E-02 0. -1.
        2   -1    0    0  501    0  0.00000000000E+00  0.00000000000E+00 -0.19889887782E+04  0.19889887782E+04  0.25500000920E-02 0.  1.
    10030    2    1    2    0    0  0.00000000000E+00  0.00000000000E+00 -0.58200478051E+03  0.33959727759E+04  0.33457288489E+04 0.  0.
        1    1    3    3  502    0 -0.31884849708E+03 -0.12498843558E+03 -0.19530259129E+04  0.19828254309E+04  0.50400001928E-02 0.  1.
       -1    1    3    3    0  502  0.31884849708E+03  0.12498843558E+03  0.13710211324E+04  0.14131473450E+04  0.50400001928E-02 0. -1.
</event>
<event>
 5   0  0.2080828E-07  0.3297046E+04  0.7818609E-02  0.8163647E-01
        1   -1    0    0  501    0  0.00000000000E+00  0.00000000000E+00  0.26019936959E+04  0.26019936959E+04  0.50400001928E-02 0. -1.
       -1   -1    0    0    0  501  0.00000000000E+00  0.00000000000E+00 -0.10444407484E+04  0.10444407484E+04  0.50400001928E-02 0.  1.
    10030    2    1    2    0    0  0.00000000000E+00  0.00000000000E+00  0.15575529475E+04  0.36464344443E+04  0.32970460980E+04 0.  0.
        1    1    3    3  502    0 -0.10996645238E+04 -0.10558826696E+04  0.14725274381E+04  0.21195488513E+04  0.50400001928E-02 0. -1.
       -1    1    3    3    0  502  0.10996645238E+04  0.10558826696E+04  0.85025509409E+02  0.15268855930E+04  0.50400001928E-02 0.  1.
</event>
<event>
 5   0  0.2057130E-07  0.3308753E+04  0.7818609E-02  0.8160672E-01
        1   -1    0    0  501    0  0.00000000000E+00  0.00000000000E+00  0.16430644752E+04  0.16430644752E+04  0.50400001928E-02 0. -1.
       -1   -1    0    0    0  501  0.00000000000E+00  0.00000000000E+00 -0.16657659516E+04  0.16657659517E+04  0.50400001928E-02 0.  1.
    10030    2    1    2    0    0  0.00000000000E+00  0.00000000000E+00 -0.22701476417E+02  0.33088304269E+04  0.33087525500E+04 0.  0.
        2    1    3    3  502    0 -0.15277343724E+04  0.59626521106E+03 -0.22920063759E+03  0.16559098547E+04  0.25500000920E-02 0.  1.
       -2    1    3    3    0  502  0.15277343724E+04 -0.59626521106E+03  0.20649916117E+03  0.16529205722E+04  0.25500000920E-02 0. -1.
</event>
<event>
 5   0  0.2037333E-07  0.3279007E+04  0.7818609E-02  0.8168258E-01
        1   -1    0    0  501    0  0.00000000000E+00  0.00000000000E+00  0.19886737821E+04  0.19886737821E+04  0.50400001928E-02 0.  1.
       -1   -1    0    0    0  501  0.00000000000E+00  0.00000000000E+00 -0.13516404003E+04  0.13516404004E+04  0.50400001928E-02 0. -1.
    10030    2    1    2    0    0  0.00000000000E+00  0.00000000000E+00  0.63703338173E+03  0.33403141824E+04  0.32790070613E+04 0.  0.
        3    1    3    3  502    0 -0.11131448805E+04  0.41946838952E+02 -0.90693826272E+03  0.14364498198E+04  0.10100000352E+00 0. -1.
       -3    1    3    3    0  502  0.11131448805E+04 -0.41946838952E+02  0.15439716445E+04  0.19038643626E+04  0.10100000352E+00 0.  1.
</event>
<event>
 5   0  0.2087665E-07  0.3377891E+04  0.7818609E-02  0.8143354E-01
       -1   -1    0    0    0  501  0.00000000000E+00  0.00000000000E+00  0.14561541310E+04  0.14561541310E+04  0.50400001928E-02 0. -1.
        1   -1    0    0  501    0  0.00000000000E+00  0.00000000000E+00 -0.19589524656E+04  0.19589524656E+04  0.50400001928E-02 0.  1.
    10030    2    1    2    0    0  0.00000000000E+00  0.00000000000E+00 -0.50279833465E+03  0.34151065966E+04  0.33778908953E+04 0.  0.
        5    1    3    3  502    0  0.14888420169E+04 -0.44246335087E+03 -0.92210105392E+03  0.18062992033E+04  0.46999998093E+01 0. -1.
       -5    1    3    3    0  502 -0.14888420169E+04  0.44246335087E+03  0.41930271927E+03  0.16088073933E+04  0.46999998093E+01 0.  1.
</event>
<event>
 5   0  0.2057130E-07  0.3307704E+04  0.7818609E-02  0.8160938E-01
        1   -1    0    0  501    0  0.00000000000E+00  0.00000000000E+00  0.23751680284E+04  0.23751680284E+04  0.50400001928E-02 0.  1.
       -1   -1    0    0    0  501  0.00000000000E+00  0.00000000000E+00 -0.11515926166E+04  0.11515926166E+04  0.50400001928E-02 0. -1.
    10030    2    1    2    0    0  0.00000000000E+00  0.00000000000E+00  0.12235754118E+04  0.35267606450E+04  0.33077037139E+04 0.  0.
        2    1    3    3  502    0 -0.23662538689E+03  0.15675106856E+04  0.10925155856E+03  0.15890302786E+04  0.25500000920E-02 0.  1.
       -2    1    3    3    0  502  0.23662538689E+03 -0.15675106856E+04  0.11143238532E+04  0.19377303664E+04  0.25500000920E-02 0. -1.
</event>
<event>
 5   0  0.6377741E-07  0.3297181E+04  0.7818609E-02  0.8163613E-01
        2   -1    0    0  501    0  0.00000000000E+00  0.00000000000E+00  0.19088629091E+04  0.19088629091E+04  0.25500000920E-02 0. -1.
       -2   -1    0    0    0  501  0.00000000000E+00  0.00000000000E+00 -0.14238062545E+04  0.14238062545E+04  0.25500000920E-02 0.  1.
    10030    2    1    2    0    0  0.00000000000E+00  0.00000000000E+00  0.48505665457E+03  0.33326691637E+04  0.32971811895E+04 0.  0.
        1    1    3    3  502    0 -0.15924985934E+04 -0.41534053794E+03  0.14509885298E+03  0.16521541119E+04  0.50400001928E-02 0.  1.
       -1    1    3    3    0  502  0.15924985934E+04  0.41534053794E+03  0.33995780159E+03  0.16805150518E+04  0.50400001928E-02 0. -1.
</event>
<event>
 5   0  0.6351753E-07  0.3298725E+04  0.7818609E-02  0.8163220E-01
        2   -1    0    0  501    0  0.00000000000E+00  0.00000000000E+00  0.15317398957E+04  0.15317398957E+04  0.25500000920E-02 0. -1.
       -2   -1    0    0    0  501  0.00000000000E+00  0.00000000000E+00 -0.17760172547E+04  0.17760172547E+04  0.25500000920E-02 0.  1.
    10030    2    1    2    0    0  0.00000000000E+00  0.00000000000E+00 -0.24427735903E+03  0.33077571504E+04  0.32987248957E+04 0.  0.
        3    1    3    3  502    0  0.11121412876E+04  0.10750881115E+04  0.45190045197E+03  0.16114858732E+04  0.10100000352E+00 0.  1.
       -3    1    3    3    0  502 -0.11121412876E+04 -0.10750881115E+04 -0.69617781100E+03  0.16962712772E+04  0.10100000352E+00 0. -1.
</event>
<event>
 5   0  0.2080828E-07  0.3293631E+04  0.7818609E-02  0.8164518E-01
       -1   -1    0    0    0  501  0.00000000000E+00  0.00000000000E+00  0.17863118540E+04  0.17863118540E+04  0.50400001928E-02 0.  1.
        1   -1    0    0  501    0  0.00000000000E+00  0.00000000000E+00 -0.15182123972E+04  0.15182123972E+04  0.50400001928E-02 0. -1.
    10030    2    1    2    0    0  0.00000000000E+00  0.00000000000E+00  0.26809945682E+03  0.33045242512E+04  0.32936307030E+04 0.  0.
        1    1    3    3  502    0 -0.84754482836E+03  0.13989128897E+04  0.32628535623E+03  0.16678584001E+04  0.50400001928E-02 0. -1.
       -1    1    3    3    0  502  0.84754482836E+03 -0.13989128897E+04 -0.58185899412E+02  0.16366658511E+04  0.50400001928E-02 0.  1.
</event>
<event>
 5   0  0.2057130E-07  0.3320493E+04  0.7818609E-02  0.8157701E-01
       -1   -1    0    0    0  501  0.00000000000E+00  0.00000000000E+00  0.24277475942E+04  0.24277475942E+04  0.50400001928E-02 0.  1.
        1   -1    0    0  501    0  0.00000000000E+00  0.00000000000E+00 -0.11353807049E+04  0.11353807049E+04  0.50400001928E-02 0. -1.
    10030    2    1    2    0    0  0.00000000000E+00  0.00000000000E+00  0.12923668893E+04  0.35631282991E+04  0.33204925989E+04 0.  0.
        2    1    3    3  502    0 -0.13270798401E+04  0.29120498799E+03  0.16700970669E+04  0.21529434410E+04  0.25500000920E-02 0.  1.
       -2    1    3    3    0  502  0.13270798401E+04 -0.29120498799E+03 -0.37773017760E+03  0.14101848581E+04  0.25500000920E-02 0. -1.
</event>
<event>
 5   0  0.2080828E-07  0.3307898E+04  0.7818609E-02  0.8160889E-01
       -1   -1    0    0    0  501  0.00000000000E+00  0.00000000000E+00  0.16341125466E+04  0.16341125466E+04  0.50400001928E-02 0. -1.
        1   -1    0    0  501    0  0.00000000000E+00  0.00000000000E+00 -0.16740267491E+04  0.16740267491E+04  0.50400001928E-02 0.  1.
    10030    2    1    2    0    0  0.00000000000E+00  0.00000000000E+00 -0.39914202480E+02  0.33081392957E+04  0.33078984955E+04 0.  0.
        1    1    3    3  502    0  0.24268580417E+03 -0.74941737216E+03  0.14344614275E+04  0.16365214280E+04  0.50400001928E-02 0. -1.
       -1    1    3    3    0  502 -0.24268580417E+03  0.74941737216E+03 -0.14743756300E+04  0.16716178677E+04  0.50400001928E-02 0.  1.
</event>
<event>
 5   0  0.2080770E-07  0.3318279E+04  0.7818609E-02  0.8158260E-01
        1   -1    0    0  501    0  0.00000000000E+00  0.00000000000E+00  0.15159141212E+04  0.15159141212E+04  0.50400001928E-02 0. -1.
       -1   -1    0    0    0  501  0.00000000000E+00  0.00000000000E+00 -0.18158967392E+04  0.18158967392E+04  0.50400001928E-02 0.  1.
    10030    2    1    2    0    0  0.00000000000E+00  0.00000000000E+00 -0.29998261802E+03  0.33318108604E+04  0.33182787765E+04 0.  0.
        4    1    3    3  502    0 -0.31184225450E+03 -0.55873548493E+03  0.13870390028E+04  0.15275175096E+04  0.12699999809E+01 0. -1.
       -4    1    3    3    0  502  0.31184225450E+03  0.55873548493E+03 -0.16870216208E+04  0.18042933508E+04  0.12699999809E+01 0.  1.
</event>
<event>
 5   0  0.2087665E-07  0.3296098E+04  0.7818609E-02  0.8163889E-01
       -1   -1    0    0    0  501  0.00000000000E+00  0.00000000000E+00  0.13783935490E+04  0.13783935491E+04  0.50400001928E-02 0. -1.
        1   -1    0    0  501    0  0.00000000000E+00  0.00000000000E+00 -0.19704567152E+04  0.19704567152E+04  0.50400001928E-02 0.  1.
    10030    2    1    2    0    0  0.00000000000E+00  0.00000000000E+00 -0.59206316618E+03  0.33488502643E+04  0.32960975865E+04 0.  0.
        5    1    3    3  502    0 -0.10047142653E+04  0.28973092183E+03 -0.15902507406E+04  0.19032378385E+04  0.46999998093E+01 0.  1.
       -5    1    3    3    0  502  0.10047142653E+04 -0.28973092183E+03  0.99818757441E+03  0.14456124258E+04  0.46999998093E+01 0. -1.
</event>
<event>
 5   0  0.6377741E-07  0.3329436E+04  0.7818609E-02  0.8155445E-01
        2   -1    0    0  501    0  0.00000000000E+00  0.00000000000E+00  0.18723874491E+04  0.18723874491E+04  0.25500000920E-02 0.  1.
       -2   -1    0    0    0  501  0.00000000000E+00  0.00000000000E+00 -0.14800816516E+04  0.14800816516E+04  0.25500000920E-02 0. -1.
    10030    2    1    2    0    0  0.00000000000E+00  0.00000000000E+00  0.39230579749E+03  0.33524691006E+04  0.33294361733E+04 0.  0.
        1    1    3    3  502    0 -0.48403257808E+03 -0.11472176897E+03 -0.14034964759E+04  0.14890436457E+04  0.50400001928E-02 0. -1.
       -1    1    3    3    0  502  0.48403257808E+03  0.11472176897E+03  0.17958022734E+04  0.18634254549E+04  0.50400001928E-02 0.  1.
</event>
<event>
 5   0  0.2087665E-07  0.3306890E+04  0.7818609E-02  0.8161145E-01
       -1   -1    0    0    0  501  0.00000000000E+00  0.00000000000E+00  0.13123884091E+04  0.13123884091E+04  0.50400001928E-02 0.  1.
        1   -1    0    0  501    0  0.00000000000E+00  0.00000000000E+00 -0.20831330192E+04  0.20831330192E+04  0.50400001928E-02 0. -1.
    10030    2    1    2    0    0  0.00000000000E+00  0.00000000000E+00 -0.77074461003E+03  0.33955214283E+04  0.33068895531E+04 0.  0.
        5    1    3    3  502    0 -0.10897512059E+04  0.18738287024E+03 -0.16476240010E+04  0.19842774426E+04  0.46999998093E+01 0. -1.
       -5    1    3    3    0  502  0.10897512059E+04 -0.18738287024E+03  0.87687939093E+03  0.14112439857E+04  0.46999998093E+01 0.  1.
</event>
<event>
 5   0  0.6424183E-07  0.3306482E+04  0.7818609E-02  0.8161248E-01
        2   -1    0    0  501    0  0.00000000000E+00  0.00000000000E+00  0.16430685446E+04  0.16430685446E+04  0.25500000920E-02 0.  1.
       -2   -1    0    0    0  501  0.00000000000E+00  0.00000000000E+00 -0.16634765629E+04  0.16634765629E+04  0.25500000920E-02 0. -1.
    10030    2    1    2    0    0  0.00000000000E+00  0.00000000000E+00 -0.20408018331E+02  0.33065451075E+04  0.33064821277E+04 0.  0.
        2    1    3    3  502    0 -0.12924036398E+04 -0.93055289533E+03  0.43361764375E+03  0.16505332836E+04  0.25500000920E-02 0.  1.
       -2    1    3    3    0  502  0.12924036398E+04  0.93055289533E+03 -0.45402566208E+03  0.16560118239E+04  0.25500000920E-02 0. -1.
</event>
<event>
 5   0  0.2080770E-07  0.3114843E+04  0.7818609E-02  0.8211676E-01
        1   -1    0    0  501    0  0.00000000000E+00  0.00000000000E+00  0.21897638108E+04  0.21897638108E+04  0.50400001928E-02 0. -1.
       -1   -1    0    0    0  501  0.00000000000E+00  0.00000000000E+00 -0.11076816700E+04  0.11076816700E+04  0.50400001928E-02 0.  1.
    10030    2    1    2    0    0  0.00000000000E+00  0.00000000000E+00  0.10820821408E+04  0.32974454808E+04  0.31148426829E+04 0.  0.
        4    1    3    3  502    0 -0.10374008609E+03  0.11604697540E+04  0.16351208769E+04  0.20077534586E+04  0.12699999809E+01 0. -1.
       -4    1    3    3    0  502  0.10374008609E+03 -0.11604697540E+04 -0.55303873611E+03  0.12896920222E+04  0.12699999809E+01 0.  1.
</event>
<event>
 5   0  0.6351753E-07  0.3293853E+04  0.7818609E-02  0.8164461E-01
       -2   -1    0    0    0  501  0.00000000000E+00  0.00000000000E+00  0.13727213863E+04  0.13727213863E+04  0.25500000920E-02 0. -1.
        2   -1    0    0  501    0  0.00000000000E+00  0.00000000000E+00 -0.19759053450E+04  0.19759053450E+04  0.25500000920E-02 0.  1.
    10030    2    1    2    0    0  0.00000000000E+00  0.00000000000E+00 -0.60318395871E+03  0.33486267312E+04  0.32938533812E+04 0.  0.
        3    1    3    3  502    0  0.84851388633E+03  0.10310916850E+04  0.67840966987E+03  0.14977868902E+04  0.10100000352E+00 0. -1.
       -3    1    3    3    0  502 -0.84851388633E+03 -0.10310916850E+04 -0.12815936286E+04  0.18508398410E+04  0.10100000352E+00 0.  1.
</event>
<event>
 5   0  0.2080828E-07  0.3182453E+04  0.7818609E-02  0.8193467E-01
       -1   -1    0    0    0  501  0.00000000000E+00  0.00000000000E+00  0.17761112335E+04  0.17761112336E+04  0.50400001928E-02 0.  1.
        1   -1    0    0  501    0  0.00000000000E+00  0.00000000000E+00 -0.14255871923E+04  0.14255871923E+04  0.50400001928E-02 0. -1.
    10030    2    1    2    0    0  0.00000000000E+00  0.00000000000E+00  0.35052404129E+03  0.32016984258E+04  0.31824527815E+04 0.  0.
        1    1    3    3  502    0  0.51695891070E+03  0.75190523195E+03 -0.11362293026E+04  0.14572662836E+04  0.50400001928E-02 0. -1.
       -1    1    3    3    0  502 -0.51695891070E+03 -0.75190523195E+03  0.14867533439E+04  0.17444321422E+04  0.50400001928E-02 0.  1.
</event>
<event>
 5   0  0.6351753E-07  0.3301622E+04  0.7818609E-02  0.8162483E-01
        2   -1    0    0  501    0  0.00000000000E+00  0.00000000000E+00  0.13073927840E+04  0.13073927840E+04  0.25500000920E-02 0. -1.
       -2   -1    0    0    0  501  0.00000000000E+00  0.00000000000E+00 -0.20844364366E+04  0.20844364366E+04  0.25500000920E-02 0.  1.
    10030    2    1    2    0    0  0.00000000000E+00  0.00000000000E+00 -0.77704365260E+03  0.33918292206E+04  0.33016221200E+04 0.  0.
        3    1    3    3  502    0 -0.13621729736E+04 -0.91721174943E+03 -0.21544155768E+03  0.16562631670E+04  0.10100000352E+00 0. -1.
       -3    1    3    3    0  502  0.13621729736E+04  0.91721174943E+03 -0.56160209492E+03  0.17355660536E+04  0.10100000352E+00 0.  1.
</event>
<event>
 5   0  0.2087665E-07  0.3301902E+04  0.7818609E-02  0.8162412E-01
       -1   -1    0    0    0  501  0.00000000000E+00  0.00000000000E+00  0.15271033784E+04  0.15271033784E+04  0.50400001928E-02 0. -1.
        1   -1    0    0  501    0  0.00000000000E+00  0.00000000000E+00 -0.17848422586E+04  0.17848422586E+04  0.50400001928E-02 0.  1.
    10030    2    1    2    0    0  0.00000000000E+00  0.00000000000E+00 -0.25773888018E+03  0.33119456370E+04  0.33019016599E+04 0.  0.
        5    1    3    3  502    0  0.52258132405E+03  0.29508893931E+02  0.14416694750E+04  0.15337519291E+04  0.46999998093E+01 0. -1.
       -5    1    3    3    0  502 -0.52258132405E+03 -0.29508893931E+02 -0.16994083551E+04  0.17781937078E+04  0.46999998093E+01 0.  1.
</event>
<event>
 5   0  0.2087665E-07  0.3296533E+04  0.7818609E-02  0.8163778E-01
        1   -1    0    0  501    0  0.00000000000E+00  0.00000000000E+00  0.20041299797E+04  0.20041299797E+04  0.50400001928E-02 0. -1.
       -1   -1    0    0    0  501  0.00000000000E+00  0.00000000000E+00 -0.13555917374E+04  0.13555917374E+04  0.50400001928E-02 0.  1.
    10030    2    1    2    0    0  0.00000000000E+00  0.00000000000E+00  0.64853824235E+03  0.33597217171E+04  0.32965327489E+04 0.  0.
        5    1    3    3  502    0  0.44947258880E+03 -0.65491008467E+03 -0.11476537972E+04  0.13957306886E+04  0.46999998093E+01 0.  1.
       -5    1    3    3    0  502 -0.44947258880E+03  0.65491008467E+03  0.17961920395E+04  0.19639910285E+04  0.46999998093E+01 0. -1.
</event>
<event>
 5   0  0.2037333E-07  0.3302198E+04  0.7818609E-02  0.8162336E-01
       -1   -1    0    0    0  501  0.00000000000E+00  0.00000000000E+00  0.13231668806E+04  0.13231668807E+04  0.50400001928E-02 0.  1.
        1   -1    0    0  501    0  0.00000000000E+00  0.00000000000E+00 -0.20603052226E+04  0.20603052226E+04  0.50400001928E-02 0. -1.
    10030    2    1    2    0    0  0.00000000000E+00  0.00000000000E+00 -0.73713834195E+03  0.33834721033E+04  0.33021978345E+04 0.  0.
        3    1    3    3  502    0 -0.42162095526E+03 -0.40857646678E+03 -0.19497382044E+04  0.20362165983E+04  0.10100000352E+00 0. -1.
       -3    1    3    3    0  502  0.42162095526E+03  0.40857646678E+03  0.12125998624E+04  0.13472555050E+04  0.10100000352E+00 0.  1.
</event>
<event>
 5   0  0.6258718E-07  0.3299327E+04  0.7818609E-02  0.8163067E-01
        2   -1    0    0  501    0  0.00000000000E+00  0.00000000000E+00  0.16719318911E+04  0.16719318911E+04  0.25500000920E-02 0. -1.
       -2   -1    0    0    0  501  0.00000000000E+00  0.00000000000E+00 -0.16276915679E+04  0.16276915679E+04  0.25500000920E-02 0.  1.
    10030    2    1    2    0    0  0.00000000000E+00  0.00000000000E+00  0.44240323190E+02  0.32996234590E+04  0.32993268654E+04 0.  0.
        5    1    3    3  502    0  0.42153734349E+03 -0.91085758760E+03 -0.12872003687E+04  0.16322567678E+04  0.46999998093E+01 0.  1.
       -5    1    3    3    0  502 -0.42153734349E+03  0.91085758760E+03  0.13314406919E+04  0.16673666912E+04  0.46999998093E+01 0. -1.
</event>
<event>
 5   0  0.6377741E-07  0.3321251E+04  0.7818609E-02  0.8157509E-01
       -2   -1    0    0    0  501  0.00000000000E+00  0.00000000000E+00  0.16359315362E+04  0.16359315362E+04  0.25500000920E-02 0.  1.
        2   -1    0    0  501    0  0.00000000000E+00  0.00000000000E+00 -0.16856922869E+04  0.16856922869E+04  0.25500000920E-02 0. -1.
    10030    2    1    2    0    0  0.00000000000E+00  0.00000000000E+00 -0.49760750760E+02  0.33216238231E+04  0.33212510730E+04 0.  0.
        1    1    3    3  502    0 -0.11611378657E+04 -0.16520610606E+03 -0.12006580882E+04  0.16784260620E+04  0.50400001928E-02 0. -1.
       -1    1    3    3    0  502  0.11611378657E+04  0.16520610606E+03  0.11508973375E+04  0.16431977611E+04  0.50400001928E-02 0.  1.
</event>
<event>
 5   0  0.6377741E-07  0.3287948E+04  0.7818609E-02  0.8165969E-01
        2   -1    0    0  501    0  0.00000000000E+00  0.00000000000E+00  0.22799963668E+04  0.22799963668E+04  0.25500000920E-02 0.  1.
       -2   -1    0    0    0  501  0.00000000000E+00  0.00000000000E+00 -0.11853747811E+04  0.11853747811E+04  0.25500000920E-02 0. -1.
    10030    2    1    2    0    0  0.00000000000E+00  0.00000000000E+00  0.10946215856E+04  0.34653711479E+04  0.32879478063E+04 0.  0.
        1    1    3    3  502    0  0.53239725194E+03 -0.10135323313E+04  0.17907871367E+04  0.21254677578E+04  0.50400001928E-02 0.  1.
       -1    1    3    3    0  502 -0.53239725194E+03  0.10135323313E+04 -0.69616555102E+03  0.13399033901E+04  0.50400001928E-02 0. -1.
</event>
<event>
 5   0  0.2057130E-07  0.3288954E+04  0.7818609E-02  0.8165712E-01
       -1   -1    0    0    0  501  0.00000000000E+00  0.00000000000E+00  0.13291823861E+04  0.13291823861E+04  0.50400001928E-02 0.  1.
        1   -1    0    0  501    0  0.00000000000E+00  0.00000000000E+00 -0.20345625684E+04  0.20345625684E+04  0.50400001928E-02 0. -1.
    10030    2    1    2    0    0  0.00000000000E+00  0.00000000000E+00 -0.70538018235E+03  0.33637449545E+04  0.32889540765E+04 0.  0.
        2    1    3    3  502    0  0.32070793183E+03  0.15478386053E+04  0.11110508985E+03  0.15846142327E+04  0.25500000920E-02 0. -1.
       -2    1    3    3    0  502 -0.32070793183E+03 -0.15478386053E+04 -0.81648527220E+03  0.17791307218E+04  0.25500000920E-02 0.  1.
</event>
<event>
 5   0  0.2057130E-07  0.3299005E+04  0.7818609E-02  0.8163149E-01
        1   -1    0    0  501    0  0.00000000000E+00  0.00000000000E+00  0.15738304111E+04  0.15738304112E+04  0.50400001928E-02 0.  1.
       -1   -1    0    0    0  501  0.00000000000E+00  0.00000000000E+00 -0.17288133322E+04  0.17288133322E+04  0.50400001928E-02 0. -1.
    10030    2    1    2    0    0  0.00000000000E+00  0.00000000000E+00 -0.15498292102E+03  0.33026437433E+04  0.32990053030E+04 0.  0.
        2    1    3    3  502    0 -0.68252027521E+03  0.11951214387E+04  0.83274716967E+03  0.16086071701E+04  0.25500000920E-02 0.  1.
       -2    1    3    3    0  502  0.68252027521E+03 -0.11951214387E+04 -0.98773009069E+03  0.16940365732E+04  0.25500000920E-02 0. -1.
</event>
<event>
 5   0  0.6424183E-07  0.3289499E+04  0.7818609E-02  0.8165572E-01
        2   -1    0    0  501    0  0.00000000000E+00  0.00000000000E+00  0.21630623236E+04  0.21630623236E+04  0.25500000920E-02 0. -1.
       -2   -1    0    0    0  501  0.00000000000E+00  0.00000000000E+00 -0.12506349236E+04  0.12506349236E+04  0.25500000920E-02 0.  1.
    10030    2    1    2    0    0  0.00000000000E+00  0.00000000000E+00  0.91242740004E+03  0.34136972473E+04  0.32894992226E+04 0.  0.
        2    1    3    3  502    0 -0.10710370362E+04 -0.14846697285E+03 -0.82995005205E+03  0.13630773506E+04  0.25500000920E-02 0.  1.
       -2    1    3    3    0  502  0.10710370362E+04  0.14846697285E+03  0.17423774521E+04  0.20506198966E+04  0.25500000920E-02 0. -1.
</event>
<event>
 5   0  0.2087665E-07  0.3299785E+04  0.7818609E-02  0.8162950E-01
        1   -1    0    0  501    0  0.00000000000E+00  0.00000000000E+00  0.29582058303E+04  0.29582058303E+04  0.50400001928E-02 0. -1.
       -1   -1    0    0    0  501  0.00000000000E+00  0.00000000000E+00 -0.92020147078E+03  0.92020147079E+03  0.50400001928E-02 0.  1.
    10030    2    1    2    0    0  0.00000000000E+00  0.00000000000E+00  0.20380043595E+04  0.38784073011E+04  0.32997850572E+04 0.  0.
        5    1    3    3  502    0 -0.54289544510E+03  0.97463561471E+03  0.24476578627E+04  0.26899258631E+04  0.46999998093E+01 0. -1.
       -5    1    3    3    0  502  0.54289544510E+03 -0.97463561471E+03 -0.40965350324E+03  0.11884814380E+04  0.46999998093E+01 0.  1.
</event>
<event>
 5   0  0.2080770E-07  0.3305280E+04  0.7818609E-02  0.8161553E-01
        1   -1    0    0  501    0  0.00000000000E+00  0.00000000000E+00  0.19200820220E+04  0.19200820220E+04  0.50400001928E-02 0. -1.
       -1   -1    0    0    0  501  0.00000000000E+00  0.00000000000E+00 -0.14224492410E+04  0.14224492410E+04  0.50400001928E-02 0.  1.
    10030    2    1    2    0    0  0.00000000000E+00  0.00000000000E+00  0.49763278100E+03  0.33425312630E+04  0.33052801484E+04 0.  0.
        4    1    3    3  502    0 -0.10835241063E+04  0.99478878951E+03  0.10106917880E+04  0.17846928945E+04  0.12699999809E+01 0. -1.
       -4    1    3    3    0  502  0.10835241063E+04 -0.99478878951E+03 -0.51305900698E+03  0.15578383684E+04  0.12699999809E+01 0.  1.
</event>
<event>
 5   0  0.2037333E-07  0.3295474E+04  0.7818609E-02  0.8164048E-01
       -1   -1    0    0    0  501  0.00000000000E+00  0.00000000000E+00  0.13661801392E+04  0.13661801392E+04  0.50400001928E-02 0. -1.
        1   -1    0    0  501    0  0.00000000000E+00  0.00000000000E+00 -0.19873197567E+04  0.19873197568E+04  0.50400001928E-02 0.  1.
    10030    2    1    2    0    0  0.00000000000E+00  0.00000000000E+00 -0.62113961752E+03  0.33534998960E+04  0.32954737335E+04 0.  0.
        3    1    3    3  502    0  0.13649198126E+04 -0.12788253682E+03  0.61968001894E+03  0.15044478636E+04  0.10100000352E+00 0. -1.
       -3    1    3    3    0  502 -0.13649198126E+04  0.12788253682E+03 -0.12408196365E+04  0.18490520324E+04  0.10100000352E+00 0.  1.
</event>
<event>
 5   0  0.2087665E-07  0.3301655E+04  0.7818609E-02  0.8162475E-01
       -1   -1    0    0    0  501  0.00000000000E+00  0.00000000000E+00  0.33329646473E+04  0.33329646473E+04  0.50400001928E-02 0. -1.
        1   -1    0    0  501    0  0.00000000000E+00  0.00000000000E+00 -0.81765964257E+03  0.81765964259E+03  0.50400001928E-02 0.  1.
    10030    2    1    2    0    0  0.00000000000E+00  0.00000000000E+00  0.25153050047E+04  0.41506242899E+04  0.33016545442E+04 0.  0.
        5    1    3    3  502    0  0.11858423035E+04 -0.47278842699E+03  0.25734213635E+04  0.28726765341E+04  0.46999998093E+01 0. -1.
       -5    1    3    3    0  502 -0.11858423035E+04  0.47278842699E+03 -0.58116358742E+02  0.12779477558E+04  0.46999998093E+01 0.  1.
</event>
<event>
 5   0  0.6424183E-07  0.3305244E+04  0.7818609E-02  0.8161562E-01
        2   -1    0    0  501    0  0.00000000000E+00  0.00000000000E+00  0.21209290645E+04  0.21209290645E+04  0.25500000920E-02 0. -1.
       -2   -1    0    0    0  501  0.00000000000E+00  0.00000000000E+00 -0.12877186042E+04  0.12877186042E+04  0.25500000920E-02 0.  1.
    10030    2    1    2    0    0  0.00000000000E+00  0.00000000000E+00  0.83321046034E+03  0.34086476687E+04  0.33052442055E+04 0.  0.
        2    1    3    3  502    0  0.16436146152E+04 -0.16755403449E+03  0.37514224003E+03  0.16941886134E+04  0.25500000920E-02 0.  1.
       -2    1    3    3    0  502 -0.16436146152E+04  0.16755403449E+03  0.45806822031E+03  0.17144590553E+04  0.25500000920E-02 0. -1.
</event>
<event>
 5   0  0.6424183E-07  0.3296994E+04  0.7818609E-02  0.8163661E-01
       -2   -1    0    0    0  501  0.00000000000E+00  0.00000000000E+00  0.15187927889E+04  0.15187927889E+04  0.25500000920E-02 0. -1.
        2   -1    0    0  501    0  0.00000000000E+00  0.00000000000E+00 -0.17892774919E+04  0.17892774919E+04  0.25500000920E-02 0.  1.
    10030    2    1    2    0    0  0.00000000000E+00  0.00000000000E+00 -0.27048470302E+03  0.33080702807E+04  0.32969936317E+04 0.  0.
        2    1    3    3  502    0 -0.47218521210E+03 -0.17458898988E+03 -0.17102618019E+04  0.17828167660E+04  0.25500000920E-02 0.  1.
       -2    1    3    3    0  502  0.47218521210E+03  0.17458898988E+03  0.14397770989E+04  0.15252535148E+04  0.25500000920E-02 0. -1.
</event>
<event>
 5   0  0.2080770E-07  0.3348986E+04  0.7818609E-02  0.8150542E-01
       -1   -1    0    0    0  501  0.00000000000E+00  0.00000000000E+00  0.11906680875E+04  0.11906680875E+04  0.50400001928E-02 0. -1.
        1   -1    0    0  501    0  0.00000000000E+00  0.00000000000E+00 -0.23549187296E+04  0.23549187296E+04  0.50400001928E-02 0.  1.
    10030    2    1    2    0    0  0.00000000000E+00  0.00000000000E+00 -0.11642506421E+04  0.35455868172E+04  0.33489858645E+04 0.  0.
        4    1    3    3  502    0  0.62383636525E+03  0.63734224284E+03  0.91830530213E+03  0.12801028029E+04  0.12699999809E+01 0. -1.
       -4    1    3    3    0  502 -0.62383636525E+03 -0.63734224284E+03 -0.20825559443E+04  0.22654840143E+04  0.12699999809E+01 0.  1.
</event>
<event>
 5   0  0.2037333E-07  0.3283092E+04  0.7818609E-02  0.8167211E-01
       -1   -1    0    0    0  501  0.00000000000E+00  0.00000000000E+00  0.12891309551E+04  0.12891309551E+04  0.50400001928E-02 0. -1.
        1   -1    0    0  501    0  0.00000000000E+00  0.00000000000E+00 -0.20903016219E+04  0.20903016219E+04  0.50400001928E-02 0.  1.
    10030    2    1    2    0    0  0.00000000000E+00  0.00000000000E+00 -0.80117066687E+03  0.33794325770E+04  0.32830915469E+04 0.  0.
        3    1    3    3  502    0 -0.96527440151E+03  0.12791196724E+04 -0.34088476946E+02  0.16028299476E+04  0.10100000352E+00 0. -1.
       -3    1    3    3    0  502  0.96527440151E+03 -0.12791196724E+04 -0.76708218992E+03  0.17766026294E+04  0.10100000352E+00 0.  1.
</event>
<event>
 5   0  0.2080828E-07  0.3290811E+04  0.7818609E-02  0.8165238E-01
        1   -1    0    0  501    0  0.00000000000E+00  0.00000000000E+00  0.20618417129E+04  0.20618417129E+04  0.50400001928E-02 0. -1.
       -1   -1    0    0    0  501  0.00000000000E+00  0.00000000000E+00 -0.13130779342E+04  0.13130779342E+04  0.50400001928E-02 0.  1.
    10030    2    1    2    0    0  0.00000000000E+00  0.00000000000E+00  0.74876377877E+03  0.33749196471E+04  0.32908107554E+04 0.  0.
        1    1    3    3  502    0  0.15723499178E+04  0.47678024055E+03  0.28406751183E+03  0.16674225659E+04  0.50400001928E-02 0. -1.
       -1    1    3    3    0  502 -0.15723499178E+04 -0.47678024055E+03  0.46469626693E+03  0.17074970812E+04  0.50400001928E-02 0.  1.
</event>
<event>
 5   0  0.2087665E-07  0.3324116E+04  0.7818609E-02  0.8156786E-01
       -1   -1    0    0    0  501  0.00000000000E+00  0.00000000000E+00  0.15089493340E+04  0.15089493340E+04  0.50400001928E-02 0.  1.
        1   -1    0    0  501    0  0.00000000000E+00  0.00000000000E+00 -0.18307026023E+04  0.18307026023E+04  0.50400001928E-02 0. -1.
    10030    2    1    2    0    0  0.00000000000E+00  0.00000000000E+00 -0.32175326834E+03  0.33396519363E+04  0.33241164074E+04 0.  0.
        5    1    3    3  502    0 -0.22277391720E+03  0.35181649864E+03  0.14556841552E+04  0.15140810799E+04  0.46999998093E+01 0.  1.
       -5    1    3    3    0  502  0.22277391720E+03 -0.35181649864E+03 -0.17774374235E+04  0.18255708563E+04  0.46999998093E+01 0. -1.
</event>
<event>
 5   0  0.6377741E-07  0.3334399E+04  0.7818609E-02  0.8154197E-01
        2   -1    0    0  501    0  0.00000000000E+00  0.00000000000E+00  0.15484074230E+04  0.15484074230E+04  0.25500000920E-02 0. -1.
       -2   -1    0    0    0  501  0.00000000000E+00  0.00000000000E+00 -0.17951046969E+04  0.17951046969E+04  0.25500000920E-02 0.  1.
    10030    2    1    2    0    0  0.00000000000E+00  0.00000000000E+00 -0.24669727384E+03  0.33435121199E+04  0.33343985591E+04 0.  0.
        1    1    3    3  502    0  0.37884579260E+03 -0.13697732045E+04  0.75067049348E+03  0.16072675434E+04  0.50400001928E-02 0. -1.
       -1    1    3    3    0  502 -0.37884579260E+03  0.13697732045E+04 -0.99736776732E+03  0.17362445765E+04  0.50400001928E-02 0.  1.
</event>
<event>
 5   0  0.6351753E-07  0.3443983E+04  0.7818609E-02  0.8127195E-01
       -2   -1    0    0    0  501  0.00000000000E+00  0.00000000000E+00  0.12011256493E+04  0.12011256493E+04  0.25500000920E-02 0. -1.
        2   -1    0    0  501    0  0.00000000000E+00  0.00000000000E+00 -0.24687304600E+04  0.24687304600E+04  0.25500000920E-02 0.  1.
    10030    2    1    2    0    0  0.00000000000E+00  0.00000000000E+00 -0.12676048107E+04  0.36698561094E+04  0.34439834360E+04 0.  0.
        3    1    3    3  502    0 -0.68876947285E+03  0.15757384270E+04 -0.72851658044E+03  0.18676432730E+04  0.10100000352E+00 0.  1.
       -3    1    3    3    0  502  0.68876947285E+03 -0.15757384270E+04 -0.53908823024E+03  0.18022128363E+04  0.10100000352E+00 0. -1.
</event>
<event>
 5   0  0.6377741E-07  0.3282633E+04  0.7818609E-02  0.8167328E-01
       -2   -1    0    0    0  501  0.00000000000E+00  0.00000000000E+00  0.10805132913E+04  0.10805132913E+04  0.25500000920E-02 0. -1.
        2   -1    0    0  501    0  0.00000000000E+00  0.00000000000E+00 -0.24931860096E+04  0.24931860096E+04  0.25500000920E-02 0.  1.
    10030    2    1    2    0    0  0.00000000000E+00  0.00000000000E+00 -0.14126727183E+04  0.35736993010E+04  0.32826334679E+04 0.  0.
        1    1    3    3  502    0  0.68296975993E+02  0.10207247988E+04 -0.21036442679E+04  0.23392013162E+04  0.50400001928E-02 0.  1.
       -1    1    3    3    0  502 -0.68296975993E+02 -0.10207247988E+04  0.69097154965E+03  0.12344979847E+04  0.50400001928E-02 0. -1.
</event>
<event>
 5   0  0.6351753E-07  0.3280419E+04  0.7818609E-02  0.8167896E-01
       -2   -1    0    0    0  501  0.00000000000E+00  0.00000000000E+00  0.17167285638E+04  0.17167285638E+04  0.25500000920E-02 0.  1.
        2   -1    0    0  501    0  0.00000000000E+00  0.00000000000E+00 -0.15671006449E+04  0.15671006449E+04  0.25500000920E-02 0. -1.
    10030    2    1    2    0    0  0.00000000000E+00  0.00000000000E+00  0.14962791891E+03  0.32838292087E+04  0.32804185339E+04 0.  0.
        3    1    3    3  502    0  0.89710026406E+03 -0.32151652353E+03  0.14111643524E+04  0.17028055081E+04  0.10100000352E+00 0.  1.
       -3    1    3    3    0  502 -0.89710026406E+03  0.32151652353E+03 -0.12615364335E+04  0.15810237006E+04  0.10100000352E+00 0. -1.
</event>
<event>
 5   0  0.6258718E-07  0.3319685E+04  0.7818609E-02  0.8157905E-01
        2   -1    0    0  501    0  0.00000000000E+00  0.00000000000E+00  0.15309273391E+04  0.15309273391E+04  0.25500000920E-02 0.  1.
       -2   -1    0    0    0  501  0.00000000000E+00  0.00000000000E+00 -0.17996132477E+04  0.17996132477E+04  0.25500000920E-02 0. -1.
    10030    2    1    2    0    0  0.00000000000E+00  0.00000000000E+00 -0.26868590861E+03  0.33305405867E+04  0.33196849975E+04 0.  0.
        5    1    3    3  502    0 -0.10430955520E+04  0.11159385722E+04  0.51715547727E+03  0.16127117241E+04  0.46999998093E+01 0.  1.
       -5    1    3    3    0  502  0.10430955520E+04 -0.11159385722E+04 -0.78584138588E+03  0.17178288626E+04  0.46999998093E+01 0. -1.
</event>
<event>
 5   0  0.2057130E-07  0.3303901E+04  0.7818609E-02  0.8161904E-01
       -1   -1    0    0    0  501  0.00000000000E+00  0.00000000000E+00  0.13696626832E+04  0.13696626832E+04  0.50400001928E-02 0. -1.
        1   -1    0    0  501    0  0.00000000000E+00  0.00000000000E+00 -0.19924175644E+04  0.19924175644E+04  0.50400001928E-02 0.  1.
    10030    2    1    2    0    0  0.00000000000E+00  0.00000000000E+00 -0.62275488119E+03  0.33620802476E+04  0.33039007172E+04 0.  0.
        2    1    3    3  502    0 -0.12622778067E+04  0.63695912166E+03 -0.11807504744E+04  0.18420732522E+04  0.25500000920E-02 0.  1.
       -2    1    3    3    0  502  0.12622778067E+04 -0.63695912166E+03  0.55799559316E+03  0.15200069953E+04  0.25500000920E-02 0. -1.
</event>
<event>
 5   0  0.2037333E-07  0.3298481E+04  0.7818609E-02  0.8163282E-01
        1   -1    0    0  501    0  0.00000000000E+00  0.00000000000E+00  0.17724591215E+04  0.17724591215E+04  0.50400001928E-02 0.  1.
       -1   -1    0    0    0  501  0.00000000000E+00  0.00000000000E+00 -0.15345879600E+04  0.15345879600E+04  0.50400001928E-02 0. -1.
    10030    2    1    2    0    0  0.00000000000E+00  0.00000000000E+00  0.23787116148E+03  0.33070470815E+04  0.32984811217E+04 0.  0.
        3    1    3    3  502    0 -0.11198442053E+04 -0.48641487967E+03 -0.99270163325E+03  0.15735650676E+04  0.10100000352E+00 0. -1.
       -3    1    3    3    0  502  0.11198442053E+04  0.48641487967E+03  0.12305727947E+04  0.17334820139E+04  0.10100000352E+00 0.  1.
</event>
<event>
 5   0  0.6377741E-07  0.3307144E+04  0.7818609E-02  0.8161080E-01
        2   -1    0    0  501    0  0.00000000000E+00  0.00000000000E+00  0.22804684562E+04  0.22804684562E+04  0.25500000920E-02 0. -1.
       -2   -1    0    0    0  501  0.00000000000E+00  0.00000000000E+00 -0.11990079066E+04  0.11990079066E+04  0.25500000920E-02 0.  1.
    10030    2    1    2    0    0  0.00000000000E+00  0.00000000000E+00  0.10814605496E+04  0.34794763628E+04  0.33071436073E+04 0.  0.
        1    1    3    3  502    0  0.99809911965E+03  0.11764869934E+04 -0.85231589258E+02  0.15451821647E+04  0.50400001928E-02 0.  1.
       -1    1    3    3    0  502 -0.99809911965E+03 -0.11764869934E+04  0.11666921388E+04  0.19342941982E+04  0.50400001928E-02 0. -1.
</event>
<event>
 5   0  0.2037333E-07  0.3297186E+04  0.7818609E-02  0.8163612E-01
        1   -1    0    0  501    0  0.00000000000E+00  0.00000000000E+00  0.19315237632E+04  0.19315237632E+04  0.50400001928E-02 0.  1.
       -1   -1    0    0    0  501  0.00000000000E+00  0.00000000000E+00 -0.14071064222E+04  0.14071064222E+04  0.50400001928E-02 0. -1.
    10030    2    1    2    0    0  0.00000000000E+00  0.00000000000E+00  0.52441734097E+03  0.33386301854E+04  0.32971863713E+04 0.  0.
        3    1    3    3  502    0 -0.15944579504E+03 -0.36635926708E+03 -0.13573382867E+04  0.14149237820E+04  0.10100000352E+00 0. -1.
       -3    1    3    3    0  502  0.15944579504E+03  0.36635926708E+03  0.18817556276E+04  0.19237064034E+04  0.10100000352E+00 0.  1.
</event>
<event>
 5   0  0.2057130E-07  0.3316466E+04  0.7818609E-02  0.8158718E-01
       -1   -1    0    0    0  501  0.00000000000E+00  0.00000000000E+00  0.16581843425E+04  0.16581843425E+04  0.50400001928E-02 0. -1.
        1   -1    0    0  501    0  0.00000000000E+00  0.00000000000E+00 -0.16582813282E+04  0.16582813283E+04  0.50400001928E-02 0.  1.
    10030    2    1    2    0    0  0.00000000000E+00  0.00000000000E+00 -0.96985751214E-01  0.33164656707E+04  0.33164656693E+04 0.  0.
        2    1    3    3  502    0  0.75056109340E+03 -0.55522098009E+03  0.13703980927E+04  0.16581927584E+04  0.25500000920E-02 0. -1.
       -2    1    3    3    0  502 -0.75056109340E+03  0.55522098009E+03 -0.13704950784E+04  0.16582729123E+04  0.25500000920E-02 0.  1.
</event>
<event>
 5   0  0.2080770E-07  0.3308999E+04  0.7818609E-02  0.8160609E-01
        1   -1    0    0  501    0  0.00000000000E+00  0.00000000000E+00  0.25968937356E+04  0.25968937356E+04  0.50400001928E-02 0.  1.
       -1   -1    0    0    0  501  0.00000000000E+00  0.00000000000E+00 -0.10540932941E+04  0.10540932941E+04  0.50400001928E-02 0. -1.
    10030    2    1    2    0    0  0.00000000000E+00  0.00000000000E+00  0.15428004415E+04  0.36509870298E+04  0.33089988047E+04 0.  0.
        4    1    3    3  502    0 -0.14667316562E+04  0.27581720531E+03  0.15593425197E+04  0.21584549077E+04  0.12699999809E+01 0.  1.
       -4    1    3    3    0  502  0.14667316562E+04 -0.27581720531E+03 -0.16542078269E+02  0.14925321220E+04  0.12699999809E+01 0. -1.
</event>
<event>
 5   0  0.6426079E-07  0.3292903E+04  0.7818609E-02  0.8164704E-01
       -2   -1    0    0    0  501  0.00000000000E+00  0.00000000000E+00  0.11349443446E+04  0.11349443446E+04  0.25500000920E-02 0. -1.
        2   -1    0    0  501    0  0.00000000000E+00  0.00000000000E+00 -0.23884894243E+04  0.23884894243E+04  0.25500000920E-02 0.  1.
    10030    2    1    2    0    0  0.00000000000E+00  0.00000000000E+00 -0.12535450797E+04  0.35234337689E+04  0.32929030136E+04 0.  0.
        4    1    3    3  502    0  0.10937830301E+04 -0.64958687454E+03  0.49161734368E+03  0.13638231740E+04  0.12699999809E+01 0. -1.
       -4    1    3    3    0  502 -0.10937830301E+04  0.64958687454E+03 -0.17451624234E+04  0.21596105949E+04  0.12699999809E+01 0.  1.
</event>
<event>
 5   0  0.1994250E-07  0.3310534E+04  0.7818609E-02  0.8160220E-01
       -3   -1    0    0    0  501  0.00000000000E+00  0.00000000000E+00  0.15279471030E+04  0.15279471063E+04  0.10100000352E+00 0.  1.
        3   -1    0    0  501    0  0.00000000000E+00  0.00000000000E+00 -0.17931958766E+04  0.17931958795E+04  0.10100000352E+00 0. -1.
    10030    2    1    2    0    0  0.00000000000E+00  0.00000000000E+00 -0.26524877366E+03  0.33211429858E+04  0.33105337666E+04 0.  0.
        4    1    3    3  502    0  0.26621217417E+03 -0.60950409228E+03 -0.16532466544E+04  0.17820185951E+04  0.12699999809E+01 0. -1.
       -4    1    3    3    0  502 -0.26621217417E+03  0.60950409228E+03  0.13879978807E+04  0.15391243907E+04  0.12699999809E+01 0.  1.
</event>
<event>
 5   0  0.2087665E-07  0.3298152E+04  0.7818609E-02  0.8163366E-01
        1   -1    0    0  501    0  0.00000000000E+00  0.00000000000E+00  0.12497824824E+04  0.12497824824E+04  0.50400001928E-02 0.  1.
       -1   -1    0    0    0  501  0.00000000000E+00  0.00000000000E+00 -0.21759399416E+04  0.21759399416E+04  0.50400001928E-02 0. -1.
    10030    2    1    2    0    0  0.00000000000E+00  0.00000000000E+00 -0.92615745916E+03  0.34257224240E+04  0.32981519806E+04 0.  0.
        5    1    3    3  502    0  0.15864875540E+04  0.43927253249E+03 -0.36170013727E+03  0.16854531130E+04  0.46999998093E+01 0.  1.
       -5    1    3    3    0  502 -0.15864875540E+04 -0.43927253249E+03 -0.56445732189E+03  0.17402693111E+04  0.46999998093E+01 0. -1.
</event>
<event>
 5   0  0.2087665E-07  0.3301092E+04  0.7818609E-02  0.8162617E-01
        1   -1    0    0  501    0  0.00000000000E+00  0.00000000000E+00  0.13407889794E+04  0.13407889794E+04  0.50400001928E-02 0. -1.
       -1   -1    0    0    0  501  0.00000000000E+00  0.00000000000E+00 -0.20318654106E+04  0.20318654106E+04  0.50400001928E-02 0.  1.
    10030    2    1    2    0    0  0.00000000000E+00  0.00000000000E+00 -0.69107643118E+03  0.33726543901E+04  0.33010923951E+04 0.  0.
        5    1    3    3  502    0 -0.10887340926E+04  0.39121046877E+03 -0.15482983542E+04  0.19327797182E+04  0.46999998093E+01 0.  1.
       -5    1    3    3    0  502  0.10887340926E+04 -0.39121046877E+03  0.85722192306E+03  0.14398746719E+04  0.46999998093E+01 0. -1.
</event>
<event>
 5   0  0.6258718E-07  0.3302813E+04  0.7818609E-02  0.8162180E-01
       -2   -1    0    0    0  501  0.00000000000E+00  0.00000000000E+00  0.92768325442E+03  0.92768325442E+03  0.25500000920E-02 0. -1.
        2   -1    0    0  501    0  0.00000000000E+00  0.00000000000E+00 -0.29397358644E+04  0.29397358644E+04  0.25500000920E-02 0.  1.
    10030    2    1    2    0    0  0.00000000000E+00  0.00000000000E+00 -0.20120526100E+04  0.38674191188E+04  0.33028131850E+04 0.  0.
        5    1    3    3  502    0  0.86354454137E+03  0.12901722272E+04 -0.16651645104E+04  0.22766309511E+04  0.46999998093E+01 0. -1.
       -5    1    3    3    0  502 -0.86354454137E+03 -0.12901722272E+04 -0.34688809952E+03  0.15907881677E+04  0.46999998093E+01 0.  1.
</event>
<event>
 5   0  0.6351753E-07  0.3353929E+04  0.7818609E-02  0.8149307E-01
       -2   -1    0    0    0  501  0.00000000000E+00  0.00000000000E+00  0.10752452778E+04  0.10752452778E+04  0.25500000920E-02 0. -1.
        2   -1    0    0  501    0  0.00000000000E+00  0.00000000000E+00 -0.26154127527E+04  0.26154127527E+04  0.25500000920E-02 0.  1.
    10030    2    1    2    0    0  0.00000000000E+00  0.00000000000E+00 -0.15401674749E+04  0.36906580304E+04  0.33539291655E+04 0.  0.
        3    1    3    3  502    0  0.58256264235E+03  0.79710798338E+03  0.72153443310E+03  0.12228541686E+04  0.10100000352E+00 0. -1.
       -3    1    3    3    0  502 -0.58256264235E+03 -0.79710798338E+03 -0.22617019080E+04  0.24678038618E+04  0.10100000352E+00 0.  1.
</event>
<event>
 5   0  0.2057130E-07  0.3295065E+04  0.7818609E-02  0.8164152E-01
       -1   -1    0    0    0  501  0.00000000000E+00  0.00000000000E+00  0.32931436425E+04  0.32931436425E+04  0.50400001928E-02 0.  1.
        1   -1    0    0  501    0  0.00000000000E+00  0.00000000000E+00 -0.82424677444E+03  0.82424677446E+03  0.50400001928E-02 0. -1.
    10030    2    1    2    0    0  0.00000000000E+00  0.00000000000E+00  0.24688968680E+04  0.41173904169E+04  0.32950648097E+04 0.  0.
        2    1    3    3  502    0 -0.23695800938E+03  0.10705378093E+04  0.27710361348E+04  0.29800740863E+04  0.25500000920E-02 0.  1.
       -2    1    3    3    0  502  0.23695800938E+03 -0.10705378093E+04 -0.30213926683E+03  0.11373163306E+04  0.25500000920E-02 0. -1.
</event>
<event>
 5   0  0.2057130E-07  0.3315940E+04  0.7818609E-02  0.8158851E-01
       -1   -1    0    0    0  501  0.00000000000E+00  0.00000000000E+00  0.18021012847E+04  0.18021012847E+04  0.50400001928E-02 0. -1.
        1   -1    0    0  501    0  0.00000000000E+00  0.00000000000E+00 -0.15253665337E+04  0.15253665337E+04  0.50400001928E-02 0.  1.
    10030    2    1    2    0    0  0.00000000000E+00  0.00000000000E+00  0.27673475105E+03  0.33274678185E+04  0.33159402830E+04 0.  0.
        2    1    3    3  502    0  0.56888680264E+03 -0.14377656328E+04  0.73883106927E+03  0.17136725352E+04  0.25500000920E-02 0. -1.
       -2    1    3    3    0  502 -0.56888680264E+03  0.14377656328E+04 -0.46209631822E+03  0.16137952833E+04  0.25500000920E-02 0.  1.
</event>
<event>
 5   0  0.6377741E-07  0.3260836E+04  0.7818609E-02  0.8172933E-01
        2   -1    0    0  501    0  0.00000000000E+00  0.00000000000E+00  0.13444608817E+04  0.13444608817E+04  0.25500000920E-02 0. -1.
       -2   -1    0    0    0  501  0.00000000000E+00  0.00000000000E+00 -0.19771956607E+04  0.19771956607E+04  0.25500000920E-02 0.  1.
    10030    2    1    2    0    0  0.00000000000E+00  0.00000000000E+00 -0.63273477891E+03  0.33216565424E+04  0.32608356115E+04 0.  0.
        1    1    3    3  502    0 -0.11035422062E+04  0.54756599675E+03  0.77155493972E+03  0.14535924280E+04  0.50400001928E-02 0. -1.
       -1    1    3    3    0  502  0.11035422062E+04 -0.54756599675E+03 -0.14042897186E+04  0.18680641144E+04  0.50400001928E-02 0.  1.
</event>
<event>
 5   0  0.6377741E-07  0.3298115E+04  0.7818609E-02  0.8163375E-01
        2   -1    0    0  501    0  0.00000000000E+00  0.00000000000E+00  0.26778769724E+04  0.26778769724E+04  0.25500000920E-02 0. -1.
       -2   -1    0    0    0  501  0.00000000000E+00  0.00000000000E+00 -0.10155025535E+04  0.10155025535E+04  0.25500000920E-02 0.  1.
    10030    2    1    2    0    0  0.00000000000E+00  0.00000000000E+00  0.16623744188E+04  0.36933795259E+04  0.32981151608E+04 0.  0.
        1    1    3    3  502    0  0.36693438633E+02 -0.81264492003E+03 -0.77517752689E+03  0.11236718261E+04  0.50400001928E-02 0.  1.
       -1    1    3    3    0  502 -0.36693438633E+02  0.81264492003E+03  0.24375519457E+04  0.25697076998E+04  0.50400001928E-02 0. -1.
</event>
<event>
 5   0  0.6351753E-07  0.3306079E+04  0.7818609E-02  0.8161350E-01
       -2   -1    0    0    0  501  0.00000000000E+00  0.00000000000E+00  0.30625234953E+04  0.30625234953E+04  0.25500000920E-02 0. -1.
        2   -1    0    0  501    0  0.00000000000E+00  0.00000000000E+00 -0.89225123021E+03  0.89225123021E+03  0.25500000920E-02 0.  1.
    10030    2    1    2    0    0  0.00000000000E+00  0.00000000000E+00  0.21702722651E+04  0.39547747255E+04  0.33060794644E+04 0.  0.
        3    1    3    3  502    0 -0.13504031614E+04  0.75616200997E+03  0.39053841556E+03  0.15962111226E+04  0.10100000352E+00 0.  1.
       -3    1    3    3    0  502  0.13504031614E+04 -0.75616200997E+03  0.17797338495E+04  0.23585636029E+04  0.10100000352E+00 0. -1.
</event>
<event>
 5   0  0.2080770E-07  0.3298901E+04  0.7818609E-02  0.8163175E-01
        1   -1    0    0  501    0  0.00000000000E+00  0.00000000000E+00  0.22257586771E+04  0.22257586771E+04  0.50400001928E-02 0.  1.
       -1   -1    0    0    0  501  0.00000000000E+00  0.00000000000E+00 -0.12223642104E+04  0.12223642104E+04  0.50400001928E-02 0. -1.
    10030    2    1    2    0    0  0.00000000000E+00  0.00000000000E+00  0.10033944667E+04  0.34481228875E+04  0.32989014825E+04 0.  0.
        4    1    3    3  502    0  0.17286730732E+03  0.16211208403E+04  0.23982447719E+03  0.16478571775E+04  0.12699999809E+01 0. -1.
       -4    1    3    3    0  502 -0.17286730732E+03 -0.16211208403E+04  0.76356998952E+03  0.18002657100E+04  0.12699999809E+01 0.  1.
</event>
<event>
 5   0  0.2080770E-07  0.3282754E+04  0.7818609E-02  0.8167297E-01
       -1   -1    0    0    0  501  0.00000000000E+00  0.00000000000E+00  0.22420271135E+04  0.22420271135E+04  0.50400001928E-02 0.  1.
        1   -1    0    0  501    0  0.00000000000E+00  0.00000000000E+00 -0.12016441891E+04  0.12016441892E+04  0.50400001928E-02 0. -1.
    10030    2    1    2    0    0  0.00000000000E+00  0.00000000000E+00  0.10403829243E+04  0.34436713026E+04  0.32827542417E+04 0.  0.
        4    1    3    3  502    0  0.10970833735E+04  0.80442826925E+03  0.14835886832E+04  0.20128918904E+04  0.12699999809E+01 0.  1.
       -4    1    3    3    0  502 -0.10970833735E+04 -0.80442826925E+03 -0.44320575891E+03  0.14307794122E+04  0.12699999809E+01 0. -1.
</event>
<event>
 5   0  0.2037333E-07  0.3305312E+04  0.7818609E-02  0.8161545E-01
       -1   -1    0    0    0  501  0.00000000000E+00  0.00000000000E+00  0.11496519394E+04  0.11496519394E+04  0.50400001928E-02 0. -1.
        1   -1    0    0  501    0  0.00000000000E+00  0.00000000000E+00 -0.23757384155E+04  0.23757384155E+04  0.50400001928E-02 0.  1.
    10030    2    1    2    0    0  0.00000000000E+00  0.00000000000E+00 -0.12260864760E+04  0.35253903549E+04  0.33053122557E+04 0.  0.
        3    1    3    3  502    0  0.15770986617E+03 -0.14508561679E+04  0.21410299339E+03  0.14750241096E+04  0.10100000352E+00 0. -1.
       -3    1    3    3    0  502 -0.15770986617E+03  0.14508561679E+04 -0.14401894694E+04  0.20503662453E+04  0.10100000352E+00 0.  1.
</event>
<event>
 5   0  0.6258718E-07  0.3285168E+04  0.7818609E-02  0.8166680E-01
       -2   -1    0    0    0  501  0.00000000000E+00  0.00000000000E+00  0.15755171670E+04  0.15755171670E+04  0.25500000920E-02 0.  1.
        2   -1    0    0  501    0  0.00000000000E+00  0.00000000000E+00 -0.17125059995E+04  0.17125059995E+04  0.25500000920E-02 0. -1.
    10030    2    1    2    0    0  0.00000000000E+00  0.00000000000E+00 -0.13698883253E+03  0.32880231666E+04  0.32851682459E+04 0.  0.
        5    1    3    3  502    0  0.67548578748E+03  0.64817955972E+03 -0.14193497869E+04  0.17002922391E+04  0.46999998093E+01 0. -1.
       -5    1    3    3    0  502 -0.67548578748E+03 -0.64817955972E+03  0.12823609544E+04  0.15877309275E+04  0.46999998093E+01 0.  1.
</event>
<event>
 5   0  0.2037333E-07  0.3301514E+04  0.7818609E-02  0.8162510E-01
       -1   -1    0    0    0  501  0.00000000000E+00  0.00000000000E+00  0.17792698059E+04  0.17792698059E+04  0.50400001928E-02 0. -1.
        1   -1    0    0  501    0  0.00000000000E+00  0.00000000000E+00 -0.15315263428E+04  0.15315263428E+04  0.50400001928E-02 0.  1.
    10030    2    1    2    0    0  0.00000000000E+00  0.00000000000E+00  0.24774346307E+03  0.33107961487E+04  0.33015139428E+04 0.  0.
        3    1    3    3  502    0 -0.26923987221E+03 -0.68446973694E+03 -0.13581227313E+04  0.15445019563E+04  0.10100000352E+00 0.  1.
       -3    1    3    3    0  502  0.26923987221E+03  0.68446973694E+03  0.16058661944E+04  0.17662941924E+04  0.10100000352E+00 0. -1.
</event>
<event>
 5   0  0.2057130E-07  0.3288934E+04  0.7818609E-02  0.8165717E-01
       -1   -1    0    0    0  501  0.00000000000E+00  0.00000000000E+00  0.16761547457E+04  0.16761547457E+04  0.50400001928E-02 0.  1.
        1   -1    0    0  501    0  0.00000000000E+00  0.00000000000E+00 -0.16133786299E+04  0.16133786299E+04  0.50400001928E-02 0. -1.
    10030    2    1    2    0    0  0.00000000000E+00  0.00000000000E+00  0.62776115741E+02  0.32895333756E+04  0.32889343242E+04 0.  0.
        2    1    3    3  502    0  0.76688731501E+03 -0.58537543392E+03  0.13633557025E+04  0.16701854161E+04  0.25500000920E-02 0.  1.
       -2    1    3    3    0  502 -0.76688731501E+03  0.58537543392E+03 -0.13005795868E+04  0.16193479595E+04  0.25500000920E-02 0. -1.
</event>
<event>
 5   0  0.6377741E-07  0.3297580E+04  0.7818609E-02  0.8163511E-01
       -2   -1    0    0    0  501  0.00000000000E+00  0.00000000000E+00  0.23818054873E+04  0.23818054873E+04  0.25500000920E-02 0. -1.
        2   -1    0    0  501    0  0.00000000000E+00  0.00000000000E+00 -0.11413648465E+04  0.11413648465E+04  0.25500000920E-02 0.  1.
    10030    2    1    2    0    0  0.00000000000E+00  0.00000000000E+00  0.12404406408E+04  0.35231703338E+04  0.32975803580E+04 0.  0.
        1    1    3    3  502    0  0.15945708354E+04 -0.49577326416E+02  0.10651143014E+04  0.19182237970E+04  0.50400001928E-02 0.  1.
       -1    1    3    3    0  502 -0.15945708354E+04  0.49577326416E+02  0.17532633946E+03  0.16049465367E+04  0.50400001928E-02 0. -1.
</event>
<event>
 5   0  0.6426079E-07  0.3300693E+04  0.7818609E-02  0.8162719E-01
       -2   -1    0    0    0  501  0.00000000000E+00  0.00000000000E+00  0.17812768902E+04  0.17812768902E+04  0.25500000920E-02 0.  1.
        2   -1    0    0  501    0  0.00000000000E+00  0.00000000000E+00 -0.15290401421E+04  0.15290401421E+04  0.25500000920E-02 0. -1.
    10030    2    1    2    0    0  0.00000000000E+00  0.00000000000E+00  0.25223674810E+03  0.33103170322E+04  0.33006931813E+04 0.  0.
        4    1    3    3  502    0 -0.14670619663E+04 -0.54832747799E+03  0.64793187899E+03  0.16949192219E+04  0.12699999809E+01 0. -1.
       -4    1    3    3    0  502  0.14670619663E+04  0.54832747799E+03 -0.39569513089E+03  0.16153978103E+04  0.12699999809E+01 0.  1.
</event>
<event>
 5   0  0.6258718E-07  0.3302067E+04  0.7818609E-02  0.8162370E-01
       -2   -1    0    0    0  501  0.00000000000E+00  0.00000000000E+00  0.12255879292E+04  0.12255879292E+04  0.25500000920E-02 0. -1.
        2   -1    0    0  501    0  0.00000000000E+00  0.00000000000E+00 -0.22241667309E+04  0.22241667309E+04  0.25500000920E-02 0.  1.
    10030    2    1    2    0    0  0.00000000000E+00  0.00000000000E+00 -0.99857880176E+03  0.34497546601E+04  0.33020671694E+04 0.  0.
        5    1    3    3  502    0 -0.15941033889E+04 -0.34895081485E+03 -0.76142507005E+03  0.18007560948E+04  0.46999998093E+01 0. -1.
       -5    1    3    3    0  502  0.15941033889E+04  0.34895081485E+03 -0.23715373171E+03  0.16489985653E+04  0.46999998093E+01 0.  1.
</event>
<event>
 5   0  0.2080770E-07  0.3291572E+04  0.7818609E-02  0.8165043E-01
        1   -1    0    0  501    0  0.00000000000E+00  0.00000000000E+00  0.16774590126E+04  0.16774590126E+04  0.50400001928E-02 0. -1.
       -1   -1    0    0    0  501  0.00000000000E+00  0.00000000000E+00 -0.16147107210E+04  0.16147107210E+04  0.50400001928E-02 0.  1.
    10030    2    1    2    0    0  0.00000000000E+00  0.00000000000E+00  0.62748291674E+02  0.32921697336E+04  0.32915716925E+04 0.  0.
        4    1    3    3  502    0  0.56328743132E+03 -0.44948078116E+03 -0.14485175205E+04  0.16178783400E+04  0.12699999809E+01 0.  1.
       -4    1    3    3    0  502 -0.56328743132E+03  0.44948078116E+03  0.15112658122E+04  0.16742913936E+04  0.12699999809E+01 0. -1.
</event>
<event>
 5   0  0.6377741E-07  0.3290411E+04  0.7818609E-02  0.8165340E-01
       -2   -1    0    0    0  501  0.00000000000E+00  0.00000000000E+00  0.18124911407E+04  0.18124911407E+04  0.25500000920E-02 0. -1.
        2   -1    0    0  501    0  0.00000000000E+00  0.00000000000E+00 -0.14933594069E+04  0.14933594069E+04  0.25500000920E-02 0.  1.
    10030    2    1    2    0    0  0.00000000000E+00  0.00000000000E+00  0.31913173387E+03  0.33058505476E+04  0.32904107311E+04 0.  0.
        1    1    3    3  502    0  0.29655270017E+03  0.10869997358E+04  0.13640192888E+04  0.17691977136E+04  0.50400001928E-02 0. -1.
       -1    1    3    3    0  502 -0.29655270017E+03 -0.10869997358E+04 -0.10448875550E+04  0.15366528340E+04  0.50400001928E-02 0.  1.
</event>
<event>
 5   0  0.2080828E-07  0.3294183E+04  0.7818609E-02  0.8164377E-01
       -1   -1    0    0    0  501  0.00000000000E+00  0.00000000000E+00  0.17033857078E+04  0.17033857078E+04  0.50400001928E-02 0. -1.
        1   -1    0    0  501    0  0.00000000000E+00  0.00000000000E+00 -0.15926574841E+04  0.15926574841E+04  0.50400001928E-02 0.  1.
    10030    2    1    2    0    0  0.00000000000E+00  0.00000000000E+00  0.11072822371E+03  0.32960431920E+04  0.32941827490E+04 0.  0.
        1    1    3    3  502    0  0.15593566344E+04 -0.17634071672E+03 -0.44513918152E+03  0.16312075443E+04  0.50400001928E-02 0.  1.
       -1    1    3    3    0  502 -0.15593566344E+04  0.17634071672E+03  0.55586740522E+03  0.16648356477E+04  0.50400001928E-02 0. -1.
</event>
<event>
 5   0  0.2080770E-07  0.3299148E+04  0.7818609E-02  0.8163112E-01
       -1   -1    0    0    0  501  0.00000000000E+00  0.00000000000E+00  0.12998011785E+04  0.12998011785E+04  0.50400001928E-02 0. -1.
        1   -1    0    0  501    0  0.00000000000E+00  0.00000000000E+00 -0.20934703293E+04  0.20934703293E+04  0.50400001928E-02 0.  1.
    10030    2    1    2    0    0  0.00000000000E+00  0.00000000000E+00 -0.79366915082E+03  0.33932715078E+04  0.32991484969E+04 0.  0.
        4    1    3    3  502    0  0.10788068724E+04 -0.28258268135E+03  0.85333290232E+03  0.14042278643E+04  0.12699999809E+01 0. -1.
       -4    1    3    3    0  502 -0.10788068724E+04  0.28258268135E+03 -0.16470020531E+04  0.19890436435E+04  0.12699999809E+01 0.  1.
</event>
<event>
 5   0  0.2057130E-07  0.3329781E+04  0.7818609E-02  0.8155359E-01
       -1   -1    0    0    0  501  0.00000000000E+00  0.00000000000E+00  0.18088397146E+04  0.18088397146E+04  0.50400001928E-02 0.  1.
        1   -1    0    0  501    0  0.00000000000E+00  0.00000000000E+00 -0.15323965613E+04  0.15323965614E+04  0.50400001928E-02 0. -1.
    10030    2    1    2    0    0  0.00000000000E+00  0.00000000000E+00  0.27644315328E+03  0.33412362760E+04  0.33297806287E+04 0.  0.
        2    1    3    3  502    0 -0.89504110428E+03 -0.27092022662E+03 -0.12439654941E+04  0.15562604211E+04  0.25500000920E-02 0. -1.
       -2    1    3    3    0  502  0.89504110428E+03  0.27092022662E+03  0.15204086474E+04  0.17849758549E+04  0.25500000920E-02 0.  1.
</event>
<event>
 5   0  0.2080828E-07  0.3321915E+04  0.7818609E-02  0.8157341E-01
        1   -1    0    0  501    0  0.00000000000E+00  0.00000000000E+00  0.11008414660E+04  0.11008414660E+04  0.50400001928E-02 0. -1.
       -1   -1    0    0    0  501  0.00000000000E+00  0.00000000000E+00 -0.25060652535E+04  0.25060652535E+04  0.50400001928E-02 0.  1.
    10030    2    1    2    0    0  0.00000000000E+00  0.00000000000E+00 -0.14052237875E+04  0.36069067194E+04  0.33219154399E+04 0.  0.
        1    1    3    3  502    0 -0.80828058941E+02  0.51315204140E+03  0.10103670001E+04  0.11360896389E+04  0.50400001928E-02 0. -1.
       -1    1    3    3    0  502  0.80828058941E+02 -0.51315204140E+03 -0.24155907875E+04  0.24708170806E+04  0.50400001928E-02 0.  1.
</event>
<event>
 5   0  0.2080770E-07  0.3323826E+04  0.7818609E-02  0.8156859E-01
        1   -1    0    0  501    0  0.00000000000E+00  0.00000000000E+00  0.22133442560E+04  0.22133442560E+04  0.50400001928E-02 0.  1.
       -1   -1    0    0    0  501  0.00000000000E+00  0.00000000000E+00 -0.12478646924E+04  0.12478646924E+04  0.50400001928E-02 0. -1.
    10030    2    1    2    0    0  0.00000000000E+00  0.00000000000E+00  0.96547956356E+03  0.34612089484E+04  0.33238255966E+04 0.  0.
        4    1    3    3  502    0  0.16309376330E+04 -0.92240174521E+02  0.80113355102E+03  0.18194181465E+04  0.12699999809E+01 0.  1.
       -4    1    3    3    0  502 -0.16309376330E+04  0.92240174521E+02  0.16434601254E+03  0.16417908019E+04  0.12699999809E+01 0. -1.
</event>
<event>
 5   0  0.6426079E-07  0.3267373E+04  0.7818609E-02  0.8171247E-01
        2   -1    0    0  501    0  0.00000000000E+00  0.00000000000E+00  0.12509741792E+04  0.12509741792E+04  0.25500000920E-02 0. -1.
       -2   -1    0    0    0  501  0.00000000000E+00  0.00000000000E+00 -0.21334819822E+04  0.21334819822E+04  0.25500000920E-02 0.  1.
    10030    2    1    2    0    0  0.00000000000E+00  0.00000000000E+00 -0.88250780300E+03  0.33844561615E+04  0.32673725662E+04 0.  0.
        4    1    3    3  502    0  0.65411628145E+02 -0.85463807533E+02 -0.21298054742E+04  0.21325233210E+04  0.12699999809E+01 0.  1.
       -4    1    3    3    0  502 -0.65411628145E+02  0.85463807533E+02  0.12472976712E+04  0.12519328405E+04  0.12699999809E+01 0. -1.
</event>
<event>
 5   0  0.6426079E-07  0.3339367E+04  0.7818609E-02  0.8152950E-01
       -2   -1    0    0    0  501  0.00000000000E+00  0.00000000000E+00  0.15822568267E+04  0.15822568267E+04  0.25500000920E-02 0.  1.
        2   -1    0    0  501    0  0.00000000000E+00  0.00000000000E+00 -0.17619404130E+04  0.17619404130E+04  0.25500000920E-02 0. -1.
    10030    2    1    2    0    0  0.00000000000E+00  0.00000000000E+00 -0.17968358630E+03  0.33441972396E+04  0.33393665547E+04 0.  0.
        4    1    3    3  502    0  0.30659441043E+03  0.15709329903E+04 -0.56593464183E+03  0.16976790699E+04  0.12699999809E+01 0.  1.
       -4    1    3    3    0  502 -0.30659441043E+03 -0.15709329903E+04  0.38625105553E+03  0.16465181698E+04  0.12699999809E+01 0. -1.
</event>
<event>
 5   0  0.2087665E-07  0.3419270E+04  0.7818609E-02  0.8133193E-01
        1   -1    0    0  501    0  0.00000000000E+00  0.00000000000E+00  0.14000589564E+04  0.14000589564E+04  0.50400001928E-02 0. -1.
       -1   -1    0    0    0  501  0.00000000000E+00  0.00000000000E+00 -0.20876629450E+04  0.20876629450E+04  0.50400001928E-02 0.  1.
    10030    2    1    2    0    0  0.00000000000E+00  0.00000000000E+00 -0.68760398864E+03  0.34877219014E+04  0.34192696320E+04 0.  0.
        5    1    3    3  502    0  0.14602782603E+04  0.88671604967E+03 -0.27808261800E+03  0.17309043829E+04  0.46999998093E+01 0. -1.
       -5    1    3    3    0  502 -0.14602782603E+04 -0.88671604967E+03 -0.40952137064E+03  0.17568175185E+04  0.46999998093E+01 0.  1.
</event>
<event>
 5   0  0.6424183E-07  0.3303565E+04  0.7818609E-02  0.8161989E-01
       -2   -1    0    0    0  501  0.00000000000E+00  0.00000000000E+00  0.12552767023E+04  0.12552767024E+04  0.25500000920E-02 0. -1.
        2   -1    0    0  501    0  0.00000000000E+00  0.00000000000E+00 -0.21735334791E+04  0.21735334791E+04  0.25500000920E-02 0.  1.
    10030    2    1    2    0    0  0.00000000000E+00  0.00000000000E+00 -0.91825677676E+03  0.34288101815E+04  0.33035653092E+04 0.  0.
        2    1    3    3  502    0 -0.51555560316E+03 -0.15426769333E+04 -0.16058433121E+03  0.16344531281E+04  0.25500000920E-02 0.  1.
       -2    1    3    3    0  502  0.51555560316E+03  0.15426769333E+04 -0.75767244555E+03  0.17943570534E+04  0.25500000920E-02 0. -1.
</event>
<event>
 5   0  0.1994250E-07  0.3298425E+04  0.7818609E-02  0.8163296E-01
       -3   -1    0    0    0  501  0.00000000000E+00  0.00000000000E+00  0.14238899736E+04  0.14238899771E+04  0.10100000352E+00 0. -1.
        3   -1    0    0  501    0  0.00000000000E+00  0.00000000000E+00 -0.19101912804E+04  0.19101912831E+04  0.10100000352E+00 0.  1.
    10030    2    1    2    0    0  0.00000000000E+00  0.00000000000E+00 -0.48630130684E+03  0.33340812602E+04  0.32984252134E+04 0.  0.
        2    1    3    3  502    0  0.79752597003E+03  0.81910966656E+03 -0.14446606494E+04  0.18422900723E+04  0.25500000920E-02 0.  1.
       -2    1    3    3    0  502 -0.79752597003E+03 -0.81910966656E+03  0.95835934255E+03  0.14917911879E+04  0.25500000920E-02 0. -1.
</event>
<event>
 5   0  0.6377741E-07  0.3304373E+04  0.7818609E-02  0.8161784E-01
        2   -1    0    0  501    0  0.00000000000E+00  0.00000000000E+00  0.18411489530E+04  0.18411489530E+04  0.25500000920E-02 0. -1.
       -2   -1    0    0    0  501  0.00000000000E+00  0.00000000000E+00 -0.14826177822E+04  0.14826177822E+04  0.25500000920E-02 0.  1.
    10030    2    1    2    0    0  0.00000000000E+00  0.00000000000E+00  0.35853117072E+03  0.33237667352E+04  0.33043729677E+04 0.  0.
        1    1    3    3  502    0  0.51212532099E+03  0.11827301557E+04  0.12190624288E+04  0.17740451435E+04  0.50400001928E-02 0.  1.
       -1    1    3    3    0  502 -0.51212532099E+03 -0.11827301557E+04 -0.86053125811E+03  0.15497215917E+04  0.50400001928E-02 0. -1.
</event>
<event>
 5   0  0.6426079E-07  0.3305050E+04  0.7818609E-02  0.8161612E-01
       -2   -1    0    0    0  501  0.00000000000E+00  0.00000000000E+00  0.13039898408E+04  0.13039898408E+04  0.25500000920E-02 0. -1.
        2   -1    0    0  501    0  0.00000000000E+00  0.00000000000E+00 -0.20942177732E+04  0.20942177732E+04  0.25500000920E-02 0.  1.
    10030    2    1    2    0    0  0.00000000000E+00  0.00000000000E+00 -0.79022793243E+03  0.33982076140E+04  0.33050498941E+04 0.  0.
        4    1    3    3  502    0 -0.65911168794E+03 -0.65081721642E+03  0.10119793550E+04  0.13718947096E+04  0.12699999809E+01 0. -1.
       -4    1    3    3    0  502  0.65911168794E+03  0.65081721642E+03 -0.18022072875E+04  0.20263129043E+04  0.12699999809E+01 0.  1.
</event>
<event>
 5   0  0.2087665E-07  0.3295657E+04  0.7818609E-02  0.8164001E-01
       -1   -1    0    0    0  501  0.00000000000E+00  0.00000000000E+00  0.13436636571E+04  0.13436636571E+04  0.50400001928E-02 0. -1.
        1   -1    0    0  501    0  0.00000000000E+00  0.00000000000E+00 -0.20208472006E+04  0.20208472006E+04  0.50400001928E-02 0.  1.
    10030    2    1    2    0    0  0.00000000000E+00  0.00000000000E+00 -0.67718354348E+03  0.33645108577E+04  0.32956571060E+04 0.  0.
        5    1    3    3  502    0  0.11804645167E+04  0.42631126525E+03 -0.14286442407E+04  0.19016530248E+04  0.46999998093E+01 0.  1.
       -5    1    3    3    0  502 -0.11804645167E+04 -0.42631126525E+03  0.75146069725E+03  0.14628578330E+04  0.46999998093E+01 0. -1.
</event>
<event>
 5   0  0.6426079E-07  0.3304206E+04  0.7818609E-02  0.8161826E-01
        2   -1    0    0  501    0  0.00000000000E+00  0.00000000000E+00  0.19830200463E+04  0.19830200463E+04  0.25500000920E-02 0.  1.
       -2   -1    0    0    0  501  0.00000000000E+00  0.00000000000E+00 -0.13764080749E+04  0.13764080749E+04  0.25500000920E-02 0. -1.
    10030    2    1    2    0    0  0.00000000000E+00  0.00000000000E+00  0.60661197138E+03  0.33594281212E+04  0.33042062916E+04 0.  0.
        4    1    3    3  502    0  0.10791597115E+04  0.12479778064E+04  0.21579246293E+03  0.16639117429E+04  0.12699999809E+01 0. -1.
       -4    1    3    3    0  502 -0.10791597115E+04 -0.12479778064E+04  0.39081950844E+03  0.16955163783E+04  0.12699999809E+01 0.  1.
</event>
<event>
 5   0  0.6258718E-07  0.3330524E+04  0.7818609E-02  0.8155172E-01
        2   -1    0    0  501    0  0.00000000000E+00  0.00000000000E+00  0.14284015157E+04  0.14284015157E+04  0.25500000920E-02 0.  1.
       -2   -1    0    0    0  501  0.00000000000E+00  0.00000000000E+00 -0.19413989270E+04  0.19413989270E+04  0.25500000920E-02 0. -1.
    10030    2    1    2    0    0  0.00000000000E+00  0.00000000000E+00 -0.51299741128E+03  0.33698004426E+04  0.33305237845E+04 0.  0.
        5    1    3    3  502    0  0.96252219900E+03  0.10567918597E+04  0.60786923292E+03  0.15533142350E+04  0.46999998093E+01 0.  1.
       -5    1    3    3    0  502 -0.96252219900E+03 -0.10567918597E+04 -0.11208666442E+04  0.18164862076E+04  0.46999998093E+01 0. -1.
</event>
<event>
 5   0  0.6377741E-07  0.3293129E+04  0.7818609E-02  0.8164646E-01
       -2   -1    0    0    0  501  0.00000000000E+00  0.00000000000E+00  0.11476022126E+04  0.11476022126E+04  0.25500000920E-02 0. -1.
        2   -1    0    0  501    0  0.00000000000E+00  0.00000000000E+00 -0.23624686870E+04  0.23624686870E+04  0.25500000920E-02 0.  1.
    10030    2    1    2    0    0  0.00000000000E+00  0.00000000000E+00 -0.12148664744E+04  0.35100708996E+04  0.32931287812E+04 0.  0.
        1    1    3    3  502    0  0.71942615946E+03 -0.13725230967E+04 -0.14187928655E+02  0.15497080200E+04  0.50400001928E-02 0. -1.
       -1    1    3    3    0  502 -0.71942615946E+03  0.13725230967E+04 -0.12006785457E+04  0.19603628797E+04  0.50400001928E-02 0.  1.
</event>
<event>
 5   0  0.2080770E-07  0.3300294E+04  0.7818609E-02  0.8162821E-01
        1   -1    0    0  501    0  0.00000000000E+00  0.00000000000E+00  0.21923355472E+04  0.21923355472E+04  0.50400001928E-02 0. -1.
       -1   -1    0    0    0  501  0.00000000000E+00  0.00000000000E+00 -0.12420475516E+04  0.12420475516E+04  0.50400001928E-02 0.  1.
    10030    2    1    2    0    0  0.00000000000E+00  0.00000000000E+00  0.95028799566E+03  0.34343830988E+04  0.33002939255E+04 0.  0.
        4    1    3    3  502    0  0.31625766360E+02  0.41045970889E+03  0.21380379797E+04  0.21773115021E+04  0.12699999809E+01 0. -1.
       -4    1    3    3    0  502 -0.31625766360E+02 -0.41045970889E+03 -0.11877499841E+04  0.12570715967E+04  0.12699999809E+01 0.  1.
</event>
<event>
 5   0  0.6377741E-07  0.3300990E+04  0.7818609E-02  0.8162644E-01
        2   -1    0    0  501    0  0.00000000000E+00  0.00000000000E+00  0.18822899825E+04  0.18822899825E+04  0.25500000920E-02 0.  1.
       -2   -1    0    0    0  501  0.00000000000E+00  0.00000000000E+00 -0.14472442057E+04  0.14472442057E+04  0.25500000920E-02 0. -1.
    10030    2    1    2    0    0  0.00000000000E+00  0.00000000000E+00  0.43504577688E+03  0.33295341882E+04  0.33009897126E+04 0.  0.
        1    1    3    3  502    0 -0.58341485456E+03  0.68015455803E+03 -0.11805182882E+04  0.14820953222E+04  0.50400001928E-02 0. -1.
       -1    1    3    3    0  502  0.58341485456E+03 -0.68015455803E+03  0.16155640651E+04  0.18474388660E+04  0.50400001928E-02 0.  1.
</event>
<event>
 5   0  0.2080770E-07  0.3307964E+04  0.7818609E-02  0.8160872E-01
       -1   -1    0    0    0  501  0.00000000000E+00  0.00000000000E+00  0.26554378301E+04  0.26554378301E+04  0.50400001928E-02 0. -1.
        1   -1    0    0  501    0  0.00000000000E+00  0.00000000000E+00 -0.10302089091E+04  0.10302089091E+04  0.50400001928E-02 0.  1.
    10030    2    1    2    0    0  0.00000000000E+00  0.00000000000E+00  0.16252289210E+04  0.36856467392E+04  0.33079635489E+04 0.  0.
        4    1    3    3  502    0 -0.14708820089E+04  0.75175259261E+03  0.71920805136E+03  0.18016347240E+04  0.12699999809E+01 0. -1.
       -4    1    3    3    0  502  0.14708820089E+04 -0.75175259261E+03  0.90602086960E+03  0.18840120152E+04  0.12699999809E+01 0.  1.
</event>
<event>
 5   0  0.6351753E-07  0.3296191E+04  0.7818609E-02  0.8163865E-01
        2   -1    0    0  501    0  0.00000000000E+00  0.00000000000E+00  0.19891762492E+04  0.19891762492E+04  0.25500000920E-02 0.  1.
       -2   -1    0    0    0  501  0.00000000000E+00  0.00000000000E+00 -0.13654991990E+04  0.13654991990E+04  0.25500000920E-02 0. -1.
    10030    2    1    2    0    0  0.00000000000E+00  0.00000000000E+00  0.62367705018E+03  0.33546754482E+04  0.32961908774E+04 0.  0.
        3    1    3    3  502    0  0.28858149965E+03 -0.13774497766E+03  0.19573014125E+04  0.19832503096E+04  0.10100000352E+00 0.  1.
       -3    1    3    3    0  502 -0.28858149965E+03  0.13774497766E+03 -0.13336243624E+04  0.13714251386E+04  0.10100000352E+00 0. -1.
</event>
<event>
 5   0  0.2080770E-07  0.3272797E+04  0.7818609E-02  0.8169852E-01
        1   -1    0    0  501    0  0.00000000000E+00  0.00000000000E+00  0.22889525171E+04  0.22889525171E+04  0.50400001928E-02 0.  1.
       -1   -1    0    0    0  501  0.00000000000E+00  0.00000000000E+00 -0.11698801714E+04  0.11698801714E+04  0.50400001928E-02 0. -1.
    10030    2    1    2    0    0  0.00000000000E+00  0.00000000000E+00  0.11190723457E+04  0.34588326885E+04  0.32727970686E+04 0.  0.
        4    1    3    3  502    0  0.65379216442E+02 -0.13747590728E+04 -0.37597084414E+03  0.14267419664E+04  0.12699999809E+01 0. -1.
       -4    1    3    3    0  502 -0.65379216442E+02  0.13747590728E+04  0.14950431898E+04  0.20320907220E+04  0.12699999809E+01 0.  1.
</event>
<event>
 5   0  0.2080828E-07  0.3314243E+04  0.7818609E-02  0.8159281E-01
        1   -1    0    0  501    0  0.00000000000E+00  0.00000000000E+00  0.24769978979E+04  0.24769978979E+04  0.50400001928E-02 0.  1.
       -1   -1    0    0    0  501  0.00000000000E+00  0.00000000000E+00 -0.11086211728E+04  0.11086211728E+04  0.50400001928E-02 0. -1.
    10030    2    1    2    0    0  0.00000000000E+00  0.00000000000E+00  0.13683767252E+04  0.35856190707E+04  0.33142433915E+04 0.  0.
        1    1    3    3  502    0  0.13522991721E+04  0.20381175625E+03  0.16966585134E+04  0.21791976491E+04  0.50400001928E-02 0.  1.
       -1    1    3    3    0  502 -0.13522991721E+04 -0.20381175625E+03 -0.32828178823E+03  0.14064214216E+04  0.50400001928E-02 0. -1.
</event>
<event>
 5   0  0.6351753E-07  0.3318071E+04  0.7818609E-02  0.8158312E-01
       -2   -1    0    0    0  501  0.00000000000E+00  0.00000000000E+00  0.11531904296E+04  0.11531904296E+04  0.25500000920E-02 0. -1.
        2   -1    0    0  501    0  0.00000000000E+00  0.00000000000E+00 -0.23867681345E+04  0.23867681345E+04  0.25500000920E-02 0.  1.
    10030    2    1    2    0    0  0.00000000000E+00  0.00000000000E+00 -0.12335777048E+04  0.35399585641E+04  0.33180706264E+04 0.  0.
        3    1    3    3  502    0  0.13143824392E+04  0.70566886150E+03  0.15757870718E+03  0.15001335933E+04  0.10100000352E+00 0. -1.
       -3    1    3    3    0  502 -0.13143824392E+04 -0.70566886150E+03 -0.13911564120E+04  0.20398249708E+04  0.10100000352E+00 0.  1.
</event>
<event>
 5   0  0.6426079E-07  0.3298716E+04  0.7818609E-02  0.8163222E-01
        2   -1    0    0  501    0  0.00000000000E+00  0.00000000000E+00  0.16319317592E+04  0.16319317592E+04  0.25500000920E-02 0.  1.
       -2   -1    0    0    0  501  0.00000000000E+00  0.00000000000E+00 -0.16669703072E+04  0.16669703072E+04  0.25500000920E-02 0. -1.
    10030    2    1    2    0    0  0.00000000000E+00  0.00000000000E+00 -0.35038547992E+02  0.32989020664E+04  0.32987159841E+04 0.  0.
        4    1    3    3  502    0  0.15700966880E+04 -0.39948189218E+03 -0.32671430356E+03  0.16527350788E+04  0.12699999809E+01 0. -1.
       -4    1    3    3    0  502 -0.15700966880E+04  0.39948189218E+03  0.29167575557E+03  0.16461669876E+04  0.12699999809E+01 0.  1.
</event>
<event>
 5   0  0.1994250E-07  0.3301897E+04  0.7818609E-02  0.8162413E-01
       -3   -1    0    0    0  501  0.00000000000E+00  0.00000000000E+00  0.24564501191E+04  0.24564501212E+04  0.10100000352E+00 0.  1.
        3   -1    0    0  501    0  0.00000000000E+00  0.00000000000E+00 -0.11095815577E+04  0.11095815623E+04  0.10100000352E+00 0. -1.
    10030    2    1    2    0    0  0.00000000000E+00  0.00000000000E+00  0.13468685615E+04  0.35660316835E+04  0.33018974917E+04 0.  0.
        2    1    3    3  502    0 -0.44790748833E+03  0.11498856608E+03 -0.10382084711E+04  0.11365387446E+04  0.25500000920E-02 0. -1.
       -2    1    3    3    0  502  0.44790748833E+03 -0.11498856608E+03  0.23850770326E+04  0.24294929389E+04  0.25500000920E-02 0.  1.
</event>
<event>
 5   0  0.6377741E-07  0.3311682E+04  0.7818609E-02  0.8159929E-01
       -2   -1    0    0    0  501  0.00000000000E+00  0.00000000000E+00  0.11326316455E+04  0.11326316455E+04  0.25500000920E-02 0.  1.
        2   -1    0    0  501    0  0.00000000000E+00  0.00000000000E+00 -0.24207417994E+04  0.24207417994E+04  0.25500000920E-02 0. -1.
    10030    2    1    2    0    0  0.00000000000E+00  0.00000000000E+00 -0.12881101539E+04  0.35533734449E+04  0.33116816076E+04 0.  0.
        1    1    3    3  502    0 -0.11744778007E+04 -0.11046025860E+04 -0.23934924395E+03  0.16299794593E+04  0.50400001928E-02 0.  1.
       -1    1    3    3    0  502  0.11744778007E+04  0.11046025860E+04 -0.10487609100E+04  0.19233939855E+04  0.50400001928E-02 0. -1.
</event>
<event>
 5   0  0.6351753E-07  0.3276801E+04  0.7818609E-02  0.8168824E-01
       -2   -1    0    0    0  501  0.00000000000E+00  0.00000000000E+00  0.14535466587E+04  0.14535466587E+04  0.25500000920E-02 0.  1.
        2   -1    0    0  501    0  0.00000000000E+00  0.00000000000E+00 -0.18467626949E+04  0.18467626949E+04  0.25500000920E-02 0. -1.
    10030    2    1    2    0    0  0.00000000000E+00  0.00000000000E+00 -0.39321603618E+03  0.33003093536E+04  0.32768007230E+04 0.  0.
        3    1    3    3  502    0 -0.61154768811E+03  0.34190062775E+03 -0.16882698657E+04  0.18278790342E+04  0.10100000352E+00 0. -1.
       -3    1    3    3    0  502  0.61154768811E+03 -0.34190062775E+03  0.12950538295E+04  0.14724303194E+04  0.10100000352E+00 0.  1.
</event>
<event>
 5   0  0.2080828E-07  0.3246081E+04  0.7818609E-02  0.8176752E-01
       -1   -1    0    0    0  501  0.00000000000E+00  0.00000000000E+00  0.17935551568E+04  0.17935551568E+04  0.50400001928E-02 0. -1.
        1   -1    0    0  501    0  0.00000000000E+00  0.00000000000E+00 -0.14687372345E+04  0.14687372345E+04  0.50400001928E-02 0.  1.
    10030    2    1    2    0    0  0.00000000000E+00  0.00000000000E+00  0.32481792237E+03  0.32622923913E+04  0.32460814783E+04 0.  0.
        1    1    3    3  502    0  0.28792895128E+03  0.12980851929E+04  0.10978273289E+04  0.17242833564E+04  0.50400001928E-02 0. -1.
       -1    1    3    3    0  502 -0.28792895128E+03 -0.12980851929E+04 -0.77300940648E+03  0.15380090349E+04  0.50400001928E-02 0.  1.
</event>
<event>
 5   0  0.2080828E-07  0.3301624E+04  0.7818609E-02  0.8162482E-01
       -1   -1    0    0    0  501  0.00000000000E+00  0.00000000000E+00  0.12480898242E+04  0.12480898242E+04  0.50400001928E-02 0. -1.
        1   -1    0    0  501    0  0.00000000000E+00  0.00000000000E+00 -0.21834802772E+04  0.21834802772E+04  0.50400001928E-02 0.  1.
    10030    2    1    2    0    0  0.00000000000E+00  0.00000000000E+00 -0.93539045300E+03  0.34315701014E+04  0.33016235493E+04 0.  0.
        1    1    3    3  502    0 -0.15345318176E+04 -0.59919109228E+03 -0.57848152290E+03  0.17459836015E+04  0.50400001928E-02 0.  1.
       -1    1    3    3    0  502  0.15345318176E+04  0.59919109228E+03 -0.35690893009E+03  0.16855864999E+04  0.50400001928E-02 0. -1.
</event>
<event>
 5   0  0.2037333E-07  0.3300424E+04  0.7818609E-02  0.8162787E-01
       -1   -1    0    0    0  501  0.00000000000E+00  0.00000000000E+00  0.20115675584E+04  0.20115675584E+04  0.50400001928E-02 0.  1.
        1   -1    0    0  501    0  0.00000000000E+00  0.00000000000E+00 -0.13537700071E+04  0.13537700071E+04  0.50400001928E-02 0. -1.
    10030    2    1    2    0    0  0.00000000000E+00  0.00000000000E+00  0.65779755122E+03  0.33653375655E+04  0.33004241108E+04 0.  0.
        3    1    3    3  502    0  0.69378736896E+03  0.11386685152E+04 -0.66248563186E+03  0.14888902322E+04  0.10100000352E+00 0.  1.
       -3    1    3    3    0  502 -0.69378736896E+03 -0.11386685152E+04  0.13202831831E+04  0.18764473333E+04  0.10100000352E+00 0. -1.
</event>
<event>
 5   0  0.2087665E-07  0.3302823E+04  0.7818609E-02  0.8162178E-01
       -1   -1    0    0    0  501  0.00000000000E+00  0.00000000000E+00  0.93086176352E+03  0.93086176353E+03  0.50400001928E-02 0. -1.
        1   -1    0    0  501    0  0.00000000000E+00  0.00000000000E+00 -0.29297145253E+04  0.29297145253E+04  0.50400001928E-02 0.  1.
    10030    2    1    2    0    0  0.00000000000E+00  0.00000000000E+00 -0.19988527618E+04  0.38605762889E+04  0.33028225685E+04 0.  0.
        5    1    3    3  502    0 -0.42750274863E+02  0.25903561014E+03  0.90630439663E+03  0.94357659078E+03  0.46999998093E+01 0. -1.
       -5    1    3    3    0  502  0.42750274863E+02 -0.25903561014E+03 -0.29051571584E+04  0.29169996981E+04  0.46999998093E+01 0.  1.
</event>
<event>
 5   0  0.2087665E-07  0.3284694E+04  0.7818609E-02  0.8166801E-01
        1   -1    0    0  501    0  0.00000000000E+00  0.00000000000E+00  0.17696285667E+04  0.17696285667E+04  0.50400001928E-02 0.  1.
       -1   -1    0    0    0  501  0.00000000000E+00  0.00000000000E+00 -0.15242201087E+04  0.15242201087E+04  0.50400001928E-02 0. -1.
    10030    2    1    2    0    0  0.00000000000E+00  0.00000000000E+00  0.24540845800E+03  0.32938486754E+04  0.32846938648E+04 0.  0.
        5    1    3    3  502    0  0.10103934395E+04 -0.13053194981E+03  0.14144512365E+04  0.17431660514E+04  0.46999998093E+01 0.  1.
       -5    1    3    3    0  502 -0.10103934395E+04  0.13053194981E+03 -0.11690427785E+04  0.15506826240E+04  0.46999998093E+01 0. -1.
</event>
<event>
 5   0  0.6426079E-07  0.3346432E+04  0.7818609E-02  0.8151180E-01
        2   -1    0    0  501    0  0.00000000000E+00  0.00000000000E+00  0.24098170399E+04  0.24098170399E+04  0.25500000920E-02 0.  1.
       -2   -1    0    0    0  501  0.00000000000E+00  0.00000000000E+00 -0.11617694792E+04  0.11617694792E+04  0.25500000920E-02 0. -1.
    10030    2    1    2    0    0  0.00000000000E+00  0.00000000000E+00  0.12480475607E+04  0.35715865191E+04  0.33464320626E+04 0.  0.
        4    1    3    3  502    0 -0.13228320316E+04  0.86005924262E+03  0.12183223541E+04  0.19934636831E+04  0.12699999809E+01 0. -1.
       -4    1    3    3    0  502  0.13228320316E+04 -0.86005924262E+03  0.29725206564E+02  0.15781228360E+04  0.12699999809E+01 0.  1.
</event>
<event>
 5   0  0.6377741E-07  0.3305811E+04  0.7818609E-02  0.8161418E-01
       -2   -1    0    0    0  501  0.00000000000E+00  0.00000000000E+00  0.10207625707E+04  0.10207625707E+04  0.25500000920E-02 0. -1.
        2   -1    0    0  501    0  0.00000000000E+00  0.00000000000E+00 -0.26765256464E+04  0.26765256464E+04  0.25500000920E-02 0.  1.
    10030    2    1    2    0    0  0.00000000000E+00  0.00000000000E+00 -0.16557630757E+04  0.36972882171E+04  0.33058113675E+04 0.  0.
        1    1    3    3  502    0 -0.13198507792E+04 -0.67619398574E+03 -0.11470496254E+02  0.14830293180E+04  0.50400001928E-02 0. -1.
       -1    1    3    3    0  502  0.13198507792E+04  0.67619398574E+03 -0.16442925795E+04  0.22142588992E+04  0.50400001928E-02 0.  1.
</event>
<event>
 5   0  0.2080770E-07  0.3299799E+04  0.7818609E-02  0.8162947E-01
        1   -1    0    0  501    0  0.00000000000E+00  0.00000000000E+00  0.16470271406E+04  0.16470271406E+04  0.50400001928E-02 0. -1.
       -1   -1    0    0    0  501  0.00000000000E+00  0.00000000000E+00 -0.16527767686E+04  0.16527767686E+04  0.50400001928E-02 0.  1.
    10030    2    1    2    0    0  0.00000000000E+00  0.00000000000E+00 -0.57496280162E+01  0.32998039092E+04  0.32997989001E+04 0.  0.
        4    1    3    3  502    0 -0.91768983050E+03  0.44792956401E+03  0.12930326525E+04  0.16476439459E+04  0.12699999809E+01 0. -1.
       -4    1    3    3    0  502  0.91768983050E+03 -0.44792956401E+03 -0.12987822805E+04  0.16521599633E+04  0.12699999809E+01 0.  1.
</event>
<event>
 5   0  0.6258718E-07  0.3304434E+04  0.7818609E-02  0.8161768E-01
        2   -1    0    0  501    0  0.00000000000E+00  0.00000000000E+00  0.23714163332E+04  0.23714163332E+04  0.25500000920E-02 0.  1.
       -2   -1    0    0    0  501  0.00000000000E+00  0.00000000000E+00 -0.11511355088E+04  0.11511355088E+04  0.25500000920E-02 0. -1.
    10030    2    1    2    0    0  0.00000000000E+00  0.00000000000E+00  0.12202808244E+04  0.35225518420E+04  0.33044343221E+04 0.  0.
        5    1    3    3  502    0  0.10844369485E+04 -0.51225683839E+03  0.18215438241E+04  0.21809297460E+04  0.46999998093E+01 0.  1.
       -5    1    3    3    0  502 -0.10844369485E+04  0.51225683839E+03 -0.60126299969E+03  0.13416220960E+04  0.46999998093E+01 0. -1.
</event>
<event>
 5   0  0.2057130E-07  0.3294549E+04  0.7818609E-02  0.8164284E-01
        1   -1    0    0  501    0  0.00000000000E+00  0.00000000000E+00  0.26379833997E+04  0.26379833997E+04  0.50400001928E-02 0. -1.
       -1   -1    0    0    0  501  0.00000000000E+00  0.00000000000E+00 -0.10286319031E+04  0.10286319031E+04  0.50400001928E-02 0.  1.
    10030    2    1    2    0    0  0.00000000000E+00  0.00000000000E+00  0.16093514966E+04  0.36666153028E+04  0.32945493682E+04 0.  0.
        2    1    3    3  502    0 -0.32325536254E+03 -0.15402519815E+04  0.26327756993E+03  0.15956770584E+04  0.25500000920E-02 0.  1.
       -2    1    3    3    0  502  0.32325536254E+03  0.15402519815E+04  0.13460739266E+04  0.20709382444E+04  0.25500000920E-02 0. -1.
</event>
<event>
 5   0  0.6424183E-07  0.3297409E+04  0.7818609E-02  0.8163555E-01
       -2   -1    0    0    0  501  0.00000000000E+00  0.00000000000E+00  0.14072882282E+04  0.14072882282E+04  0.25500000920E-02 0.  1.
        2   -1    0    0  501    0  0.00000000000E+00  0.00000000000E+00 -0.19315353891E+04  0.19315353891E+04  0.25500000920E-02 0. -1.
    10030    2    1    2    0    0  0.00000000000E+00  0.00000000000E+00 -0.52424716087E+03  0.33388236173E+04  0.32974092954E+04 0.  0.
        2    1    3    3  502    0 -0.47759640430E+03 -0.12086782089E+04  0.76512588800E+03  0.15081176886E+04  0.25500000920E-02 0.  1.
       -2    1    3    3    0  502  0.47759640430E+03  0.12086782089E+04 -0.12893730489E+04  0.18307059287E+04  0.25500000920E-02 0. -1.
</event>
<event>
 5   0  0.6351753E-07  0.3344285E+04  0.7818609E-02  0.8151718E-01
        2   -1    0    0  501    0  0.00000000000E+00  0.00000000000E+00  0.20253697755E+04  0.20253697755E+04  0.25500000920E-02 0.  1.
       -2   -1    0    0    0  501  0.00000000000E+00  0.00000000000E+00 -0.13805182735E+04  0.13805182735E+04  0.25500000920E-02 0. -1.
    10030    2    1    2    0    0  0.00000000000E+00  0.00000000000E+00  0.64485150199E+03  0.34058880490E+04  0.33442846683E+04 0.  0.
        3    1    3    3  502    0  0.27378505244E+03  0.16828265561E+03  0.19936232710E+04  0.20193590726E+04  0.10100000352E+00 0.  1.
       -3    1    3    3    0  502 -0.27378505244E+03 -0.16828265561E+03 -0.13487717690E+04  0.13865289764E+04  0.10100000352E+00 0. -1.
</event>
<event>
 5   0  0.6377741E-07  0.3273311E+04  0.7818609E-02  0.8169720E-01
       -2   -1    0    0    0  501  0.00000000000E+00  0.00000000000E+00  0.16139818192E+04  0.16139818192E+04  0.25500000920E-02 0.  1.
        2   -1    0    0  501    0  0.00000000000E+00  0.00000000000E+00 -0.16596473367E+04  0.16596473367E+04  0.25500000920E-02 0. -1.
    10030    2    1    2    0    0  0.00000000000E+00  0.00000000000E+00 -0.45665517470E+02  0.32736291559E+04  0.32733106346E+04 0.  0.
        1    1    3    3  502    0  0.11126013904E+03  0.11410008558E+04  0.11453471934E+04  0.16205190419E+04  0.50400001928E-02 0.  1.
       -1    1    3    3    0  502 -0.11126013904E+03 -0.11410008558E+04 -0.11910127109E+04  0.16531101140E+04  0.50400001928E-02 0. -1.
</event>
<event>
 5   0  0.6426079E-07  0.3296924E+04  0.7818609E-02  0.8163679E-01
       -2   -1    0    0    0  501  0.00000000000E+00  0.00000000000E+00  0.25179458717E+04  0.25179458717E+04  0.25500000920E-02 0. -1.
        2   -1    0    0  501    0  0.00000000000E+00  0.00000000000E+00 -0.10792235964E+04  0.10792235964E+04  0.25500000920E-02 0.  1.
    10030    2    1    2    0    0  0.00000000000E+00  0.00000000000E+00  0.14387222753E+04  0.35971694681E+04  0.32969237778E+04 0.  0.
        4    1    3    3  502    0 -0.39800009229E+03 -0.15896650287E+04  0.91449472146E+03  0.18766302741E+04  0.12699999809E+01 0.  1.
       -4    1    3    3    0  502  0.39800009229E+03  0.15896650287E+04  0.52422755389E+03  0.17205391940E+04  0.12699999809E+01 0. -1.
</event>
<event>
 5   0  0.2087665E-07  0.3301765E+04  0.7818609E-02  0.8162446E-01
        1   -1    0    0  501    0  0.00000000000E+00  0.00000000000E+00  0.15585711917E+04  0.15585711917E+04  0.50400001928E-02 0. -1.
       -1   -1    0    0    0  501  0.00000000000E+00  0.00000000000E+00 -0.17486615974E+04  0.17486615974E+04  0.50400001928E-02 0.  1.
    10030    2    1    2    0    0  0.00000000000E+00  0.00000000000E+00 -0.19009040572E+03  0.33072327891E+04  0.33017653397E+04 0.  0.
        5    1    3    3  502    0  0.10065515068E+04  0.10776313131E+03 -0.14012877330E+04  0.17286955282E+04  0.46999998093E+01 0.  1.
       -5    1    3    3    0  502 -0.10065515068E+04 -0.10776313131E+03  0.12111973273E+04  0.15785372609E+04  0.46999998093E+01 0. -1.
</event>
<event>
 5   0  0.2080770E-07  0.3337170E+04  0.7818609E-02  0.8153501E-01
        1   -1    0    0  501    0  0.00000000000E+00  0.00000000000E+00  0.18671424224E+04  0.18671424224E+04  0.50400001928E-02 0. -1.
       -1   -1    0    0    0  501  0.00000000000E+00  0.00000000000E+00 -0.14911427743E+04  0.14911427743E+04  0.50400001928E-02 0.  1.
    10030    2    1    2    0    0  0.00000000000E+00  0.00000000000E+00  0.37599964812E+03  0.33582851968E+04  0.33371700178E+04 0.  0.
        4    1    3    3  502    0  0.12631368894E+04 -0.15623708184E+02  0.12850421421E+04  0.18019694286E+04  0.12699999809E+01 0.  1.
       -4    1    3    3    0  502 -0.12631368894E+04  0.15623708184E+02 -0.90904249394E+03  0.15563157682E+04  0.12699999809E+01 0. -1.
</event>
<event>
 5   0  0.1994250E-07  0.3304701E+04  0.7818609E-02  0.8161700E-01
        3   -1    0    0  501    0  0.00000000000E+00  0.00000000000E+00  0.11975994989E+04  0.11975995032E+04  0.10100000352E+00 0. -1.
       -3   -1    0    0    0  501  0.00000000000E+00  0.00000000000E+00 -0.22797789521E+04  0.22797789544E+04  0.10100000352E+00 0.  1.
    10030    2    1    2    0    0  0.00000000000E+00  0.00000000000E+00 -0.10821794532E+04  0.34773784576E+04  0.33047009802E+04 0.  0.
        1    1    3    3  502    0  0.13090049841E+03  0.79523546653E+03 -0.20589347120E+04  0.22110510026E+04  0.50400001928E-02 0.  1.
       -1    1    3    3    0  502 -0.13090049841E+03 -0.79523546653E+03  0.97675525879E+03  0.12663274550E+04  0.50400001928E-02 0. -1.
</event>
<event>
 5   0  0.6351753E-07  0.3298193E+04  0.7818609E-02  0.8163355E-01
        2   -1    0    0  501    0  0.00000000000E+00  0.00000000000E+00  0.26597309913E+04  0.26597309913E+04  0.25500000920E-02 0. -1.
       -2   -1    0    0    0  501  0.00000000000E+00  0.00000000000E+00 -0.10224791947E+04  0.10224791948E+04  0.25500000920E-02 0.  1.
    10030    2    1    2    0    0  0.00000000000E+00  0.00000000000E+00  0.16372517965E+04  0.36822101860E+04  0.32981932037E+04 0.  0.
        3    1    3    3  502    0 -0.11172559487E+04  0.56772474902E+03  0.20153183339E+04  0.23732004219E+04  0.10100000352E+00 0. -1.
       -3    1    3    3    0  502  0.11172559487E+04 -0.56772474902E+03 -0.37806653735E+03  0.13090097641E+04  0.10100000352E+00 0.  1.
</event>
<event>
 5   0  0.6424183E-07  0.3330750E+04  0.7818609E-02  0.8155115E-01
       -2   -1    0    0    0  501  0.00000000000E+00  0.00000000000E+00  0.15982869682E+04  0.15982869682E+04  0.25500000920E-02 0. -1.
        2   -1    0    0  501    0  0.00000000000E+00  0.00000000000E+00 -0.17352792828E+04  0.17352792828E+04  0.25500000920E-02 0.  1.
    10030    2    1    2    0    0  0.00000000000E+00  0.00000000000E+00 -0.13699231454E+03  0.33335662510E+04  0.33307502241E+04 0.  0.
        2    1    3    3  502    0  0.12259494761E+03  0.11658478773E+04  0.11154001590E+04  0.16181311161E+04  0.25500000920E-02 0. -1.
       -2    1    3    3    0  502 -0.12259494761E+03 -0.11658478773E+04 -0.12523924735E+04  0.17154351349E+04  0.25500000920E-02 0.  1.
</event>
<event>
 5   0  0.6258718E-07  0.3301792E+04  0.7818609E-02  0.8162440E-01
        2   -1    0    0  501    0  0.00000000000E+00  0.00000000000E+00  0.22943269382E+04  0.22943269382E+04  0.25500000920E-02 0. -1.
       -2   -1    0    0    0  501  0.00000000000E+00  0.00000000000E+00 -0.11879113826E+04  0.11879113826E+04  0.25500000920E-02 0.  1.
    10030    2    1    2    0    0  0.00000000000E+00  0.00000000000E+00  0.11064155556E+04  0.34822383208E+04  0.33017916865E+04 0.  0.
        5    1    3    3  502    0 -0.53305249881E+03 -0.13620826271E+04  0.13605643599E+04  0.19976414886E+04  0.46999998093E+01 0. -1.
       -5    1    3    3    0  502  0.53305249881E+03  0.13620826271E+04 -0.25414880434E+03  0.14845968322E+04  0.46999998093E+01 0.  1.
</event>
<event>
 5   0  0.2080770E-07  0.3300184E+04  0.7818609E-02  0.8162849E-01
       -1   -1    0    0    0  501  0.00000000000E+00  0.00000000000E+00  0.17014224104E+04  0.17014224104E+04  0.50400001928E-02 0. -1.
        1   -1    0    0  501    0  0.00000000000E+00  0.00000000000E+00 -0.16003099525E+04  0.16003099525E+04  0.50400001928E-02 0.  1.
    10030    2    1    2    0    0  0.00000000000E+00  0.00000000000E+00  0.10111245791E+03  0.33017323629E+04  0.33001837626E+04 0.  0.
        4    1    3    3  502    0 -0.39372963581E+03 -0.56901260276E+03 -0.14481464473E+04  0.16049698172E+04  0.12699999809E+01 0.  1.
       -4    1    3    3    0  502  0.39372963581E+03  0.56901260276E+03  0.15492589052E+04  0.16967625457E+04  0.12699999809E+01 0. -1.
</event>
<event>
 5   0  0.2037333E-07  0.3307198E+04  0.7818609E-02  0.8161066E-01
        1   -1    0    0  501    0  0.00000000000E+00  0.00000000000E+00  0.24799370443E+04  0.24799370443E+04  0.50400001928E-02 0.  1.
       -1   -1    0    0    0  501  0.00000000000E+00  0.00000000000E+00 -0.11026042432E+04  0.11026042432E+04  0.50400001928E-02 0. -1.
    10030    2    1    2    0    0  0.00000000000E+00  0.00000000000E+00  0.13773328011E+04  0.35825412875E+04  0.33071976704E+04 0.  0.
        3    1    3    3  502    0  0.26898923579E+03 -0.56887197676E+02 -0.10776711468E+04  0.11121899447E+04  0.10100000352E+00 0. -1.
       -3    1    3    3    0  502 -0.26898923579E+03  0.56887197676E+02  0.24550039479E+04  0.24703513427E+04  0.10100000352E+00 0.  1.
</event>
<event>
 5   0  0.6424183E-07  0.3269194E+04  0.7818609E-02  0.8170778E-01
       -2   -1    0    0    0  501  0.00000000000E+00  0.00000000000E+00  0.12523616164E+04  0.12523616164E+04  0.25500000920E-02 0. -1.
        2   -1    0    0  501    0  0.00000000000E+00  0.00000000000E+00 -0.21334957229E+04  0.21334957229E+04  0.25500000920E-02 0.  1.
    10030    2    1    2    0    0  0.00000000000E+00  0.00000000000E+00 -0.88113410650E+03  0.33858573394E+04  0.32691944893E+04 0.  0.
        2    1    3    3  502    0  0.50355885326E+03  0.62646856654E+03  0.10335571875E+04  0.13093031901E+04  0.25500000920E-02 0. -1.
       -2    1    3    3    0  502 -0.50355885326E+03 -0.62646856654E+03 -0.19146912940E+04  0.20765541493E+04  0.25500000920E-02 0.  1.
</event>
<event>
 5   0  0.2080828E-07  0.3301486E+04  0.7818609E-02  0.8162517E-01
        1   -1    0    0  501    0  0.00000000000E+00  0.00000000000E+00  0.12120248631E+04  0.12120248631E+04  0.50400001928E-02 0.  1.
       -1   -1    0    0    0  501  0.00000000000E+00  0.00000000000E+00 -0.22482649404E+04  0.22482649404E+04  0.50400001928E-02 0. -1.
    10030    2    1    2    0    0  0.00000000000E+00  0.00000000000E+00 -0.10362400773E+04  0.34602898035E+04  0.33014863359E+04 0.  0.
        1    1    3    3  502    0 -0.55421827052E+03 -0.14734611822E+04  0.24676983166E+01  0.15742464344E+04  0.50400001928E-02 0.  1.
       -1    1    3    3    0  502  0.55421827052E+03  0.14734611822E+04 -0.10387077756E+04  0.18860433690E+04  0.50400001928E-02 0. -1.
</event>
<event>
 5   0  0.6426079E-07  0.3305412E+04  0.7818609E-02  0.8161520E-01
       -2   -1    0    0    0  501  0.00000000000E+00  0.00000000000E+00  0.17327435266E+04  0.17327435266E+04  0.25500000920E-02 0. -1.
        2   -1    0    0  501    0  0.00000000000E+00  0.00000000000E+00 -0.15763656206E+04  0.15763656206E+04  0.25500000920E-02 0.  1.
    10030    2    1    2    0    0  0.00000000000E+00  0.00000000000E+00  0.15637790607E+03  0.33091091472E+04  0.33054121223E+04 0.  0.
        4    1    3    3  502    0 -0.36286650788E+03  0.74471940748E+03  0.15098781965E+04  0.17222116245E+04  0.12699999809E+01 0. -1.
       -4    1    3    3    0  502  0.36286650788E+03 -0.74471940748E+03 -0.13535002904E+04  0.15868975227E+04  0.12699999809E+01 0.  1.
</event>
<event>
 5   0  0.2087665E-07  0.3165239E+04  0.7818609E-02  0.8198058E-01
       -1   -1    0    0    0  501  0.00000000000E+00  0.00000000000E+00  0.13873019784E+04  0.13873019784E+04  0.50400001928E-02 0.  1.
        1   -1    0    0  501    0  0.00000000000E+00  0.00000000000E+00 -0.18054353336E+04  0.18054353336E+04  0.50400001928E-02 0. -1.
    10030    2    1    2    0    0  0.00000000000E+00  0.00000000000E+00 -0.41813335520E+03  0.31927373119E+04  0.31652387019E+04 0.  0.
        5    1    3    3  502    0  0.21778306026E+03 -0.12362828066E+04  0.76306823326E+03  0.14690540691E+04  0.46999998093E+01 0.  1.
       -5    1    3    3    0  502 -0.21778306026E+03  0.12362828066E+04 -0.11812015885E+04  0.17236832429E+04  0.46999998093E+01 0. -1.
</event>
<event>
 5   0  0.6258718E-07  0.3310536E+04  0.7818609E-02  0.8160220E-01
       -2   -1    0    0    0  501  0.00000000000E+00  0.00000000000E+00  0.14321993703E+04  0.14321993703E+04  0.25500000920E-02 0. -1.
        2   -1    0    0  501    0  0.00000000000E+00  0.00000000000E+00 -0.19130801054E+04  0.19130801054E+04  0.25500000920E-02 0.  1.
    10030    2    1    2    0    0  0.00000000000E+00  0.00000000000E+00 -0.48088073504E+03  0.33452794757E+04  0.33105359822E+04 0.  0.
        5    1    3    3  502    0 -0.97978084645E+03  0.16245545487E+03 -0.15785460501E+04  0.18649911539E+04  0.46999998093E+01 0.  1.
       -5    1    3    3    0  502  0.97978084645E+03 -0.16245545487E+03  0.10976653150E+04  0.14802883218E+04  0.46999998093E+01 0. -1.
</event>
<event>
 5   0  0.6377741E-07  0.3266160E+04  0.7818609E-02  0.8171560E-01
        2   -1    0    0  501    0  0.00000000000E+00  0.00000000000E+00  0.28153425993E+04  0.28153425993E+04  0.25500000920E-02 0. -1.
       -2   -1    0    0    0  501  0.00000000000E+00  0.00000000000E+00 -0.94729143867E+03  0.94729143868E+03  0.25500000920E-02 0.  1.
    10030    2    1    2    0    0  0.00000000000E+00  0.00000000000E+00  0.18680511606E+04  0.37626340380E+04  0.32661597887E+04 0.  0.
        1    1    3    3  502    0 -0.17687366294E+03 -0.14331890211E+04  0.55448695185E+02  0.14451261608E+04  0.50400001928E-02 0.  1.
       -1    1    3    3    0  502  0.17687366294E+03  0.14331890211E+04  0.18126024654E+04  0.23175078772E+04  0.50400001928E-02 0. -1.
</event>
<event>
 5   0  0.2037333E-07  0.3286569E+04  0.7818609E-02  0.8166321E-01
       -1   -1    0    0    0  501  0.00000000000E+00  0.00000000000E+00  0.12076042201E+04  0.12076042201E+04  0.50400001928E-02 0.  1.
        1   -1    0    0  501    0  0.00000000000E+00  0.00000000000E+00 -0.22361492550E+04  0.22361492550E+04  0.50400001928E-02 0. -1.
    10030    2    1    2    0    0  0.00000000000E+00  0.00000000000E+00 -0.10285450349E+04  0.34437534751E+04  0.32865685918E+04 0.  0.
        3    1    3    3  502    0  0.13507532656E+04  0.81916301307E+03 -0.98848876079E+03  0.18635107906E+04  0.10100000352E+00 0. -1.
       -3    1    3    3    0  502 -0.13507532656E+04 -0.81916301307E+03 -0.40056274127E+02  0.15802426844E+04  0.10100000352E+00 0.  1.
</event>
<event>
 5   0  0.2080770E-07  0.3293916E+04  0.7818609E-02  0.8164445E-01
        1   -1    0    0  501    0  0.00000000000E+00  0.00000000000E+00  0.11862825616E+04  0.11862825616E+04  0.50400001928E-02 0. -1.
       -1   -1    0    0    0  501  0.00000000000E+00  0.00000000000E+00 -0.22865303174E+04  0.22865303174E+04  0.50400001928E-02 0.  1.
    10030    2    1    2    0    0  0.00000000000E+00  0.00000000000E+00 -0.11002477558E+04  0.34728128791E+04  0.32939162359E+04 0.  0.
        4    1    3    3  502    0  0.65050183400E+03 -0.89206074789E+03 -0.18386045364E+04  0.21446196092E+04  0.12699999809E+01 0.  1.
       -4    1    3    3    0  502 -0.65050183400E+03  0.89206074789E+03  0.73835678056E+03  0.13281932699E+04  0.12699999809E+01 0. -1.
</event>
<event>
 5   0  0.2080770E-07  0.3185667E+04  0.7818609E-02  0.8192613E-01
       -1   -1    0    0    0  501  0.00000000000E+00  0.00000000000E+00  0.16418813468E+04  0.16418813468E+04  0.50400001928E-02 0. -1.
        1   -1    0    0  501    0  0.00000000000E+00  0.00000000000E+00 -0.15452507368E+04  0.15452507368E+04  0.50400001928E-02 0.  1.
    10030    2    1    2    0    0  0.00000000000E+00  0.00000000000E+00  0.96630610010E+02  0.31871320837E+04  0.31856668759E+04 0.  0.
        4    1    3    3  502    0 -0.40224344755E+03  0.77587530202E+03 -0.12839632297E+04  0.15531727089E+04  0.12699999809E+01 0.  1.
       -4    1    3    3    0  502  0.40224344755E+03 -0.77587530202E+03  0.13805938397E+04  0.16339593748E+04  0.12699999809E+01 0. -1.
</event>
<event>
 5   0  0.2080770E-07  0.3298194E+04  0.7818609E-02  0.8163355E-01
        1   -1    0    0  501    0  0.00000000000E+00  0.00000000000E+00  0.19893038223E+04  0.19893038223E+04  0.50400001928E-02 0. -1.
       -1   -1    0    0    0  501  0.00000000000E+00  0.00000000000E+00 -0.13670714632E+04  0.13670714632E+04  0.50400001928E-02 0.  1.
    10030    2    1    2    0    0  0.00000000000E+00  0.00000000000E+00  0.62223235906E+03  0.33563752855E+04  0.32981937403E+04 0.  0.
        4    1    3    3  502    0  0.16001346742E+03 -0.11088905401E+04 -0.92030288558E+03  0.14498970838E+04  0.12699999809E+01 0.  1.
       -4    1    3    3    0  502 -0.16001346742E+03  0.11088905401E+04  0.15425352446E+04  0.19064782017E+04  0.12699999809E+01 0. -1.
</event>
<event>
 5   0  0.2037333E-07  0.3298707E+04  0.7818609E-02  0.8163225E-01
       -1   -1    0    0    0  501  0.00000000000E+00  0.00000000000E+00  0.11199322557E+04  0.11199322557E+04  0.50400001928E-02 0. -1.
        1   -1    0    0  501    0  0.00000000000E+00  0.00000000000E+00 -0.24290453392E+04  0.24290453392E+04  0.50400001928E-02 0.  1.
    10030    2    1    2    0    0  0.00000000000E+00  0.00000000000E+00 -0.13091130835E+04  0.35489775949E+04  0.32987065501E+04 0.  0.
        3    1    3    3  502    0 -0.19630465577E+03  0.38060084783E+03 -0.23681885148E+04  0.24065970530E+04  0.10100000352E+00 0.  1.
       -3    1    3    3    0  502  0.19630465577E+03 -0.38060084783E+03  0.10590754313E+04  0.11423805420E+04  0.10100000352E+00 0. -1.
</event>
<event>
 5   0  0.6258718E-07  0.3309804E+04  0.7818609E-02  0.8160405E-01
        2   -1    0    0  501    0  0.00000000000E+00  0.00000000000E+00  0.18411384406E+04  0.18411384406E+04  0.25500000920E-02 0. -1.
       -2   -1    0    0    0  501  0.00000000000E+00  0.00000000000E+00 -0.14875038376E+04  0.14875038376E+04  0.25500000920E-02 0.  1.
    10030    2    1    2    0    0  0.00000000000E+00  0.00000000000E+00  0.35363460301E+03  0.33286422782E+04  0.33098039192E+04 0.  0.
        5    1    3    3  502    0  0.10920643240E+04 -0.36275699775E+03  0.13729062042E+04  0.17913934974E+04  0.46999998093E+01 0. -1.
       -5    1    3    3    0  502 -0.10920643240E+04  0.36275699775E+03 -0.10192716012E+04  0.15372487808E+04  0.46999998093E+01 0.  1.
</event>
<event>
 5   0  0.6424183E-07  0.3302656E+04  0.7818609E-02  0.8162220E-01
        2   -1    0    0  501    0  0.00000000000E+00  0.00000000000E+00  0.19868804494E+04  0.19868804494E+04  0.25500000920E-02 0.  1.
       -2   -1    0    0    0  501  0.00000000000E+00  0.00000000000E+00 -0.13724452684E+04  0.13724452684E+04  0.25500000920E-02 0. -1.
    10030    2    1    2    0    0  0.00000000000E+00  0.00000000000E+00  0.61443518094E+03  0.33593257178E+04  0.33026563077E+04 0.  0.
        2    1    3    3  502    0 -0.14081604055E+04 -0.47963990940E+03  0.10363966197E+04  0.18130328523E+04  0.25500000920E-02 0.  1.
       -2    1    3    3    0  502  0.14081604055E+04  0.47963990940E+03 -0.42196143877E+03  0.15462928655E+04  0.25500000920E-02 0. -1.
</event>
<event>
 5   0  0.2057130E-07  0.3287087E+04  0.7818609E-02  0.8166189E-01
        1   -1    0    0  501    0  0.00000000000E+00  0.00000000000E+00  0.18409125458E+04  0.18409125458E+04  0.50400001928E-02 0.  1.
       -1   -1    0    0    0  501  0.00000000000E+00  0.00000000000E+00 -0.14673350596E+04  0.14673350596E+04  0.50400001928E-02 0. -1.
    10030    2    1    2    0    0  0.00000000000E+00  0.00000000000E+00  0.37357748618E+03  0.33082476054E+04  0.32870871727E+04 0.  0.
        2    1    3    3  502    0  0.35832994160E+03  0.94772797345E+03 -0.11156233053E+04  0.15070514318E+04  0.25500000920E-02 0. -1.
       -2    1    3    3    0  502 -0.35832994160E+03 -0.94772797345E+03  0.14892007915E+04  0.18011961737E+04  0.25500000920E-02 0.  1.
</event>
<event>
 5   0  0.2080828E-07  0.3272968E+04  0.7818609E-02  0.8169808E-01
       -1   -1    0    0    0  501  0.00000000000E+00  0.00000000000E+00  0.19175472691E+04  0.19175472691E+04  0.50400001928E-02 0. -1.
        1   -1    0    0  501    0  0.00000000000E+00  0.00000000000E+00 -0.13966173330E+04  0.13966173330E+04  0.50400001928E-02 0.  1.
    10030    2    1    2    0    0  0.00000000000E+00  0.00000000000E+00  0.52092993603E+03  0.33141646021E+04  0.32729679210E+04 0.  0.
        1    1    3    3  502    0 -0.51190933703E+03 -0.15506628705E+04  0.15200350235E+03  0.16400340155E+04  0.50400001928E-02 0.  1.
       -1    1    3    3    0  502  0.51190933703E+03  0.15506628705E+04  0.36892643368E+03  0.16741305866E+04  0.50400001928E-02 0. -1.
</event>
<event>
 5   0  0.2037333E-07  0.3298880E+04  0.7818609E-02  0.8163181E-01
        1   -1    0    0  501    0  0.00000000000E+00  0.00000000000E+00  0.14184299800E+04  0.14184299800E+04  0.50400001928E-02 0.  1.
       -1   -1    0    0    0  501  0.00000000000E+00  0.00000000000E+00 -0.19180725564E+04  0.19180725564E+04  0.50400001928E-02 0. -1.
    10030    2    1    2    0    0  0.00000000000E+00  0.00000000000E+00 -0.49964257631E+03  0.33365025364E+04  0.32988795782E+04 0.  0.
        3    1    3    3  502    0 -0.14797242709E+04  0.51359954237E+03  0.27306930385E+03  0.15899481949E+04  0.10100000352E+00 0.  1.
       -3    1    3    3    0  502  0.14797242709E+04 -0.51359954237E+03 -0.77271188016E+03  0.17465543415E+04  0.10100000352E+00 0. -1.
</event>
<event>
 5   0  0.2080828E-07  0.3295471E+04  0.7818609E-02  0.8164049E-01
       -1   -1    0    0    0  501  0.00000000000E+00  0.00000000000E+00  0.26026937524E+04  0.26026937524E+04  0.50400001928E-02 0. -1.
        1   -1    0    0  501    0  0.00000000000E+00  0.00000000000E+00 -0.10431626854E+04  0.10431626855E+04  0.50400001928E-02 0.  1.
    10030    2    1    2    0    0  0.00000000000E+00  0.00000000000E+00  0.15595310669E+04  0.36458564378E+04  0.32954714407E+04 0.  0.
        1    1    3    3  502    0 -0.81456416171E+03  0.10363543154E+03 -0.80068128111E+03  0.11468851687E+04  0.50400001928E-02 0.  1.
       -1    1    3    3    0  502  0.81456416171E+03 -0.10363543154E+03  0.23602123480E+04  0.24989712692E+04  0.50400001928E-02 0. -1.
</event>
<event>
 5   0  0.2080770E-07  0.3284277E+04  0.7818609E-02  0.8166908E-01
       -1   -1    0    0    0  501  0.00000000000E+00  0.00000000000E+00  0.90008736636E+03  0.90008736637E+03  0.50400001928E-02 0.  1.
        1   -1    0    0  501    0  0.00000000000E+00  0.00000000000E+00 -0.29959528468E+04  0.29959528469E+04  0.50400001928E-02 0. -1.
    10030    2    1    2    0    0  0.00000000000E+00  0.00000000000E+00 -0.20958654805E+04  0.38960402132E+04  0.32842772768E+04 0.  0.
        4    1    3    3  502    0  0.45712231857E+02  0.16236695318E+04 -0.13341788708E+04  0.21020055254E+04  0.12699999809E+01 0. -1.
       -4    1    3    3    0  502 -0.45712231857E+02 -0.16236695318E+04 -0.76168660972E+03  0.17940346878E+04  0.12699999809E+01 0.  1.
</event>
<event>
 5   0  0.2080770E-07  0.3290243E+04  0.7818609E-02  0.8165382E-01
        1   -1    0    0  501    0  0.00000000000E+00  0.00000000000E+00  0.19991124557E+04  0.19991124557E+04  0.50400001928E-02 0.  1.
       -1   -1    0    0    0  501  0.00000000000E+00  0.00000000000E+00 -0.13538133679E+04  0.13538133679E+04  0.50400001928E-02 0. -1.
    10030    2    1    2    0    0  0.00000000000E+00  0.00000000000E+00  0.64529908781E+03  0.33529258237E+04  0.32902432534E+04 0.  0.
        4    1    3    3  502    0 -0.13685215933E+04 -0.88953990804E+03  0.11308409552E+03  0.16361302592E+04  0.12699999809E+01 0.  1.
       -4    1    3    3    0  502  0.13685215933E+04  0.88953990804E+03  0.53221499229E+03  0.17167955645E+04  0.12699999809E+01 0. -1.
</event>
<event>
 5   0  0.2037333E-07  0.3282887E+04  0.7818609E-02  0.8167263E-01
        1   -1    0    0  501    0  0.00000000000E+00  0.00000000000E+00  0.13192498677E+04  0.13192498677E+04  0.50400001928E-02 0. -1.
       -1   -1    0    0    0  501  0.00000000000E+00  0.00000000000E+00 -0.20423252570E+04  0.20423252570E+04  0.50400001928E-02 0.  1.
    10030    2    1    2    0    0  0.00000000000E+00  0.00000000000E+00 -0.72307538930E+03  0.33615751247E+04  0.32828873421E+04 0.  0.
        3    1    3    3  502    0  0.11599983348E+04 -0.11393461775E+04 -0.59194545033E+03  0.17303483104E+04  0.10100000352E+00 0.  1.
       -3    1    3    3    0  502 -0.11599983348E+04  0.11393461775E+04 -0.13112993897E+03  0.16312268144E+04  0.10100000352E+00 0. -1.
</event>
<event>
 5   0  0.6424183E-07  0.3301727E+04  0.7818609E-02  0.8162456E-01
        2   -1    0    0  501    0  0.00000000000E+00  0.00000000000E+00  0.19737930804E+04  0.19737930804E+04  0.25500000920E-02 0. -1.
       -2   -1    0    0    0  501  0.00000000000E+00  0.00000000000E+00 -0.13807681831E+04  0.13807681831E+04  0.25500000920E-02 0.  1.
    10030    2    1    2    0    0  0.00000000000E+00  0.00000000000E+00  0.59302489729E+03  0.33545612635E+04  0.33017272362E+04 0.  0.
        2    1    3    3  502    0 -0.92287609857E+03 -0.13302195204E+04 -0.31400377627E+02  0.16193116591E+04  0.25500000920E-02 0. -1.
       -2    1    3    3    0  502  0.92287609857E+03  0.13302195204E+04  0.62442527492E+03  0.17352496044E+04  0.25500000920E-02 0.  1.
</event>
<event>
 5   0  0.1994250E-07  0.3307290E+04  0.7818609E-02  0.8161043E-01
       -3   -1    0    0    0  501  0.00000000000E+00  0.00000000000E+00  0.16790327548E+04  0.16790327579E+04  0.10100000352E+00 0. -1.
        3   -1    0    0  501    0  0.00000000000E+00  0.00000000000E+00 -0.16286410916E+04  0.16286410947E+04  0.10100000352E+00 0.  1.
    10030    2    1    2    0    0  0.00000000000E+00  0.00000000000E+00  0.50391663251E+02  0.33076738526E+04  0.33072899775E+04 0.  0.
        4    1    3    3  502    0 -0.14475333203E+03  0.59578410960E+03  0.15611565942E+04  0.16772369412E+04  0.12699999809E+01 0. -1.
       -4    1    3    3    0  502  0.14475333203E+03 -0.59578410960E+03 -0.15107649310E+04  0.16304369114E+04  0.12699999809E+01 0.  1.
</event>
<event>
 5   0  0.6377741E-07  0.3305438E+04  0.7818609E-02  0.8161513E-01
       -2   -1    0    0    0  501  0.00000000000E+00  0.00000000000E+00  0.10358513222E+04  0.10358513222E+04  0.25500000920E-02 0.  1.
        2   -1    0    0  501    0  0.00000000000E+00  0.00000000000E+00 -0.26369418746E+04  0.26369418746E+04  0.25500000920E-02 0. -1.
    10030    2    1    2    0    0  0.00000000000E+00  0.00000000000E+00 -0.16010905524E+04  0.36727931968E+04  0.33054377788E+04 0.  0.
        1    1    3    3  502    0 -0.15862953008E+04 -0.42000290001E+03 -0.58183329440E+03  0.17410528998E+04  0.50400001928E-02 0. -1.
       -1    1    3    3    0  502  0.15862953008E+04  0.42000290001E+03 -0.10192572580E+04  0.19317402971E+04  0.50400001928E-02 0.  1.
</event>
<event>
 5   0  0.2037333E-07  0.3302655E+04  0.7818609E-02  0.8162220E-01
       -1   -1    0    0    0  501  0.00000000000E+00  0.00000000000E+00  0.11437225292E+04  0.11437225292E+04  0.50400001928E-02 0. -1.
        1   -1    0    0  501    0  0.00000000000E+00  0.00000000000E+00 -0.23842161390E+04  0.23842161390E+04  0.50400001928E-02 0.  1.
    10030    2    1    2    0    0  0.00000000000E+00  0.00000000000E+00 -0.12404936097E+04  0.35279386682E+04  0.33026545158E+04 0.  0.
        3    1    3    3  502    0 -0.12737347190E+04  0.24038717425E+03  0.47262211471E+03  0.13796948219E+04  0.10100000352E+00 0. -1.
       -3    1    3    3    0  502  0.12737347190E+04 -0.24038717425E+03 -0.17131157245E+04  0.21482438464E+04  0.10100000352E+00 0.  1.
</event>
<event>
 5   0  0.6377741E-07  0.3257377E+04  0.7818609E-02  0.8173826E-01
        2   -1    0    0  501    0  0.00000000000E+00  0.00000000000E+00  0.15918840856E+04  0.15918840856E+04  0.25500000920E-02 0. -1.
       -2   -1    0    0    0  501  0.00000000000E+00  0.00000000000E+00 -0.16663440860E+04  0.16663440860E+04  0.25500000920E-02 0.  1.
    10030    2    1    2    0    0  0.00000000000E+00  0.00000000000E+00 -0.74460000471E+02  0.32582281716E+04  0.32573772466E+04 0.  0.
        1    1    3    3  502    0  0.70100805093E+03 -0.93841132418E+03 -0.11691609522E+04  0.16549820038E+04  0.50400001928E-02 0.  1.
       -1    1    3    3    0  502 -0.70100805093E+03  0.93841132418E+03  0.10947009517E+04  0.16032461678E+04  0.50400001928E-02 0. -1.
</event>
<event>
 5   0  0.2080828E-07  0.3309896E+04  0.7818609E-02  0.8160382E-01
        1   -1    0    0  501    0  0.00000000000E+00  0.00000000000E+00  0.17653925847E+04  0.17653925847E+04  0.50400001928E-02 0. -1.
       -1   -1    0    0    0  501  0.00000000000E+00  0.00000000000E+00 -0.15514125017E+04  0.15514125017E+04  0.50400001928E-02 0.  1.
    10030    2    1    2    0    0  0.00000000000E+00  0.00000000000E+00  0.21398008302E+03  0.33168050865E+04  0.33098955430E+04 0.  0.
        1    1    3    3  502    0  0.70848065432E+03  0.81937097330E+03 -0.11468367295E+04  0.15775132689E+04  0.50400001928E-02 0.  1.
       -1    1    3    3    0  502 -0.70848065432E+03 -0.81937097330E+03  0.13608168125E+04  0.17392918176E+04  0.50400001928E-02 0. -1.
</event>
<event>
 5   0  0.6258718E-07  0.3279468E+04  0.7818609E-02  0.8168140E-01
       -2   -1    0    0    0  501  0.00000000000E+00  0.00000000000E+00  0.10838354947E+04  0.10838354947E+04  0.25500000920E-02 0. -1.
        2   -1    0    0  501    0  0.00000000000E+00  0.00000000000E+00 -0.24807517971E+04  0.24807517971E+04  0.25500000920E-02 0.  1.
    10030    2    1    2    0    0  0.00000000000E+00  0.00000000000E+00 -0.13969163024E+04  0.35645872919E+04  0.32794675491E+04 0.  0.
        5    1    3    3  502    0 -0.52616725555E+03 -0.14921303851E+04 -0.23044244978E+03  0.15988842609E+04  0.46999998093E+01 0. -1.
       -5    1    3    3    0  502  0.52616725555E+03  0.14921303851E+04 -0.11664738526E+04  0.19657030310E+04  0.46999998093E+01 0.  1.
</event>
<event>
 5   0  0.2057130E-07  0.3466984E+04  0.7818609E-02  0.8121659E-01
        1   -1    0    0  501    0  0.00000000000E+00  0.00000000000E+00  0.24081400254E+04  0.24081400254E+04  0.50400001928E-02 0.  1.
       -1   -1    0    0    0  501  0.00000000000E+00  0.00000000000E+00 -0.12478489951E+04  0.12478489951E+04  0.50400001928E-02 0. -1.
    10030    2    1    2    0    0  0.00000000000E+00  0.00000000000E+00  0.11602910303E+04  0.36559890205E+04  0.34669843443E+04 0.  0.
        2    1    3    3  502    0  0.99200584113E+03  0.61348545300E+03  0.19324585042E+04  0.22571743088E+04  0.25500000920E-02 0.  1.
       -2    1    3    3    0  502 -0.99200584113E+03 -0.61348545300E+03 -0.77216747393E+03  0.13988147117E+04  0.25500000920E-02 0. -1.
</event>
<event>
 5   0  0.6351753E-07  0.3293137E+04  0.7818609E-02  0.8164644E-01
        2   -1    0    0  501    0  0.00000000000E+00  0.00000000000E+00  0.22772395601E+04  0.22772395601E+04  0.25500000920E-02 0. -1.
       -2   -1    0    0    0  501  0.00000000000E+00  0.00000000000E+00 -0.11905592451E+04  0.11905592451E+04  0.25500000920E-02 0.  1.
    10030    2    1    2    0    0  0.00000000000E+00  0.00000000000E+00  0.10866803151E+04  0.34677988052E+04  0.32931374776E+04 0.  0.
        3    1    3    3  502    0 -0.61380999201E+03  0.11016782171E+04  0.16581344174E+04  0.20832348299E+04  0.10100000352E+00 0. -1.
       -3    1    3    3    0  502  0.61380999201E+03 -0.11016782171E+04 -0.57145410233E+03  0.13845639753E+04  0.10100000352E+00 0.  1.
</event>
<event>
 5   0  0.6424183E-07  0.3297545E+04  0.7818609E-02  0.8163520E-01
        2   -1    0    0  501    0  0.00000000000E+00  0.00000000000E+00  0.26155086185E+04  0.26155086185E+04  0.25500000920E-02 0.  1.
       -2   -1    0    0    0  501  0.00000000000E+00  0.00000000000E+00 -0.10393585987E+04  0.10393585987E+04  0.25500000920E-02 0. -1.
    10030    2    1    2    0    0  0.00000000000E+00  0.00000000000E+00  0.15761500198E+04  0.36548672172E+04  0.32975453736E+04 0.  0.
        2    1    3    3  502    0  0.86794902613E+03  0.11745600874E+04  0.16361872776E+04  0.21931793630E+04  0.25500000920E-02 0.  1.
       -2    1    3    3    0  502 -0.86794902613E+03 -0.11745600874E+04 -0.60037257829E+02  0.14616878543E+04  0.25500000920E-02 0. -1.
</event>
<event>
 5   0  0.2057130E-07  0.3289162E+04  0.7818609E-02  0.8165659E-01
       -1   -1    0    0    0  501  0.00000000000E+00  0.00000000000E+00  0.19565553284E+04  0.19565553285E+04  0.50400001928E-02 0. -1.
        1   -1    0    0  501    0  0.00000000000E+00  0.00000000000E+00 -0.13823514001E+04  0.13823514001E+04  0.50400001928E-02 0.  1.
    10030    2    1    2    0    0  0.00000000000E+00  0.00000000000E+00  0.57420392832E+03  0.33389067286E+04  0.32891622020E+04 0.  0.
        2    1    3    3  502    0 -0.56038193627E+02 -0.41576307064E+03  0.19013236116E+04  0.19470569293E+04  0.25500000920E-02 0. -1.
       -2    1    3    3    0  502  0.56038193627E+02  0.41576307064E+03 -0.13271196832E+04  0.13918497993E+04  0.25500000920E-02 0.  1.
</event>
<event>
 5   0  0.2057130E-07  0.3313249E+04  0.7818609E-02  0.8159532E-01
        1   -1    0    0  501    0  0.00000000000E+00  0.00000000000E+00  0.22107924395E+04  0.22107924395E+04  0.50400001928E-02 0. -1.
       -1   -1    0    0    0  501  0.00000000000E+00  0.00000000000E+00 -0.12413667950E+04  0.12413667950E+04  0.50400001928E-02 0.  1.
    10030    2    1    2    0    0  0.00000000000E+00  0.00000000000E+00  0.96942564452E+03  0.34521592344E+04  0.33132487531E+04 0.  0.
        2    1    3    3  502    0 -0.52759914609E+03  0.14245248026E+04 -0.20388309937E+03  0.15327100477E+04  0.25500000920E-02 0.  1.
       -2    1    3    3    0  502  0.52759914609E+03 -0.14245248026E+04  0.11733087439E+04  0.19194491868E+04  0.25500000920E-02 0. -1.
</event>
<event>
 5   0  0.6258718E-07  0.3330085E+04  0.7818609E-02  0.8155282E-01
       -2   -1    0    0    0  501  0.00000000000E+00  0.00000000000E+00  0.18316152436E+04  0.18316152436E+04  0.25500000920E-02 0.  1.
        2   -1    0    0  501    0  0.00000000000E+00  0.00000000000E+00 -0.15136186060E+04  0.15136186060E+04  0.25500000920E-02 0. -1.
    10030    2    1    2    0    0  0.00000000000E+00  0.00000000000E+00  0.31799663754E+03  0.33452338496E+04  0.33300852312E+04 0.  0.
        5    1    3    3  502    0 -0.55393105593E+03  0.13671819007E+04  0.93472799341E+03  0.17463574880E+04  0.46999998093E+01 0.  1.
       -5    1    3    3    0  502  0.55393105593E+03 -0.13671819007E+04 -0.61673135587E+03  0.15988763616E+04  0.46999998093E+01 0. -1.
</event>
<event>
 5   0  0.6351753E-07  0.3321947E+04  0.7818609E-02  0.8157333E-01
        2   -1    0    0  501    0  0.00000000000E+00  0.00000000000E+00  0.19616889067E+04  0.19616889067E+04  0.25500000920E-02 0. -1.
       -2   -1    0    0    0  501  0.00000000000E+00  0.00000000000E+00 -0.14063562131E+04  0.14063562131E+04  0.25500000920E-02 0.  1.
    10030    2    1    2    0    0  0.00000000000E+00  0.00000000000E+00  0.55533269354E+03  0.33680451198E+04  0.33219472495E+04 0.  0.
        3    1    3    3  502    0 -0.12854880700E+04 -0.90557908679E+03 -0.26481012851E+03  0.15945775224E+04  0.10100000352E+00 0. -1.
       -3    1    3    3    0  502  0.12854880700E+04  0.90557908679E+03  0.82014282205E+03  0.17734675975E+04  0.10100000352E+00 0.  1.
</event>
<event>
 5   0  0.6377741E-07  0.3314613E+04  0.7818609E-02  0.8159187E-01
       -2   -1    0    0    0  501  0.00000000000E+00  0.00000000000E+00  0.12872210242E+04  0.12872210242E+04  0.25500000920E-02 0. -1.
        2   -1    0    0  501    0  0.00000000000E+00  0.00000000000E+00 -0.21337942515E+04  0.21337942515E+04  0.25500000920E-02 0.  1.
    10030    2    1    2    0    0  0.00000000000E+00  0.00000000000E+00 -0.84657322728E+03  0.34210152757E+04  0.33146129921E+04 0.  0.
        1    1    3    3  502    0 -0.61118736573E+03  0.13392965864E+04  0.36233104273E+03  0.15160966747E+04  0.50400001928E-02 0. -1.
       -1    1    3    3    0  502  0.61118736573E+03 -0.13392965864E+04 -0.12089042700E+04  0.19049186010E+04  0.50400001928E-02 0.  1.
</event>
<event>
 5   0  0.2087665E-07  0.3312577E+04  0.7818609E-02  0.8159702E-01
        1   -1    0    0  501    0  0.00000000000E+00  0.00000000000E+00  0.13908261170E+04  0.13908261170E+04  0.50400001928E-02 0. -1.
       -1   -1    0    0    0  501  0.00000000000E+00  0.00000000000E+00 -0.19724192504E+04  0.19724192504E+04  0.50400001928E-02 0.  1.
    10030    2    1    2    0    0  0.00000000000E+00  0.00000000000E+00 -0.58159313340E+03  0.33632453673E+04  0.33125773694E+04 0.  0.
        5    1    3    3  502    0  0.12368482205E+04  0.93020053963E+02 -0.14052304373E+04  0.18743374624E+04  0.46999998093E+01 0.  1.
       -5    1    3    3    0  502 -0.12368482205E+04 -0.93020053963E+02  0.82363730389E+03  0.14889079049E+04  0.46999998093E+01 0. -1.
</event>
<event>
 5   0  0.2080828E-07  0.3274761E+04  0.7818609E-02  0.8169347E-01
        1   -1    0    0  501    0  0.00000000000E+00  0.00000000000E+00  0.28256432297E+04  0.28256432297E+04  0.50400001928E-02 0.  1.
       -1   -1    0    0    0  501  0.00000000000E+00  0.00000000000E+00 -0.94881595485E+03  0.94881595486E+03  0.50400001928E-02 0. -1.
    10030    2    1    2    0    0  0.00000000000E+00  0.00000000000E+00  0.18768272748E+04  0.37744591845E+04  0.32747612915E+04 0.  0.
        1    1    3    3  502    0  0.67993701674E+02  0.17984907905E+03  0.28125864482E+04  0.28191508231E+04  0.50400001928E-02 0.  1.
       -1    1    3    3    0  502 -0.67993701674E+02 -0.17984907905E+03 -0.93575917342E+03  0.95530836141E+03  0.50400001928E-02 0. -1.
</event>
<event>
 5   0  0.6424183E-07  0.3292127E+04  0.7818609E-02  0.8164902E-01
        2   -1    0    0  501    0  0.00000000000E+00  0.00000000000E+00  0.20661653830E+04  0.20661653830E+04  0.25500000920E-02 0. -1.
       -2   -1    0    0    0  501  0.00000000000E+00  0.00000000000E+00 -0.13113786337E+04  0.13113786337E+04  0.25500000920E-02 0.  1.
    10030    2    1    2    0    0  0.00000000000E+00  0.00000000000E+00  0.75478674933E+03  0.33775440167E+04  0.32921270553E+04 0.  0.
        2    1    3    3  502    0  0.92736740288E+03  0.40202118738E+03 -0.95550484802E+03  0.13909064849E+04  0.25500000920E-02 0.  1.
       -2    1    3    3    0  502 -0.92736740288E+03 -0.40202118738E+03  0.17102915973E+04  0.19866375319E+04  0.25500000920E-02 0. -1.
</event>
<event>
 5   0  0.2057130E-07  0.3277096E+04  0.7818609E-02  0.8168748E-01
       -1   -1    0    0    0  501  0.00000000000E+00  0.00000000000E+00  0.11638419308E+04  0.11638419308E+04  0.50400001928E-02 0. -1.
        1   -1    0    0  501    0  0.00000000000E+00  0.00000000000E+00 -0.23068771119E+04  0.23068771119E+04  0.50400001928E-02 0.  1.
    10030    2    1    2    0    0  0.00000000000E+00  0.00000000000E+00 -0.11430351811E+04  0.34707190427E+04  0.32770964661E+04 0.  0.
        2    1    3    3  502    0 -0.28540389763E+03 -0.94382709950E+03  0.81445638383E+03  0.12789074164E+04  0.25500000920E-02 0. -1.
       -2    1    3    3    0  502  0.28540389763E+03  0.94382709950E+03 -0.19574915650E+04  0.21918116264E+04  0.25500000920E-02 0.  1.
</event>
<event>
 5   0  0.6351753E-07  0.3308895E+04  0.7818609E-02  0.8160636E-01
       -2   -1    0    0    0  501  0.00000000000E+00  0.00000000000E+00  0.10062440425E+04  0.10062440425E+04  0.25500000920E-02 0.  1.
        2   -1    0    0  501    0  0.00000000000E+00  0.00000000000E+00 -0.27202120472E+04  0.27202120472E+04  0.25500000920E-02 0. -1.
    10030    2    1    2    0    0  0.00000000000E+00  0.00000000000E+00 -0.17139680046E+04  0.37264560897E+04  0.33088953848E+04 0.  0.
        3    1    3    3  502    0 -0.16248199205E+03  0.45878757141E+03 -0.26377627470E+04  0.26822898339E+04  0.10100000352E+00 0. -1.
       -3    1    3    3    0  502  0.16248199205E+03 -0.45878757141E+03  0.92379474237E+03  0.10441662558E+04  0.10100000352E+00 0.  1.
</event>
<event>
 5   0  0.6258718E-07  0.3293660E+04  0.7818609E-02  0.8164511E-01
       -2   -1    0    0    0  501  0.00000000000E+00  0.00000000000E+00  0.18316917002E+04  0.18316917002E+04  0.25500000920E-02 0. -1.
        2   -1    0    0  501    0  0.00000000000E+00  0.00000000000E+00 -0.14806250270E+04  0.14806250270E+04  0.25500000920E-02 0.  1.
    10030    2    1    2    0    0  0.00000000000E+00  0.00000000000E+00  0.35106667314E+03  0.33123167272E+04  0.32936597111E+04 0.  0.
        5    1    3    3  502    0  0.11962050712E+04 -0.11315394177E+04  0.20286183457E+03  0.16590548635E+04  0.46999998093E+01 0.  1.
       -5    1    3    3    0  502 -0.11962050712E+04  0.11315394177E+04  0.14820483856E+03  0.16532618638E+04  0.46999998093E+01 0. -1.
</event>
<event>
 5   0  0.2087665E-07  0.3302939E+04  0.7818609E-02  0.8162148E-01
        1   -1    0    0  501    0  0.00000000000E+00  0.00000000000E+00  0.28237825900E+04  0.28237825900E+04  0.50400001928E-02 0. -1.
       -1   -1    0    0    0  501  0.00000000000E+00  0.00000000000E+00 -0.96585051830E+03  0.96585051831E+03  0.50400001928E-02 0.  1.
    10030    2    1    2    0    0  0.00000000000E+00  0.00000000000E+00  0.18579320717E+04  0.37896331083E+04  0.33029392233E+04 0.  0.
        5    1    3    3  502    0 -0.13679535118E+04 -0.71597647980E+03  0.16013285128E+04  0.22244536916E+04  0.46999998093E+01 0. -1.
       -5    1    3    3    0  502  0.13679535118E+04  0.71597647980E+03  0.25660355895E+03  0.15651794168E+04  0.46999998093E+01 0.  1.
</event>
<event>
 5   0  0.2087665E-07  0.3312438E+04  0.7818609E-02  0.8159738E-01
        1   -1    0    0  501    0  0.00000000000E+00  0.00000000000E+00  0.17991623264E+04  0.17991623264E+04  0.50400001928E-02 0.  1.
       -1   -1    0    0    0  501  0.00000000000E+00  0.00000000000E+00 -0.15246328062E+04  0.15246328062E+04  0.50400001928E-02 0. -1.
    10030    2    1    2    0    0  0.00000000000E+00  0.00000000000E+00  0.27452952025E+03  0.33237951326E+04  0.33124383204E+04 0.  0.
        5    1    3    3  502    0 -0.43790927750E+03 -0.31944821847E+03 -0.14331018971E+04  0.15321928198E+04  0.46999998093E+01 0. -1.
       -5    1    3    3    0  502  0.43790927750E+03  0.31944821847E+03  0.17076314174E+04  0.17916023128E+04  0.46999998093E+01 0.  1.
</event>
<event>
 5   0  0.6377741E-07  0.3301429E+04  0.7818609E-02  0.8162532E-01
        2   -1    0    0  501    0  0.00000000000E+00  0.00000000000E+00  0.14669881048E+04  0.14669881048E+04  0.25500000920E-02 0. -1.
       -2   -1    0    0    0  501  0.00000000000E+00  0.00000000000E+00 -0.18574509395E+04  0.18574509395E+04  0.25500000920E-02 0.  1.
    10030    2    1    2    0    0  0.00000000000E+00  0.00000000000E+00 -0.39046283469E+03  0.33244390442E+04  0.33014290441E+04 0.  0.
        1    1    3    3  502    0  0.14069761745E+04  0.20030734607E+03 -0.10408182715E+04  0.17615355979E+04  0.50400001928E-02 0.  1.
       -1    1    3    3    0  502 -0.14069761745E+04 -0.20030734607E+03  0.65035543679E+03  0.15629034463E+04  0.50400001928E-02 0. -1.
</event>
<event>
 5   0  0.6426079E-07  0.3281990E+04  0.7818609E-02  0.8167493E-01
        2   -1    0    0  501    0  0.00000000000E+00  0.00000000000E+00  0.17069903547E+04  0.17069903547E+04  0.25500000920E-02 0. -1.
       -2   -1    0    0    0  501  0.00000000000E+00  0.00000000000E+00 -0.15775513999E+04  0.15775513999E+04  0.25500000920E-02 0.  1.
    10030    2    1    2    0    0  0.00000000000E+00  0.00000000000E+00  0.12943895488E+03  0.32845417546E+04  0.32819902642E+04 0.  0.
        4    1    3    3  502    0 -0.54179704441E+03  0.15068253473E+04  0.42388111615E+03  0.16564249087E+04  0.12699999809E+01 0. -1.
       -4    1    3    3    0  502  0.54179704441E+03 -0.15068253473E+04 -0.29444216127E+03  0.16281168459E+04  0.12699999809E+01 0.  1.
</event>
<event>
 5   0  0.2057130E-07  0.3215435E+04  0.7818609E-02  0.8184753E-01
       -1   -1    0    0    0  501  0.00000000000E+00  0.00000000000E+00  0.21734362012E+04  0.21734362012E+04  0.50400001928E-02 0. -1.
        1   -1    0    0  501    0  0.00000000000E+00  0.00000000000E+00 -0.11892487378E+04  0.11892487378E+04  0.50400001928E-02 0.  1.
    10030    2    1    2    0    0  0.00000000000E+00  0.00000000000E+00  0.98418746338E+03  0.33626849390E+04  0.32154354349E+04 0.  0.
        2    1    3    3  502    0 -0.92552529406E+03 -0.80293675408E+03  0.15806507309E+04  0.19999403076E+04  0.25500000920E-02 0. -1.
       -2    1    3    3    0  502  0.92552529406E+03  0.80293675408E+03 -0.59646326749E+03  0.13627446314E+04  0.25500000920E-02 0.  1.
</event>
<event>
 5   0  0.2080770E-07  0.3300390E+04  0.7818609E-02  0.8162796E-01
       -1   -1    0    0    0  501  0.00000000000E+00  0.00000000000E+00  0.20794488189E+04  0.20794488190E+04  0.50400001928E-02 0. -1.
        1   -1    0    0  501    0  0.00000000000E+00  0.00000000000E+00 -0.13095505478E+04  0.13095505478E+04  0.50400001928E-02 0.  1.
    10030    2    1    2    0    0  0.00000000000E+00  0.00000000000E+00  0.76989827119E+03  0.33889993667E+04  0.33003898799E+04 0.  0.
        4    1    3    3  502    0  0.12829635240E+04  0.26920045976E+03 -0.64429775845E+03  0.14606798095E+04  0.12699999809E+01 0.  1.
       -4    1    3    3    0  502 -0.12829635240E+04 -0.26920045976E+03  0.14141960296E+04  0.19283195572E+04  0.12699999809E+01 0. -1.
</event>
<event>
 5   0  0.6258718E-07  0.3309612E+04  0.7818609E-02  0.8160454E-01
        2   -1    0    0  501    0  0.00000000000E+00  0.00000000000E+00  0.20753214874E+04  0.20753214874E+04  0.25500000920E-02 0. -1.
       -2   -1    0    0    0  501  0.00000000000E+00  0.00000000000E+00 -0.13194978981E+04  0.13194978981E+04  0.25500000920E-02 0.  1.
    10030    2    1    2    0    0  0.00000000000E+00  0.00000000000E+00  0.75582358927E+03  0.33948193855E+04  0.33096116634E+04 0.  0.
        5    1    3    3  502    0  0.96194904709E+02  0.41969703796E+03  0.20168468376E+04  0.20623026741E+04  0.46999998093E+01 0. -1.
       -5    1    3    3    0  502 -0.96194904709E+02 -0.41969703796E+03 -0.12610232483E+04  0.13325167114E+04  0.46999998093E+01 0.  1.
</event>
<event>
 5   0  0.2080828E-07  0.3297594E+04  0.7818609E-02  0.8163508E-01
        1   -1    0    0  501    0  0.00000000000E+00  0.00000000000E+00  0.16258102574E+04  0.16258102574E+04  0.50400001928E-02 0. -1.
       -1   -1    0    0    0  501  0.00000000000E+00  0.00000000000E+00 -0.16721091530E+04  0.16721091530E+04  0.50400001928E-02 0.  1.
    10030    2    1    2    0    0  0.00000000000E+00  0.00000000000E+00 -0.46298895588E+02  0.32979194104E+04  0.32975944034E+04 0.  0.
        1    1    3    3  502    0 -0.17083049058E+03  0.13492220434E+04  0.90911678407E+03  0.16358717878E+04  0.50400001928E-02 0. -1.
       -1    1    3    3    0  502  0.17083049058E+03 -0.13492220434E+04 -0.95541567966E+03  0.16620476226E+04  0.50400001928E-02 0.  1.
</event>
<event>
 5   0  0.6258718E-07  0.3303212E+04  0.7818609E-02  0.8162079E-01
       -2   -1    0    0    0  501  0.00000000000E+00  0.00000000000E+00  0.13794298188E+04  0.13794298188E+04  0.25500000920E-02 0.  1.
        2   -1    0    0  501    0  0.00000000000E+00  0.00000000000E+00 -0.19774856235E+04  0.19774856235E+04  0.25500000920E-02 0. -1.
    10030    2    1    2    0    0  0.00000000000E+00  0.00000000000E+00 -0.59805580469E+03  0.33569154423E+04  0.33032121551E+04 0.  0.
        5    1    3    3  502    0 -0.23118427955E+03  0.85684132071E+03  0.11165129509E+04  0.14262701285E+04  0.46999998093E+01 0.  1.
       -5    1    3    3    0  502  0.23118427955E+03 -0.85684132071E+03 -0.17145687556E+04  0.19306453138E+04  0.46999998093E+01 0. -1.
</event>
<event>
 5   0  0.2057130E-07  0.3298780E+04  0.7818609E-02  0.8163206E-01
       -1   -1    0    0    0  501  0.00000000000E+00  0.00000000000E+00  0.23432523862E+04  0.23432523862E+04  0.50400001928E-02 0.  1.
        1   -1    0    0  501    0  0.00000000000E+00  0.00000000000E+00 -0.11609874738E+04  0.11609874738E+04  0.50400001928E-02 0. -1.
    10030    2    1    2    0    0  0.00000000000E+00  0.00000000000E+00  0.11822649123E+04  0.35042398600E+04  0.32987795734E+04 0.  0.
        2    1    3    3  502    0  0.57621697726E+03 -0.96479794559E+03  0.18736506076E+04  0.21848175393E+04  0.25500000920E-02 0.  1.
       -2    1    3    3    0  502 -0.57621697726E+03  0.96479794559E+03 -0.69138569529E+03  0.13194223207E+04  0.25500000920E-02 0. -1.
</event>
<event>
 5   0  0.6377741E-07  0.3272731E+04  0.7818609E-02  0.8169869E-01
        2   -1    0    0  501    0  0.00000000000E+00  0.00000000000E+00  0.17680054463E+04  0.17680054463E+04  0.25500000920E-02 0.  1.
       -2   -1    0    0    0  501  0.00000000000E+00  0.00000000000E+00 -0.15145272025E+04  0.15145272025E+04  0.25500000920E-02 0. -1.
    10030    2    1    2    0    0  0.00000000000E+00  0.00000000000E+00  0.25347824380E+03  0.32825326488E+04  0.32727311791E+04 0.  0.
        1    1    3    3  502    0 -0.10098686022E+04  0.12298419266E+04  0.50912437544E+03  0.16707942386E+04  0.50400001928E-02 0.  1.
       -1    1    3    3    0  502  0.10098686022E+04 -0.12298419266E+04 -0.25564613164E+03  0.16117384102E+04  0.50400001928E-02 0. -1.
</event>
<event>
 5   0  0.6424183E-07  0.3309695E+04  0.7818609E-02  0.8160433E-01
        2   -1    0    0  501    0  0.00000000000E+00  0.00000000000E+00  0.14751328837E+04  0.14751328837E+04  0.25500000920E-02 0.  1.
       -2   -1    0    0    0  501  0.00000000000E+00  0.00000000000E+00 -0.18564565997E+04  0.18564565997E+04  0.25500000920E-02 0. -1.
    10030    2    1    2    0    0  0.00000000000E+00  0.00000000000E+00 -0.38132371596E+03  0.33315894834E+04  0.33096949572E+04 0.  0.
        2    1    3    3  502    0 -0.16022749748E+04 -0.40191155162E+03 -0.91510573930E+02  0.16544461838E+04  0.25500000920E-02 0.  1.
       -2    1    3    3    0  502  0.16022749748E+04  0.40191155162E+03 -0.28981314202E+03  0.16771432996E+04  0.25500000920E-02 0. -1.
</event>
<event>
 5   0  0.2080770E-07  0.3281330E+04  0.7818609E-02  0.8167662E-01
       -1   -1    0    0    0  501  0.00000000000E+00  0.00000000000E+00  0.13477652984E+04  0.13477652984E+04  0.50400001928E-02 0.  1.
        1   -1    0    0  501    0  0.00000000000E+00  0.00000000000E+00 -0.19972187389E+04  0.19972187389E+04  0.50400001928E-02 0. -1.
    10030    2    1    2    0    0  0.00000000000E+00  0.00000000000E+00 -0.64945344055E+03  0.33449840373E+04  0.32813302848E+04 0.  0.
        4    1    3    3  502    0 -0.92703789496E+03 -0.11325216606E+04 -0.10805790608E+04  0.18192463522E+04  0.12699999809E+01 0. -1.
       -4    1    3    3    0  502  0.92703789496E+03  0.11325216606E+04  0.43112562028E+03  0.15257376851E+04  0.12699999809E+01 0.  1.
</event>
<event>
 5   0  0.6426079E-07  0.3295033E+04  0.7818609E-02  0.8164160E-01
       -2   -1    0    0    0  501  0.00000000000E+00  0.00000000000E+00  0.15683558220E+04  0.15683558220E+04  0.25500000920E-02 0.  1.
        2   -1    0    0  501    0  0.00000000000E+00  0.00000000000E+00 -0.17306730923E+04  0.17306730923E+04  0.25500000920E-02 0. -1.
    10030    2    1    2    0    0  0.00000000000E+00  0.00000000000E+00 -0.16231727036E+03  0.32990289143E+04  0.32950333657E+04 0.  0.
        4    1    3    3  502    0 -0.50987612129E+03 -0.61376834514E+03 -0.15243031412E+04  0.17205193750E+04  0.12699999809E+01 0. -1.
       -4    1    3    3    0  502  0.50987612129E+03  0.61376834514E+03  0.13619858708E+04  0.15785095393E+04  0.12699999809E+01 0.  1.
</event>
<event>
 5   0  0.6258718E-07  0.3282237E+04  0.7818609E-02  0.8167430E-01
        2   -1    0    0  501    0  0.00000000000E+00  0.00000000000E+00  0.12376910315E+04  0.12376910315E+04  0.25500000920E-02 0.  1.
       -2   -1    0    0    0  501  0.00000000000E+00  0.00000000000E+00 -0.21760440839E+04  0.21760440839E+04  0.25500000920E-02 0. -1.
    10030    2    1    2    0    0  0.00000000000E+00  0.00000000000E+00 -0.93835305244E+03  0.34137351155E+04  0.32822371924E+04 0.  0.
        5    1    3    3  502    0 -0.48650779057E+03  0.91142276573E+03 -0.17953561407E+04  0.20714021942E+04  0.46999998093E+01 0. -1.
       -5    1    3    3    0  502  0.48650779057E+03 -0.91142276573E+03  0.85700308827E+03  0.13423329213E+04  0.46999998093E+01 0.  1.
</event>
<event>
 5   0  0.2080828E-07  0.3315158E+04  0.7818609E-02  0.8159049E-01
        1   -1    0    0  501    0  0.00000000000E+00  0.00000000000E+00  0.23047817751E+04  0.23047817751E+04  0.50400001928E-02 0. -1.
       -1   -1    0    0    0  501  0.00000000000E+00  0.00000000000E+00 -0.11921163450E+04  0.11921163451E+04  0.50400001928E-02 0.  1.
    10030    2    1    2    0    0  0.00000000000E+00  0.00000000000E+00  0.11126654301E+04  0.34968981202E+04  0.33151579304E+04 0.  0.
        1    1    3    3  502    0  0.12642831419E+04 -0.75304548455E+03 -0.24843324124E+03  0.14923834762E+04  0.50400001928E-02 0.  1.
       -1    1    3    3    0  502 -0.12642831419E+04  0.75304548455E+03  0.13610986713E+04  0.20045146440E+04  0.50400001928E-02 0. -1.
</event>
<event>
 5   0  0.6426079E-07  0.3313111E+04  0.7818609E-02  0.8159567E-01
       -2   -1    0    0    0  501  0.00000000000E+00  0.00000000000E+00  0.14249340040E+04  0.14249340040E+04  0.25500000920E-02 0. -1.
        2   -1    0    0  501    0  0.00000000000E+00  0.00000000000E+00 -0.19258271657E+04  0.19258271657E+04  0.25500000920E-02 0.  1.
    10030    2    1    2    0    0  0.00000000000E+00  0.00000000000E+00 -0.50089316171E+03  0.33507611697E+04  0.33131112956E+04 0.  0.
        4    1    3    3  502    0  0.89153049433E+03 -0.30628449871E+03  0.11272145228E+04  0.14694390119E+04  0.12699999809E+01 0. -1.
       -4    1    3    3    0  502 -0.89153049433E+03  0.30628449871E+03 -0.16281076845E+04  0.18813221578E+04  0.12699999809E+01 0.  1.
</event>
<event>
 5   0  0.2037333E-07  0.3307061E+04  0.7818609E-02  0.8161101E-01
       -1   -1    0    0    0  501  0.00000000000E+00  0.00000000000E+00  0.13603694620E+04  0.13603694620E+04  0.50400001928E-02 0. -1.
        1   -1    0    0  501    0  0.00000000000E+00  0.00000000000E+00 -0.20098681531E+04  0.20098681531E+04  0.50400001928E-02 0.  1.
    10030    2    1    2    0    0  0.00000000000E+00  0.00000000000E+00 -0.64949869113E+03  0.33702376152E+04  0.33070610870E+04 0.  0.
        3    1    3    3  502    0 -0.13645284298E+04  0.83826167671E+03  0.94872361517E+02  0.16042509933E+04  0.10100000352E+00 0. -1.
       -3    1    3    3    0  502  0.13645284298E+04 -0.83826167671E+03 -0.74437105265E+03  0.17659866219E+04  0.10100000352E+00 0.  1.
</event>
<event>
 5   0  0.2057130E-07  0.3290956E+04  0.7818609E-02  0.8165200E-01
        1   -1    0    0  501    0  0.00000000000E+00  0.00000000000E+00  0.20468920404E+04  0.20468920404E+04  0.50400001928E-02 0.  1.
       -1   -1    0    0    0  501  0.00000000000E+00  0.00000000000E+00 -0.13227849579E+04  0.13227849579E+04  0.50400001928E-02 0. -1.
    10030    2    1    2    0    0  0.00000000000E+00  0.00000000000E+00  0.72410708246E+03  0.33696769983E+04  0.32909560930E+04 0.  0.
        2    1    3    3  502    0 -0.18562039831E+03 -0.40064219885E+03 -0.12609907089E+04  0.13360638726E+04  0.25500000920E-02 0. -1.
       -2    1    3    3    0  502  0.18562039831E+03  0.40064219885E+03  0.19850977913E+04  0.20336131257E+04  0.25500000920E-02 0.  1.
</event>
<event>
 5   0  0.2057130E-07  0.3285672E+04  0.7818609E-02  0.8166551E-01
       -1   -1    0    0    0  501  0.00000000000E+00  0.00000000000E+00  0.12974381522E+04  0.12974381522E+04  0.50400001928E-02 0. -1.
        1   -1    0    0  501    0  0.00000000000E+00  0.00000000000E+00 -0.20801834376E+04  0.20801834376E+04  0.50400001928E-02 0.  1.
    10030    2    1    2    0    0  0.00000000000E+00  0.00000000000E+00 -0.78274528544E+03  0.33776215899E+04  0.32856715329E+04 0.  0.
        2    1    3    3  502    0  0.75531756051E+03 -0.32733036686E+03 -0.18528695190E+04  0.20275046833E+04  0.25500000920E-02 0.  1.
       -2    1    3    3    0  502 -0.75531756051E+03  0.32733036686E+03  0.10701242335E+04  0.13501169066E+04  0.25500000920E-02 0. -1.
</event>
<event>
 5   0  0.2037333E-07  0.3302299E+04  0.7818609E-02  0.8162311E-01
       -1   -1    0    0    0  501  0.00000000000E+00  0.00000000000E+00  0.16390136104E+04  0.16390136104E+04  0.50400001928E-02 0.  1.
        1   -1    0    0  501    0  0.00000000000E+00  0.00000000000E+00 -0.16633748767E+04  0.16633748767E+04  0.50400001928E-02 0. -1.
    10030    2    1    2    0    0  0.00000000000E+00  0.00000000000E+00 -0.24361266223E+02  0.33023884871E+04  0.33022986310E+04 0.  0.
        3    1    3    3  502    0  0.96147630138E+03 -0.33046281071E+03  0.12888742545E+04  0.16415965404E+04  0.10100000352E+00 0.  1.
       -3    1    3    3    0  502 -0.96147630138E+03  0.33046281071E+03 -0.13132355207E+04  0.16607919467E+04  0.10100000352E+00 0. -1.
</event>
<event>
 5   0  0.2087665E-07  0.3305167E+04  0.7818609E-02  0.8161582E-01
        1   -1    0    0  501    0  0.00000000000E+00  0.00000000000E+00  0.20260127248E+04  0.20260127248E+04  0.50400001928E-02 0.  1.
       -1   -1    0    0    0  501  0.00000000000E+00  0.00000000000E+00 -0.13479836108E+04  0.13479836108E+04  0.50400001928E-02 0. -1.
    10030    2    1    2    0    0  0.00000000000E+00  0.00000000000E+00  0.67802911399E+03  0.33739963357E+04  0.33051668330E+04 0.  0.
        5    1    3    3  502    0  0.11481566688E+02  0.92006118733E+03  0.17403231535E+04  0.19686013267E+04  0.46999998093E+01 0.  1.
       -5    1    3    3    0  502 -0.11481566688E+02 -0.92006118733E+03 -0.10622940395E+04  0.14053950090E+04  0.46999998093E+01 0. -1.
</event>
<event>
 5   0  0.2057130E-07  0.3291410E+04  0.7818609E-02  0.8165084E-01
       -1   -1    0    0    0  501  0.00000000000E+00  0.00000000000E+00  0.21488310606E+04  0.21488310606E+04  0.50400001928E-02 0. -1.
        1   -1    0    0  501    0  0.00000000000E+00  0.00000000000E+00 -0.12603809088E+04  0.12603809088E+04  0.50400001928E-02 0.  1.
    10030    2    1    2    0    0  0.00000000000E+00  0.00000000000E+00  0.88845015176E+03  0.34092119694E+04  0.32914104242E+04 0.  0.
        2    1    3    3  502    0  0.11501748906E+04  0.11479687974E+04  0.17489759785E+03  0.16344184925E+04  0.25500000920E-02 0.  1.
       -2    1    3    3    0  502 -0.11501748906E+04 -0.11479687974E+04  0.71355255390E+03  0.17747934770E+04  0.25500000920E-02 0. -1.
</event>
<event>
 5   0  0.6426079E-07  0.3311573E+04  0.7818609E-02  0.8159957E-01
       -2   -1    0    0    0  501  0.00000000000E+00  0.00000000000E+00  0.14600478727E+04  0.14600478727E+04  0.25500000920E-02 0.  1.
        2   -1    0    0  501    0  0.00000000000E+00  0.00000000000E+00 -0.18777661733E+04  0.18777661733E+04  0.25500000920E-02 0. -1.
    10030    2    1    2    0    0  0.00000000000E+00  0.00000000000E+00 -0.41771830061E+03  0.33378140460E+04  0.33115727423E+04 0.  0.
        4    1    3    3  502    0  0.15088883201E+03 -0.15005649143E+04  0.48005119285E+03  0.15826917774E+04  0.12699999809E+01 0. -1.
       -4    1    3    3    0  502 -0.15088883201E+03  0.15005649143E+04 -0.89776949347E+03  0.17551222686E+04  0.12699999809E+01 0.  1.
</event>
<event>
 5   0  0.6426079E-07  0.3292980E+04  0.7818609E-02  0.8164684E-01
       -2   -1    0    0    0  501  0.00000000000E+00  0.00000000000E+00  0.19229448413E+04  0.19229448413E+04  0.25500000920E-02 0.  1.
        2   -1    0    0  501    0  0.00000000000E+00  0.00000000000E+00 -0.14097803782E+04  0.14097803782E+04  0.25500000920E-02 0. -1.
    10030    2    1    2    0    0  0.00000000000E+00  0.00000000000E+00  0.51316446313E+03  0.33327252195E+04  0.32929803556E+04 0.  0.
        4    1    3    3  502    0  0.12464034326E+04  0.87260955721E+03  0.89343004483E+03  0.17644227991E+04  0.12699999809E+01 0.  1.
       -4    1    3    3    0  502 -0.12464034326E+04 -0.87260955721E+03 -0.38026558169E+03  0.15683024203E+04  0.12699999809E+01 0. -1.
</event>
<event>
 5   0  0.6377741E-07  0.3295289E+04  0.7818609E-02  0.8164095E-01
        2   -1    0    0  501    0  0.00000000000E+00  0.00000000000E+00  0.20064243191E+04  0.20064243191E+04  0.25500000920E-02 0. -1.
       -2   -1    0    0    0  501  0.00000000000E+00  0.00000000000E+00 -0.13530204774E+04  0.13530204774E+04  0.25500000920E-02 0.  1.
    10030    2    1    2    0    0  0.00000000000E+00  0.00000000000E+00  0.65340384171E+03  0.33594447964E+04  0.32952894804E+04 0.  0.
        1    1    3    3  502    0  0.95892960827E+02 -0.15012245595E+04  0.10119962096E+04  0.18130104705E+04  0.50400001928E-02 0.  1.
       -1    1    3    3    0  502 -0.95892960827E+02  0.15012245595E+04 -0.35859236794E+03  0.15464343259E+04  0.50400001928E-02 0. -1.
</event>
<event>
 5   0  0.2080770E-07  0.3215142E+04  0.7818609E-02  0.8184830E-01
        1   -1    0    0  501    0  0.00000000000E+00  0.00000000000E+00  0.18568904511E+04  0.18568904511E+04  0.50400001928E-02 0. -1.
       -1   -1    0    0    0  501  0.00000000000E+00  0.00000000000E+00 -0.13917267403E+04  0.13917267404E+04  0.50400001928E-02 0.  1.
    10030    2    1    2    0    0  0.00000000000E+00  0.00000000000E+00  0.46516371072E+03  0.32486171914E+04  0.32151417354E+04 0.  0.
        4    1    3    3  502    0  0.15216835927E+04 -0.12757520306E+03  0.74029352583E+03  0.16970069257E+04  0.12699999809E+01 0. -1.
       -4    1    3    3    0  502 -0.15216835927E+04  0.12757520306E+03 -0.27512981511E+03  0.15516102657E+04  0.12699999809E+01 0.  1.
</event>
<event>
 5   0  0.2080770E-07  0.3287706E+04  0.7818609E-02  0.8166031E-01
        1   -1    0    0  501    0  0.00000000000E+00  0.00000000000E+00  0.27261800252E+04  0.27261800252E+04  0.50400001928E-02 0. -1.
       -1   -1    0    0    0  501  0.00000000000E+00  0.00000000000E+00 -0.99122308260E+03  0.99122308261E+03  0.50400001928E-02 0.  1.
    10030    2    1    2    0    0  0.00000000000E+00  0.00000000000E+00  0.17349569426E+04  0.37174031078E+04  0.32877059287E+04 0.  0.
        4    1    3    3  502    0  0.11394164157E+03  0.93606845428E+03 -0.65499900942E+03  0.11481429197E+04  0.12699999809E+01 0.  1.
       -4    1    3    3    0  502 -0.11394164157E+03 -0.93606845428E+03  0.23899559520E+04  0.25692601881E+04  0.12699999809E+01 0. -1.
</event>
<event>
 5   0  0.6258718E-07  0.3302561E+04  0.7818609E-02  0.8162244E-01
        2   -1    0    0  501    0  0.00000000000E+00  0.00000000000E+00  0.13701717219E+04  0.13701717219E+04  0.25500000920E-02 0.  1.
       -2   -1    0    0    0  501  0.00000000000E+00  0.00000000000E+00 -0.19900625385E+04  0.19900625385E+04  0.25500000920E-02 0. -1.
    10030    2    1    2    0    0  0.00000000000E+00  0.00000000000E+00 -0.61989081659E+03  0.33602342604E+04  0.33025610759E+04 0.  0.
        5    1    3    3  502    0  0.47302474046E+03  0.39952260612E+03 -0.18674733649E+04  0.19674474774E+04  0.46999998093E+01 0. -1.
       -5    1    3    3    0  502 -0.47302474046E+03 -0.39952260612E+03  0.12475825483E+04  0.13927867829E+04  0.46999998093E+01 0.  1.
</event>
<event>
 5   0  0.2087665E-07  0.3300341E+04  0.7818609E-02  0.8162809E-01
       -1   -1    0    0    0  501  0.00000000000E+00  0.00000000000E+00  0.14265390438E+04  0.14265390438E+04  0.50400001928E-02 0. -1.
        1   -1    0    0  501    0  0.00000000000E+00  0.00000000000E+00 -0.19088594160E+04  0.19088594160E+04  0.50400001928E-02 0.  1.
    10030    2    1    2    0    0  0.00000000000E+00  0.00000000000E+00 -0.48232037216E+03  0.33353984598E+04  0.33003408830E+04 0.  0.
        5    1    3    3  502    0  0.97535552500E+03  0.28943041600E+03  0.10718526589E+04  0.14778290085E+04  0.46999998093E+01 0. -1.
       -5    1    3    3    0  502 -0.97535552500E+03 -0.28943041600E+03 -0.15541730311E+04  0.18575694513E+04  0.46999998093E+01 0.  1.
</event>
<event>
 5   0  0.1994250E-07  0.3305369E+04  0.7818609E-02  0.8161531E-01
        3   -1    0    0  501    0  0.00000000000E+00  0.00000000000E+00  0.13069534551E+04  0.13069534590E+04  0.10100000352E+00 0. -1.
       -3   -1    0    0    0  501  0.00000000000E+00  0.00000000000E+00 -0.20898718687E+04  0.20898718711E+04  0.10100000352E+00 0.  1.
    10030    2    1    2    0    0  0.00000000000E+00  0.00000000000E+00 -0.78291841356E+03  0.33968253301E+04  0.33053685243E+04 0.  0.
        1    1    3    3  502    0 -0.13658090997E+04 -0.51524587215E+03 -0.11877884128E+04  0.18819548664E+04  0.50400001928E-02 0.  1.
       -1    1    3    3    0  502  0.13658090997E+04  0.51524587215E+03  0.40486999926E+03  0.15148704637E+04  0.50400001928E-02 0. -1.
</event>
<event>
 5   0  0.6424183E-07  0.3298974E+04  0.7818609E-02  0.8163156E-01
       -2   -1    0    0    0  501  0.00000000000E+00  0.00000000000E+00  0.12244649192E+04  0.12244649192E+04  0.25500000920E-02 0.  1.
        2   -1    0    0  501    0  0.00000000000E+00  0.00000000000E+00 -0.22220379387E+04  0.22220379387E+04  0.25500000920E-02 0. -1.
    10030    2    1    2    0    0  0.00000000000E+00  0.00000000000E+00 -0.99757301945E+03  0.34465028579E+04  0.32989740861E+04 0.  0.
        2    1    3    3  502    0 -0.75794151068E+03  0.11330283574E+04  0.47149813234E+03  0.14424073908E+04  0.25500000920E-02 0.  1.
       -2    1    3    3    0  502  0.75794151068E+03 -0.11330283574E+04 -0.14690711518E+04  0.20040954671E+04  0.25500000920E-02 0. -1.
</event>
<event>
 5   0  0.2037333E-07  0.3303198E+04  0.7818609E-02  0.8162082E-01
       -1   -1    0    0    0  501  0.00000000000E+00  0.00000000000E+00  0.13964450717E+04  0.13964450717E+04  0.50400001928E-02 0.  1.
        1   -1    0    0  501    0  0.00000000000E+00  0.00000000000E+00 -0.19533744199E+04  0.19533744199E+04  0.50400001928E-02 0. -1.
    10030    2    1    2    0    0  0.00000000000E+00  0.00000000000E+00 -0.55692934821E+03  0.33498194917E+04  0.33031984996E+04 0.  0.
        3    1    3    3  502    0 -0.14084508506E+04  0.41862500479E+03 -0.10432970952E+04  0.18020681264E+04  0.10100000352E+00 0. -1.
       -3    1    3    3    0  502  0.14084508506E+04 -0.41862500479E+03  0.48636774698E+03  0.15477513653E+04  0.10100000352E+00 0.  1.
</event>
<event>
 5   0  0.6351753E-07  0.3299731E+04  0.7818609E-02  0.8162964E-01
       -2   -1    0    0    0  501  0.00000000000E+00  0.00000000000E+00  0.18043130700E+04  0.18043130700E+04  0.25500000920E-02 0.  1.
        2   -1    0    0  501    0  0.00000000000E+00  0.00000000000E+00 -0.15086385353E+04  0.15086385353E+04  0.25500000920E-02 0. -1.
    10030    2    1    2    0    0  0.00000000000E+00  0.00000000000E+00  0.29567453475E+03  0.33129516053E+04  0.32997310358E+04 0.  0.
        3    1    3    3  502    0 -0.50470965600E+03 -0.92289353297E+03 -0.11283146719E+04  0.15425817058E+04  0.10100000352E+00 0. -1.
       -3    1    3    3    0  502  0.50470965600E+03  0.92289353297E+03  0.14239892067E+04  0.17703698995E+04  0.10100000352E+00 0.  1.
</event>
<event>
 5   0  0.6426079E-07  0.3289351E+04  0.7818609E-02  0.8165610E-01
       -2   -1    0    0    0  501  0.00000000000E+00  0.00000000000E+00  0.10306997402E+04  0.10306997402E+04  0.25500000920E-02 0. -1.
        2   -1    0    0  501    0  0.00000000000E+00  0.00000000000E+00 -0.26243887119E+04  0.26243887119E+04  0.25500000920E-02 0.  1.
    10030    2    1    2    0    0  0.00000000000E+00  0.00000000000E+00 -0.15936889717E+04  0.36550884522E+04  0.32893505521E+04 0.  0.
        4    1    3    3  502    0  0.10527311357E+03  0.14892567649E+04 -0.15634735541E+04  0.21618092671E+04  0.12699999809E+01 0.  1.
       -4    1    3    3    0  502 -0.10527311357E+03 -0.14892567649E+04 -0.30215417607E+02  0.14932791850E+04  0.12699999809E+01 0. -1.
</event>
<event>
 5   0  0.6426079E-07  0.3293695E+04  0.7818609E-02  0.8164502E-01
       -2   -1    0    0    0  501  0.00000000000E+00  0.00000000000E+00  0.90510236953E+03  0.90510236953E+03  0.25500000920E-02 0. -1.
        2   -1    0    0  501    0  0.00000000000E+00  0.00000000000E+00 -0.29964631928E+04  0.29964631928E+04  0.25500000920E-02 0.  1.
    10030    2    1    2    0    0  0.00000000000E+00  0.00000000000E+00 -0.20913608233E+04  0.39015655624E+04  0.32936945433E+04 0.  0.
        4    1    3    3  502    0 -0.32998900892E+03  0.54501496624E+03 -0.28445565993E+04  0.29150365211E+04  0.12699999809E+01 0.  1.
       -4    1    3    3    0  502  0.32998900892E+03 -0.54501496624E+03  0.75319577602E+03  0.98652904131E+03  0.12699999809E+01 0. -1.
</event>
<event>
 5   0  0.2080770E-07  0.3295963E+04  0.7818609E-02  0.8163923E-01
        1   -1    0    0  501    0  0.00000000000E+00  0.00000000000E+00  0.16660272738E+04  0.16660272738E+04  0.50400001928E-02 0.  1.
       -1   -1    0    0    0  501  0.00000000000E+00  0.00000000000E+00 -0.16301314912E+04  0.16301314912E+04  0.50400001928E-02 0. -1.
    10030    2    1    2    0    0  0.00000000000E+00  0.00000000000E+00  0.35895782570E+02  0.32961587650E+04  0.32959633033E+04 0.  0.
        4    1    3    3  502    0  0.71371785405E+03 -0.11258848248E+04  0.98693883674E+03  0.16586318743E+04  0.12699999809E+01 0.  1.
       -4    1    3    3    0  502 -0.71371785405E+03  0.11258848248E+04 -0.95104305417E+03  0.16375268907E+04  0.12699999809E+01 0. -1.
</event>
<event>
 5   0  0.6377741E-07  0.3309725E+04  0.7818609E-02  0.8160425E-01
        2   -1    0    0  501    0  0.00000000000E+00  0.00000000000E+00  0.15702750859E+04  0.15702750859E+04  0.25500000920E-02 0. -1.
       -2   -1    0    0    0  501  0.00000000000E+00  0.00000000000E+00 -0.17440069241E+04  0.17440069241E+04  0.25500000920E-02 0.  1.
    10030    2    1    2    0    0  0.00000000000E+00  0.00000000000E+00 -0.17373183813E+03  0.33142820100E+04  0.33097254403E+04 0.  0.
        1    1    3    3  502    0  0.13897797048E+04 -0.45625668002E+03  0.68809410830E+03  0.16165182609E+04  0.50400001928E-02 0. -1.
       -1    1    3    3    0  502 -0.13897797048E+04  0.45625668002E+03 -0.86182594644E+03  0.16977637491E+04  0.50400001928E-02 0.  1.
</event>
<event>
 5   0  0.2080828E-07  0.3296797E+04  0.7818609E-02  0.8163711E-01
        1   -1    0    0  501    0  0.00000000000E+00  0.00000000000E+00  0.27653387697E+04  0.27653387697E+04  0.50400001928E-02 0.  1.
       -1   -1    0    0    0  501  0.00000000000E+00  0.00000000000E+00 -0.98259860101E+03  0.98259860102E+03  0.50400001928E-02 0. -1.
    10030    2    1    2    0    0  0.00000000000E+00  0.00000000000E+00  0.17827401687E+04  0.37479373707E+04  0.32967972376E+04 0.  0.
        1    1    3    3  502    0 -0.13390883131E+04 -0.70970524440E+03  0.16284601778E+04  0.22245722274E+04  0.50400001928E-02 0.  1.
       -1    1    3    3    0  502  0.13390883131E+04  0.70970524440E+03  0.15427999086E+03  0.15233651433E+04  0.50400001928E-02 0. -1.
</event>
<event>
 5   0  0.2087665E-07  0.3295709E+04  0.7818609E-02  0.8163988E-01
        1   -1    0    0  501    0  0.00000000000E+00  0.00000000000E+00  0.17580349093E+04  0.17580349093E+04  0.50400001928E-02 0. -1.
       -1   -1    0    0    0  501  0.00000000000E+00  0.00000000000E+00 -0.15445795068E+04  0.15445795068E+04  0.50400001928E-02 0.  1.
    10030    2    1    2    0    0  0.00000000000E+00  0.00000000000E+00  0.21345540247E+03  0.33026144162E+04  0.32957091457E+04 0.  0.
        5    1    3    3  502    0  0.10655193326E+04 -0.10892732388E+04 -0.52192631389E+03  0.16106758843E+04  0.46999998093E+01 0.  1.
       -5    1    3    3    0  502 -0.10655193326E+04  0.10892732388E+04  0.73538171636E+03  0.16919385319E+04  0.46999998093E+01 0. -1.
</event>
<event>
 5   0  0.6377741E-07  0.3301997E+04  0.7818609E-02  0.8162387E-01
       -2   -1    0    0    0  501  0.00000000000E+00  0.00000000000E+00  0.13641715712E+04  0.13641715712E+04  0.25500000920E-02 0. -1.
        2   -1    0    0  501    0  0.00000000000E+00  0.00000000000E+00 -0.19981332777E+04  0.19981332777E+04  0.25500000920E-02 0.  1.
    10030    2    1    2    0    0  0.00000000000E+00  0.00000000000E+00 -0.63396170656E+03  0.33623048489E+04  0.33019973428E+04 0.  0.
        1    1    3    3  502    0  0.16585931897E+03 -0.14685847831E+04  0.43235766509E+03  0.15398648413E+04  0.50400001928E-02 0.  1.
       -1    1    3    3    0  502 -0.16585931897E+03  0.14685847831E+04 -0.10663193717E+04  0.18224400076E+04  0.50400001928E-02 0. -1.
</event>
<event>
 5   0  0.2087665E-07  0.3347267E+04  0.7818609E-02  0.8150971E-01
        1   -1    0    0  501    0  0.00000000000E+00  0.00000000000E+00  0.21834072998E+04  0.21834072998E+04  0.50400001928E-02 0. -1.
       -1   -1    0    0    0  501  0.00000000000E+00  0.00000000000E+00 -0.12828794592E+04  0.12828794593E+04  0.50400001928E-02 0.  1.
    10030    2    1    2    0    0  0.00000000000E+00  0.00000000000E+00  0.90052784058E+03  0.34662867591E+04  0.33472665721E+04 0.  0.
        5    1    3    3  502    0  0.11180679006E+04 -0.11091787062E+04 -0.13615155323E+03  0.15807949165E+04  0.46999998093E+01 0.  1.
       -5    1    3    3    0  502 -0.11180679006E+04  0.11091787062E+04  0.10366793938E+04  0.18854918425E+04  0.46999998093E+01 0. -1.
</event>
<event>
 5   0  0.2087665E-07  0.3314410E+04  0.7818609E-02  0.8159238E-01
        1   -1    0    0  501    0  0.00000000000E+00  0.00000000000E+00  0.14115910834E+04  0.14115910834E+04  0.50400001928E-02 0. -1.
       -1   -1    0    0    0  501  0.00000000000E+00  0.00000000000E+00 -0.19455555918E+04  0.19455555918E+04  0.50400001928E-02 0.  1.
    10030    2    1    2    0    0  0.00000000000E+00  0.00000000000E+00 -0.53396450843E+03  0.33571466753E+04  0.33144103100E+04 0.  0.
        5    1    3    3  502    0 -0.18809472439E+03  0.70985778892E+03  0.12377806544E+04  0.14392361669E+04  0.46999998093E+01 0. -1.
       -5    1    3    3    0  502  0.18809472439E+03 -0.70985778892E+03 -0.17717451628E+04  0.19179105083E+04  0.46999998093E+01 0.  1.
</event>
<event>
 5   0  0.2080828E-07  0.3271093E+04  0.7818609E-02  0.8170290E-01
       -1   -1    0    0    0  501  0.00000000000E+00  0.00000000000E+00  0.13074331375E+04  0.13074331375E+04  0.50400001928E-02 0. -1.
        1   -1    0    0  501    0  0.00000000000E+00  0.00000000000E+00 -0.20460034775E+04  0.20460034775E+04  0.50400001928E-02 0.  1.
    10030    2    1    2    0    0  0.00000000000E+00  0.00000000000E+00 -0.73857033997E+03  0.33534366150E+04  0.32710932398E+04 0.  0.
        1    1    3    3  502    0  0.88629790961E+03 -0.49045637428E+03  0.94715091133E+03  0.13867827114E+04  0.50400001928E-02 0. -1.
       -1    1    3    3    0  502 -0.88629790961E+03  0.49045637428E+03 -0.16857212513E+04  0.19666539037E+04  0.50400001928E-02 0.  1.
</event>
<event>
 5   0  0.6258718E-07  0.3302601E+04  0.7818609E-02  0.8162234E-01
        2   -1    0    0  501    0  0.00000000000E+00  0.00000000000E+00  0.22615082074E+04  0.22615082074E+04  0.25500000920E-02 0.  1.
       -2   -1    0    0    0  501  0.00000000000E+00  0.00000000000E+00 -0.12057411426E+04  0.12057411426E+04  0.25500000920E-02 0. -1.
    10030    2    1    2    0    0  0.00000000000E+00  0.00000000000E+00  0.10557670648E+04  0.34672493499E+04  0.33026010900E+04 0.  0.
        5    1    3    3  502    0 -0.87058548745E+03 -0.41167182972E+03 -0.88040042723E+03  0.13048064181E+04  0.46999998093E+01 0. -1.
       -5    1    3    3    0  502  0.87058548745E+03  0.41167182972E+03  0.19361674921E+04  0.21624429319E+04  0.46999998093E+01 0.  1.
</event>
<event>
 5   0  0.6377741E-07  0.3296210E+04  0.7818609E-02  0.8163860E-01
       -2   -1    0    0    0  501  0.00000000000E+00  0.00000000000E+00  0.12274242505E+04  0.12274242505E+04  0.25500000920E-02 0.  1.
        2   -1    0    0  501    0  0.00000000000E+00  0.00000000000E+00 -0.22129672041E+04  0.22129672041E+04  0.25500000920E-02 0. -1.
    10030    2    1    2    0    0  0.00000000000E+00  0.00000000000E+00 -0.98554295362E+03  0.34403914546E+04  0.32962097092E+04 0.  0.
        1    1    3    3  502    0 -0.71579995094E+03  0.10757707047E+04 -0.15605541236E+04  0.20260753568E+04  0.50400001928E-02 0. -1.
       -1    1    3    3    0  502  0.71579995094E+03 -0.10757707047E+04  0.57501116998E+03  0.14143160978E+04  0.50400001928E-02 0.  1.
</event>
<event>
 5   0  0.2057130E-07  0.3297966E+04  0.7818609E-02  0.8163413E-01
       -1   -1    0    0    0  501  0.00000000000E+00  0.00000000000E+00  0.11947376361E+04  0.11947376361E+04  0.50400001928E-02 0.  1.
        1   -1    0    0  501    0  0.00000000000E+00  0.00000000000E+00 -0.22759351971E+04  0.22759351971E+04  0.50400001928E-02 0. -1.
    10030    2    1    2    0    0  0.00000000000E+00  0.00000000000E+00 -0.10811975610E+04  0.34706728332E+04  0.32979663050E+04 0.  0.
        2    1    3    3  502    0  0.68730930787E+03 -0.80809292823E+02  0.10345185670E+04  0.12446497065E+04  0.25500000920E-02 0.  1.
       -2    1    3    3    0  502 -0.68730930787E+03  0.80809292823E+02 -0.21157161279E+04  0.22260231267E+04  0.25500000920E-02 0. -1.
</event>
<event>
 5   0  0.2087665E-07  0.3306344E+04  0.7818609E-02  0.8161283E-01
        1   -1    0    0  501    0  0.00000000000E+00  0.00000000000E+00  0.20771844139E+04  0.20771844139E+04  0.50400001928E-02 0.  1.
       -1   -1    0    0    0  501  0.00000000000E+00  0.00000000000E+00 -0.13157122137E+04  0.13157122137E+04  0.50400001928E-02 0. -1.
    10030    2    1    2    0    0  0.00000000000E+00  0.00000000000E+00  0.76147220022E+03  0.33928966276E+04  0.33063435414E+04 0.  0.
        5    1    3    3  502    0 -0.44648342085E+03 -0.39996552318E+03  0.19617278933E+04  0.20512723569E+04  0.46999998093E+01 0.  1.
       -5    1    3    3    0  502  0.44648342085E+03  0.39996552318E+03 -0.12002556931E+04  0.13416242707E+04  0.46999998093E+01 0. -1.
</event>
<event>
 5   0  0.6351753E-07  0.3256189E+04  0.7818609E-02  0.8174133E-01
        2   -1    0    0  501    0  0.00000000000E+00  0.00000000000E+00  0.12996186551E+04  0.12996186551E+04  0.25500000920E-02 0. -1.
       -2   -1    0    0    0  501  0.00000000000E+00  0.00000000000E+00 -0.20395924048E+04  0.20395924048E+04  0.25500000920E-02 0.  1.
    10030    2    1    2    0    0  0.00000000000E+00  0.00000000000E+00 -0.73997374968E+03  0.33392110599E+04  0.32561893914E+04 0.  0.
        3    1    3    3  502    0  0.32489828250E+03  0.28074018270E+01 -0.20060076667E+04  0.20321499808E+04  0.10100000352E+00 0.  1.
       -3    1    3    3    0  502 -0.32489828250E+03 -0.28074018270E+01  0.12660339170E+04  0.13070610791E+04  0.10100000352E+00 0. -1.
</event>
<event>
 5   0  0.6377741E-07  0.3326673E+04  0.7818609E-02  0.8156141E-01
        2   -1    0    0  501    0  0.00000000000E+00  0.00000000000E+00  0.25283750160E+04  0.25283750160E+04  0.25500000920E-02 0. -1.
       -2   -1    0    0    0  501  0.00000000000E+00  0.00000000000E+00 -0.10942554922E+04  0.10942554922E+04  0.25500000920E-02 0.  1.
    10030    2    1    2    0    0  0.00000000000E+00  0.00000000000E+00  0.14341195238E+04  0.36226305082E+04  0.33266729611E+04 0.  0.
        1    1    3    3  502    0  0.60177787623E+03 -0.71181649332E+03  0.22172524287E+04  0.24052084453E+04  0.50400001928E-02 0. -1.
       -1    1    3    3    0  502 -0.60177787623E+03  0.71181649332E+03 -0.78313290491E+03  0.12174220629E+04  0.50400001928E-02 0.  1.
</event>
<event>
 5   0  0.1994250E-07  0.3301094E+04  0.7818609E-02  0.8162617E-01
        3   -1    0    0  501    0  0.00000000000E+00  0.00000000000E+00  0.96741914532E+03  0.96741915060E+03  0.10100000352E+00 0. -1.
       -3   -1    0    0    0  501  0.00000000000E+00  0.00000000000E+00 -0.28160555259E+04  0.28160555277E+04  0.10100000352E+00 0.  1.
    10030    2    1    2    0    0  0.00000000000E+00  0.00000000000E+00 -0.18486363806E+04  0.37834746783E+04  0.33010943903E+04 0.  0.
        5    1    3    3  502    0  0.13629841629E+04 -0.92986176237E+03 -0.97447652632E+03  0.19162451085E+04  0.46999998093E+01 0.  1.
       -5    1    3    3    0  502 -0.13629841629E+04  0.92986176237E+03 -0.87415985424E+03  0.18672295698E+04  0.46999998093E+01 0. -1.
</event>
<event>
 5   0  0.2057130E-07  0.3238388E+04  0.7818609E-02  0.8178752E-01
       -1   -1    0    0    0  501  0.00000000000E+00  0.00000000000E+00  0.16074107954E+04  0.16074107954E+04  0.50400001928E-02 0.  1.
        1   -1    0    0  501    0  0.00000000000E+00  0.00000000000E+00 -0.16310639356E+04  0.16310639356E+04  0.50400001928E-02 0. -1.
    10030    2    1    2    0    0  0.00000000000E+00  0.00000000000E+00 -0.23653140241E+02  0.32384747310E+04  0.32383883511E+04 0.  0.
        2    1    3    3  502    0 -0.13740167515E+04  0.12903976922E+01  0.84485611900E+03  0.16129803348E+04  0.25500000920E-02 0.  1.
       -2    1    3    3    0  502  0.13740167515E+04 -0.12903976922E+01 -0.86850925924E+03  0.16254943962E+04  0.25500000920E-02 0. -1.
</event>
<event>
 5   0  0.2087665E-07  0.3293252E+04  0.7818609E-02  0.8164615E-01
       -1   -1    0    0    0  501  0.00000000000E+00  0.00000000000E+00  0.13687957155E+04  0.13687957155E+04  0.50400001928E-02 0.  1.
        1   -1    0    0  501    0  0.00000000000E+00  0.00000000000E+00 -0.19808485283E+04  0.19808485283E+04  0.50400001928E-02 0. -1.
    10030    2    1    2    0    0  0.00000000000E+00  0.00000000000E+00 -0.61205281282E+03  0.33496442438E+04  0.32932518753E+04 0.  0.
        5    1    3    3  502    0  0.28432711468E+03 -0.29094595148E+03 -0.19289246423E+04  0.19713609057E+04  0.46999998093E+01 0. -1.
       -5    1    3    3    0  502 -0.28432711468E+03  0.29094595148E+03  0.13168718295E+04  0.13782833381E+04  0.46999998093E+01 0.  1.
</event>
<event>
 5   0  0.2057130E-07  0.3301616E+04  0.7818609E-02  0.8162484E-01
        1   -1    0    0  501    0  0.00000000000E+00  0.00000000000E+00  0.20899293169E+04  0.20899293169E+04  0.50400001928E-02 0.  1.
       -1   -1    0    0    0  501  0.00000000000E+00  0.00000000000E+00 -0.13039514754E+04  0.13039514754E+04  0.50400001928E-02 0. -1.
    10030    2    1    2    0    0  0.00000000000E+00  0.00000000000E+00  0.78597784153E+03  0.33938807923E+04  0.33016156144E+04 0.  0.
        2    1    3    3  502    0  0.14367468498E+04 -0.74782342181E+03  0.65196734807E+02  0.16210280673E+04  0.25500000920E-02 0. -1.
       -2    1    3    3    0  502 -0.14367468498E+04  0.74782342181E+03  0.72078110673E+03  0.17728527250E+04  0.25500000920E-02 0.  1.
</event>
<event>
 5   0  0.2087665E-07  0.3298098E+04  0.7818609E-02  0.8163379E-01
       -1   -1    0    0    0  501  0.00000000000E+00  0.00000000000E+00  0.19111459870E+04  0.19111459870E+04  0.50400001928E-02 0. -1.
        1   -1    0    0  501    0  0.00000000000E+00  0.00000000000E+00 -0.14228967286E+04  0.14228967286E+04  0.50400001928E-02 0.  1.
    10030    2    1    2    0    0  0.00000000000E+00  0.00000000000E+00  0.48824925838E+03  0.33340427156E+04  0.32980984660E+04 0.  0.
        5    1    3    3  502    0  0.64014800223E+03  0.78812815416E+03  0.15576726784E+04  0.18593820789E+04  0.46999998093E+01 0. -1.
       -5    1    3    3    0  502 -0.64014800223E+03 -0.78812815416E+03 -0.10694234201E+04  0.14746606367E+04  0.46999998093E+01 0.  1.
</event>
<event>
 5   0  0.2057130E-07  0.3299503E+04  0.7818609E-02  0.8163022E-01
        1   -1    0    0  501    0  0.00000000000E+00  0.00000000000E+00  0.86017201908E+03  0.86017201909E+03  0.50400001928E-02 0. -1.
       -1   -1    0    0    0  501  0.00000000000E+00  0.00000000000E+00 -0.31641121889E+04  0.31641121889E+04  0.50400001928E-02 0.  1.
    10030    2    1    2    0    0  0.00000000000E+00  0.00000000000E+00 -0.23039401698E+04  0.40242842080E+04  0.32995034597E+04 0.  0.
        2    1    3    3  502    0  0.83414987811E+03 -0.23312902356E+03  0.56057205853E+03  0.10316957854E+04  0.25500000920E-02 0. -1.
       -2    1    3    3    0  502 -0.83414987811E+03  0.23312902356E+03 -0.28645122283E+04  0.29925884226E+04  0.25500000920E-02 0.  1.
</event>
<event>
 5   0  0.6351753E-07  0.3298775E+04  0.7818609E-02  0.8163207E-01
        2   -1    0    0  501    0  0.00000000000E+00  0.00000000000E+00  0.27906249576E+04  0.27906249576E+04  0.25500000920E-02 0.  1.
       -2   -1    0    0    0  501  0.00000000000E+00  0.00000000000E+00 -0.97486398716E+03  0.97486398717E+03  0.25500000920E-02 0. -1.
    10030    2    1    2    0    0  0.00000000000E+00  0.00000000000E+00  0.18157609704E+04  0.37654889447E+04  0.32987753927E+04 0.  0.
        3    1    3    3  502    0 -0.45112528472E+01  0.10476687682E+04  0.23620256451E+04  0.25839495656E+04  0.10100000352E+00 0.  1.
       -3    1    3    3    0  502  0.45112528472E+01 -0.10476687682E+04 -0.54626467471E+03  0.11815393791E+04  0.10100000352E+00 0. -1.
</event>
<event>
 5   0  0.6424183E-07  0.3296118E+04  0.7818609E-02  0.8163884E-01
        2   -1    0    0  501    0  0.00000000000E+00  0.00000000000E+00  0.25300062723E+04  0.25300062723E+04  0.25500000920E-02 0.  1.
       -2   -1    0    0    0  501  0.00000000000E+00  0.00000000000E+00 -0.10735538517E+04  0.10735538517E+04  0.25500000920E-02 0. -1.
    10030    2    1    2    0    0  0.00000000000E+00  0.00000000000E+00  0.14564524206E+04  0.36035601240E+04  0.32961177033E+04 0.  0.
        2    1    3    3  502    0 -0.46110218006E+03 -0.48922383276E+03  0.23732832759E+04  0.24666634725E+04  0.25500000920E-02 0.  1.
       -2    1    3    3    0  502  0.46110218006E+03  0.48922383276E+03 -0.91683085532E+03  0.11368966515E+04  0.25500000920E-02 0. -1.
</event>
<event>
 5   0  0.6377741E-07  0.3472795E+04  0.7818609E-02  0.8120268E-01
        2   -1    0    0  501    0  0.00000000000E+00  0.00000000000E+00  0.31444827435E+04  0.31444827435E+04  0.25500000920E-02 0. -1.
       -2   -1    0    0    0  501  0.00000000000E+00  0.00000000000E+00 -0.95884648157E+03  0.95884648158E+03  0.25500000920E-02 0.  1.
    10030    2    1    2    0    0  0.00000000000E+00  0.00000000000E+00  0.21856362620E+04  0.41033292251E+04  0.34727949637E+04 0.  0.
        1    1    3    3  502    0 -0.98424594512E+03  0.25722573341E+03 -0.56986149287E+03  0.11660391415E+04  0.50400001928E-02 0.  1.
       -1    1    3    3    0  502  0.98424594512E+03 -0.25722573341E+03  0.27554977548E+04  0.29372900836E+04  0.50400001928E-02 0. -1.
</event>
<event>
 5   0  0.2057130E-07  0.3370753E+04  0.7818609E-02  0.8145122E-01
        1   -1    0    0  501    0  0.00000000000E+00  0.00000000000E+00  0.14880074302E+04  0.14880074302E+04  0.50400001928E-02 0. -1.
       -1   -1    0    0    0  501  0.00000000000E+00  0.00000000000E+00 -0.19089243559E+04  0.19089243559E+04  0.50400001928E-02 0.  1.
    10030    2    1    2    0    0  0.00000000000E+00  0.00000000000E+00 -0.42091692562E+03  0.33969317861E+04  0.33707528093E+04 0.  0.
        2    1    3    3  502    0 -0.20844186311E+03  0.11350840455E+04 -0.14482607057E+04  0.18518431015E+04  0.25500000920E-02 0.  1.
       -2    1    3    3    0  502  0.20844186311E+03 -0.11350840455E+04  0.10273437801E+04  0.15450886846E+04  0.25500000920E-02 0. -1.
</event>
<event>
 5   0  0.6426079E-07  0.3263720E+04  0.7818609E-02  0.8172189E-01
       -2   -1    0    0    0  501  0.00000000000E+00  0.00000000000E+00  0.97986213649E+03  0.97986213649E+03  0.25500000920E-02 0.  1.
        2   -1    0    0  501    0  0.00000000000E+00  0.00000000000E+00 -0.27176963534E+04  0.27176963534E+04  0.25500000920E-02 0. -1.
    10030    2    1    2    0    0  0.00000000000E+00  0.00000000000E+00 -0.17378342169E+04  0.36975584899E+04  0.32637204263E+04 0.  0.
        4    1    3    3  502    0  0.70609671388E+03  0.52009756708E+03  0.69020352331E+03  0.11160002532E+04  0.12699999809E+01 0.  1.
       -4    1    3    3    0  502 -0.70609671388E+03 -0.52009756708E+03 -0.24280377402E+04  0.25815582367E+04  0.12699999809E+01 0. -1.
</event>
<event>
 5   0  0.2080828E-07  0.3184057E+04  0.7818609E-02  0.8193040E-01
       -1   -1    0    0    0  501  0.00000000000E+00  0.00000000000E+00  0.13889335809E+04  0.13889335809E+04  0.50400001928E-02 0.  1.
        1   -1    0    0  501    0  0.00000000000E+00  0.00000000000E+00 -0.18248212410E+04  0.18248212410E+04  0.50400001928E-02 0. -1.
    10030    2    1    2    0    0  0.00000000000E+00  0.00000000000E+00 -0.43588766012E+03  0.32137548220E+04  0.31840574749E+04 0.  0.
        1    1    3    3  502    0  0.96168425226E+03  0.10309229197E+04 -0.96437967731E+03  0.17081179203E+04  0.50400001928E-02 0. -1.
       -1    1    3    3    0  502 -0.96168425226E+03 -0.10309229197E+04  0.52849201719E+03  0.15056369017E+04  0.50400001928E-02 0.  1.
</event>
<event>
 5   0  0.2080770E-07  0.3321585E+04  0.7818609E-02  0.8157425E-01
       -1   -1    0    0    0  501  0.00000000000E+00  0.00000000000E+00  0.17751276160E+04  0.17751276160E+04  0.50400001928E-02 0.  1.
        1   -1    0    0  501    0  0.00000000000E+00  0.00000000000E+00 -0.15538218156E+04  0.15538218156E+04  0.50400001928E-02 0. -1.
    10030    2    1    2    0    0  0.00000000000E+00  0.00000000000E+00  0.22130580040E+03  0.33289494317E+04  0.33215851730E+04 0.  0.
        4    1    3    3  502    0 -0.10019443243E+04 -0.47962744466E+03 -0.11267079954E+04  0.15822159886E+04  0.12699999809E+01 0. -1.
       -4    1    3    3    0  502  0.10019443243E+04  0.47962744466E+03  0.13480137958E+04  0.17467334431E+04  0.12699999809E+01 0.  1.
</event>
<event>
 5   0  0.6351753E-07  0.3393049E+04  0.7818609E-02  0.8139614E-01
        2   -1    0    0  501    0  0.00000000000E+00  0.00000000000E+00  0.12548955207E+04  0.12548955207E+04  0.25500000920E-02 0. -1.
       -2   -1    0    0    0  501  0.00000000000E+00  0.00000000000E+00 -0.22935743022E+04  0.22935743022E+04  0.25500000920E-02 0.  1.
    10030    2    1    2    0    0  0.00000000000E+00  0.00000000000E+00 -0.10386787815E+04  0.35484698230E+04  0.33930494358E+04 0.  0.
        3    1    3    3  502    0 -0.68104054145E+03 -0.99469936430E+02  0.11023288862E+04  0.12995535660E+04  0.10100000352E+00 0. -1.
       -3    1    3    3    0  502  0.68104054145E+03  0.99469936430E+02 -0.21410076677E+04  0.22489162570E+04  0.10100000352E+00 0.  1.
</event>
<event>
 5   0  0.2087665E-07  0.3305274E+04  0.7818609E-02  0.8161555E-01
       -1   -1    0    0    0  501  0.00000000000E+00  0.00000000000E+00  0.14039859148E+04  0.14039859148E+04  0.50400001928E-02 0. -1.
        1   -1    0    0  501    0  0.00000000000E+00  0.00000000000E+00 -0.19453247847E+04  0.19453247847E+04  0.50400001928E-02 0.  1.
    10030    2    1    2    0    0  0.00000000000E+00  0.00000000000E+00 -0.54133886991E+03  0.33493106994E+04  0.33052737238E+04 0.  0.
        5    1    3    3  502    0  0.52999654954E+03  0.38912681466E+03 -0.18070728299E+04  0.19229795430E+04  0.46999998093E+01 0.  1.
       -5    1    3    3    0  502 -0.52999654954E+03 -0.38912681466E+03  0.12657339600E+04  0.14263311564E+04  0.46999998093E+01 0. -1.
</event>
<event>
 5   0  0.6351753E-07  0.3326642E+04  0.7818609E-02  0.8156149E-01
       -2   -1    0    0    0  501  0.00000000000E+00  0.00000000000E+00  0.16968352407E+04  0.16968352407E+04  0.25500000920E-02 0. -1.
        2   -1    0    0  501    0  0.00000000000E+00  0.00000000000E+00 -0.16304687889E+04  0.16304687889E+04  0.25500000920E-02 0.  1.
    10030    2    1    2    0    0  0.00000000000E+00  0.00000000000E+00  0.66366451804E+02  0.33273040296E+04  0.33266420906E+04 0.  0.
        3    1    3    3  502    0 -0.79352850559E+03 -0.77732753263E+03 -0.12050903018E+04  0.16389533940E+04  0.10100000352E+00 0.  1.
       -3    1    3    3    0  502  0.79352850559E+03  0.77732753263E+03  0.12714567536E+04  0.16883506355E+04  0.10100000352E+00 0. -1.
</event>
<event>
 5   0  0.2080828E-07  0.3305428E+04  0.7818609E-02  0.8161516E-01
        1   -1    0    0  501    0  0.00000000000E+00  0.00000000000E+00  0.16742378104E+04  0.16742378104E+04  0.50400001928E-02 0. -1.
       -1   -1    0    0    0  501  0.00000000000E+00  0.00000000000E+00 -0.16314672581E+04  0.16314672581E+04  0.50400001928E-02 0.  1.
    10030    2    1    2    0    0  0.00000000000E+00  0.00000000000E+00  0.42770552341E+02  0.33057050685E+04  0.33054283655E+04 0.  0.
        1    1    3    3  502    0  0.52884538412E+03  0.96155802669E+03 -0.12145146346E+04  0.16368619601E+04  0.50400001928E-02 0.  1.
       -1    1    3    3    0  502 -0.52884538412E+03 -0.96155802669E+03  0.12572851869E+04  0.16688431083E+04  0.50400001928E-02 0. -1.
</event>
<event>
 5   0  0.2087665E-07  0.3294151E+04  0.7818609E-02  0.8164385E-01
        1   -1    0    0  501    0  0.00000000000E+00  0.00000000000E+00  0.18513706620E+04  0.18513706621E+04  0.50400001928E-02 0.  1.
       -1   -1    0    0    0  501  0.00000000000E+00  0.00000000000E+00 -0.14653235959E+04  0.14653235959E+04  0.50400001928E-02 0. -1.
    10030    2    1    2    0    0  0.00000000000E+00  0.00000000000E+00  0.38604706614E+03  0.33166942580E+04  0.32941506437E+04 0.  0.
        5    1    3    3  502    0 -0.14096495465E+04  0.18828131851E+03 -0.64348914807E+03  0.15609811250E+04  0.46999998093E+01 0. -1.
       -5    1    3    3    0  502  0.14096495465E+04 -0.18828131851E+03  0.10295362142E+04  0.17557131330E+04  0.46999998093E+01 0.  1.
</event>
<event>
 5   0  0.6258718E-07  0.3294627E+04  0.7818609E-02  0.8164264E-01
       -2   -1    0    0    0  501  0.00000000000E+00  0.00000000000E+00  0.13849907112E+04  0.13849907112E+04  0.25500000920E-02 0. -1.
        2   -1    0    0  501    0  0.00000000000E+00  0.00000000000E+00 -0.19593210987E+04  0.19593210987E+04  0.25500000920E-02 0.  1.
    10030    2    1    2    0    0  0.00000000000E+00  0.00000000000E+00 -0.57433038751E+03  0.33443118098E+04  0.32946268510E+04 0.  0.
        5    1    3    3  502    0  0.87423131024E+03 -0.13444777225E+04  0.94967425958E+02  0.16065309309E+04  0.46999998093E+01 0.  1.
       -5    1    3    3    0  502 -0.87423131024E+03  0.13444777225E+04 -0.66929781346E+03  0.17377808789E+04  0.46999998093E+01 0. -1.
</event>
<event>
 5   0  0.2080828E-07  0.3307587E+04  0.7818609E-02  0.8160968E-01
        1   -1    0    0  501    0  0.00000000000E+00  0.00000000000E+00  0.11725612851E+04  0.11725612851E+04  0.50400001928E-02 0. -1.
       -1   -1    0    0    0  501  0.00000000000E+00  0.00000000000E+00 -0.23325285143E+04  0.23325285143E+04  0.50400001928E-02 0.  1.
    10030    2    1    2    0    0  0.00000000000E+00  0.00000000000E+00 -0.11599672292E+04  0.35050897995E+04  0.33075868136E+04 0.  0.
        1    1    3    3  502    0 -0.67807721040E+03  0.14195149306E+04 -0.11205627888E+04  0.19314430629E+04  0.50400001928E-02 0. -1.
       -1    1    3    3    0  502  0.67807721040E+03 -0.14195149306E+04 -0.39404440448E+02  0.15736467366E+04  0.50400001928E-02 0.  1.
</event>
<event>
 5   0  0.6258718E-07  0.3291034E+04  0.7818609E-02  0.8165181E-01
        2   -1    0    0  501    0  0.00000000000E+00  0.00000000000E+00  0.12895209107E+04  0.12895209107E+04  0.25500000920E-02 0. -1.
       -2   -1    0    0    0  501  0.00000000000E+00  0.00000000000E+00 -0.20997922385E+04  0.20997922385E+04  0.25500000920E-02 0.  1.
    10030    2    1    2    0    0  0.00000000000E+00  0.00000000000E+00 -0.81027132771E+03  0.33893131492E+04  0.32910338799E+04 0.  0.
        5    1    3    3  502    0  0.68527556199E+03 -0.12955080137E+04 -0.11756494085E+04  0.18788606205E+04  0.46999998093E+01 0.  1.
       -5    1    3    3    0  502 -0.68527556199E+03  0.12955080137E+04  0.36537808078E+03  0.15104525287E+04  0.46999998093E+01 0. -1.
</event>
<event>
 5   0  0.2057130E-07  0.3302570E+04  0.7818609E-02  0.8162242E-01
        1   -1    0    0  501    0  0.00000000000E+00  0.00000000000E+00  0.21010180552E+04  0.21010180552E+04  0.50400001928E-02 0. -1.
       -1   -1    0    0    0  501  0.00000000000E+00  0.00000000000E+00 -0.12978197602E+04  0.12978197602E+04  0.50400001928E-02 0.  1.
    10030    2    1    2    0    0  0.00000000000E+00  0.00000000000E+00  0.80319829498E+03  0.33988378154E+04  0.33025703618E+04 0.  0.
        2    1    3    3  502    0 -0.68398990243E+03 -0.14482656068E+04  0.81509089484E+03  0.17971334456E+04  0.25500000920E-02 0. -1.
       -2    1    3    3    0  502  0.68398990243E+03  0.14482656068E+04 -0.11892599865E+02  0.16017043698E+04  0.25500000920E-02 0.  1.
</event>
<event>
 5   0  0.2037333E-07  0.3286591E+04  0.7818609E-02  0.8166316E-01
        1   -1    0    0  501    0  0.00000000000E+00  0.00000000000E+00  0.19964842036E+04  0.19964842036E+04  0.50400001928E-02 0.  1.
       -1   -1    0    0    0  501  0.00000000000E+00  0.00000000000E+00 -0.13525879570E+04  0.13525879570E+04  0.50400001928E-02 0. -1.
    10030    2    1    2    0    0  0.00000000000E+00  0.00000000000E+00  0.64389624657E+03  0.33490721606E+04  0.32865912372E+04 0.  0.
        3    1    3    3  502    0 -0.15412502825E+04  0.11220220235E+03 -0.24758570855E+03  0.15650368880E+04  0.10100000352E+00 0. -1.
       -3    1    3    3    0  502  0.15412502825E+04 -0.11220220235E+03  0.89148195512E+03  0.17840352726E+04  0.10100000352E+00 0.  1.
</event>
<event>
 5   0  0.2087665E-07  0.3289065E+04  0.7818609E-02  0.8165684E-01
       -1   -1    0    0    0  501  0.00000000000E+00  0.00000000000E+00  0.12830853871E+04  0.12830853872E+04  0.50400001928E-02 0. -1.
        1   -1    0    0  501    0  0.00000000000E+00  0.00000000000E+00 -0.21077991873E+04  0.21077991873E+04  0.50400001928E-02 0.  1.
    10030    2    1    2    0    0  0.00000000000E+00  0.00000000000E+00 -0.82471380014E+03  0.33908845744E+04  0.32890645091E+04 0.  0.
        5    1    3    3  502    0 -0.15733039121E+04  0.47108936721E+03 -0.50016306970E+03  0.17167980598E+04  0.46999998093E+01 0. -1.
       -5    1    3    3    0  502  0.15733039121E+04 -0.47108936721E+03 -0.32455073044E+03  0.16740865146E+04  0.46999998093E+01 0.  1.
</event>
<event>
 5   0  0.6424183E-07  0.3291476E+04  0.7818609E-02  0.8165068E-01
       -2   -1    0    0    0  501  0.00000000000E+00  0.00000000000E+00  0.12771813490E+04  0.12771813490E+04  0.25500000920E-02 0. -1.
        2   -1    0    0  501    0  0.00000000000E+00  0.00000000000E+00 -0.21206492993E+04  0.21206492993E+04  0.25500000920E-02 0.  1.
    10030    2    1    2    0    0  0.00000000000E+00  0.00000000000E+00 -0.84346795030E+03  0.33978306483E+04  0.32914761022E+04 0.  0.
        2    1    3    3  502    0 -0.13852482124E+04 -0.53731652088E+03 -0.11522959981E+04  0.18802679917E+04  0.25500000920E-02 0.  1.
       -2    1    3    3    0  502  0.13852482124E+04  0.53731652088E+03  0.30882804776E+03  0.15175626566E+04  0.25500000920E-02 0. -1.
</event>
<event>
 5   0  0.6377741E-07  0.3291961E+04  0.7818609E-02  0.8164944E-01
       -2   -1    0    0    0  501  0.00000000000E+00  0.00000000000E+00  0.17689831154E+04  0.17689831154E+04  0.25500000920E-02 0.  1.
        2   -1    0    0  501    0  0.00000000000E+00  0.00000000000E+00 -0.15315307928E+04  0.15315307928E+04  0.25500000920E-02 0. -1.
    10030    2    1    2    0    0  0.00000000000E+00  0.00000000000E+00  0.23745232259E+03  0.33005139083E+04  0.32919611865E+04 0.  0.
        1    1    3    3  502    0 -0.88665544937E+03  0.36491238698E+03  0.14600859104E+04  0.17467598009E+04  0.50400001928E-02 0.  1.
       -1    1    3    3    0  502  0.88665544937E+03 -0.36491238698E+03 -0.12226335878E+04  0.15537541074E+04  0.50400001928E-02 0. -1.
</event>
<event>
 5   0  0.2080828E-07  0.3307456E+04  0.7818609E-02  0.8161001E-01
        1   -1    0    0  501    0  0.00000000000E+00  0.00000000000E+00  0.16977971405E+04  0.16977971405E+04  0.50400001928E-02 0. -1.
       -1   -1    0    0    0  501  0.00000000000E+00  0.00000000000E+00 -0.16108022908E+04  0.16108022908E+04  0.50400001928E-02 0.  1.
    10030    2    1    2    0    0  0.00000000000E+00  0.00000000000E+00  0.86994849764E+02  0.33085994313E+04  0.33074555315E+04 0.  0.
        1    1    3    3  502    0 -0.65694145478E+03  0.20509481635E+03 -0.14607445487E+04  0.16147478427E+04  0.50400001928E-02 0.  1.
       -1    1    3    3    0  502  0.65694145478E+03 -0.20509481635E+03  0.15477393985E+04  0.16938515886E+04  0.50400001928E-02 0. -1.
</event>
<event>
 5   0  0.2037333E-07  0.3297561E+04  0.7818609E-02  0.8163516E-01
       -1   -1    0    0    0  501  0.00000000000E+00  0.00000000000E+00  0.16150936410E+04  0.16150936410E+04  0.50400001928E-02 0. -1.
        1   -1    0    0  501    0  0.00000000000E+00  0.00000000000E+00 -0.16831700414E+04  0.16831700414E+04  0.50400001928E-02 0.  1.
    10030    2    1    2    0    0  0.00000000000E+00  0.00000000000E+00 -0.68076400367E+02  0.32982636824E+04  0.32975610567E+04 0.  0.
        3    1    3    3  502    0 -0.13207772428E+04  0.74341837634E+03 -0.68329422957E+03  0.16625325325E+04  0.10100000352E+00 0.  1.
       -3    1    3    3    0  502  0.13207772428E+04 -0.74341837634E+03  0.61521782920E+03  0.16357311499E+04  0.10100000352E+00 0. -1.
</event>
<event>
 5   0  0.2037333E-07  0.3305299E+04  0.7818609E-02  0.8161548E-01
       -1   -1    0    0    0  501  0.00000000000E+00  0.00000000000E+00  0.96657736430E+03  0.96657736431E+03  0.50400001928E-02 0.  1.
        1   -1    0    0  501    0  0.00000000000E+00  0.00000000000E+00 -0.28256921371E+04  0.28256921371E+04  0.50400001928E-02 0. -1.
    10030    2    1    2    0    0  0.00000000000E+00  0.00000000000E+00 -0.18591147728E+04  0.37922695014E+04  0.33052988115E+04 0.  0.
        3    1    3    3  502    0  0.83006745371E+03  0.32639652952E+03  0.66671819288E+03  0.11135797372E+04  0.10100000352E+00 0.  1.
       -3    1    3    3    0  502 -0.83006745371E+03 -0.32639652952E+03 -0.25258329657E+04  0.26786897642E+04  0.10100000352E+00 0. -1.
</event>
<event>
 5   0  0.2080770E-07  0.3298808E+04  0.7818609E-02  0.8163199E-01
       -1   -1    0    0    0  501  0.00000000000E+00  0.00000000000E+00  0.16377276152E+04  0.16377276152E+04  0.50400001928E-02 0. -1.
        1   -1    0    0  501    0  0.00000000000E+00  0.00000000000E+00 -0.16611636467E+04  0.16611636467E+04  0.50400001928E-02 0.  1.
    10030    2    1    2    0    0  0.00000000000E+00  0.00000000000E+00 -0.23436031473E+02  0.32988912619E+04  0.32988080136E+04 0.  0.
        4    1    3    3  502    0 -0.75525660823E+03  0.14154062413E+04  0.37136421982E+03  0.16467241326E+04  0.12699999809E+01 0.  1.
       -4    1    3    3    0  502  0.75525660823E+03 -0.14154062413E+04 -0.39480025129E+03  0.16521671294E+04  0.12699999809E+01 0. -1.
</event>
<event>
 5   0  0.6377741E-07  0.3308425E+04  0.7818609E-02  0.8160755E-01
        2   -1    0    0  501    0  0.00000000000E+00  0.00000000000E+00  0.23301420105E+04  0.23301420105E+04  0.25500000920E-02 0. -1.
       -2   -1    0    0    0  501  0.00000000000E+00  0.00000000000E+00 -0.11743575029E+04  0.11743575029E+04  0.25500000920E-02 0.  1.
    10030    2    1    2    0    0  0.00000000000E+00  0.00000000000E+00  0.11557845076E+04  0.35044995134E+04  0.33084254581E+04 0.  0.
        1    1    3    3  502    0  0.10435023827E+04 -0.10266903953E+04 -0.23810587999E+03  0.14831334399E+04  0.50400001928E-02 0.  1.
       -1    1    3    3    0  502 -0.10435023827E+04  0.10266903953E+04  0.13938903876E+04  0.20213660735E+04  0.50400001928E-02 0. -1.
</event>
<event>
 5   0  0.6351753E-07  0.3293425E+04  0.7818609E-02  0.8164570E-01
        2   -1    0    0  501    0  0.00000000000E+00  0.00000000000E+00  0.23584086972E+04  0.23584086972E+04  0.25500000920E-02 0.  1.
       -2   -1    0    0    0  501  0.00000000000E+00  0.00000000000E+00 -0.11497848627E+04  0.11497848627E+04  0.25500000920E-02 0. -1.
    10030    2    1    2    0    0  0.00000000000E+00  0.00000000000E+00  0.12086238345E+04  0.35081935599E+04  0.32934253416E+04 0.  0.
        3    1    3    3  502    0 -0.88603409975E+03 -0.13221824378E+04  0.15434397870E+03  0.15990762642E+04  0.10100000352E+00 0. -1.
       -3    1    3    3    0  502  0.88603409975E+03  0.13221824378E+04  0.10542798558E+04  0.19091172958E+04  0.10100000352E+00 0.  1.
</event>
<event>
 5   0  0.2037333E-07  0.3307863E+04  0.7818609E-02  0.8160897E-01
       -1   -1    0    0    0  501  0.00000000000E+00  0.00000000000E+00  0.11660010556E+04  0.11660010556E+04  0.50400001928E-02 0. -1.
        1   -1    0    0  501    0  0.00000000000E+00  0.00000000000E+00 -0.23460441126E+04  0.23460441126E+04  0.50400001928E-02 0.  1.
    10030    2    1    2    0    0  0.00000000000E+00  0.00000000000E+00 -0.11800430570E+04  0.35120451683E+04  0.33078633054E+04 0.  0.
        3    1    3    3  502    0 -0.99460413071E+02 -0.16258596535E+04 -0.28565976099E+03  0.16537573873E+04  0.10100000352E+00 0. -1.
       -3    1    3    3    0  502  0.99460413071E+02  0.16258596535E+04 -0.89438329600E+03  0.18582877810E+04  0.10100000352E+00 0.  1.
</event>
<event>
 5   0  0.6426079E-07  0.3319236E+04  0.7818609E-02  0.8158018E-01
       -2   -1    0    0    0  501  0.00000000000E+00  0.00000000000E+00  0.11316354812E+04  0.11316354812E+04  0.25500000920E-02 0. -1.
        2   -1    0    0  501    0  0.00000000000E+00  0.00000000000E+00 -0.24339390278E+04  0.24339390278E+04  0.25500000920E-02 0.  1.
    10030    2    1    2    0    0  0.00000000000E+00  0.00000000000E+00 -0.13023035466E+04  0.35655745090E+04  0.33192359139E+04 0.  0.
        4    1    3    3  502    0  0.16439866883E+04 -0.11868041226E+03 -0.44298423269E+03  0.17067553764E+04  0.12699999809E+01 0. -1.
       -4    1    3    3    0  502 -0.16439866883E+04  0.11868041226E+03 -0.85931931394E+03  0.18588191326E+04  0.12699999809E+01 0.  1.
</event>
<event>
 5   0  0.2037333E-07  0.3278006E+04  0.7818609E-02  0.8168514E-01
       -1   -1    0    0    0  501  0.00000000000E+00  0.00000000000E+00  0.22266386254E+04  0.22266386254E+04  0.50400001928E-02 0. -1.
        1   -1    0    0  501    0  0.00000000000E+00  0.00000000000E+00 -0.12064509429E+04  0.12064509429E+04  0.50400001928E-02 0.  1.
    10030    2    1    2    0    0  0.00000000000E+00  0.00000000000E+00  0.10201876825E+04  0.34330895683E+04  0.32780056553E+04 0.  0.
        3    1    3    3  502    0  0.82869492331E+03  0.14108881726E+04  0.41079496173E+03  0.16870368171E+04  0.10100000352E+00 0. -1.
       -3    1    3    3    0  502 -0.82869492331E+03 -0.14108881726E+04  0.60939272077E+03  0.17460527512E+04  0.10100000352E+00 0.  1.
</event>
<event>
 5   0  0.2037333E-07  0.3293576E+04  0.7818609E-02  0.8164532E-01
       -1   -1    0    0    0  501  0.00000000000E+00  0.00000000000E+00  0.18383862344E+04  0.18383862344E+04  0.50400001928E-02 0. -1.
        1   -1    0    0  501    0  0.00000000000E+00  0.00000000000E+00 -0.14751587219E+04  0.14751587219E+04  0.50400001928E-02 0.  1.
    10030    2    1    2    0    0  0.00000000000E+00  0.00000000000E+00  0.36322751249E+03  0.33135449563E+04  0.32935764682E+04 0.  0.
        3    1    3    3  502    0 -0.23032232862E+03 -0.15132265639E+04 -0.42952986475E+03  0.15897795204E+04  0.10100000352E+00 0.  1.
       -3    1    3    3    0  502  0.23032232862E+03  0.15132265639E+04  0.79275737725E+03  0.17237654359E+04  0.10100000352E+00 0. -1.
</event>
<event>
 5   0  0.6258718E-07  0.3293064E+04  0.7818609E-02  0.8164663E-01
        2   -1    0    0  501    0  0.00000000000E+00  0.00000000000E+00  0.15698265686E+04  0.15698265686E+04  0.25500000920E-02 0. -1.
       -2   -1    0    0    0  501  0.00000000000E+00  0.00000000000E+00 -0.17269851613E+04  0.17269851613E+04  0.25500000920E-02 0.  1.
    10030    2    1    2    0    0  0.00000000000E+00  0.00000000000E+00 -0.15715859270E+03  0.32968117299E+04  0.32930637344E+04 0.  0.
        5    1    3    3  502    0 -0.17771804766E+02 -0.16312325307E+04 -0.30201416327E+03  0.16590569764E+04  0.46999998093E+01 0.  1.
       -5    1    3    3    0  502  0.17771804766E+02  0.16312325307E+04  0.14485557057E+03  0.16377547535E+04  0.46999998093E+01 0. -1.
</event>
<event>
 5   0  0.2080770E-07  0.3311319E+04  0.7818609E-02  0.8160021E-01
        1   -1    0    0  501    0  0.00000000000E+00  0.00000000000E+00  0.21778764669E+04  0.21778764669E+04  0.50400001928E-02 0. -1.
       -1   -1    0    0    0  501  0.00000000000E+00  0.00000000000E+00 -0.12586607428E+04  0.12586607428E+04  0.50400001928E-02 0.  1.
    10030    2    1    2    0    0  0.00000000000E+00  0.00000000000E+00  0.91921572410E+03  0.34365372097E+04  0.33113185359E+04 0.  0.
        4    1    3    3  502    0 -0.88844942219E+03  0.22602125884E+03  0.18904304591E+04  0.21009895095E+04  0.12699999809E+01 0. -1.
       -4    1    3    3    0  502  0.88844942219E+03 -0.22602125884E+03 -0.97121473500E+03  0.13355477002E+04  0.12699999809E+01 0.  1.
</event>
<event>
 5   0  0.2037333E-07  0.3289548E+04  0.7818609E-02  0.8165560E-01
       -1   -1    0    0    0  501  0.00000000000E+00  0.00000000000E+00  0.12541131434E+04  0.12541131434E+04  0.50400001928E-02 0.  1.
        1   -1    0    0  501    0  0.00000000000E+00  0.00000000000E+00 -0.21571270348E+04  0.21571270348E+04  0.50400001928E-02 0. -1.
    10030    2    1    2    0    0  0.00000000000E+00  0.00000000000E+00 -0.90301389142E+03  0.34112401782E+04  0.32895479119E+04 0.  0.
        3    1    3    3  502    0 -0.15652069209E+04  0.42332698314E+03 -0.16524614742E+03  0.16298419369E+04  0.10100000352E+00 0. -1.
       -3    1    3    3    0  502  0.15652069209E+04 -0.42332698314E+03 -0.73776774399E+03  0.17813982413E+04  0.10100000352E+00 0.  1.
</event>
<event>
 5   0  0.6424183E-07  0.3304702E+04  0.7818609E-02  0.8161700E-01
        2   -1    0    0  501    0  0.00000000000E+00  0.00000000000E+00  0.21205169826E+04  0.21205169826E+04  0.25500000920E-02 0.  1.
       -2   -1    0    0    0  501  0.00000000000E+00  0.00000000000E+00 -0.12875462987E+04  0.12875462987E+04  0.25500000920E-02 0. -1.
    10030    2    1    2    0    0  0.00000000000E+00  0.00000000000E+00  0.83297068392E+03  0.34080632813E+04  0.33047019789E+04 0.  0.
        2    1    3    3  502    0 -0.58390886208E+03  0.12541640696E+04 -0.51531596523E+03  0.14762884599E+04  0.25500000920E-02 0. -1.
       -2    1    3    3    0  502  0.58390886208E+03 -0.12541640696E+04  0.13482866491E+04  0.19317748215E+04  0.25500000920E-02 0.  1.
</event>
<event>
 5   0  0.2080828E-07  0.3287638E+04  0.7818609E-02  0.8166048E-01
        1   -1    0    0  501    0  0.00000000000E+00  0.00000000000E+00  0.20941725839E+04  0.20941725839E+04  0.50400001928E-02 0. -1.
       -1   -1    0    0    0  501  0.00000000000E+00  0.00000000000E+00 -0.12903140278E+04  0.12903140278E+04  0.50400001928E-02 0.  1.
    10030    2    1    2    0    0  0.00000000000E+00  0.00000000000E+00  0.80385855609E+03  0.33844866118E+04  0.32876376088E+04 0.  0.
        1    1    3    3  502    0  0.14099628788E+04  0.84180413630E+03  0.47835045965E+03  0.17103943071E+04  0.50400001928E-02 0. -1.
       -1    1    3    3    0  502 -0.14099628788E+04 -0.84180413630E+03  0.32550809644E+03  0.16740923046E+04  0.50400001928E-02 0.  1.
</event>
<event>
 5   0  0.6377741E-07  0.3306160E+04  0.7818609E-02  0.8161330E-01
       -2   -1    0    0    0  501  0.00000000000E+00  0.00000000000E+00  0.13292620307E+04  0.13292620307E+04  0.25500000920E-02 0.  1.
        2   -1    0    0  501    0  0.00000000000E+00  0.00000000000E+00 -0.20557821457E+04  0.20557821457E+04  0.25500000920E-02 0. -1.
    10030    2    1    2    0    0  0.00000000000E+00  0.00000000000E+00 -0.72652011499E+03  0.33850441763E+04  0.33061597962E+04 0.  0.
        1    1    3    3  502    0  0.11510852520E+04 -0.41216656251E+03 -0.15023677774E+04  0.19370047680E+04  0.50400001928E-02 0. -1.
       -1    1    3    3    0  502 -0.11510852520E+04  0.41216656251E+03  0.77584766245E+03  0.14480394083E+04  0.50400001928E-02 0.  1.
</event>
<event>
 5   0  0.2057130E-07  0.3301803E+04  0.7818609E-02  0.8162437E-01
       -1   -1    0    0    0  501  0.00000000000E+00  0.00000000000E+00  0.20497940575E+04  0.20497940575E+04  0.50400001928E-02 0.  1.
        1   -1    0    0  501    0  0.00000000000E+00  0.00000000000E+00 -0.13296340090E+04  0.13296340090E+04  0.50400001928E-02 0. -1.
    10030    2    1    2    0    0  0.00000000000E+00  0.00000000000E+00  0.72016004848E+03  0.33794280665E+04  0.33018030773E+04 0.  0.
        2    1    3    3  502    0 -0.63755621661E+03 -0.97670257953E+03  0.15559014305E+04  0.19445449647E+04  0.25500000920E-02 0.  1.
       -2    1    3    3    0  502  0.63755621661E+03  0.97670257953E+03 -0.83574138205E+03  0.14348831018E+04  0.25500000920E-02 0. -1.
</event>
<event>
 5   0  0.2080770E-07  0.3293461E+04  0.7818609E-02  0.8164561E-01
        1   -1    0    0  501    0  0.00000000000E+00  0.00000000000E+00  0.20926071689E+04  0.20926071690E+04  0.50400001928E-02 0.  1.
       -1   -1    0    0    0  501  0.00000000000E+00  0.00000000000E+00 -0.12958575450E+04  0.12958575450E+04  0.50400001928E-02 0. -1.
    10030    2    1    2    0    0  0.00000000000E+00  0.00000000000E+00  0.79674962396E+03  0.33884647140E+04  0.32934606654E+04 0.  0.
        4    1    3    3  502    0 -0.12236093375E+04 -0.66011718848E+03  0.13062957423E+04  0.19077171417E+04  0.12699999809E+01 0.  1.
       -4    1    3    3    0  502  0.12236093375E+04  0.66011718848E+03 -0.50954611836E+03  0.14807475723E+04  0.12699999809E+01 0. -1.
</event>
<event>
 5   0  0.6351753E-07  0.3297432E+04  0.7818609E-02  0.8163549E-01
       -2   -1    0    0    0  501  0.00000000000E+00  0.00000000000E+00  0.13696436642E+04  0.13696436642E+04  0.25500000920E-02 0. -1.
        2   -1    0    0  501    0  0.00000000000E+00  0.00000000000E+00 -0.19846503044E+04  0.19846503044E+04  0.25500000920E-02 0.  1.
    10030    2    1    2    0    0  0.00000000000E+00  0.00000000000E+00 -0.61500664025E+03  0.33542939686E+04  0.32974315550E+04 0.  0.
        3    1    3    3  502    0 -0.10023489311E+04  0.71041143632E+03  0.81094570260E+03  0.14720804093E+04  0.10100000352E+00 0. -1.
       -3    1    3    3    0  502  0.10023489311E+04 -0.71041143632E+03 -0.14259523428E+04  0.18822135593E+04  0.10100000352E+00 0.  1.
</event>
<event>
 5   0  0.2037333E-07  0.3293299E+04  0.7818609E-02  0.8164603E-01
        1   -1    0    0  501    0  0.00000000000E+00  0.00000000000E+00  0.26335460244E+04  0.26335460244E+04  0.50400001928E-02 0.  1.
       -1   -1    0    0    0  501  0.00000000000E+00  0.00000000000E+00 -0.10295831337E+04  0.10295831337E+04  0.50400001928E-02 0. -1.
    10030    2    1    2    0    0  0.00000000000E+00  0.00000000000E+00  0.16039628907E+04  0.36631291581E+04  0.32932989956E+04 0.  0.
        3    1    3    3  502    0 -0.87586051285E+03  0.13879459990E+04  0.95091651556E+03  0.18967783117E+04  0.10100000352E+00 0.  1.
       -3    1    3    3    0  502  0.87586051285E+03 -0.13879459990E+04  0.65304637510E+03  0.17663508463E+04  0.10100000352E+00 0. -1.
</event>
<event>
 5   0  0.6424183E-07  0.3292233E+04  0.7818609E-02  0.8164875E-01
       -2   -1    0    0    0  501  0.00000000000E+00  0.00000000000E+00  0.14330473406E+04  0.14330473406E+04  0.25500000920E-02 0.  1.
        2   -1    0    0  501    0  0.00000000000E+00  0.00000000000E+00 -0.18908649495E+04  0.18908649495E+04  0.25500000920E-02 0. -1.
    10030    2    1    2    0    0  0.00000000000E+00  0.00000000000E+00 -0.45781760894E+03  0.33239122901E+04  0.32922326693E+04 0.  0.
        2    1    3    3  502    0 -0.39133188235E+03  0.31909562825E+03 -0.18107448214E+04  0.18798296386E+04  0.25500000920E-02 0. -1.
       -2    1    3    3    0  502  0.39133188235E+03 -0.31909562825E+03  0.13529272124E+04  0.14440826515E+04  0.25500000920E-02 0.  1.
</event>
<event>
 5   0  0.6351753E-07  0.3289573E+04  0.7818609E-02  0.8165554E-01
       -2   -1    0    0    0  501  0.00000000000E+00  0.00000000000E+00  0.23752451389E+04  0.23752451389E+04  0.25500000920E-02 0.  1.
        2   -1    0    0  501    0  0.00000000000E+00  0.00000000000E+00 -0.11389654787E+04  0.11389654787E+04  0.25500000920E-02 0. -1.
    10030    2    1    2    0    0  0.00000000000E+00  0.00000000000E+00  0.12362796602E+04  0.35142106176E+04  0.32895727483E+04 0.  0.
        3    1    3    3  502    0  0.34636950122E+03  0.81999578764E+03  0.20956855477E+04  0.22768976367E+04  0.10100000352E+00 0.  1.
       -3    1    3    3    0  502 -0.34636950122E+03 -0.81999578764E+03 -0.85940588741E+03  0.12373129809E+04  0.10100000352E+00 0. -1.
</event>
<event>
 5   0  0.6424183E-07  0.3298683E+04  0.7818609E-02  0.8163231E-01
       -2   -1    0    0    0  501  0.00000000000E+00  0.00000000000E+00  0.12217732187E+04  0.12217732187E+04  0.25500000920E-02 0. -1.
        2   -1    0    0  501    0  0.00000000000E+00  0.00000000000E+00 -0.22265400178E+04  0.22265400178E+04  0.25500000920E-02 0.  1.
    10030    2    1    2    0    0  0.00000000000E+00  0.00000000000E+00 -0.10047667991E+04  0.34483132365E+04  0.32986827456E+04 0.  0.
        2    1    3    3  502    0  0.97879901568E+03  0.13236970463E+04 -0.60746986702E+03  0.17547766305E+04  0.25500000920E-02 0. -1.
       -2    1    3    3    0  502 -0.97879901568E+03 -0.13236970463E+04 -0.39729693212E+03  0.16935366060E+04  0.25500000920E-02 0.  1.
</event>
<event>
 5   0  0.6426079E-07  0.3304026E+04  0.7818609E-02  0.8161872E-01
        2   -1    0    0  501    0  0.00000000000E+00  0.00000000000E+00  0.28009394991E+04  0.28009394991E+04  0.25500000920E-02 0. -1.
       -2   -1    0    0    0  501  0.00000000000E+00  0.00000000000E+00 -0.97436857012E+03  0.97436857013E+03  0.25500000920E-02 0.  1.
    10030    2    1    2    0    0  0.00000000000E+00  0.00000000000E+00  0.18265709290E+04  0.37753080692E+04  0.33040262800E+04 0.  0.
        4    1    3    3  502    0 -0.22686079807E+03  0.36967789514E+03  0.27347167591E+04  0.27688995888E+04  0.12699999809E+01 0. -1.
       -4    1    3    3    0  502  0.22686079807E+03 -0.36967789514E+03 -0.90814583007E+03  0.10064084804E+04  0.12699999809E+01 0.  1.
</event>
<event>
 5   0  0.2087665E-07  0.3242919E+04  0.7818609E-02  0.8177573E-01
       -1   -1    0    0    0  501  0.00000000000E+00  0.00000000000E+00  0.96908303386E+03  0.96908303387E+03  0.50400001928E-02 0.  1.
        1   -1    0    0  501    0  0.00000000000E+00  0.00000000000E+00 -0.27130095474E+04  0.27130095474E+04  0.50400001928E-02 0. -1.
    10030    2    1    2    0    0  0.00000000000E+00  0.00000000000E+00 -0.17439265135E+04  0.36820925812E+04  0.32429193780E+04 0.  0.
        5    1    3    3  502    0 -0.14500009293E+03  0.11191205563E+04 -0.21939677033E+04  0.24671790003E+04  0.46999998093E+01 0. -1.
       -5    1    3    3    0  502  0.14500009293E+03 -0.11191205563E+04  0.45004118982E+03  0.12149135809E+04  0.46999998093E+01 0.  1.
</event>
<event>
 5   0  0.2080828E-07  0.3291880E+04  0.7818609E-02  0.8164965E-01
        1   -1    0    0  501    0  0.00000000000E+00  0.00000000000E+00  0.22077549123E+04  0.22077549123E+04  0.50400001928E-02 0.  1.
       -1   -1    0    0    0  501  0.00000000000E+00  0.00000000000E+00 -0.12270917074E+04  0.12270917075E+04  0.50400001928E-02 0. -1.
    10030    2    1    2    0    0  0.00000000000E+00  0.00000000000E+00  0.98066320487E+03  0.34348466198E+04  0.32918795513E+04 0.  0.
        1    1    3    3  502    0  0.11373171232E+03  0.52977206141E+03  0.21120264151E+04  0.21804240224E+04  0.50400001928E-02 0.  1.
       -1    1    3    3    0  502 -0.11373171232E+03 -0.52977206141E+03 -0.11313632102E+04  0.12544225974E+04  0.50400001928E-02 0. -1.
</event>
<event>
 5   0  0.6424183E-07  0.3303791E+04  0.7818609E-02  0.8161931E-01
        2   -1    0    0  501    0  0.00000000000E+00  0.00000000000E+00  0.23301715179E+04  0.23301715179E+04  0.25500000920E-02 0.  1.
       -2   -1    0    0    0  501  0.00000000000E+00  0.00000000000E+00 -0.11710548528E+04  0.11710548528E+04  0.25500000920E-02 0. -1.
    10030    2    1    2    0    0  0.00000000000E+00  0.00000000000E+00  0.11591166651E+04  0.35012263707E+04  0.33037909521E+04 0.  0.
        2    1    3    3  502    0  0.98656071241E+03 -0.22891578207E+03  0.19625573286E+04  0.22084690948E+04  0.25500000920E-02 0.  1.
       -2    1    3    3    0  502 -0.98656071241E+03  0.22891578207E+03 -0.80344066349E+03  0.12927572759E+04  0.25500000920E-02 0. -1.
</event>
<event>
 5   0  0.6424183E-07  0.3303246E+04  0.7818609E-02  0.8162070E-01
        2   -1    0    0  501    0  0.00000000000E+00  0.00000000000E+00  0.22984772094E+04  0.22984772094E+04  0.25500000920E-02 0. -1.
       -2   -1    0    0    0  501  0.00000000000E+00  0.00000000000E+00 -0.11868108732E+04  0.11868108732E+04  0.25500000920E-02 0.  1.
    10030    2    1    2    0    0  0.00000000000E+00  0.00000000000E+00  0.11116663361E+04  0.34852880826E+04  0.33032455216E+04 0.  0.
        2    1    3    3  502    0 -0.13703227378E+04  0.20782571682E+02  0.15283915144E+04  0.20528509303E+04  0.25500000920E-02 0. -1.
       -2    1    3    3    0  502  0.13703227378E+04 -0.20782571682E+02 -0.41672517825E+03  0.14324371523E+04  0.25500000920E-02 0.  1.
</event>
<event>
 5   0  0.6351753E-07  0.3305958E+04  0.7818609E-02  0.8161381E-01
        2   -1    0    0  501    0  0.00000000000E+00  0.00000000000E+00  0.28327874977E+04  0.28327874977E+04  0.25500000920E-02 0.  1.
       -2   -1    0    0    0  501  0.00000000000E+00  0.00000000000E+00 -0.96454077250E+03  0.96454077250E+03  0.25500000920E-02 0. -1.
    10030    2    1    2    0    0  0.00000000000E+00  0.00000000000E+00  0.18682467252E+04  0.37973282702E+04  0.33059576775E+04 0.  0.
        3    1    3    3  502    0 -0.98034736935E+03 -0.99894479394E+03  0.19442452321E+04  0.23956337781E+04  0.10100000352E+00 0.  1.
       -3    1    3    3    0  502  0.98034736935E+03  0.99894479394E+03 -0.75998506929E+02  0.14016944921E+04  0.10100000352E+00 0. -1.
</event>
<event>
 5   0  0.2057130E-07  0.3265541E+04  0.7818609E-02  0.8171719E-01
        1   -1    0    0  501    0  0.00000000000E+00  0.00000000000E+00  0.22365535436E+04  0.22365535436E+04  0.50400001928E-02 0. -1.
       -1   -1    0    0    0  501  0.00000000000E+00  0.00000000000E+00 -0.11919855511E+04  0.11919855511E+04  0.50400001928E-02 0.  1.
    10030    2    1    2    0    0  0.00000000000E+00  0.00000000000E+00  0.10445679925E+04  0.34285390947E+04  0.32655410016E+04 0.  0.
        2    1    3    3  502    0 -0.32693093651E+03  0.34884791316E+03  0.21614157980E+04  0.22136614365E+04  0.25500000920E-02 0. -1.
       -2    1    3    3    0  502  0.32693093651E+03 -0.34884791316E+03 -0.11168478055E+04  0.12148776582E+04  0.25500000920E-02 0.  1.
</event>
<event>
 5   0  0.2080828E-07  0.3300443E+04  0.7818609E-02  0.8162783E-01
        1   -1    0    0  501    0  0.00000000000E+00  0.00000000000E+00  0.10106187868E+04  0.10106187868E+04  0.50400001928E-02 0.  1.
       -1   -1    0    0    0  501  0.00000000000E+00  0.00000000000E+00 -0.26946176650E+04  0.26946176650E+04  0.50400001928E-02 0. -1.
    10030    2    1    2    0    0  0.00000000000E+00  0.00000000000E+00 -0.16839988782E+04  0.37052364519E+04  0.33004431433E+04 0.  0.
        1    1    3    3  502    0 -0.15469418926E+04 -0.55763320072E+03 -0.99774934411E+03  0.19234052509E+04  0.50400001928E-02 0. -1.
       -1    1    3    3    0  502  0.15469418926E+04  0.55763320072E+03 -0.68624953409E+03  0.17818312009E+04  0.50400001928E-02 0.  1.
</event>
<event>
 5   0  0.6424183E-07  0.3140936E+04  0.7818609E-02  0.8204592E-01
       -2   -1    0    0    0  501  0.00000000000E+00  0.00000000000E+00  0.16217415180E+04  0.16217415181E+04  0.25500000920E-02 0.  1.
        2   -1    0    0  501    0  0.00000000000E+00  0.00000000000E+00 -0.15208156996E+04  0.15208156996E+04  0.25500000920E-02 0. -1.
    10030    2    1    2    0    0  0.00000000000E+00  0.00000000000E+00  0.10092581841E+03  0.31425572177E+04  0.31409361416E+04 0.  0.
        2    1    3    3  502    0  0.10681282894E+04  0.10448709988E+04 -0.43322896057E+03  0.15557444453E+04  0.25500000920E-02 0. -1.
       -2    1    3    3    0  502 -0.10681282894E+04 -0.10448709988E+04  0.53415477898E+03  0.15868127724E+04  0.25500000920E-02 0.  1.
</event>
<event>
 5   0  0.6258718E-07  0.3141028E+04  0.7818609E-02  0.8204567E-01
        2   -1    0    0  501    0  0.00000000000E+00  0.00000000000E+00  0.93055122308E+03  0.93055122309E+03  0.25500000920E-02 0.  1.
       -2   -1    0    0    0  501  0.00000000000E+00  0.00000000000E+00 -0.26505954357E+04  0.26505954357E+04  0.25500000920E-02 0. -1.
    10030    2    1    2    0    0  0.00000000000E+00  0.00000000000E+00 -0.17200442126E+04  0.35811466588E+04  0.31410283823E+04 0.  0.
        5    1    3    3  502    0  0.33237284834E+03 -0.10042091733E+04 -0.21835354496E+04  0.24262639847E+04  0.46999998093E+01 0. -1.
       -5    1    3    3    0  502 -0.33237284834E+03  0.10042091733E+04  0.46349123699E+03  0.11548826740E+04  0.46999998093E+01 0.  1.
</event>
<event>
 5   0  0.2057130E-07  0.3299053E+04  0.7818609E-02  0.8163136E-01
       -1   -1    0    0    0  501  0.00000000000E+00  0.00000000000E+00  0.16557718933E+04  0.16557718933E+04  0.50400001928E-02 0. -1.
        1   -1    0    0  501    0  0.00000000000E+00  0.00000000000E+00 -0.16433049452E+04  0.16433049452E+04  0.50400001928E-02 0.  1.
    10030    2    1    2    0    0  0.00000000000E+00  0.00000000000E+00  0.12466948088E+02  0.32990768385E+04  0.32990532826E+04 0.  0.
        2    1    3    3  502    0 -0.14918308917E+04  0.15284756563E+03  0.69327284195E+03  0.16521346862E+04  0.25500000920E-02 0. -1.
       -2    1    3    3    0  502  0.14918308917E+04 -0.15284756563E+03 -0.68080589387E+03  0.16469421523E+04  0.25500000920E-02 0.  1.
</event>
<event>
 5   0  0.2087665E-07  0.3298511E+04  0.7818609E-02  0.8163274E-01
       -1   -1    0    0    0  501  0.00000000000E+00  0.00000000000E+00  0.10111549653E+04  0.10111549653E+04  0.50400001928E-02 0. -1.
        1   -1    0    0  501    0  0.00000000000E+00  0.00000000000E+00 -0.26900356905E+04  0.26900356905E+04  0.50400001928E-02 0.  1.
    10030    2    1    2    0    0  0.00000000000E+00  0.00000000000E+00 -0.16788807252E+04  0.37011906558E+04  0.32985105398E+04 0.  0.
        5    1    3    3  502    0 -0.14305147748E+04 -0.71738366263E+03 -0.12868800002E+04  0.20535564432E+04  0.46999998093E+01 0.  1.
       -5    1    3    3    0  502  0.14305147748E+04  0.71738366263E+03 -0.39200072506E+03  0.16476342127E+04  0.46999998093E+01 0. -1.
</event>
<event>
 5   0  0.6426079E-07  0.3306094E+04  0.7818609E-02  0.8161346E-01
        2   -1    0    0  501    0  0.00000000000E+00  0.00000000000E+00  0.17048843510E+04  0.17048843510E+04  0.25500000920E-02 0. -1.
       -2   -1    0    0    0  501  0.00000000000E+00  0.00000000000E+00 -0.16027862303E+04  0.16027862303E+04  0.25500000920E-02 0.  1.
    10030    2    1    2    0    0  0.00000000000E+00  0.00000000000E+00  0.10209812068E+03  0.33076705813E+04  0.33060944705E+04 0.  0.
        4    1    3    3  502    0  0.47680035717E+03  0.91029455207E+03  0.13464979148E+04  0.16938220095E+04  0.12699999809E+01 0. -1.
       -4    1    3    3    0  502 -0.47680035717E+03 -0.91029455207E+03 -0.12443997942E+04  0.16138485718E+04  0.12699999809E+01 0.  1.
</event>
<event>
 5   0  0.2037333E-07  0.3492876E+04  0.7818609E-02  0.8115480E-01
       -1   -1    0    0    0  501  0.00000000000E+00  0.00000000000E+00  0.10555517655E+04  0.10555517655E+04  0.50400001928E-02 0.  1.
        1   -1    0    0  501    0  0.00000000000E+00  0.00000000000E+00 -0.28895280767E+04  0.28895280767E+04  0.50400001928E-02 0. -1.
    10030    2    1    2    0    0  0.00000000000E+00  0.00000000000E+00 -0.18339763112E+04  0.39450798423E+04  0.34928764438E+04 0.  0.
        3    1    3    3  502    0 -0.69829965652E+03  0.11689802845E+04 -0.21521437386E+04  0.25467351644E+04  0.10100000352E+00 0. -1.
       -3    1    3    3    0  502  0.69829965652E+03 -0.11689802845E+04  0.31816742739E+03  0.13983446778E+04  0.10100000352E+00 0.  1.
</event>
<event>
 5   0  0.2057130E-07  0.3290431E+04  0.7818609E-02  0.8165334E-01
        1   -1    0    0  501    0  0.00000000000E+00  0.00000000000E+00  0.19642074991E+04  0.19642074991E+04  0.50400001928E-02 0.  1.
       -1   -1    0    0    0  501  0.00000000000E+00  0.00000000000E+00 -0.13780288743E+04  0.13780288743E+04  0.50400001928E-02 0. -1.
    10030    2    1    2    0    0  0.00000000000E+00  0.00000000000E+00  0.58617862482E+03  0.33422363735E+04  0.32904313693E+04 0.  0.
        2    1    3    3  502    0  0.11608006813E+04 -0.32725827384E+02 -0.89067994865E+03  0.14635026383E+04  0.25500000920E-02 0. -1.
       -2    1    3    3    0  502 -0.11608006813E+04  0.32725827384E+02  0.14768585735E+04  0.18787337351E+04  0.25500000920E-02 0.  1.
</event>
<event>
 5   0  0.6424183E-07  0.3302078E+04  0.7818609E-02  0.8162367E-01
        2   -1    0    0  501    0  0.00000000000E+00  0.00000000000E+00  0.21162262140E+04  0.21162262140E+04  0.25500000920E-02 0.  1.
       -2   -1    0    0    0  501  0.00000000000E+00  0.00000000000E+00 -0.12881087179E+04  0.12881087179E+04  0.25500000920E-02 0. -1.
    10030    2    1    2    0    0  0.00000000000E+00  0.00000000000E+00  0.82811749607E+03  0.34043349319E+04  0.33020777915E+04 0.  0.
        2    1    3    3  502    0  0.94307545658E+03 -0.11854218743E+04  0.10911408043E+04  0.18668702664E+04  0.25500000920E-02 0. -1.
       -2    1    3    3    0  502 -0.94307545658E+03  0.11854218743E+04 -0.26302330827E+03  0.15374646654E+04  0.25500000920E-02 0.  1.
</event>
<event>
 5   0  0.6258718E-07  0.3310945E+04  0.7818609E-02  0.8160116E-01
       -2   -1    0    0    0  501  0.00000000000E+00  0.00000000000E+00  0.11960641160E+04  0.11960641160E+04  0.25500000920E-02 0. -1.
        2   -1    0    0  501    0  0.00000000000E+00  0.00000000000E+00 -0.22913398099E+04  0.22913398099E+04  0.25500000920E-02 0.  1.
    10030    2    1    2    0    0  0.00000000000E+00  0.00000000000E+00 -0.10952756939E+04  0.34874039258E+04  0.33109450760E+04 0.  0.
        5    1    3    3  502    0  0.36696841443E+03  0.26331771319E+01 -0.22479501171E+04  0.22777125740E+04  0.46999998093E+01 0.  1.
       -5    1    3    3    0  502 -0.36696841443E+03 -0.26331771319E+01  0.11526744232E+04  0.12096913518E+04  0.46999998093E+01 0. -1.
</event>
<event>
 5   0  0.2080770E-07  0.3291462E+04  0.7818609E-02  0.8165071E-01
       -1   -1    0    0    0  501  0.00000000000E+00  0.00000000000E+00  0.11117782568E+04  0.11117782568E+04  0.50400001928E-02 0.  1.
        1   -1    0    0  501    0  0.00000000000E+00  0.00000000000E+00 -0.24361243045E+04  0.24361243045E+04  0.50400001928E-02 0. -1.
    10030    2    1    2    0    0  0.00000000000E+00  0.00000000000E+00 -0.13243460477E+04  0.35479025613E+04  0.32914617012E+04 0.  0.
        4    1    3    3  502    0 -0.79192438737E+01  0.10790900924E+03  0.11079396626E+04  0.11132111110E+04  0.12699999809E+01 0.  1.
       -4    1    3    3    0  502  0.79192438737E+01 -0.10790900924E+03 -0.24322857103E+04  0.24346914503E+04  0.12699999809E+01 0. -1.
</event>
<event>
 5   0  0.6258718E-07  0.3292786E+04  0.7818609E-02  0.8164734E-01
        2   -1    0    0  501    0  0.00000000000E+00  0.00000000000E+00  0.24087079840E+04  0.24087079840E+04  0.25500000920E-02 0.  1.
       -2   -1    0    0    0  501  0.00000000000E+00  0.00000000000E+00 -0.11253374127E+04  0.11253374127E+04  0.25500000920E-02 0. -1.
    10030    2    1    2    0    0  0.00000000000E+00  0.00000000000E+00  0.12833705713E+04  0.35340453967E+04  0.32927855750E+04 0.  0.
        5    1    3    3  502    0  0.23420063016E+03 -0.27793541459E+03  0.23651060556E+04  0.23928741660E+04  0.46999998093E+01 0.  1.
       -5    1    3    3    0  502 -0.23420063016E+03  0.27793541459E+03 -0.10817354843E+04  0.11411712308E+04  0.46999998093E+01 0. -1.
</event>
<event>
 5   0  0.2037333E-07  0.3290425E+04  0.7818609E-02  0.8165336E-01
       -1   -1    0    0    0  501  0.00000000000E+00  0.00000000000E+00  0.21416710093E+04  0.21416710093E+04  0.50400001928E-02 0.  1.
        1   -1    0    0  501    0  0.00000000000E+00  0.00000000000E+00 -0.12638378290E+04  0.12638378290E+04  0.50400001928E-02 0. -1.
    10030    2    1    2    0    0  0.00000000000E+00  0.00000000000E+00  0.87783318028E+03  0.34055088383E+04  0.32904254064E+04 0.  0.
        3    1    3    3  502    0  0.49409872722E+03  0.57716381418E+03  0.19492264307E+04  0.20920648434E+04  0.10100000352E+00 0.  1.
       -3    1    3    3    0  502 -0.49409872722E+03 -0.57716381418E+03 -0.10713932504E+04  0.13134439949E+04  0.10100000352E+00 0. -1.
</event>
<event>
 5   0  0.6424183E-07  0.3292620E+04  0.7818609E-02  0.8164776E-01
       -2   -1    0    0    0  501  0.00000000000E+00  0.00000000000E+00  0.14920097622E+04  0.14920097622E+04  0.25500000920E-02 0.  1.
        2   -1    0    0  501    0  0.00000000000E+00  0.00000000000E+00 -0.18165681342E+04  0.18165681342E+04  0.25500000920E-02 0. -1.
    10030    2    1    2    0    0  0.00000000000E+00  0.00000000000E+00 -0.32455837198E+03  0.33085778964E+04  0.32926204700E+04 0.  0.
        2    1    3    3  502    0 -0.91821308209E+03 -0.11803447658E+03 -0.15302328279E+04  0.17884797761E+04  0.25500000920E-02 0. -1.
       -2    1    3    3    0  502  0.91821308209E+03  0.11803447658E+03  0.12056744559E+04  0.15200981203E+04  0.25500000920E-02 0.  1.
</event>
<event>
 5   0  0.6351753E-07  0.3256059E+04  0.7818609E-02  0.8174167E-01
        2   -1    0    0  501    0  0.00000000000E+00  0.00000000000E+00  0.23100129566E+04  0.23100129566E+04  0.25500000920E-02 0.  1.
       -2   -1    0    0    0  501  0.00000000000E+00  0.00000000000E+00 -0.11473874066E+04  0.11473874066E+04  0.25500000920E-02 0. -1.
    10030    2    1    2    0    0  0.00000000000E+00  0.00000000000E+00  0.11626255500E+04  0.34574003632E+04  0.32560588297E+04 0.  0.
        3    1    3    3  502    0  0.18442729907E+03 -0.29846504907E+03  0.22693931770E+04  0.22963536784E+04  0.10100000352E+00 0.  1.
       -3    1    3    3    0  502 -0.18442729907E+03  0.29846504907E+03 -0.11067676270E+04  0.11610466849E+04  0.10100000352E+00 0. -1.
</event>
<event>
 5   0  0.6377741E-07  0.3296921E+04  0.7818609E-02  0.8163679E-01
       -2   -1    0    0    0  501  0.00000000000E+00  0.00000000000E+00  0.18376795344E+04  0.18376795344E+04  0.25500000920E-02 0. -1.
        2   -1    0    0  501    0  0.00000000000E+00  0.00000000000E+00 -0.14787247348E+04  0.14787247348E+04  0.25500000920E-02 0.  1.
    10030    2    1    2    0    0  0.00000000000E+00  0.00000000000E+00  0.35895479957E+03  0.33164042692E+04  0.32969210983E+04 0.  0.
        1    1    3    3  502    0  0.75103214088E+03  0.91295728526E+03 -0.97617293260E+03  0.15331190025E+04  0.50400001928E-02 0.  1.
       -1    1    3    3    0  502 -0.75103214088E+03 -0.91295728526E+03  0.13351277322E+04  0.17832852667E+04  0.50400001928E-02 0. -1.
</event>
<event>
 5   0  0.2080828E-07  0.3294067E+04  0.7818609E-02  0.8164407E-01
        1   -1    0    0  501    0  0.00000000000E+00  0.00000000000E+00  0.27003946595E+04  0.27003946595E+04  0.50400001928E-02 0.  1.
       -1   -1    0    0    0  501  0.00000000000E+00  0.00000000000E+00 -0.10045639260E+04  0.10045639260E+04  0.50400001928E-02 0. -1.
    10030    2    1    2    0    0  0.00000000000E+00  0.00000000000E+00  0.16958307335E+04  0.37049585855E+04  0.32940668244E+04 0.  0.
        1    1    3    3  502    0  0.94998690539E+03  0.44298743816E+03 -0.58099022069E+03  0.11984417497E+04  0.50400001928E-02 0. -1.
       -1    1    3    3    0  502 -0.94998690539E+03 -0.44298743816E+03  0.22768209542E+04  0.25065168359E+04  0.50400001928E-02 0.  1.
</event>
<event>
 5   0  0.6351753E-07  0.3285126E+04  0.7818609E-02  0.8166690E-01
       -2   -1    0    0    0  501  0.00000000000E+00  0.00000000000E+00  0.15732839491E+04  0.15732839491E+04  0.25500000920E-02 0. -1.
        2   -1    0    0  501    0  0.00000000000E+00  0.00000000000E+00 -0.17148932420E+04  0.17148932420E+04  0.25500000920E-02 0.  1.
    10030    2    1    2    0    0  0.00000000000E+00  0.00000000000E+00 -0.14160929291E+03  0.32881771911E+04  0.32851264889E+04 0.  0.
        3    1    3    3  502    0  0.86584072581E+03 -0.96452543958E+03  0.93910433543E+03  0.16005956545E+04  0.10100000352E+00 0. -1.
       -3    1    3    3    0  502 -0.86584072581E+03  0.96452543958E+03 -0.10807136283E+04  0.16875815366E+04  0.10100000352E+00 0.  1.
</event>
<event>
 5   0  0.2080770E-07  0.3287953E+04  0.7818609E-02  0.8165968E-01
        1   -1    0    0  501    0  0.00000000000E+00  0.00000000000E+00  0.24183550933E+04  0.24183550933E+04  0.50400001928E-02 0.  1.
       -1   -1    0    0    0  501  0.00000000000E+00  0.00000000000E+00 -0.11175605339E+04  0.11175605339E+04  0.50400001928E-02 0. -1.
    10030    2    1    2    0    0  0.00000000000E+00  0.00000000000E+00  0.13007945594E+04  0.35359156272E+04  0.32879526817E+04 0.  0.
        4    1    3    3  502    0 -0.11581643023E+04 -0.11466328255E+04  0.41838347509E+03  0.16826044493E+04  0.12699999809E+01 0.  1.
       -4    1    3    3    0  502  0.11581643023E+04  0.11466328255E+04  0.88241108427E+03  0.18533111779E+04  0.12699999809E+01 0. -1.
</event>
<event>
 5   0  0.6258718E-07  0.3314311E+04  0.7818609E-02  0.8159263E-01
       -2   -1    0    0    0  501  0.00000000000E+00  0.00000000000E+00  0.20181258552E+04  0.20181258552E+04  0.25500000920E-02 0.  1.
        2   -1    0    0  501    0  0.00000000000E+00  0.00000000000E+00 -0.13607498512E+04  0.13607498512E+04  0.25500000920E-02 0. -1.
    10030    2    1    2    0    0  0.00000000000E+00  0.00000000000E+00  0.65737600400E+03  0.33788757064E+04  0.33143110640E+04 0.  0.
        5    1    3    3  502    0  0.86392734454E+03  0.14123181797E+04  0.40170210030E+03  0.17036430861E+04  0.46999998093E+01 0. -1.
       -5    1    3    3    0  502 -0.86392734454E+03 -0.14123181797E+04  0.25567390370E+03  0.16752326204E+04  0.46999998093E+01 0.  1.
</event>
<event>
 5   0  0.2080770E-07  0.3297614E+04  0.7818609E-02  0.8163503E-01
       -1   -1    0    0    0  501  0.00000000000E+00  0.00000000000E+00  0.22485624672E+04  0.22485624672E+04  0.50400001928E-02 0. -1.
        1   -1    0    0  501    0  0.00000000000E+00  0.00000000000E+00 -0.12090235848E+04  0.12090235848E+04  0.50400001928E-02 0.  1.
    10030    2    1    2    0    0  0.00000000000E+00  0.00000000000E+00  0.10395388824E+04  0.34575860520E+04  0.32976143224E+04 0.  0.
        4    1    3    3  502    0 -0.63607900785E+03 -0.13941475713E+04  0.11578292949E+04  0.19206286065E+04  0.12699999809E+01 0. -1.
       -4    1    3    3    0  502  0.63607900785E+03  0.13941475713E+04 -0.11829041252E+03  0.15369574456E+04  0.12699999809E+01 0.  1.
</event>
<event>
 5   0  0.2087665E-07  0.3306477E+04  0.7818609E-02  0.8161249E-01
       -1   -1    0    0    0  501  0.00000000000E+00  0.00000000000E+00  0.13304542163E+04  0.13304542163E+04  0.50400001928E-02 0.  1.
        1   -1    0    0  501    0  0.00000000000E+00  0.00000000000E+00 -0.20543336065E+04  0.20543336065E+04  0.50400001928E-02 0. -1.
    10030    2    1    2    0    0  0.00000000000E+00  0.00000000000E+00 -0.72387939021E+03  0.33847878228E+04  0.33064765588E+04 0.  0.
        5    1    3    3  502    0  0.10137914656E+03  0.96784613478E+03  0.10061907270E+04  0.13998020364E+04  0.46999998093E+01 0. -1.
       -5    1    3    3    0  502 -0.10137914656E+03 -0.96784613478E+03 -0.17300701172E+04  0.19849857864E+04  0.46999998093E+01 0.  1.
</event>
<event>
 5   0  0.6377741E-07  0.3296207E+04  0.7818609E-02  0.8163861E-01
       -2   -1    0    0    0  501  0.00000000000E+00  0.00000000000E+00  0.11414264412E+04  0.11414264412E+04  0.25500000920E-02 0. -1.
        2   -1    0    0  501    0  0.00000000000E+00  0.00000000000E+00 -0.23796938518E+04  0.23796938518E+04  0.25500000920E-02 0.  1.
    10030    2    1    2    0    0  0.00000000000E+00  0.00000000000E+00 -0.12382674105E+04  0.35211202930E+04  0.32962072049E+04 0.  0.
        1    1    3    3  502    0  0.41449046794E+03 -0.15716486280E+04 -0.91043802870E+03  0.18630027273E+04  0.50400001928E-02 0.  1.
       -1    1    3    3    0  502 -0.41449046794E+03  0.15716486280E+04 -0.32782938181E+03  0.16581175657E+04  0.50400001928E-02 0. -1.
</event>
<event>
 5   0  0.6426079E-07  0.3299806E+04  0.7818609E-02  0.8162945E-01
        2   -1    0    0  501    0  0.00000000000E+00  0.00000000000E+00  0.17634657358E+04  0.17634657358E+04  0.25500000920E-02 0. -1.
       -2   -1    0    0    0  501  0.00000000000E+00  0.00000000000E+00 -0.15436538523E+04  0.15436538523E+04  0.25500000920E-02 0.  1.
    10030    2    1    2    0    0  0.00000000000E+00  0.00000000000E+00  0.21981188349E+03  0.33071195881E+04  0.32998064650E+04 0.  0.
        4    1    3    3  502    0 -0.16258248987E+04 -0.14213561707E+03  0.35266151586E+03  0.16696948501E+04  0.12699999809E+01 0. -1.
       -4    1    3    3    0  502  0.16258248987E+04  0.14213561707E+03 -0.13284963237E+03  0.16374247380E+04  0.12699999809E+01 0.  1.
</event>
<event>
 5   0  0.6351753E-07  0.3291888E+04  0.7818609E-02  0.8164963E-01
       -2   -1    0    0    0  501  0.00000000000E+00  0.00000000000E+00  0.14834697638E+04  0.14834697638E+04  0.25500000920E-02 0. -1.
        2   -1    0    0  501    0  0.00000000000E+00  0.00000000000E+00 -0.18262130731E+04  0.18262130731E+04  0.25500000920E-02 0.  1.
    10030    2    1    2    0    0  0.00000000000E+00  0.00000000000E+00 -0.34274330931E+03  0.33096828369E+04  0.32918881367E+04 0.  0.
        3    1    3    3  502    0 -0.14487592815E+04 -0.76876730537E+03 -0.31967024344E+02  0.16404049885E+04  0.10100000352E+00 0. -1.
       -3    1    3    3    0  502  0.14487592815E+04  0.76876730537E+03 -0.31077628497E+03  0.16692778484E+04  0.10100000352E+00 0.  1.
</event>
<event>
 5   0  0.2080770E-07  0.3296448E+04  0.7818609E-02  0.8163800E-01
       -1   -1    0    0    0  501  0.00000000000E+00  0.00000000000E+00  0.12398017116E+04  0.12398017116E+04  0.50400001928E-02 0.  1.
        1   -1    0    0  501    0  0.00000000000E+00  0.00000000000E+00 -0.21911903933E+04  0.21911903933E+04  0.50400001928E-02 0. -1.
    10030    2    1    2    0    0  0.00000000000E+00  0.00000000000E+00 -0.95138868171E+03  0.34309921049E+04  0.32964475425E+04 0.  0.
        4    1    3    3  502    0  0.14959594362E+04 -0.33460583582E+03  0.15465152772E+03  0.15407058149E+04  0.12699999809E+01 0.  1.
       -4    1    3    3    0  502 -0.14959594362E+04  0.33460583582E+03 -0.11060402094E+04  0.18902862900E+04  0.12699999809E+01 0. -1.
</event>
<event>
 5   0  0.2057130E-07  0.3324527E+04  0.7818609E-02  0.8156682E-01
       -1   -1    0    0    0  501  0.00000000000E+00  0.00000000000E+00  0.16385334907E+04  0.16385334907E+04  0.50400001928E-02 0. -1.
        1   -1    0    0  501    0  0.00000000000E+00  0.00000000000E+00 -0.16863369407E+04  0.16863369407E+04  0.50400001928E-02 0.  1.
    10030    2    1    2    0    0  0.00000000000E+00  0.00000000000E+00 -0.47803450002E+02  0.33248704314E+04  0.33245267657E+04 0.  0.
        2    1    3    3  502    0  0.99223879695E+03  0.99352859465E+03 -0.91364680055E+03  0.16752275591E+04  0.25500000920E-02 0.  1.
       -2    1    3    3    0  502 -0.99223879695E+03 -0.99352859465E+03  0.86584335054E+03  0.16496428723E+04  0.25500000920E-02 0. -1.
</event>
<event>
 5   0  0.6258718E-07  0.3330328E+04  0.7818609E-02  0.8155221E-01
        2   -1    0    0  501    0  0.00000000000E+00  0.00000000000E+00  0.18409353380E+04  0.18409353380E+04  0.25500000920E-02 0. -1.
       -2   -1    0    0    0  501  0.00000000000E+00  0.00000000000E+00 -0.15061755468E+04  0.15061755468E+04  0.25500000920E-02 0.  1.
    10030    2    1    2    0    0  0.00000000000E+00  0.00000000000E+00  0.33475979116E+03  0.33471108848E+04  0.33303283858E+04 0.  0.
        5    1    3    3  502    0 -0.91146110178E+03 -0.34120837099E+03  0.15253234439E+04  0.18093695562E+04  0.46999998093E+01 0. -1.
       -5    1    3    3    0  502  0.91146110178E+03  0.34120837099E+03 -0.11905636527E+04  0.15377413286E+04  0.46999998093E+01 0.  1.
</event>
<event>
 5   0  0.2080828E-07  0.3296082E+04  0.7818609E-02  0.8163893E-01
       -1   -1    0    0    0  501  0.00000000000E+00  0.00000000000E+00  0.13320028015E+04  0.13320028015E+04  0.50400001928E-02 0.  1.
        1   -1    0    0  501    0  0.00000000000E+00  0.00000000000E+00 -0.20390639099E+04  0.20390639099E+04  0.50400001928E-02 0. -1.
    10030    2    1    2    0    0  0.00000000000E+00  0.00000000000E+00 -0.70706110840E+03  0.33710667114E+04  0.32960818197E+04 0.  0.
        1    1    3    3  502    0 -0.13675133744E+04 -0.85877171758E+03 -0.16710102434E+02  0.16148872777E+04  0.50400001928E-02 0.  1.
       -1    1    3    3    0  502  0.13675133744E+04  0.85877171758E+03 -0.69035100597E+03  0.17561794338E+04  0.50400001928E-02 0. -1.
</event>
<event>
 5   0  0.6351753E-07  0.3292307E+04  0.7818609E-02  0.8164856E-01
       -2   -1    0    0    0  501  0.00000000000E+00  0.00000000000E+00  0.85866447662E+03  0.85866447662E+03  0.25500000920E-02 0.  1.
        2   -1    0    0  501    0  0.00000000000E+00  0.00000000000E+00 -0.31558554535E+04  0.31558554535E+04  0.25500000920E-02 0. -1.
    10030    2    1    2    0    0  0.00000000000E+00  0.00000000000E+00 -0.22971909769E+04  0.40145199301E+04  0.32923067726E+04 0.  0.
        3    1    3    3  502    0 -0.93991123165E+03  0.11531733858E+04 -0.28932976301E+03  0.15155704217E+04  0.10100000352E+00 0.  1.
       -3    1    3    3    0  502  0.93991123165E+03 -0.11531733858E+04 -0.20078612139E+04  0.24989495084E+04  0.10100000352E+00 0. -1.
</event>
<event>
 5   0  0.2057130E-07  0.3239865E+04  0.7818609E-02  0.8178368E-01
       -1   -1    0    0    0  501  0.00000000000E+00  0.00000000000E+00  0.18377300493E+04  0.18377300493E+04  0.50400001928E-02 0.  1.
        1   -1    0    0  501    0  0.00000000000E+00  0.00000000000E+00 -0.14279472597E+04  0.14279472597E+04  0.50400001928E-02 0. -1.
    10030    2    1    2    0    0  0.00000000000E+00  0.00000000000E+00  0.40978278957E+03  0.32656773090E+04  0.32398651749E+04 0.  0.
        2    1    3    3  502    0  0.51548775433E+03  0.88403760974E+03  0.14706553981E+04  0.17916688925E+04  0.25500000920E-02 0.  1.
       -2    1    3    3    0  502 -0.51548775433E+03 -0.88403760974E+03 -0.10608726085E+04  0.14740084165E+04  0.25500000920E-02 0. -1.
</event>
<event>
 5   0  0.2080770E-07  0.3305130E+04  0.7818609E-02  0.8161591E-01
       -1   -1    0    0    0  501  0.00000000000E+00  0.00000000000E+00  0.85026236806E+03  0.85026236808E+03  0.50400001928E-02 0. -1.
        1   -1    0    0  501    0  0.00000000000E+00  0.00000000000E+00 -0.32119152235E+04  0.32119152235E+04  0.50400001928E-02 0.  1.
    10030    2    1    2    0    0  0.00000000000E+00  0.00000000000E+00 -0.23616528554E+04  0.40621775915E+04  0.33051297366E+04 0.  0.
        4    1    3    3  502    0 -0.94007906826E+03 -0.40239173175E+03  0.41471898127E+03  0.11034768718E+04  0.12699999809E+01 0. -1.
       -4    1    3    3    0  502  0.94007906826E+03  0.40239173175E+03 -0.27763718367E+04  0.29587007197E+04  0.12699999809E+01 0.  1.
</event>
<event>
 5   0  0.1994250E-07  0.3283157E+04  0.7818609E-02  0.8167194E-01
        3   -1    0    0  501    0  0.00000000000E+00  0.00000000000E+00  0.14070716553E+04  0.14070716589E+04  0.10100000352E+00 0. -1.
       -3   -1    0    0    0  501  0.00000000000E+00  0.00000000000E+00 -0.19151691171E+04  0.19151691197E+04  0.10100000352E+00 0.  1.
    10030    2    1    2    0    0  0.00000000000E+00  0.00000000000E+00 -0.50809746180E+03  0.33222407786E+04  0.32831571331E+04 0.  0.
        5    1    3    3  502    0  0.13624763289E+04  0.85699296333E+03 -0.58034575958E+03  0.17110236634E+04  0.46999998093E+01 0.  1.
       -5    1    3    3    0  502 -0.13624763289E+04 -0.85699296333E+03  0.72248297779E+02  0.16112171153E+04  0.46999998093E+01 0. -1.
</event>
<event>
 5   0  0.6426079E-07  0.3304584E+04  0.7818609E-02  0.8161730E-01
       -2   -1    0    0    0  501  0.00000000000E+00  0.00000000000E+00  0.14156723064E+04  0.14156723064E+04  0.25500000920E-02 0. -1.
        2   -1    0    0  501    0  0.00000000000E+00  0.00000000000E+00 -0.19284609749E+04  0.19284609749E+04  0.25500000920E-02 0.  1.
    10030    2    1    2    0    0  0.00000000000E+00  0.00000000000E+00 -0.51278866848E+03  0.33441332813E+04  0.33045839655E+04 0.  0.
        4    1    3    3  502    0 -0.74994230804E+03 -0.95259260089E+03  0.87963658678E+03  0.14978679069E+04  0.12699999809E+01 0. -1.
       -4    1    3    3    0  502  0.74994230804E+03  0.95259260089E+03 -0.13924252553E+04  0.18462653745E+04  0.12699999809E+01 0.  1.
</event>
<event>
 5   0  0.2087665E-07  0.3376846E+04  0.7818609E-02  0.8143612E-01
        1   -1    0    0  501    0  0.00000000000E+00  0.00000000000E+00  0.16286047686E+04  0.16286047686E+04  0.50400001928E-02 0. -1.
       -1   -1    0    0    0  501  0.00000000000E+00  0.00000000000E+00 -0.17504387364E+04  0.17504387364E+04  0.50400001928E-02 0.  1.
    10030    2    1    2    0    0  0.00000000000E+00  0.00000000000E+00 -0.12183396778E+03  0.33790435050E+04  0.33768463828E+04 0.  0.
        5    1    3    3  502    0 -0.16900109642E+03  0.10716203710E+04  0.12336864380E+04  0.16428438475E+04  0.46999998093E+01 0. -1.
       -5    1    3    3    0  502  0.16900109642E+03 -0.10716203710E+04 -0.13555204058E+04  0.17361996575E+04  0.46999998093E+01 0.  1.
</event>
<event>
 5   0  0.6424183E-07  0.3305581E+04  0.7818609E-02  0.8161477E-01
        2   -1    0    0  501    0  0.00000000000E+00  0.00000000000E+00  0.14900754870E+04  0.14900754870E+04  0.25500000920E-02 0. -1.
       -2   -1    0    0    0  501  0.00000000000E+00  0.00000000000E+00 -0.18332736044E+04  0.18332736044E+04  0.25500000920E-02 0.  1.
    10030    2    1    2    0    0  0.00000000000E+00  0.00000000000E+00 -0.34319811740E+03  0.33233490914E+04  0.33055807713E+04 0.  0.
        2    1    3    3  502    0  0.77001875965E+03  0.80113535093E+03 -0.14016826886E+04  0.17887037486E+04  0.25500000920E-02 0.  1.
       -2    1    3    3    0  502 -0.77001875965E+03 -0.80113535093E+03  0.10584845712E+04  0.15346453428E+04  0.25500000920E-02 0. -1.
</event>
<event>
 5   0  0.2080770E-07  0.3264164E+04  0.7818609E-02  0.8172074E-01
        1   -1    0    0  501    0  0.00000000000E+00  0.00000000000E+00  0.15228058723E+04  0.15228058724E+04  0.50400001928E-02 0. -1.
       -1   -1    0    0    0  501  0.00000000000E+00  0.00000000000E+00 -0.17492002828E+04  0.17492002829E+04  0.50400001928E-02 0.  1.
    10030    2    1    2    0    0  0.00000000000E+00  0.00000000000E+00 -0.22639441050E+03  0.32720061552E+04  0.32641644950E+04 0.  0.
        4    1    3    3  502    0  0.36499522841E+03  0.61251657304E+03  0.13584212058E+04  0.15341798637E+04  0.12699999809E+01 0. -1.
       -4    1    3    3    0  502 -0.36499522841E+03 -0.61251657304E+03 -0.15848156163E+04  0.17378262915E+04  0.12699999809E+01 0.  1.
</event>
<event>
 5   0  0.2080828E-07  0.3297072E+04  0.7818609E-02  0.8163641E-01
       -1   -1    0    0    0  501  0.00000000000E+00  0.00000000000E+00  0.11110634323E+04  0.11110634323E+04  0.50400001928E-02 0. -1.
        1   -1    0    0  501    0  0.00000000000E+00  0.00000000000E+00 -0.24460085013E+04  0.24460085013E+04  0.50400001928E-02 0.  1.
    10030    2    1    2    0    0  0.00000000000E+00  0.00000000000E+00 -0.13349450690E+04  0.35570719336E+04  0.32970717923E+04 0.  0.
        1    1    3    3  502    0 -0.42445602974E+03 -0.25457710327E+03 -0.23639566534E+04  0.24152149970E+04  0.50400001928E-02 0.  1.
       -1    1    3    3    0  502  0.42445602974E+03  0.25457710327E+03  0.10290115844E+04  0.11418569366E+04  0.50400001928E-02 0. -1.
</event>
<event>
 5   0  0.6424183E-07  0.3278569E+04  0.7818609E-02  0.8168370E-01
        2   -1    0    0  501    0  0.00000000000E+00  0.00000000000E+00  0.14037415596E+04  0.14037415596E+04  0.25500000920E-02 0.  1.
       -2   -1    0    0    0  501  0.00000000000E+00  0.00000000000E+00 -0.19143507982E+04  0.19143507982E+04  0.25500000920E-02 0. -1.
    10030    2    1    2    0    0  0.00000000000E+00  0.00000000000E+00 -0.51060923859E+03  0.33180923578E+04  0.32785690629E+04 0.  0.
        2    1    3    3  502    0  0.41949162022E+03  0.15787515257E+04 -0.11644942881E+03  0.16376782556E+04  0.25500000920E-02 0.  1.
       -2    1    3    3    0  502 -0.41949162022E+03 -0.15787515257E+04 -0.39415980978E+03  0.16804141022E+04  0.25500000920E-02 0. -1.
</event>
<event>
 5   0  0.6377741E-07  0.3308044E+04  0.7818609E-02  0.8160852E-01
       -2   -1    0    0    0  501  0.00000000000E+00  0.00000000000E+00  0.14992845522E+04  0.14992845522E+04  0.25500000920E-02 0. -1.
        2   -1    0    0  501    0  0.00000000000E+00  0.00000000000E+00 -0.18247296468E+04  0.18247296468E+04  0.25500000920E-02 0.  1.
    10030    2    1    2    0    0  0.00000000000E+00  0.00000000000E+00 -0.32544509459E+03  0.33240141989E+04  0.33080441178E+04 0.  0.
        1    1    3    3  502    0 -0.66866474200E+03 -0.14929339066E+04  0.83049308505E+02  0.16379442525E+04  0.50400001928E-02 0. -1.
       -1    1    3    3    0  502  0.66866474200E+03  0.14929339066E+04 -0.40849440309E+03  0.16860699464E+04  0.50400001928E-02 0.  1.
</event>
<event>
 5   0  0.2057130E-07  0.3300234E+04  0.7818609E-02  0.8162836E-01
       -1   -1    0    0    0  501  0.00000000000E+00  0.00000000000E+00  0.10805860967E+04  0.10805860967E+04  0.50400001928E-02 0.  1.
        1   -1    0    0  501    0  0.00000000000E+00  0.00000000000E+00 -0.25198241299E+04  0.25198241299E+04  0.50400001928E-02 0. -1.
    10030    2    1    2    0    0  0.00000000000E+00  0.00000000000E+00 -0.14392380332E+04  0.36004102266E+04  0.33002344892E+04 0.  0.
        2    1    3    3  502    0  0.77172917532E+03  0.17195120995E+03  0.86048051531E+03  0.11685717162E+04  0.25500000920E-02 0.  1.
       -2    1    3    3    0  502 -0.77172917532E+03 -0.17195120995E+03 -0.22997185485E+04  0.24318385104E+04  0.25500000920E-02 0. -1.
</event>
<event>
 5   0  0.2037333E-07  0.3299626E+04  0.7818609E-02  0.8162991E-01
       -1   -1    0    0    0  501  0.00000000000E+00  0.00000000000E+00  0.14582041458E+04  0.14582041458E+04  0.50400001928E-02 0.  1.
        1   -1    0    0  501    0  0.00000000000E+00  0.00000000000E+00 -0.18665991429E+04  0.18665991429E+04  0.50400001928E-02 0. -1.
    10030    2    1    2    0    0  0.00000000000E+00  0.00000000000E+00 -0.40839499705E+03  0.33248032887E+04  0.32996258023E+04 0.  0.
        3    1    3    3  502    0 -0.16404988292E+04 -0.13689408869E+02 -0.38005365985E+03  0.16840025543E+04  0.10100000352E+00 0.  1.
       -3    1    3    3    0  502  0.16404988292E+04  0.13689408869E+02 -0.28341337209E+02  0.16408007344E+04  0.10100000352E+00 0. -1.
</event>
<event>
 5   0  0.2080828E-07  0.3293708E+04  0.7818609E-02  0.8164498E-01
       -1   -1    0    0    0  501  0.00000000000E+00  0.00000000000E+00  0.14380349223E+04  0.14380349224E+04  0.50400001928E-02 0.  1.
        1   -1    0    0  501    0  0.00000000000E+00  0.00000000000E+00 -0.18859960328E+04  0.18859960328E+04  0.50400001928E-02 0. -1.
    10030    2    1    2    0    0  0.00000000000E+00  0.00000000000E+00 -0.44796111045E+03  0.33240309551E+04  0.32937080372E+04 0.  0.
        1    1    3    3  502    0 -0.18452351144E+03 -0.15233551070E+04 -0.82737154217E+03  0.17433311152E+04  0.50400001928E-02 0.  1.
       -1    1    3    3    0  502  0.18452351144E+03  0.15233551070E+04  0.37941043172E+03  0.15806998400E+04  0.50400001928E-02 0. -1.
</event>
<event>
 5   0  0.6426079E-07  0.3286307E+04  0.7818609E-02  0.8166388E-01
        2   -1    0    0  501    0  0.00000000000E+00  0.00000000000E+00  0.19504846679E+04  0.19504846679E+04  0.25500000920E-02 0. -1.
       -2   -1    0    0    0  501  0.00000000000E+00  0.00000000000E+00 -0.13842476435E+04  0.13842476435E+04  0.25500000920E-02 0.  1.
    10030    2    1    2    0    0  0.00000000000E+00  0.00000000000E+00  0.56623702434E+03  0.33347323114E+04  0.32863072317E+04 0.  0.
        4    1    3    3  502    0 -0.20251807771E+02  0.94821669651E+03  0.16446904505E+04  0.18985608576E+04  0.12699999809E+01 0. -1.
       -4    1    3    3    0  502  0.20251807771E+02 -0.94821669651E+03 -0.10784534262E+04  0.14361714538E+04  0.12699999809E+01 0.  1.
</event>
<event>
 5   0  0.2037333E-07  0.3296955E+04  0.7818609E-02  0.8163671E-01
       -1   -1    0    0    0  501  0.00000000000E+00  0.00000000000E+00  0.10803195053E+04  0.10803195053E+04  0.50400001928E-02 0. -1.
        1   -1    0    0  501    0  0.00000000000E+00  0.00000000000E+00 -0.25154394759E+04  0.25154394760E+04  0.50400001928E-02 0.  1.
    10030    2    1    2    0    0  0.00000000000E+00  0.00000000000E+00 -0.14351199707E+04  0.35957589812E+04  0.32969551591E+04 0.  0.
        3    1    3    3  502    0 -0.31819041754E+03 -0.14870132172E+04 -0.14116541274E+04  0.20749026087E+04  0.10100000352E+00 0.  1.
       -3    1    3    3    0  502  0.31819041754E+03  0.14870132172E+04 -0.23465843223E+02  0.15208563725E+04  0.10100000352E+00 0. -1.
</event>
<event>
 5   0  0.2080828E-07  0.3261003E+04  0.7818609E-02  0.8172890E-01
       -1   -1    0    0    0  501  0.00000000000E+00  0.00000000000E+00  0.13737213800E+04  0.13737213800E+04  0.50400001928E-02 0.  1.
        1   -1    0    0  501    0  0.00000000000E+00  0.00000000000E+00 -0.19352795383E+04  0.19352795383E+04  0.50400001928E-02 0. -1.
    10030    2    1    2    0    0  0.00000000000E+00  0.00000000000E+00 -0.56155815835E+03  0.33090009183E+04  0.32610028384E+04 0.  0.
        1    1    3    3  502    0 -0.13016589604E+04  0.45661665941E+03 -0.11628960647E+04  0.18042012305E+04  0.50400001928E-02 0. -1.
       -1    1    3    3    0  502  0.13016589604E+04 -0.45661665941E+03  0.60133790636E+03  0.15047996878E+04  0.50400001928E-02 0.  1.
</event>
<event>
 5   0  0.2080828E-07  0.3303754E+04  0.7818609E-02  0.8161941E-01
       -1   -1    0    0    0  501  0.00000000000E+00  0.00000000000E+00  0.14165449484E+04  0.14165449484E+04  0.50400001928E-02 0. -1.
        1   -1    0    0  501    0  0.00000000000E+00  0.00000000000E+00 -0.19263047160E+04  0.19263047160E+04  0.50400001928E-02 0.  1.
    10030    2    1    2    0    0  0.00000000000E+00  0.00000000000E+00 -0.50975976764E+03  0.33428496644E+04  0.33037537526E+04 0.  0.
        1    1    3    3  502    0  0.13589256176E+04  0.34881566248E+03 -0.11371769053E+04  0.18059685807E+04  0.50400001928E-02 0.  1.
       -1    1    3    3    0  502 -0.13589256176E+04 -0.34881566248E+03  0.62741713766E+03  0.15368810836E+04  0.50400001928E-02 0. -1.
</event>
<event>
 5   0  0.6426079E-07  0.3297763E+04  0.7818609E-02  0.8163465E-01
       -2   -1    0    0    0  501  0.00000000000E+00  0.00000000000E+00  0.12904244910E+04  0.12904244910E+04  0.25500000920E-02 0. -1.
        2   -1    0    0  501    0  0.00000000000E+00  0.00000000000E+00 -0.21069117193E+04  0.21069117193E+04  0.25500000920E-02 0.  1.
    10030    2    1    2    0    0  0.00000000000E+00  0.00000000000E+00 -0.81648722826E+03  0.33973362103E+04  0.32977631710E+04 0.  0.
        4    1    3    3  502    0 -0.38575120538E+03  0.10410479778E+04 -0.16641613614E+04  0.20005048199E+04  0.12699999809E+01 0.  1.
       -4    1    3    3    0  502  0.38575120538E+03 -0.10410479778E+04  0.84767413318E+03  0.13968313905E+04  0.12699999809E+01 0. -1.
</event>
<event>
 5   0  0.6351753E-07  0.3297929E+04  0.7818609E-02  0.8163422E-01
       -2   -1    0    0    0  501  0.00000000000E+00  0.00000000000E+00  0.11659117489E+04  0.11659117489E+04  0.25500000920E-02 0.  1.
        2   -1    0    0  501    0  0.00000000000E+00  0.00000000000E+00 -0.23321530958E+04  0.23321530958E+04  0.25500000920E-02 0. -1.
    10030    2    1    2    0    0  0.00000000000E+00  0.00000000000E+00 -0.11662413469E+04  0.34980648447E+04  0.32979294684E+04 0.  0.
        3    1    3    3  502    0 -0.31053221224E+03  0.16044595489E+04 -0.81638457412E+03  0.18268017085E+04  0.10100000352E+00 0.  1.
       -3    1    3    3    0  502  0.31053221224E+03 -0.16044595489E+04 -0.34985677281E+03  0.16712631363E+04  0.10100000352E+00 0. -1.
</event>
<event>
 5   0  0.6258718E-07  0.3292530E+04  0.7818609E-02  0.8164799E-01
       -2   -1    0    0    0  501  0.00000000000E+00  0.00000000000E+00  0.12543317948E+04  0.12543317948E+04  0.25500000920E-02 0. -1.
        2   -1    0    0  501    0  0.00000000000E+00  0.00000000000E+00 -0.21606628714E+04  0.21606628714E+04  0.25500000920E-02 0.  1.
    10030    2    1    2    0    0  0.00000000000E+00  0.00000000000E+00 -0.90633107661E+03  0.34149946663E+04  0.32925298101E+04 0.  0.
        5    1    3    3  502    0 -0.70183884370E+03  0.11868860760E+04 -0.13860008425E+04  0.19550694989E+04  0.46999998093E+01 0.  1.
       -5    1    3    3    0  502  0.70183884370E+03 -0.11868860760E+04  0.47966976590E+03  0.14599251674E+04  0.46999998093E+01 0. -1.
</event>
<event>
 5   0  0.6351753E-07  0.3300285E+04  0.7818609E-02  0.8162823E-01
        2   -1    0    0  501    0  0.00000000000E+00  0.00000000000E+00  0.19821847491E+04  0.19821847492E+04  0.25500000920E-02 0.  1.
       -2   -1    0    0    0  501  0.00000000000E+00  0.00000000000E+00 -0.13737213334E+04  0.13737213334E+04  0.25500000920E-02 0. -1.
    10030    2    1    2    0    0  0.00000000000E+00  0.00000000000E+00  0.60846341579E+03  0.33559060825E+04  0.33002845190E+04 0.  0.
        3    1    3    3  502    0 -0.53360422231E+03 -0.85323820055E+03 -0.10255626297E+04  0.14368464116E+04  0.10100000352E+00 0. -1.
       -3    1    3    3    0  502  0.53360422231E+03  0.85323820055E+03  0.16340260455E+04  0.19190596709E+04  0.10100000352E+00 0.  1.
</event>
<event>
 5   0  0.2087665E-07  0.3270151E+04  0.7818609E-02  0.8170532E-01
        1   -1    0    0  501    0  0.00000000000E+00  0.00000000000E+00  0.21772584823E+04  0.21772584823E+04  0.50400001928E-02 0.  1.
       -1   -1    0    0    0  501  0.00000000000E+00  0.00000000000E+00 -0.12279073799E+04  0.12279073799E+04  0.50400001928E-02 0. -1.
    10030    2    1    2    0    0  0.00000000000E+00  0.00000000000E+00  0.94935110245E+03  0.34051658622E+04  0.32701509191E+04 0.  0.
        5    1    3    3  502    0 -0.14176053089E+04  0.68745259233E+03  0.93005717321E+03  0.18295421050E+04  0.46999998093E+01 0.  1.
       -5    1    3    3    0  502  0.14176053089E+04 -0.68745259233E+03  0.19293929235E+02  0.15756237572E+04  0.46999998093E+01 0. -1.
</event>
<event>
 5   0  0.6258718E-07  0.3290638E+04  0.7818609E-02  0.8165282E-01
       -2   -1    0    0    0  501  0.00000000000E+00  0.00000000000E+00  0.14401931869E+04  0.14401931869E+04  0.25500000920E-02 0.  1.
        2   -1    0    0  501    0  0.00000000000E+00  0.00000000000E+00 -0.18796606128E+04  0.18796606128E+04  0.25500000920E-02 0. -1.
    10030    2    1    2    0    0  0.00000000000E+00  0.00000000000E+00 -0.43946742585E+03  0.33198537997E+04  0.32906378763E+04 0.  0.
        5    1    3    3  502    0 -0.14395434107E+04 -0.27557578623E+03  0.53444940745E+03  0.15600915051E+04  0.46999998093E+01 0.  1.
       -5    1    3    3    0  502  0.14395434107E+04  0.27557578623E+03 -0.97391683330E+03  0.17597622946E+04  0.46999998093E+01 0. -1.
</event>
<event>
 5   0  0.6424183E-07  0.3307566E+04  0.7818609E-02  0.8160973E-01
        2   -1    0    0  501    0  0.00000000000E+00  0.00000000000E+00  0.30713037319E+04  0.30713037319E+04  0.25500000920E-02 0. -1.
       -2   -1    0    0    0  501  0.00000000000E+00  0.00000000000E+00 -0.89050076918E+03  0.89050076918E+03  0.25500000920E-02 0.  1.
    10030    2    1    2    0    0  0.00000000000E+00  0.00000000000E+00  0.21808029627E+04  0.39618045011E+04  0.33075660753E+04 0.  0.
        2    1    3    3  502    0  0.13068923888E+04 -0.10123185729E+04  0.10336893658E+04  0.19496846704E+04  0.25500000920E-02 0. -1.
       -2    1    3    3    0  502 -0.13068923888E+04  0.10123185729E+04  0.11471135969E+04  0.20121198307E+04  0.25500000920E-02 0.  1.
</event>
<event>
 5   0  0.6258718E-07  0.3300085E+04  0.7818609E-02  0.8162874E-01
       -2   -1    0    0    0  501  0.00000000000E+00  0.00000000000E+00  0.17770000214E+04  0.17770000214E+04  0.25500000920E-02 0.  1.
        2   -1    0    0  501    0  0.00000000000E+00  0.00000000000E+00 -0.15321555141E+04  0.15321555141E+04  0.25500000920E-02 0. -1.
    10030    2    1    2    0    0  0.00000000000E+00  0.00000000000E+00  0.24484450732E+03  0.33091555355E+04  0.33000850785E+04 0.  0.
        5    1    3    3  502    0  0.89542730090E+03 -0.79381092561E+03 -0.10167868040E+04  0.15702876589E+04  0.46999998093E+01 0. -1.
       -5    1    3    3    0  502 -0.89542730090E+03  0.79381092561E+03  0.12616313113E+04  0.17388678766E+04  0.46999998093E+01 0.  1.
</event>
<event>
 5   0  0.2080828E-07  0.3285788E+04  0.7818609E-02  0.8166521E-01
       -1   -1    0    0    0  501  0.00000000000E+00  0.00000000000E+00  0.11201848196E+04  0.11201848196E+04  0.50400001928E-02 0. -1.
        1   -1    0    0  501    0  0.00000000000E+00  0.00000000000E+00 -0.24095130390E+04  0.24095130390E+04  0.50400001928E-02 0.  1.
    10030    2    1    2    0    0  0.00000000000E+00  0.00000000000E+00 -0.12893282194E+04  0.35296978586E+04  0.32857875335E+04 0.  0.
        1    1    3    3  502    0  0.50748387299E+03 -0.13924596052E+04 -0.14062455228E+04  0.20430394279E+04  0.50400001928E-02 0.  1.
       -1    1    3    3    0  502 -0.50748387299E+03  0.13924596052E+04  0.11691730341E+03  0.14866584306E+04  0.50400001928E-02 0. -1.
</event>
<event>
 5   0  0.6424183E-07  0.3307603E+04  0.7818609E-02  0.8160963E-01
        2   -1    0    0  501    0  0.00000000000E+00  0.00000000000E+00  0.18867146618E+04  0.18867146618E+04  0.25500000920E-02 0. -1.
       -2   -1    0    0    0  501  0.00000000000E+00  0.00000000000E+00 -0.14496415324E+04  0.14496415324E+04  0.25500000920E-02 0.  1.
    10030    2    1    2    0    0  0.00000000000E+00  0.00000000000E+00  0.43707312943E+03  0.33363561943E+04  0.33076033218E+04 0.  0.
        2    1    3    3  502    0 -0.12685033732E+04  0.58345669330E+03 -0.67547354093E+03  0.15510599683E+04  0.25500000920E-02 0.  1.
       -2    1    3    3    0  502  0.12685033732E+04 -0.58345669330E+03  0.11125466704E+04  0.17852962260E+04  0.25500000920E-02 0. -1.
</event>
<event>
 5   0  0.2087665E-07  0.3300381E+04  0.7818609E-02  0.8162798E-01
        1   -1    0    0  501    0  0.00000000000E+00  0.00000000000E+00  0.22586857570E+04  0.22586857570E+04  0.50400001928E-02 0.  1.
       -1   -1    0    0    0  501  0.00000000000E+00  0.00000000000E+00 -0.12056252406E+04  0.12056252406E+04  0.50400001928E-02 0. -1.
    10030    2    1    2    0    0  0.00000000000E+00  0.00000000000E+00  0.10530605163E+04  0.34643109976E+04  0.33003809230E+04 0.  0.
        5    1    3    3  502    0 -0.74400796125E+03 -0.32554044601E+03 -0.98133895522E+03  0.12738024429E+04  0.46999998093E+01 0. -1.
       -5    1    3    3    0  502  0.74400796125E+03  0.32554044601E+03  0.20343994716E+04  0.21905085547E+04  0.46999998093E+01 0.  1.
</event>
<event>
 5   0  0.2037333E-07  0.3290534E+04  0.7818609E-02  0.8165308E-01
        1   -1    0    0  501    0  0.00000000000E+00  0.00000000000E+00  0.87736758316E+03  0.87736758318E+03  0.50400001928E-02 0.  1.
       -1   -1    0    0    0  501  0.00000000000E+00  0.00000000000E+00 -0.30852563842E+04  0.30852563842E+04  0.50400001928E-02 0. -1.
    10030    2    1    2    0    0  0.00000000000E+00  0.00000000000E+00 -0.22078888010E+04  0.39626239673E+04  0.32905342650E+04 0.  0.
        3    1    3    3  502    0  0.79819827977E+03  0.11450576062E+04 -0.55053174852E+02  0.13968923643E+04  0.10100000352E+00 0.  1.
       -3    1    3    3    0  502 -0.79819827977E+03 -0.11450576062E+04 -0.21528356261E+04  0.25657316030E+04  0.10100000352E+00 0. -1.
</event>
<event>
 5   0  0.6426079E-07  0.3289321E+04  0.7818609E-02  0.8165618E-01
       -2   -1    0    0    0  501  0.00000000000E+00  0.00000000000E+00  0.13332480037E+04  0.13332480037E+04  0.25500000920E-02 0. -1.
        2   -1    0    0  501    0  0.00000000000E+00  0.00000000000E+00 -0.20288108370E+04  0.20288108370E+04  0.25500000920E-02 0.  1.
    10030    2    1    2    0    0  0.00000000000E+00  0.00000000000E+00 -0.69556283329E+03  0.33620588407E+04  0.32893209016E+04 0.  0.
        4    1    3    3  502    0  0.20088857674E+02  0.83608302007E+03 -0.17952426273E+04  0.19804888494E+04  0.12699999809E+01 0.  1.
       -4    1    3    3    0  502 -0.20088857674E+02 -0.83608302007E+03  0.10996797940E+04  0.13815699913E+04  0.12699999809E+01 0. -1.
</event>
<event>
 5   0  0.2087665E-07  0.3308709E+04  0.7818609E-02  0.8160683E-01
        1   -1    0    0  501    0  0.00000000000E+00  0.00000000000E+00  0.27539181742E+04  0.27539181742E+04  0.50400001928E-02 0. -1.
       -1   -1    0    0    0  501  0.00000000000E+00  0.00000000000E+00 -0.99381632848E+03  0.99381632850E+03  0.50400001928E-02 0.  1.
    10030    2    1    2    0    0  0.00000000000E+00  0.00000000000E+00  0.17601018458E+04  0.37477345027E+04  0.33087090225E+04 0.  0.
        5    1    3    3  502    0  0.49834995421E+03 -0.14645465671E+04  0.15440199748E+04  0.21856964786E+04  0.46999998093E+01 0. -1.
       -5    1    3    3    0  502 -0.49834995421E+03  0.14645465671E+04  0.21608187097E+03  0.15620380242E+04  0.46999998093E+01 0.  1.
</event>
<event>
 5   0  0.2080828E-07  0.3279096E+04  0.7818609E-02  0.8168235E-01
        1   -1    0    0  501    0  0.00000000000E+00  0.00000000000E+00  0.17651838003E+04  0.17651838003E+04  0.50400001928E-02 0. -1.
       -1   -1    0    0    0  501  0.00000000000E+00  0.00000000000E+00 -0.15228539382E+04  0.15228539382E+04  0.50400001928E-02 0.  1.
    10030    2    1    2    0    0  0.00000000000E+00  0.00000000000E+00  0.24232986213E+03  0.32880377385E+04  0.32790956692E+04 0.  0.
        1    1    3    3  502    0  0.10879396059E+04 -0.85381304809E+03 -0.76186574207E+03  0.15789391109E+04  0.50400001928E-02 0.  1.
       -1    1    3    3    0  502 -0.10879396059E+04  0.85381304809E+03  0.10041956042E+04  0.17090986275E+04  0.50400001928E-02 0. -1.
</event>
<event>
 5   0  0.2087665E-07  0.3313290E+04  0.7818609E-02  0.8159522E-01
       -1   -1    0    0    0  501  0.00000000000E+00  0.00000000000E+00  0.26911922388E+04  0.26911922388E+04  0.50400001928E-02 0. -1.
        1   -1    0    0  501    0  0.00000000000E+00  0.00000000000E+00 -0.10197982924E+04  0.10197982924E+04  0.50400001928E-02 0.  1.
    10030    2    1    2    0    0  0.00000000000E+00  0.00000000000E+00  0.16713939464E+04  0.37109905313E+04  0.33132903584E+04 0.  0.
        5    1    3    3  502    0  0.41098087068E+03  0.13511438789E+04 -0.13425062312E+03  0.14186403270E+04  0.46999998093E+01 0.  1.
       -5    1    3    3    0  502 -0.41098087068E+03 -0.13511438789E+04  0.18056445695E+04  0.22923502043E+04  0.46999998093E+01 0. -1.
</event>
<event>
 5   0  0.6258718E-07  0.3284984E+04  0.7818609E-02  0.8166727E-01
       -2   -1    0    0    0  501  0.00000000000E+00  0.00000000000E+00  0.11345808320E+04  0.11345808320E+04  0.25500000920E-02 0. -1.
        2   -1    0    0  501    0  0.00000000000E+00  0.00000000000E+00 -0.23777774176E+04  0.23777774176E+04  0.25500000920E-02 0.  1.
    10030    2    1    2    0    0  0.00000000000E+00  0.00000000000E+00 -0.12431965856E+04  0.35123582496E+04  0.32849844327E+04 0.  0.
        5    1    3    3  502    0  0.13967327872E+04 -0.57539819232E+03 -0.13110669666E+04  0.20002160482E+04  0.46999998093E+01 0. -1.
       -5    1    3    3    0  502 -0.13967327872E+04  0.57539819232E+03  0.67870380960E+02  0.15121422014E+04  0.46999998093E+01 0.  1.
</event>
<event>
 5   0  0.2080828E-07  0.3294625E+04  0.7818609E-02  0.8164264E-01
       -1   -1    0    0    0  501  0.00000000000E+00  0.00000000000E+00  0.19295571928E+04  0.19295571928E+04  0.50400001928E-02 0. -1.
        1   -1    0    0  501    0  0.00000000000E+00  0.00000000000E+00 -0.14063526815E+04  0.14063526815E+04  0.50400001928E-02 0.  1.
    10030    2    1    2    0    0  0.00000000000E+00  0.00000000000E+00  0.52320451128E+03  0.33359098743E+04  0.32946246719E+04 0.  0.
        1    1    3    3  502    0 -0.56687411197E+03  0.14603540998E+04  0.77755373520E+03  0.17488768301E+04  0.50400001928E-02 0. -1.
       -1    1    3    3    0  502  0.56687411197E+03 -0.14603540998E+04 -0.25434922393E+03  0.15870330442E+04  0.50400001928E-02 0.  1.
</event>
<event>
 5   0  0.1994250E-07  0.3294457E+04  0.7818609E-02  0.8164307E-01
        3   -1    0    0  501    0  0.00000000000E+00  0.00000000000E+00  0.10169865218E+04  0.10169865268E+04  0.10100000352E+00 0. -1.
       -3   -1    0    0    0  501  0.00000000000E+00  0.00000000000E+00 -0.26680411820E+04  0.26680411839E+04  0.10100000352E+00 0.  1.
    10030    2    1    2    0    0  0.00000000000E+00  0.00000000000E+00 -0.16510546602E+04  0.36850277106E+04  0.32944571233E+04 0.  0.
        3    1    3    3  502    0 -0.12762733532E+04  0.24830514655E+03 -0.19567789728E+04  0.23493643985E+04  0.10100000352E+00 0. -1.
       -3    1    3    3    0  502  0.12762733532E+04 -0.24830514655E+03  0.30572431265E+03  0.13356633122E+04  0.10100000352E+00 0.  1.
</event>
<event>
 5   0  0.6258718E-07  0.3252884E+04  0.7818609E-02  0.8174989E-01
        2   -1    0    0  501    0  0.00000000000E+00  0.00000000000E+00  0.11656716193E+04  0.11656716193E+04  0.25500000920E-02 0.  1.
       -2   -1    0    0    0  501  0.00000000000E+00  0.00000000000E+00 -0.22693473154E+04  0.22693473154E+04  0.25500000920E-02 0. -1.
    10030    2    1    2    0    0  0.00000000000E+00  0.00000000000E+00 -0.11036756961E+04  0.34350189346E+04  0.32528841109E+04 0.  0.
        5    1    3    3  502    0 -0.15662232458E+04 -0.37584323705E+03 -0.79026357346E+03  0.17941159383E+04  0.46999998093E+01 0. -1.
       -5    1    3    3    0  502  0.15662232458E+04  0.37584323705E+03 -0.31341212266E+03  0.16409029963E+04  0.46999998093E+01 0.  1.
</event>
<event>
 5   0  0.2087665E-07  0.3320711E+04  0.7818609E-02  0.8157646E-01
        1   -1    0    0  501    0  0.00000000000E+00  0.00000000000E+00  0.12935717427E+04  0.12935717428E+04  0.50400001928E-02 0. -1.
       -1   -1    0    0    0  501  0.00000000000E+00  0.00000000000E+00 -0.21311377851E+04  0.21311377851E+04  0.50400001928E-02 0.  1.
    10030    2    1    2    0    0  0.00000000000E+00  0.00000000000E+00 -0.83756604236E+03  0.34247095279E+04  0.33207105377E+04 0.  0.
        5    1    3    3  502    0  0.10213317606E+04 -0.84388753661E+03 -0.14508707989E+04  0.19647679010E+04  0.46999998093E+01 0.  1.
       -5    1    3    3    0  502 -0.10213317606E+04  0.84388753661E+03  0.61330475654E+03  0.14599416269E+04  0.46999998093E+01 0. -1.
</event>
<event>
 5   0  0.6426079E-07  0.3295042E+04  0.7818609E-02  0.8164158E-01
       -2   -1    0    0    0  501  0.00000000000E+00  0.00000000000E+00  0.13014371373E+04  0.13014371373E+04  0.25500000920E-02 0.  1.
        2   -1    0    0  501    0  0.00000000000E+00  0.00000000000E+00 -0.20856371128E+04  0.20856371128E+04  0.25500000920E-02 0. -1.
    10030    2    1    2    0    0  0.00000000000E+00  0.00000000000E+00 -0.78419997545E+03  0.33870742501E+04  0.32950420899E+04 0.  0.
        4    1    3    3  502    0 -0.20222815551E+03  0.14766508035E+04 -0.11137995561E+04  0.18606302390E+04  0.12699999809E+01 0. -1.
       -4    1    3    3    0  502  0.20222815551E+03 -0.14766508035E+04  0.32959958061E+03  0.15264440111E+04  0.12699999809E+01 0.  1.
</event>
<event>
 5   0  0.2080770E-07  0.3295469E+04  0.7818609E-02  0.8164049E-01
       -1   -1    0    0    0  501  0.00000000000E+00  0.00000000000E+00  0.11121958396E+04  0.11121958396E+04  0.50400001928E-02 0.  1.
        1   -1    0    0  501    0  0.00000000000E+00  0.00000000000E+00 -0.24411423604E+04  0.24411423604E+04  0.50400001928E-02 0. -1.
    10030    2    1    2    0    0  0.00000000000E+00  0.00000000000E+00 -0.13289465207E+04  0.35533382000E+04  0.32954686326E+04 0.  0.
        4    1    3    3  502    0 -0.29028868185E+03  0.12458976930E+04  0.45529736773E+03  0.13578755046E+04  0.12699999809E+01 0.  1.
       -4    1    3    3    0  502  0.29028868185E+03 -0.12458976930E+04 -0.17842438885E+04  0.21954626953E+04  0.12699999809E+01 0. -1.
</event>
<event>
 5   0  0.2057130E-07  0.3295803E+04  0.7818609E-02  0.8163964E-01
       -1   -1    0    0    0  501  0.00000000000E+00  0.00000000000E+00  0.12984767765E+04  0.12984767766E+04  0.50400001928E-02 0.  1.
        1   -1    0    0  501    0  0.00000000000E+00  0.00000000000E+00 -0.20913578250E+04  0.20913578250E+04  0.50400001928E-02 0. -1.
    10030    2    1    2    0    0  0.00000000000E+00  0.00000000000E+00 -0.79288104845E+03  0.33898346016E+04  0.32958031296E+04 0.  0.
        2    1    3    3  502    0  0.42375776964E+03  0.11951494229E+04  0.68602474199E+03  0.14417290789E+04  0.25500000920E-02 0.  1.
       -2    1    3    3    0  502 -0.42375776964E+03 -0.11951494229E+04 -0.14789057904E+04  0.19481055226E+04  0.25500000920E-02 0. -1.
</event>
<event>
 5   0  0.2037333E-07  0.3288304E+04  0.7818609E-02  0.8165878E-01
        1   -1    0    0  501    0  0.00000000000E+00  0.00000000000E+00  0.12233537444E+04  0.12233537445E+04  0.50400001928E-02 0. -1.
       -1   -1    0    0    0  501  0.00000000000E+00  0.00000000000E+00 -0.22096927154E+04  0.22096927154E+04  0.50400001928E-02 0.  1.
    10030    2    1    2    0    0  0.00000000000E+00  0.00000000000E+00 -0.98633897091E+03  0.34330464598E+04  0.32883040355E+04 0.  0.
        3    1    3    3  502    0  0.11391687596E+04 -0.23054109454E+03  0.72093838907E+03  0.13677012942E+04  0.10100000352E+00 0. -1.
       -3    1    3    3    0  502 -0.11391687596E+04  0.23054109454E+03 -0.17072773600E+04  0.20653451656E+04  0.10100000352E+00 0.  1.
</event>
<event>
 5   0  0.6351753E-07  0.3246022E+04  0.7818609E-02  0.8176768E-01
       -2   -1    0    0    0  501  0.00000000000E+00  0.00000000000E+00  0.23533442513E+04  0.23533442513E+04  0.25500000920E-02 0. -1.
        2   -1    0    0  501    0  0.00000000000E+00  0.00000000000E+00 -0.11193280034E+04  0.11193280034E+04  0.25500000920E-02 0.  1.
    10030    2    1    2    0    0  0.00000000000E+00  0.00000000000E+00  0.12340162479E+04  0.34726722548E+04  0.32460216403E+04 0.  0.
        3    1    3    3  502    0  0.37525116486E+03 -0.12643232137E+04 -0.39500110042E+03  0.13767180194E+04  0.10100000352E+00 0.  1.
       -3    1    3    3    0  502 -0.37525116486E+03  0.12643232137E+04  0.16290173483E+04  0.20959542354E+04  0.10100000352E+00 0. -1.
</event>
<event>
 5   0  0.2057130E-07  0.3308365E+04  0.7818609E-02  0.8160770E-01
        1   -1    0    0  501    0  0.00000000000E+00  0.00000000000E+00  0.23157578573E+04  0.23157578573E+04  0.50400001928E-02 0.  1.
       -1   -1    0    0    0  501  0.00000000000E+00  0.00000000000E+00 -0.11816085933E+04  0.11816085933E+04  0.50400001928E-02 0. -1.
    10030    2    1    2    0    0  0.00000000000E+00  0.00000000000E+00  0.11341492640E+04  0.34973664506E+04  0.33083647829E+04 0.  0.
        2    1    3    3  502    0 -0.16288080533E+04  0.11788088573E+03  0.84557893545E+03  0.18389984540E+04  0.25500000920E-02 0. -1.
       -2    1    3    3    0  502  0.16288080533E+04 -0.11788088573E+03  0.28857032852E+03  0.16583679966E+04  0.25500000920E-02 0.  1.
</event>
<event>
 5   0  0.2080770E-07  0.3290959E+04  0.7818609E-02  0.8165200E-01
       -1   -1    0    0    0  501  0.00000000000E+00  0.00000000000E+00  0.14170730573E+04  0.14170730573E+04  0.50400001928E-02 0.  1.
        1   -1    0    0  501    0  0.00000000000E+00  0.00000000000E+00 -0.19107014304E+04  0.19107014304E+04  0.50400001928E-02 0. -1.
    10030    2    1    2    0    0  0.00000000000E+00  0.00000000000E+00 -0.49362837312E+03  0.33277744877E+04  0.32909594453E+04 0.  0.
        4    1    3    3  502    0  0.15770611735E+04 -0.12734041086E+02 -0.72144524588E+03  0.17342920620E+04  0.12699999809E+01 0. -1.
       -4    1    3    3    0  502 -0.15770611735E+04  0.12734041086E+02  0.22781687276E+03  0.15934824257E+04  0.12699999809E+01 0.  1.
</event>
<event>
 5   0  0.6258718E-07  0.3299260E+04  0.7818609E-02  0.8163084E-01
       -2   -1    0    0    0  501  0.00000000000E+00  0.00000000000E+00  0.12239803923E+04  0.12239803923E+04  0.25500000920E-02 0.  1.
        2   -1    0    0  501    0  0.00000000000E+00  0.00000000000E+00 -0.22233026192E+04  0.22233026192E+04  0.25500000920E-02 0. -1.
    10030    2    1    2    0    0  0.00000000000E+00  0.00000000000E+00 -0.99932222686E+03  0.34472830115E+04  0.32992598031E+04 0.  0.
        5    1    3    3  502    0 -0.16415702273E+04  0.74593919759E+02 -0.65085882466E+03  0.17674717434E+04  0.46999998093E+01 0.  1.
       -5    1    3    3    0  502  0.16415702273E+04 -0.74593919759E+02 -0.34846340221E+03  0.16798112682E+04  0.46999998093E+01 0. -1.
</event>
<event>
 5   0  0.6426079E-07  0.3225408E+04  0.7818609E-02  0.8182139E-01
       -2   -1    0    0    0  501  0.00000000000E+00  0.00000000000E+00  0.14447193946E+04  0.14447193946E+04  0.25500000920E-02 0. -1.
        2   -1    0    0  501    0  0.00000000000E+00  0.00000000000E+00 -0.18002210180E+04  0.18002210180E+04  0.25500000920E-02 0.  1.
    10030    2    1    2    0    0  0.00000000000E+00  0.00000000000E+00 -0.35550162345E+03  0.32449404126E+04  0.32254080171E+04 0.  0.
        4    1    3    3  502    0  0.20022971351E+03 -0.15938683492E+04 -0.32110706699E+03  0.16381756970E+04  0.12699999809E+01 0. -1.
       -4    1    3    3    0  502 -0.20022971351E+03  0.15938683492E+04 -0.34394556464E+02  0.16067647156E+04  0.12699999809E+01 0.  1.
</event>
<event>
 5   0  0.2057130E-07  0.3323750E+04  0.7818609E-02  0.8156878E-01
       -1   -1    0    0    0  501  0.00000000000E+00  0.00000000000E+00  0.26899316162E+04  0.26899316162E+04  0.50400001928E-02 0.  1.
        1   -1    0    0  501    0  0.00000000000E+00  0.00000000000E+00 -0.10267281498E+04  0.10267281498E+04  0.50400001928E-02 0. -1.
    10030    2    1    2    0    0  0.00000000000E+00  0.00000000000E+00  0.16632034664E+04  0.37166597661E+04  0.33237499975E+04 0.  0.
        2    1    3    3  502    0  0.46151904180E+03 -0.72968682225E+03 -0.75625485161E+03  0.11477648213E+04  0.25500000920E-02 0. -1.
       -2    1    3    3    0  502 -0.46151904180E+03  0.72968682225E+03  0.24194583180E+04  0.25688949447E+04  0.25500000920E-02 0.  1.
</event>
<event>
 5   0  0.2037333E-07  0.3223419E+04  0.7818609E-02  0.8182660E-01
       -1   -1    0    0    0  501  0.00000000000E+00  0.00000000000E+00  0.14037806643E+04  0.14037806644E+04  0.50400001928E-02 0.  1.
        1   -1    0    0  501    0  0.00000000000E+00  0.00000000000E+00 -0.18504365787E+04  0.18504365787E+04  0.50400001928E-02 0. -1.
    10030    2    1    2    0    0  0.00000000000E+00  0.00000000000E+00 -0.44665591434E+03  0.32542172430E+04  0.32234187378E+04 0.  0.
        3    1    3    3  502    0  0.42475438689E+03  0.28857055671E+03  0.13189853160E+04  0.14154192063E+04  0.10100000352E+00 0.  1.
       -3    1    3    3    0  502 -0.42475438689E+03 -0.28857055671E+03 -0.17656412304E+04  0.18387980368E+04  0.10100000352E+00 0. -1.
</event>
<event>
 5   0  0.2087665E-07  0.3312623E+04  0.7818609E-02  0.8159691E-01
        1   -1    0    0  501    0  0.00000000000E+00  0.00000000000E+00  0.11598268984E+04  0.11598268984E+04  0.50400001928E-02 0.  1.
       -1   -1    0    0    0  501  0.00000000000E+00  0.00000000000E+00 -0.23653255747E+04  0.23653255747E+04  0.50400001928E-02 0. -1.
    10030    2    1    2    0    0  0.00000000000E+00  0.00000000000E+00 -0.12054986762E+04  0.35251524731E+04  0.33126232657E+04 0.  0.
        5    1    3    3  502    0  0.15734386560E+03  0.15792483150E+04 -0.11070339724E+04  0.19350267798E+04  0.46999998093E+01 0. -1.
       -5    1    3    3    0  502 -0.15734386560E+03 -0.15792483150E+04 -0.98464703852E+02  0.15901256933E+04  0.46999998093E+01 0.  1.
</event>
<event>
 5   0  0.6424183E-07  0.3314013E+04  0.7818609E-02  0.8159339E-01
       -2   -1    0    0    0  501  0.00000000000E+00  0.00000000000E+00  0.13802346324E+04  0.13802346324E+04  0.25500000920E-02 0.  1.
        2   -1    0    0  501    0  0.00000000000E+00  0.00000000000E+00 -0.19892780132E+04  0.19892780132E+04  0.25500000920E-02 0. -1.
    10030    2    1    2    0    0  0.00000000000E+00  0.00000000000E+00 -0.60904338082E+03  0.33695126456E+04  0.33140129192E+04 0.  0.
        2    1    3    3  502    0 -0.38529244330E+03  0.45436109967E+03 -0.18766295870E+04  0.19689166774E+04  0.25500000920E-02 0. -1.
       -2    1    3    3    0  502  0.38529244330E+03 -0.45436109967E+03  0.12675862062E+04  0.14005959681E+04  0.25500000920E-02 0.  1.
</event>
<event>
 5   0  0.2080828E-07  0.3290648E+04  0.7818609E-02  0.8165279E-01
        1   -1    0    0  501    0  0.00000000000E+00  0.00000000000E+00  0.14944997073E+04  0.14944997073E+04  0.50400001928E-02 0. -1.
       -1   -1    0    0    0  501  0.00000000000E+00  0.00000000000E+00 -0.18113696960E+04  0.18113696960E+04  0.50400001928E-02 0.  1.
    10030    2    1    2    0    0  0.00000000000E+00  0.00000000000E+00 -0.31686998862E+03  0.33058694033E+04  0.32906482526E+04 0.  0.
        1    1    3    3  502    0 -0.22196523795E+03 -0.15936168898E+04  0.18696942546E+03  0.16198274366E+04  0.50400001928E-02 0. -1.
       -1    1    3    3    0  502  0.22196523795E+03  0.15936168898E+04 -0.50383941408E+03  0.16860419667E+04  0.50400001928E-02 0.  1.
</event>
<event>
 5   0  0.6258718E-07  0.3295026E+04  0.7818609E-02  0.8164162E-01
       -2   -1    0    0    0  501  0.00000000000E+00  0.00000000000E+00  0.19099756523E+04  0.19099756524E+04  0.25500000920E-02 0.  1.
        2   -1    0    0  501    0  0.00000000000E+00  0.00000000000E+00 -0.14211170363E+04  0.14211170363E+04  0.25500000920E-02 0. -1.
    10030    2    1    2    0    0  0.00000000000E+00  0.00000000000E+00  0.48885861607E+03  0.33310926886E+04  0.32950259109E+04 0.  0.
        5    1    3    3  502    0  0.14542565559E+04 -0.22207702371E+03  0.99423257680E+03  0.17755846478E+04  0.46999998093E+01 0. -1.
       -5    1    3    3    0  502 -0.14542565559E+04  0.22207702371E+03 -0.50537396073E+03  0.15555080408E+04  0.46999998093E+01 0.  1.
</event>
<event>
 5   0  0.2037333E-07  0.3283032E+04  0.7818609E-02  0.8167226E-01
       -1   -1    0    0    0  501  0.00000000000E+00  0.00000000000E+00  0.16630289809E+04  0.16630289809E+04  0.50400001928E-02 0. -1.
        1   -1    0    0  501    0  0.00000000000E+00  0.00000000000E+00 -0.16202813101E+04  0.16202813101E+04  0.50400001928E-02 0.  1.
    10030    2    1    2    0    0  0.00000000000E+00  0.00000000000E+00  0.42747670807E+02  0.32833102911E+04  0.32830319986E+04 0.  0.
        3    1    3    3  502    0 -0.78638221423E+03  0.43775808922E+02 -0.14189779028E+04  0.16229022174E+04  0.10100000352E+00 0.  1.
       -3    1    3    3    0  502  0.78638221423E+03 -0.43775808922E+02  0.14617255736E+04  0.16604080737E+04  0.10100000352E+00 0. -1.
</event>
<event>
 5   0  0.6424183E-07  0.3308103E+04  0.7818609E-02  0.8160837E-01
        2   -1    0    0  501    0  0.00000000000E+00  0.00000000000E+00  0.16584083050E+04  0.16584083050E+04  0.25500000920E-02 0.  1.
       -2   -1    0    0    0  501  0.00000000000E+00  0.00000000000E+00 -0.16497061288E+04  0.16497061288E+04  0.25500000920E-02 0. -1.
    10030    2    1    2    0    0  0.00000000000E+00  0.00000000000E+00  0.87021761451E+01  0.33081144338E+04  0.33081029880E+04 0.  0.
        2    1    3    3  502    0  0.15950113303E+04  0.43788397124E+03 -0.47499691272E+01  0.16540332761E+04  0.25500000920E-02 0. -1.
       -2    1    3    3    0  502 -0.15950113303E+04 -0.43788397124E+03  0.13452145272E+02  0.16540811577E+04  0.25500000920E-02 0.  1.
</event>
<event>
 5   0  0.6258718E-07  0.3283746E+04  0.7818609E-02  0.8167044E-01
       -2   -1    0    0    0  501  0.00000000000E+00  0.00000000000E+00  0.12088793072E+04  0.12088793072E+04  0.25500000920E-02 0. -1.
        2   -1    0    0  501    0  0.00000000000E+00  0.00000000000E+00 -0.22299547554E+04  0.22299547554E+04  0.25500000920E-02 0.  1.
    10030    2    1    2    0    0  0.00000000000E+00  0.00000000000E+00 -0.10210754482E+04  0.34388340626E+04  0.32837455198E+04 0.  0.
        5    1    3    3  502    0  0.11477250338E+04  0.60290981114E+03  0.54449099265E+03  0.14061527387E+04  0.46999998093E+01 0. -1.
       -5    1    3    3    0  502 -0.11477250338E+04 -0.60290981114E+03 -0.15655664409E+04  0.20326813239E+04  0.46999998093E+01 0.  1.
</event>
<event>
 5   0  0.2080828E-07  0.3292154E+04  0.7818609E-02  0.8164895E-01
        1   -1    0    0  501    0  0.00000000000E+00  0.00000000000E+00  0.14116429495E+04  0.14116429495E+04  0.50400001928E-02 0. -1.
       -1   -1    0    0    0  501  0.00000000000E+00  0.00000000000E+00 -0.19194439951E+04  0.19194439951E+04  0.50400001928E-02 0.  1.
    10030    2    1    2    0    0  0.00000000000E+00  0.00000000000E+00 -0.50780104562E+03  0.33310869446E+04  0.32921540564E+04 0.  0.
        1    1    3    3  502    0 -0.59290739468E+02 -0.15019381719E+04 -0.93283191197E+03  0.17690418424E+04  0.50400001928E-02 0.  1.
       -1    1    3    3    0  502  0.59290739468E+02  0.15019381719E+04  0.42503086634E+03  0.15620451022E+04  0.50400001928E-02 0. -1.
</event>
<event>
 5   0  0.2080770E-07  0.3180065E+04  0.7818609E-02  0.8194102E-01
       -1   -1    0    0    0  501  0.00000000000E+00  0.00000000000E+00  0.16501385602E+04  0.16501385602E+04  0.50400001928E-02 0.  1.
        1   -1    0    0  501    0  0.00000000000E+00  0.00000000000E+00 -0.15321161100E+04  0.15321161100E+04  0.50400001928E-02 0. -1.
    10030    2    1    2    0    0  0.00000000000E+00  0.00000000000E+00  0.11802245025E+03  0.31822546702E+04  0.31800653275E+04 0.  0.
        4    1    3    3  502    0  0.11826999527E+04  0.17211009586E+03  0.11084472887E+04  0.16300484864E+04  0.12699999809E+01 0.  1.
       -4    1    3    3    0  502 -0.11826999527E+04 -0.17211009586E+03 -0.99042483848E+03  0.15522061838E+04  0.12699999809E+01 0. -1.
</event>
<event>
 5   0  0.6351753E-07  0.3307918E+04  0.7818609E-02  0.8160883E-01
       -2   -1    0    0    0  501  0.00000000000E+00  0.00000000000E+00  0.18591132382E+04  0.18591132382E+04  0.25500000920E-02 0.  1.
        2   -1    0    0  501    0  0.00000000000E+00  0.00000000000E+00 -0.14714440178E+04  0.14714440178E+04  0.25500000920E-02 0. -1.
    10030    2    1    2    0    0  0.00000000000E+00  0.00000000000E+00  0.38766922048E+03  0.33305572560E+04  0.33079184106E+04 0.  0.
        3    1    3    3  502    0 -0.12618173149E+04 -0.23471764527E+03 -0.85652393598E+03  0.15430193040E+04  0.10100000352E+00 0.  1.
       -3    1    3    3    0  502  0.12618173149E+04  0.23471764527E+03  0.12441931565E+04  0.17875379521E+04  0.10100000352E+00 0. -1.
</event>
<event>
 5   0  0.2087665E-07  0.3298744E+04  0.7818609E-02  0.8163215E-01
       -1   -1    0    0    0  501  0.00000000000E+00  0.00000000000E+00  0.24853216435E+04  0.24853216435E+04  0.50400001928E-02 0.  1.
        1   -1    0    0  501    0  0.00000000000E+00  0.00000000000E+00 -0.10945978375E+04  0.10945978375E+04  0.50400001928E-02 0. -1.
    10030    2    1    2    0    0  0.00000000000E+00  0.00000000000E+00  0.13907238059E+04  0.35799194810E+04  0.32987438194E+04 0.  0.
        5    1    3    3  502    0 -0.20431958567E+03  0.86052158677E+03  0.22062060766E+04  0.23768910865E+04  0.46999998093E+01 0.  1.
       -5    1    3    3    0  502  0.20431958567E+03 -0.86052158677E+03 -0.81548227067E+03  0.12030283946E+04  0.46999998093E+01 0. -1.
</event>
<event>
 5   0  0.6377741E-07  0.3291427E+04  0.7818609E-02  0.8165080E-01
        2   -1    0    0  501    0  0.00000000000E+00  0.00000000000E+00  0.82306804397E+03  0.82306804397E+03  0.25500000920E-02 0.  1.
       -2   -1    0    0    0  501  0.00000000000E+00  0.00000000000E+00 -0.32905818154E+04  0.32905818154E+04  0.25500000920E-02 0. -1.
    10030    2    1    2    0    0  0.00000000000E+00  0.00000000000E+00 -0.24675137714E+04  0.41136498594E+04  0.32914268871E+04 0.  0.
        1    1    3    3  502    0  0.13958027638E+04 -0.80440618328E+03 -0.16539563435E+04  0.23088755379E+04  0.50400001928E-02 0. -1.
       -1    1    3    3    0  502 -0.13958027638E+04  0.80440618328E+03 -0.81355742789E+03  0.18047743215E+04  0.50400001928E-02 0.  1.
</event>
<event>
 5   0  0.2080828E-07  0.3277035E+04  0.7818609E-02  0.8168764E-01
        1   -1    0    0  501    0  0.00000000000E+00  0.00000000000E+00  0.15606560987E+04  0.15606560987E+04  0.50400001928E-02 0. -1.
       -1   -1    0    0    0  501  0.00000000000E+00  0.00000000000E+00 -0.17202631445E+04  0.17202631445E+04  0.50400001928E-02 0.  1.
    10030    2    1    2    0    0  0.00000000000E+00  0.00000000000E+00 -0.15960704583E+03  0.32809192432E+04  0.32770347376E+04 0.  0.
        1    1    3    3  502    0  0.31093350832E+03 -0.14305226915E+04  0.65704738399E+03  0.16046139979E+04  0.50400001928E-02 0. -1.
       -1    1    3    3    0  502 -0.31093350832E+03  0.14305226915E+04 -0.81665442981E+03  0.16763052453E+04  0.50400001928E-02 0.  1.
</event>
<event>
 5   0  0.6424183E-07  0.3352266E+04  0.7818609E-02  0.8149722E-01
        2   -1    0    0  501    0  0.00000000000E+00  0.00000000000E+00  0.20457670527E+04  0.20457670527E+04  0.25500000920E-02 0.  1.
       -2   -1    0    0    0  501  0.00000000000E+00  0.00000000000E+00 -0.13732849013E+04  0.13732849013E+04  0.25500000920E-02 0. -1.
    10030    2    1    2    0    0  0.00000000000E+00  0.00000000000E+00  0.67248215140E+03  0.34190519541E+04  0.33522655057E+04 0.  0.
        2    1    3    3  502    0 -0.70686602460E+03  0.93958970746E+03  0.15545825357E+04  0.19491575759E+04  0.25500000920E-02 0.  1.
       -2    1    3    3    0  502  0.70686602460E+03 -0.93958970746E+03 -0.88210038433E+03  0.14698943782E+04  0.25500000920E-02 0. -1.
</event>
<event>
 5   0  0.2037333E-07  0.3074508E+04  0.7818609E-02  0.8222769E-01
       -1   -1    0    0    0  501  0.00000000000E+00  0.00000000000E+00  0.21804806501E+04  0.21804806501E+04  0.50400001928E-02 0.  1.
        1   -1    0    0  501    0  0.00000000000E+00  0.00000000000E+00 -0.10837745718E+04  0.10837745718E+04  0.50400001928E-02 0. -1.
    10030    2    1    2    0    0  0.00000000000E+00  0.00000000000E+00  0.10967060783E+04  0.32642552219E+04  0.30745077543E+04 0.  0.
        3    1    3    3  502    0 -0.49265885971E+01 -0.14727425623E+04  0.10161768229E+04  0.17893044100E+04  0.10100000352E+00 0.  1.
       -3    1    3    3    0  502  0.49265885971E+01  0.14727425623E+04  0.80529255395E+02  0.14749508118E+04  0.10100000352E+00 0. -1.
</event>
<event>
 5   0  0.6426079E-07  0.3303457E+04  0.7818609E-02  0.8162016E-01
        2   -1    0    0  501    0  0.00000000000E+00  0.00000000000E+00  0.10740395413E+04  0.10740395413E+04  0.25500000920E-02 0.  1.
       -2   -1    0    0    0  501  0.00000000000E+00  0.00000000000E+00 -0.25401370012E+04  0.25401370012E+04  0.25500000920E-02 0. -1.
    10030    2    1    2    0    0  0.00000000000E+00  0.00000000000E+00 -0.14660974599E+04  0.36141765425E+04  0.33034573281E+04 0.  0.
        4    1    3    3  502    0 -0.77887790896E+03 -0.54280991507E+03  0.74571756425E+03  0.12072239641E+04  0.12699999809E+01 0.  1.
       -4    1    3    3    0  502  0.77887790896E+03  0.54280991507E+03 -0.22118150241E+04  0.24069525784E+04  0.12699999809E+01 0. -1.
</event>
<event>
 5   0  0.6377741E-07  0.3179283E+04  0.7818609E-02  0.8194310E-01
       -2   -1    0    0    0  501  0.00000000000E+00  0.00000000000E+00  0.90751079119E+03  0.90751079119E+03  0.25500000920E-02 0.  1.
        2   -1    0    0  501    0  0.00000000000E+00  0.00000000000E+00 -0.27844959756E+04  0.27844959756E+04  0.25500000920E-02 0. -1.
    10030    2    1    2    0    0  0.00000000000E+00  0.00000000000E+00 -0.18769851844E+04  0.36920067667E+04  0.31792830298E+04 0.  0.
        1    1    3    3  502    0  0.15088354066E+04  0.24830623438E+03 -0.43401472522E+03  0.15895310793E+04  0.50400001928E-02 0.  1.
       -1    1    3    3    0  502 -0.15088354066E+04 -0.24830623438E+03 -0.14429704591E+04  0.21024756874E+04  0.50400001928E-02 0. -1.
</event>
<event>
 5   0  0.2037333E-07  0.3304129E+04  0.7818609E-02  0.8161846E-01
        1   -1    0    0  501    0  0.00000000000E+00  0.00000000000E+00  0.24696476974E+04  0.24696476974E+04  0.50400001928E-02 0.  1.
       -1   -1    0    0    0  501  0.00000000000E+00  0.00000000000E+00 -0.11051444037E+04  0.11051444037E+04  0.50400001928E-02 0. -1.
    10030    2    1    2    0    0  0.00000000000E+00  0.00000000000E+00  0.13645032937E+04  0.35747921011E+04  0.33041291331E+04 0.  0.
        3    1    3    3  502    0  0.45643313394E+03 -0.77002308606E+02 -0.10335523408E+04  0.11324711973E+04  0.10100000352E+00 0. -1.
       -3    1    3    3    0  502 -0.45643313394E+03  0.77002308606E+02  0.23980556345E+04  0.24423209039E+04  0.10100000352E+00 0.  1.
</event>
<event>
 5   0  0.2087665E-07  0.3299277E+04  0.7818609E-02  0.8163079E-01
        1   -1    0    0  501    0  0.00000000000E+00  0.00000000000E+00  0.23196754421E+04  0.23196754421E+04  0.50400001928E-02 0.  1.
       -1   -1    0    0    0  501  0.00000000000E+00  0.00000000000E+00 -0.11731411240E+04  0.11731411240E+04  0.50400001928E-02 0. -1.
    10030    2    1    2    0    0  0.00000000000E+00  0.00000000000E+00  0.11465343181E+04  0.34928165661E+04  0.32992766817E+04 0.  0.
        5    1    3    3  502    0 -0.98674750792E+03 -0.72113882120E+03  0.17462202803E+04  0.21314359482E+04  0.46999998093E+01 0.  1.
       -5    1    3    3    0  502  0.98674750792E+03  0.72113882120E+03 -0.59968596216E+03  0.13613806180E+04  0.46999998093E+01 0. -1.
</event>
<event>
 5   0  0.2037333E-07  0.3306893E+04  0.7818609E-02  0.8161144E-01
        1   -1    0    0  501    0  0.00000000000E+00  0.00000000000E+00  0.17484601714E+04  0.17484601714E+04  0.50400001928E-02 0.  1.
       -1   -1    0    0    0  501  0.00000000000E+00  0.00000000000E+00 -0.15635957095E+04  0.15635957095E+04  0.50400001928E-02 0. -1.
    10030    2    1    2    0    0  0.00000000000E+00  0.00000000000E+00  0.18486446189E+03  0.33120558809E+04  0.33068926939E+04 0.  0.
        3    1    3    3  502    0  0.83692341383E+03  0.11671462387E+03 -0.13309910696E+04  0.15765786824E+04  0.10100000352E+00 0. -1.
       -3    1    3    3    0  502 -0.83692341383E+03 -0.11671462387E+03  0.15158555315E+04  0.17354771985E+04  0.10100000352E+00 0.  1.
</event>
<event>
 5   0  0.1994250E-07  0.3295690E+04  0.7818609E-02  0.8163993E-01
       -3   -1    0    0    0  501  0.00000000000E+00  0.00000000000E+00  0.13491082680E+04  0.13491082717E+04  0.10100000352E+00 0.  1.
        3   -1    0    0  501    0  0.00000000000E+00  0.00000000000E+00 -0.20127322074E+04  0.20127322099E+04  0.10100000352E+00 0. -1.
    10030    2    1    2    0    0  0.00000000000E+00  0.00000000000E+00 -0.66362393940E+03  0.33618404816E+04  0.32956903208E+04 0.  0.
        1    1    3    3  502    0 -0.14003266823E+04  0.55590246510E+03 -0.10126296470E+04  0.18153129675E+04  0.50400001928E-02 0. -1.
       -1    1    3    3    0  502  0.14003266823E+04 -0.55590246510E+03  0.34900570758E+03  0.15465275141E+04  0.50400001928E-02 0.  1.
</event>
<event>
 5   0  0.6424183E-07  0.3322631E+04  0.7818609E-02  0.8157161E-01
       -2   -1    0    0    0  501  0.00000000000E+00  0.00000000000E+00  0.13658643915E+04  0.13658643915E+04  0.25500000920E-02 0. -1.
        2   -1    0    0  501    0  0.00000000000E+00  0.00000000000E+00 -0.20206764380E+04  0.20206764380E+04  0.25500000920E-02 0.  1.
    10030    2    1    2    0    0  0.00000000000E+00  0.00000000000E+00 -0.65481204652E+03  0.33865408295E+04  0.33226314832E+04 0.  0.
        2    1    3    3  502    0  0.11168797535E+04  0.39395476707E+03 -0.15148686338E+04  0.19228748581E+04  0.25500000920E-02 0.  1.
       -2    1    3    3    0  502 -0.11168797535E+04 -0.39395476707E+03  0.86005658729E+03  0.14636659713E+04  0.25500000920E-02 0. -1.
</event>
<event>
 5   0  0.2037333E-07  0.3309158E+04  0.7818609E-02  0.8160569E-01
        1   -1    0    0  501    0  0.00000000000E+00  0.00000000000E+00  0.24011280323E+04  0.24011280323E+04  0.50400001928E-02 0.  1.
       -1   -1    0    0    0  501  0.00000000000E+00  0.00000000000E+00 -0.11401436682E+04  0.11401436682E+04  0.50400001928E-02 0. -1.
    10030    2    1    2    0    0  0.00000000000E+00  0.00000000000E+00  0.12609843641E+04  0.35412717006E+04  0.33091575500E+04 0.  0.
        3    1    3    3  502    0  0.11909367202E+04  0.61795447491E+03  0.16666165837E+04  0.21395814665E+04  0.10100000352E+00 0.  1.
       -3    1    3    3    0  502 -0.11909367202E+04 -0.61795447491E+03 -0.40563221959E+03  0.14016902341E+04  0.10100000352E+00 0. -1.
</event>
<event>
 5   0  0.6377741E-07  0.3299441E+04  0.7818609E-02  0.8163038E-01
        2   -1    0    0  501    0  0.00000000000E+00  0.00000000000E+00  0.19205581299E+04  0.19205581299E+04  0.25500000920E-02 0.  1.
       -2   -1    0    0    0  501  0.00000000000E+00  0.00000000000E+00 -0.14170765440E+04  0.14170765440E+04  0.25500000920E-02 0. -1.
    10030    2    1    2    0    0  0.00000000000E+00  0.00000000000E+00  0.50348158594E+03  0.33376346739E+04  0.32994410904E+04 0.  0.
        1    1    3    3  502    0 -0.13139632596E+04 -0.34359406861E+03 -0.69559413787E+03  0.15259120342E+04  0.50400001928E-02 0. -1.
       -1    1    3    3    0  502  0.13139632596E+04  0.34359406861E+03  0.11990757238E+04  0.18117226396E+04  0.50400001928E-02 0.  1.
</event>
<event>
 5   0  0.6426079E-07  0.3305955E+04  0.7818609E-02  0.8161382E-01
        2   -1    0    0  501    0  0.00000000000E+00  0.00000000000E+00  0.13862234727E+04  0.13862234727E+04  0.25500000920E-02 0.  1.
       -2   -1    0    0    0  501  0.00000000000E+00  0.00000000000E+00 -0.19710637035E+04  0.19710637035E+04  0.25500000920E-02 0. -1.
    10030    2    1    2    0    0  0.00000000000E+00  0.00000000000E+00 -0.58484023079E+03  0.33572871762E+04  0.33059550946E+04 0.  0.
        4    1    3    3  502    0 -0.99650060528E+03  0.94129626270E+02 -0.16283148499E+04  0.19113567710E+04  0.12699999809E+01 0. -1.
       -4    1    3    3    0  502  0.99650060528E+03 -0.94129626270E+02  0.10434746191E+04  0.14459304051E+04  0.12699999809E+01 0.  1.
</event>
<event>
 5   0  0.2087665E-07  0.3303499E+04  0.7818609E-02  0.8162006E-01
        1   -1    0    0  501    0  0.00000000000E+00  0.00000000000E+00  0.17067969627E+04  0.17067969627E+04  0.50400001928E-02 0. -1.
       -1   -1    0    0    0  501  0.00000000000E+00  0.00000000000E+00 -0.15984775794E+04  0.15984775794E+04  0.50400001928E-02 0.  1.
    10030    2    1    2    0    0  0.00000000000E+00  0.00000000000E+00  0.10831938332E+03  0.33052745421E+04  0.33034991614E+04 0.  0.
        5    1    3    3  502    0  0.34626042555E+03  0.15402107606E+04 -0.43201205551E+03  0.16367046085E+04  0.46999998093E+01 0.  1.
       -5    1    3    3    0  502 -0.34626042555E+03 -0.15402107606E+04  0.54033143883E+03  0.16685699336E+04  0.46999998093E+01 0. -1.
</event>
<event>
 5   0  0.6351753E-07  0.3300643E+04  0.7818609E-02  0.8162732E-01
        2   -1    0    0  501    0  0.00000000000E+00  0.00000000000E+00  0.23132028684E+04  0.23132028684E+04  0.25500000920E-02 0.  1.
       -2   -1    0    0    0  501  0.00000000000E+00  0.00000000000E+00 -0.11773982401E+04  0.11773982401E+04  0.25500000920E-02 0. -1.
    10030    2    1    2    0    0  0.00000000000E+00  0.00000000000E+00  0.11358046284E+04  0.34906011085E+04  0.33006429593E+04 0.  0.
        3    1    3    3  502    0 -0.63006692231E+03  0.31919499730E+03 -0.10094784599E+04  0.12320375579E+04  0.10100000352E+00 0. -1.
       -3    1    3    3    0  502  0.63006692231E+03 -0.31919499730E+03  0.21452830883E+04  0.22585635506E+04  0.10100000352E+00 0.  1.
</event>
<event>
 5   0  0.6351753E-07  0.3259468E+04  0.7818609E-02  0.8173286E-01
        2   -1    0    0  501    0  0.00000000000E+00  0.00000000000E+00  0.13413996178E+04  0.13413996178E+04  0.25500000920E-02 0.  1.
       -2   -1    0    0    0  501  0.00000000000E+00  0.00000000000E+00 -0.19800456132E+04  0.19800456132E+04  0.25500000920E-02 0. -1.
    10030    2    1    2    0    0  0.00000000000E+00  0.00000000000E+00 -0.63864599538E+03  0.33214452309E+04  0.32594677042E+04 0.  0.
        3    1    3    3  502    0  0.31706893513E+03  0.12581812520E+04  0.68557197466E+03  0.14675018621E+04  0.10100000352E+00 0.  1.
       -3    1    3    3    0  502 -0.31706893513E+03 -0.12581812520E+04 -0.13242179700E+04  0.18539433689E+04  0.10100000352E+00 0. -1.
</event>
<event>
 5   0  0.2057130E-07  0.3306194E+04  0.7818609E-02  0.8161321E-01
       -1   -1    0    0    0  501  0.00000000000E+00  0.00000000000E+00  0.16058515874E+04  0.16058515874E+04  0.50400001928E-02 0. -1.
        1   -1    0    0  501    0  0.00000000000E+00  0.00000000000E+00 -0.17017321734E+04  0.17017321734E+04  0.50400001928E-02 0.  1.
    10030    2    1    2    0    0  0.00000000000E+00  0.00000000000E+00 -0.95880586070E+02  0.33075837608E+04  0.33061937705E+04 0.  0.
        2    1    3    3  502    0 -0.78994815938E+03  0.24022155156E+03 -0.14806753535E+04  0.16953241551E+04  0.25500000920E-02 0.  1.
       -2    1    3    3    0  502  0.78994815938E+03 -0.24022155156E+03  0.13847947674E+04  0.16122596057E+04  0.25500000920E-02 0. -1.
</event>
<event>
 5   0  0.2087665E-07  0.3289885E+04  0.7818609E-02  0.8165474E-01
        1   -1    0    0  501    0  0.00000000000E+00  0.00000000000E+00  0.17253153728E+04  0.17253153728E+04  0.50400001928E-02 0. -1.
       -1   -1    0    0    0  501  0.00000000000E+00  0.00000000000E+00 -0.15683142022E+04  0.15683142022E+04  0.50400001928E-02 0.  1.
    10030    2    1    2    0    0  0.00000000000E+00  0.00000000000E+00  0.15700117055E+03  0.32936295750E+04  0.32898854706E+04 0.  0.
        5    1    3    3  502    0  0.45803372424E+03  0.36782452622E+03  0.16167141963E+04  0.17201385575E+04  0.46999998093E+01 0. -1.
       -5    1    3    3    0  502 -0.45803372424E+03 -0.36782452622E+03 -0.14597130257E+04  0.15734910175E+04  0.46999998093E+01 0.  1.
</event>
<event>
 5   0  0.2080828E-07  0.3304134E+04  0.7818609E-02  0.8161844E-01
        1   -1    0    0  501    0  0.00000000000E+00  0.00000000000E+00  0.15560333320E+04  0.15560333320E+04  0.50400001928E-02 0.  1.
       -1   -1    0    0    0  501  0.00000000000E+00  0.00000000000E+00 -0.17540278460E+04  0.17540278460E+04  0.50400001928E-02 0. -1.
    10030    2    1    2    0    0  0.00000000000E+00  0.00000000000E+00 -0.19799451399E+03  0.33100611780E+04  0.33041342549E+04 0.  0.
        1    1    3    3  502    0  0.19241312739E+03  0.14574403008E+04 -0.85412038466E+03  0.17001990099E+04  0.50400001928E-02 0. -1.
       -1    1    3    3    0  502 -0.19241312739E+03 -0.14574403008E+04  0.65612587066E+03  0.16098621680E+04  0.50400001928E-02 0.  1.
</event>
<event>
 5   0  0.6258718E-07  0.3284482E+04  0.7818609E-02  0.8166855E-01
       -2   -1    0    0    0  501  0.00000000000E+00  0.00000000000E+00  0.92607194877E+03  0.92607194877E+03  0.25500000920E-02 0. -1.
        2   -1    0    0  501    0  0.00000000000E+00  0.00000000000E+00 -0.29122522334E+04  0.29122522334E+04  0.25500000920E-02 0.  1.
    10030    2    1    2    0    0  0.00000000000E+00  0.00000000000E+00 -0.19861802846E+04  0.38383241821E+04  0.32844817558E+04 0.  0.
        5    1    3    3  502    0 -0.14783215632E+03 -0.67132013136E+03 -0.27360284576E+04  0.28210634300E+04  0.46999998093E+01 0.  1.
       -5    1    3    3    0  502  0.14783215632E+03  0.67132013136E+03  0.74984817303E+03  0.10172607521E+04  0.46999998093E+01 0. -1.
</event>
<event>
 5   0  0.6351753E-07  0.3285044E+04  0.7818609E-02  0.8166711E-01
        2   -1    0    0  501    0  0.00000000000E+00  0.00000000000E+00  0.15859421045E+04  0.15859421045E+04  0.25500000920E-02 0. -1.
       -2   -1    0    0    0  501  0.00000000000E+00  0.00000000000E+00 -0.17011208703E+04  0.17011208703E+04  0.25500000920E-02 0.  1.
    10030    2    1    2    0    0  0.00000000000E+00  0.00000000000E+00 -0.11517876577E+03  0.32870629748E+04  0.32850444217E+04 0.  0.
        3    1    3    3  502    0  0.10740749953E+04 -0.51730520082E+03 -0.11881674753E+04  0.16831469710E+04  0.10100000352E+00 0. -1.
       -3    1    3    3    0  502 -0.10740749953E+04  0.51730520082E+03  0.10729887095E+04  0.16039160038E+04  0.10100000352E+00 0.  1.
</event>
<event>
 5   0  0.6426079E-07  0.3312998E+04  0.7818609E-02  0.8159596E-01
       -2   -1    0    0    0  501  0.00000000000E+00  0.00000000000E+00  0.12146621457E+04  0.12146621457E+04  0.25500000920E-02 0.  1.
        2   -1    0    0  501    0  0.00000000000E+00  0.00000000000E+00 -0.22590557997E+04  0.22590557997E+04  0.25500000920E-02 0. -1.
    10030    2    1    2    0    0  0.00000000000E+00  0.00000000000E+00 -0.10443936540E+04  0.34737179454E+04  0.33129983790E+04 0.  0.
        4    1    3    3  502    0 -0.13635986508E+04 -0.85881329952E+03 -0.92423840868E+03  0.18577351299E+04  0.12699999809E+01 0. -1.
       -4    1    3    3    0  502  0.13635986508E+04  0.85881329952E+03 -0.12015524535E+03  0.16159828154E+04  0.12699999809E+01 0.  1.
</event>
<event>
 5   0  0.6351753E-07  0.3291857E+04  0.7818609E-02  0.8164971E-01
       -2   -1    0    0    0  501  0.00000000000E+00  0.00000000000E+00  0.14079915409E+04  0.14079915409E+04  0.25500000920E-02 0. -1.
        2   -1    0    0  501    0  0.00000000000E+00  0.00000000000E+00 -0.19240739625E+04  0.19240739625E+04  0.25500000920E-02 0.  1.
    10030    2    1    2    0    0  0.00000000000E+00  0.00000000000E+00 -0.51608242158E+03  0.33320655034E+04  0.32918565359E+04 0.  0.
        3    1    3    3  502    0  0.12077472800E+04 -0.11063471544E+04 -0.42257618439E+03  0.16915165267E+04  0.10100000352E+00 0.  1.
       -3    1    3    3    0  502 -0.12077472800E+04  0.11063471544E+04 -0.93506237186E+02  0.16405489767E+04  0.10100000352E+00 0. -1.
</event>
<event>
 5   0  0.2087665E-07  0.3293682E+04  0.7818609E-02  0.8164505E-01
        1   -1    0    0  501    0  0.00000000000E+00  0.00000000000E+00  0.26454745728E+04  0.26454745728E+04  0.50400001928E-02 0. -1.
       -1   -1    0    0    0  501  0.00000000000E+00  0.00000000000E+00 -0.10251789517E+04  0.10251789517E+04  0.50400001928E-02 0.  1.
    10030    2    1    2    0    0  0.00000000000E+00  0.00000000000E+00  0.16202956211E+04  0.36706535245E+04  0.32936817389E+04 0.  0.
        5    1    3    3  502    0 -0.34358068441E+03  0.15917395219E+04  0.53629977139E+03  0.17144450785E+04  0.46999998093E+01 0. -1.
       -5    1    3    3    0  502  0.34358068441E+03 -0.15917395219E+04  0.10839958497E+04  0.19562084461E+04  0.46999998093E+01 0.  1.
</event>
<event>
 5   0  0.2080770E-07  0.3300676E+04  0.7818609E-02  0.8162723E-01
       -1   -1    0    0    0  501  0.00000000000E+00  0.00000000000E+00  0.32656943895E+04  0.32656943895E+04  0.50400001928E-02 0. -1.
        1   -1    0    0  501    0  0.00000000000E+00  0.00000000000E+00 -0.83400818483E+03  0.83400818485E+03  0.50400001928E-02 0.  1.
    10030    2    1    2    0    0  0.00000000000E+00  0.00000000000E+00  0.24316862047E+04  0.40997025744E+04  0.33006762035E+04 0.  0.
        4    1    3    3  502    0 -0.81152275561E+03  0.14370240029E+04  0.12191455741E+04  0.20518101061E+04  0.12699999809E+01 0.  1.
       -4    1    3    3    0  502  0.81152275561E+03 -0.14370240029E+04  0.12125406306E+04  0.20478924683E+04  0.12699999809E+01 0. -1.
</event>
<event>
 5   0  0.2087665E-07  0.3310179E+04  0.7818609E-02  0.8160310E-01
        1   -1    0    0  501    0  0.00000000000E+00  0.00000000000E+00  0.21289134910E+04  0.21289134910E+04  0.50400001928E-02 0.  1.
       -1   -1    0    0    0  501  0.00000000000E+00  0.00000000000E+00 -0.12867226897E+04  0.12867226897E+04  0.50400001928E-02 0. -1.
    10030    2    1    2    0    0  0.00000000000E+00  0.00000000000E+00  0.84219080130E+03  0.34156361807E+04  0.33101790243E+04 0.  0.
        5    1    3    3  502    0  0.15354591626E+04 -0.56353839400E+03  0.15987244781E+03  0.16434085466E+04  0.46999998093E+01 0.  1.
       -5    1    3    3    0  502 -0.15354591626E+04  0.56353839400E+03  0.68231835348E+03  0.17722276341E+04  0.46999998093E+01 0. -1.
</event>
<event>
 5   0  0.2080770E-07  0.3245368E+04  0.7818609E-02  0.8176937E-01
        1   -1    0    0  501    0  0.00000000000E+00  0.00000000000E+00  0.25791687719E+04  0.25791687719E+04  0.50400001928E-02 0.  1.
       -1   -1    0    0    0  501  0.00000000000E+00  0.00000000000E+00 -0.10209115505E+04  0.10209115505E+04  0.50400001928E-02 0. -1.
    10030    2    1    2    0    0  0.00000000000E+00  0.00000000000E+00  0.15582572214E+04  0.36000803224E+04  0.32453678928E+04 0.  0.
        4    1    3    3  502    0 -0.15853381134E+04  0.34596266153E+03  0.79099757844E+03  0.18051775201E+04  0.12699999809E+01 0. -1.
       -4    1    3    3    0  502  0.15853381134E+04 -0.34596266153E+03  0.76725964296E+03  0.17949028023E+04  0.12699999809E+01 0.  1.
</event>
<event>
 5   0  0.6351753E-07  0.3329257E+04  0.7818609E-02  0.8155491E-01
        2   -1    0    0  501    0  0.00000000000E+00  0.00000000000E+00  0.24726516554E+04  0.24726516554E+04  0.25500000920E-02 0. -1.
       -2   -1    0    0    0  501  0.00000000000E+00  0.00000000000E+00 -0.11206545265E+04  0.11206545265E+04  0.25500000920E-02 0.  1.
    10030    2    1    2    0    0  0.00000000000E+00  0.00000000000E+00  0.13519971288E+04  0.35933061819E+04  0.33292571364E+04 0.  0.
        3    1    3    3  502    0  0.13334114245E+04 -0.66057104595E+03  0.14812606675E+04  0.20996364706E+04  0.10100000352E+00 0.  1.
       -3    1    3    3    0  502 -0.13334114245E+04  0.66057104595E+03 -0.12926353863E+03  0.14936697112E+04  0.10100000352E+00 0. -1.
</event>
<event>
 5   0  0.2037333E-07  0.3330527E+04  0.7818609E-02  0.8155171E-01
        1   -1    0    0  501    0  0.00000000000E+00  0.00000000000E+00  0.22299006362E+04  0.22299006362E+04  0.50400001928E-02 0. -1.
       -1   -1    0    0    0  501  0.00000000000E+00  0.00000000000E+00 -0.12435991759E+04  0.12435991759E+04  0.50400001928E-02 0.  1.
    10030    2    1    2    0    0  0.00000000000E+00  0.00000000000E+00  0.98630146033E+03  0.34734998122E+04  0.33305270415E+04 0.  0.
        3    1    3    3  502    0  0.10343480891E+04  0.32205774642E+03  0.18121579533E+04  0.21112824585E+04  0.10100000352E+00 0. -1.
       -3    1    3    3    0  502 -0.10343480891E+04 -0.32205774642E+03 -0.82585649299E+03  0.13622173537E+04  0.10100000352E+00 0.  1.
</event>
<event>
 5   0  0.2057130E-07  0.3295676E+04  0.7818609E-02  0.8163997E-01
       -1   -1    0    0    0  501  0.00000000000E+00  0.00000000000E+00  0.11400389363E+04  0.11400389364E+04  0.50400001928E-02 0.  1.
        1   -1    0    0  501    0  0.00000000000E+00  0.00000000000E+00 -0.23818217871E+04  0.23818217871E+04  0.50400001928E-02 0. -1.
    10030    2    1    2    0    0  0.00000000000E+00  0.00000000000E+00 -0.12417828507E+04  0.35218607234E+04  0.32956756981E+04 0.  0.
        2    1    3    3  502    0  0.12785645118E+04  0.95969309341E+03 -0.10478512870E+04  0.19114733490E+04  0.25500000920E-02 0. -1.
       -2    1    3    3    0  502 -0.12785645118E+04 -0.95969309341E+03 -0.19393156378E+03  0.16103873744E+04  0.25500000920E-02 0.  1.
</event>
<event>
 5   0  0.6351753E-07  0.3288767E+04  0.7818609E-02  0.8165759E-01
        2   -1    0    0  501    0  0.00000000000E+00  0.00000000000E+00  0.18171307305E+04  0.18171307305E+04  0.25500000920E-02 0. -1.
       -2   -1    0    0    0  501  0.00000000000E+00  0.00000000000E+00 -0.14880590421E+04  0.14880590421E+04  0.25500000920E-02 0.  1.
    10030    2    1    2    0    0  0.00000000000E+00  0.00000000000E+00  0.32907168837E+03  0.33051897726E+04  0.32887674374E+04 0.  0.
        3    1    3    3  502    0 -0.11208460178E+04  0.72835454958E+03  0.11270245724E+04  0.17484223010E+04  0.10100000352E+00 0. -1.
       -3    1    3    3    0  502  0.11208460178E+04 -0.72835454958E+03 -0.79795288403E+03  0.15567674717E+04  0.10100000352E+00 0.  1.
</event>
<event>
 5   0  0.2037333E-07  0.3302668E+04  0.7818609E-02  0.8162217E-01
       -1   -1    0    0    0  501  0.00000000000E+00  0.00000000000E+00  0.11661630138E+04  0.11661630138E+04  0.50400001928E-02 0.  1.
        1   -1    0    0  501    0  0.00000000000E+00  0.00000000000E+00 -0.23383553428E+04  0.23383553429E+04  0.50400001928E-02 0. -1.
    10030    2    1    2    0    0  0.00000000000E+00  0.00000000000E+00 -0.11721923290E+04  0.35045183567E+04  0.33026677181E+04 0.  0.
        3    1    3    3  502    0 -0.86904445928E+03 -0.14701370444E+03 -0.20678858808E+04  0.22478886378E+04  0.10100000352E+00 0. -1.
       -3    1    3    3    0  502  0.86904445928E+03  0.14701370444E+03  0.89569355179E+03  0.12566297189E+04  0.10100000352E+00 0.  1.
</event>
<event>
 5   0  0.6426079E-07  0.3317681E+04  0.7818609E-02  0.8158411E-01
       -2   -1    0    0    0  501  0.00000000000E+00  0.00000000000E+00  0.11252850303E+04  0.11252850303E+04  0.25500000920E-02 0. -1.
        2   -1    0    0  501    0  0.00000000000E+00  0.00000000000E+00 -0.24453825223E+04  0.24453825223E+04  0.25500000920E-02 0.  1.
    10030    2    1    2    0    0  0.00000000000E+00  0.00000000000E+00 -0.13200974920E+04  0.35706675526E+04  0.33176813263E+04 0.  0.
        4    1    3    3  502    0 -0.11583073677E+04  0.44248969163E+03  0.52592137858E+03  0.13468734145E+04  0.12699999809E+01 0. -1.
       -4    1    3    3    0  502  0.11583073677E+04 -0.44248969163E+03 -0.18460188705E+04  0.22237941381E+04  0.12699999809E+01 0.  1.
</event>
<event>
 5   0  0.2057130E-07  0.3332348E+04  0.7818609E-02  0.8154713E-01
       -1   -1    0    0    0  501  0.00000000000E+00  0.00000000000E+00  0.10457642689E+04  0.10457642689E+04  0.50400001928E-02 0. -1.
        1   -1    0    0  501    0  0.00000000000E+00  0.00000000000E+00 -0.26546475966E+04  0.26546475966E+04  0.50400001928E-02 0.  1.
    10030    2    1    2    0    0  0.00000000000E+00  0.00000000000E+00 -0.16088833278E+04  0.37004118655E+04  0.33323478828E+04 0.  0.
        2    1    3    3  502    0 -0.53072477789E+02  0.15521303350E+04 -0.14745975955E+04  0.21415796351E+04  0.25500000920E-02 0.  1.
       -2    1    3    3    0  502  0.53072477789E+02 -0.15521303350E+04 -0.13428573222E+03  0.15588322304E+04  0.25500000920E-02 0. -1.
</event>
<event>
 5   0  0.2057130E-07  0.3305404E+04  0.7818609E-02  0.8161522E-01
        1   -1    0    0  501    0  0.00000000000E+00  0.00000000000E+00  0.25132279782E+04  0.25132279782E+04  0.50400001928E-02 0. -1.
       -1   -1    0    0    0  501  0.00000000000E+00  0.00000000000E+00 -0.10868192873E+04  0.10868192873E+04  0.50400001928E-02 0.  1.
    10030    2    1    2    0    0  0.00000000000E+00  0.00000000000E+00  0.14264086909E+04  0.36000472655E+04  0.33054044473E+04 0.  0.
        2    1    3    3  502    0 -0.82815696222E+03 -0.65124848960E+03 -0.67366705320E+03  0.12505182317E+04  0.25500000920E-02 0.  1.
       -2    1    3    3    0  502  0.82815696222E+03  0.65124848960E+03  0.21000757441E+04  0.23495290337E+04  0.25500000920E-02 0. -1.
</event>
<event>
 5   0  0.2080770E-07  0.3259377E+04  0.7818609E-02  0.8173309E-01
        1   -1    0    0  501    0  0.00000000000E+00  0.00000000000E+00  0.17046819865E+04  0.17046819865E+04  0.50400001928E-02 0.  1.
       -1   -1    0    0    0  501  0.00000000000E+00  0.00000000000E+00 -0.15579945307E+04  0.15579945307E+04  0.50400001928E-02 0. -1.
    10030    2    1    2    0    0  0.00000000000E+00  0.00000000000E+00  0.14668745580E+03  0.32626765172E+04  0.32593773710E+04 0.  0.
        4    1    3    3  502    0  0.81359581629E+03 -0.17026470964E+03  0.14765312597E+04  0.16944245033E+04  0.12699999809E+01 0.  1.
       -4    1    3    3    0  502 -0.81359581629E+03  0.17026470964E+03 -0.13298438039E+04  0.15682520139E+04  0.12699999809E+01 0. -1.
</event>
<event>
 5   0  0.2037333E-07  0.3316283E+04  0.7818609E-02  0.8158764E-01
        1   -1    0    0  501    0  0.00000000000E+00  0.00000000000E+00  0.90182443658E+03  0.90182443660E+03  0.50400001928E-02 0.  1.
       -1   -1    0    0    0  501  0.00000000000E+00  0.00000000000E+00 -0.30487462151E+04  0.30487462151E+04  0.50400001928E-02 0. -1.
    10030    2    1    2    0    0  0.00000000000E+00  0.00000000000E+00 -0.21469217785E+04  0.39505706517E+04  0.33162833641E+04 0.  0.
        3    1    3    3  502    0 -0.10612310817E+04 -0.30206102287E+03 -0.25479275913E+04  0.27765783424E+04  0.10100000352E+00 0.  1.
       -3    1    3    3    0  502  0.10612310817E+04  0.30206102287E+03  0.40100581284E+03  0.11739923093E+04  0.10100000352E+00 0. -1.
</event>
<event>
 5   0  0.2087665E-07  0.3302493E+04  0.7818609E-02  0.8162261E-01
        1   -1    0    0  501    0  0.00000000000E+00  0.00000000000E+00  0.19522555718E+04  0.19522555718E+04  0.50400001928E-02 0. -1.
       -1   -1    0    0    0  501  0.00000000000E+00  0.00000000000E+00 -0.13966486167E+04  0.13966486167E+04  0.50400001928E-02 0.  1.
    10030    2    1    2    0    0  0.00000000000E+00  0.00000000000E+00  0.55560695513E+03  0.33489041885E+04  0.33024930243E+04 0.  0.
        5    1    3    3  502    0 -0.10777974858E+04 -0.12015485966E+04 -0.75265535139E+02  0.16158754411E+04  0.46999998093E+01 0. -1.
       -5    1    3    3    0  502  0.10777974858E+04  0.12015485966E+04  0.63087249027E+03  0.17330287474E+04  0.46999998093E+01 0.  1.
</event>
<event>
 5   0  0.6351753E-07  0.3295546E+04  0.7818609E-02  0.8164030E-01
        2   -1    0    0  501    0  0.00000000000E+00  0.00000000000E+00  0.31151055965E+04  0.31151055965E+04  0.25500000920E-02 0.  1.
       -2   -1    0    0    0  501  0.00000000000E+00  0.00000000000E+00 -0.87160961661E+03  0.87160961661E+03  0.25500000920E-02 0. -1.
    10030    2    1    2    0    0  0.00000000000E+00  0.00000000000E+00  0.22434959799E+04  0.39867152131E+04  0.32955460820E+04 0.  0.
        3    1    3    3  502    0  0.11308103600E+04  0.99391199607E+03  0.31153448140E+03  0.15374156463E+04  0.10100000352E+00 0. -1.
       -3    1    3    3    0  502 -0.11308103600E+04 -0.99391199607E+03  0.19319614985E+04  0.24492995668E+04  0.10100000352E+00 0.  1.
</event>
<event>
 5   0  0.2080828E-07  0.3311334E+04  0.7818609E-02  0.8160017E-01
       -1   -1    0    0    0  501  0.00000000000E+00  0.00000000000E+00  0.14136956810E+04  0.14136956810E+04  0.50400001928E-02 0.  1.
        1   -1    0    0  501    0  0.00000000000E+00  0.00000000000E+00 -0.19390552535E+04  0.19390552535E+04  0.50400001928E-02 0. -1.
    10030    2    1    2    0    0  0.00000000000E+00  0.00000000000E+00 -0.52535957254E+03  0.33527509345E+04  0.33113344966E+04 0.  0.
        1    1    3    3  502    0  0.10705599375E+04  0.84350581786E+03  0.68909522545E+03  0.15272370066E+04  0.50400001928E-02 0.  1.
       -1    1    3    3    0  502 -0.10705599375E+04 -0.84350581786E+03 -0.12144547980E+04  0.18255139279E+04  0.50400001928E-02 0. -1.
</event>
<event>
 5   0  0.6377741E-07  0.3310291E+04  0.7818609E-02  0.8160282E-01
       -2   -1    0    0    0  501  0.00000000000E+00  0.00000000000E+00  0.12956852708E+04  0.12956852708E+04  0.25500000920E-02 0.  1.
        2   -1    0    0  501    0  0.00000000000E+00  0.00000000000E+00 -0.21143297289E+04  0.21143297289E+04  0.25500000920E-02 0. -1.
    10030    2    1    2    0    0  0.00000000000E+00  0.00000000000E+00 -0.81864445816E+03  0.34100149997E+04  0.33102905536E+04 0.  0.
        1    1    3    3  502    0  0.84536673288E+03  0.13342954441E+04  0.10006069973E+03  0.15827196179E+04  0.50400001928E-02 0.  1.
       -1    1    3    3    0  502 -0.84536673288E+03 -0.13342954441E+04 -0.91870515789E+03  0.18272953818E+04  0.50400001928E-02 0. -1.
</event>
<event>
 5   0  0.2037333E-07  0.3291264E+04  0.7818609E-02  0.8165122E-01
        1   -1    0    0  501    0  0.00000000000E+00  0.00000000000E+00  0.16081645427E+04  0.16081645427E+04  0.50400001928E-02 0. -1.
       -1   -1    0    0    0  501  0.00000000000E+00  0.00000000000E+00 -0.16839725113E+04  0.16839725113E+04  0.50400001928E-02 0.  1.
    10030    2    1    2    0    0  0.00000000000E+00  0.00000000000E+00 -0.75807968641E+02  0.32921370540E+04  0.32912641241E+04 0.  0.
        3    1    3    3  502    0 -0.33145994642E+03 -0.15705684232E+04 -0.40070392622E+03  0.16544227134E+04  0.10100000352E+00 0.  1.
       -3    1    3    3    0  502  0.33145994642E+03  0.15705684232E+04  0.32489595758E+03  0.16377143406E+04  0.10100000352E+00 0. -1.
</event>
<event>
 5   0  0.2057130E-07  0.3293592E+04  0.7818609E-02  0.8164528E-01
       -1   -1    0    0    0  501  0.00000000000E+00  0.00000000000E+00  0.17847075602E+04  0.17847075602E+04  0.50400001928E-02 0.  1.
        1   -1    0    0  501    0  0.00000000000E+00  0.00000000000E+00 -0.15195409829E+04  0.15195409829E+04  0.50400001928E-02 0. -1.
    10030    2    1    2    0    0  0.00000000000E+00  0.00000000000E+00  0.26516657722E+03  0.33042485431E+04  0.32935915231E+04 0.  0.
        2    1    3    3  502    0 -0.13984019998E+04 -0.57427330426E+03  0.78785694861E+03  0.17047101080E+04  0.25500000920E-02 0.  1.
       -2    1    3    3    0  502  0.13984019998E+04  0.57427330426E+03 -0.52269037139E+03  0.15995384351E+04  0.25500000920E-02 0. -1.
</event>
<event>
 5   0  0.2087665E-07  0.3305713E+04  0.7818609E-02  0.8161443E-01
        1   -1    0    0  501    0  0.00000000000E+00  0.00000000000E+00  0.89685371322E+03  0.89685371323E+03  0.50400001928E-02 0.  1.
       -1   -1    0    0    0  501  0.00000000000E+00  0.00000000000E+00 -0.30461313227E+04  0.30461313227E+04  0.50400001928E-02 0. -1.
    10030    2    1    2    0    0  0.00000000000E+00  0.00000000000E+00 -0.21492776095E+04  0.39429850360E+04  0.33057127448E+04 0.  0.
        5    1    3    3  502    0  0.15251031827E+04  0.19676954918E+03 -0.17974807694E+04  0.23655056922E+04  0.46999998093E+01 0. -1.
       -5    1    3    3    0  502 -0.15251031827E+04 -0.19676954918E+03 -0.35179684008E+03  0.15774793438E+04  0.46999998093E+01 0.  1.
</event>
<event>
 5   0  0.6258718E-07  0.3298178E+04  0.7818609E-02  0.8163359E-01
        2   -1    0    0  501    0  0.00000000000E+00  0.00000000000E+00  0.20822390601E+04  0.20822390601E+04  0.25500000920E-02 0. -1.
       -2   -1    0    0    0  501  0.00000000000E+00  0.00000000000E+00 -0.13060431159E+04  0.13060431159E+04  0.25500000920E-02 0.  1.
    10030    2    1    2    0    0  0.00000000000E+00  0.00000000000E+00  0.77619594425E+03  0.33882821760E+04  0.32981776726E+04 0.  0.
        5    1    3    3  502    0 -0.11235763385E+03 -0.15606190600E+04 -0.14701203898E+03  0.15715567816E+04  0.46999998093E+01 0.  1.
       -5    1    3    3    0  502  0.11235763385E+03  0.15606190600E+04  0.92320798324E+03  0.18167253944E+04  0.46999998093E+01 0. -1.
</event>
<event>
 5   0  0.6258718E-07  0.3311562E+04  0.7818609E-02  0.8159960E-01
       -2   -1    0    0    0  501  0.00000000000E+00  0.00000000000E+00  0.20667317761E+04  0.20667317761E+04  0.25500000920E-02 0. -1.
        2   -1    0    0  501    0  0.00000000000E+00  0.00000000000E+00 -0.13265439509E+04  0.13265439509E+04  0.25500000920E-02 0.  1.
    10030    2    1    2    0    0  0.00000000000E+00  0.00000000000E+00  0.74018782520E+03  0.33932757271E+04  0.33115618888E+04 0.  0.
        5    1    3    3  502    0 -0.33535613456E+03  0.77106227918E+03  0.18316802640E+04  0.20154591176E+04  0.46999998093E+01 0. -1.
       -5    1    3    3    0  502  0.33535613456E+03 -0.77106227918E+03 -0.10914924388E+04  0.13778166094E+04  0.46999998093E+01 0.  1.
</event>
<event>
 5   0  0.6258718E-07  0.3286350E+04  0.7818609E-02  0.8166377E-01
       -2   -1    0    0    0  501  0.00000000000E+00  0.00000000000E+00  0.15011460406E+04  0.15011460406E+04  0.25500000920E-02 0.  1.
        2   -1    0    0  501    0  0.00000000000E+00  0.00000000000E+00 -0.17986419372E+04  0.17986419372E+04  0.25500000920E-02 0. -1.
    10030    2    1    2    0    0  0.00000000000E+00  0.00000000000E+00 -0.29749589659E+03  0.32997879779E+04  0.32863500864E+04 0.  0.
        5    1    3    3  502    0 -0.11892905257E+04 -0.64908553986E+03 -0.10822149591E+04  0.17340517006E+04  0.46999998093E+01 0. -1.
       -5    1    3    3    0  502  0.11892905257E+04  0.64908553986E+03  0.78471906255E+03  0.15657362772E+04  0.46999998093E+01 0.  1.
</event>
<event>
 5   0  0.2080770E-07  0.3278132E+04  0.7818609E-02  0.8168482E-01
       -1   -1    0    0    0  501  0.00000000000E+00  0.00000000000E+00  0.13729320424E+04  0.13729320424E+04  0.50400001928E-02 0.  1.
        1   -1    0    0  501    0  0.00000000000E+00  0.00000000000E+00 -0.19567879710E+04  0.19567879710E+04  0.50400001928E-02 0. -1.
    10030    2    1    2    0    0  0.00000000000E+00  0.00000000000E+00 -0.58385592865E+03  0.33297200134E+04  0.32781317275E+04 0.  0.
        4    1    3    3  502    0 -0.16309696662E+04 -0.83616861113E+01 -0.12687983401E+03  0.16359193363E+04  0.12699999809E+01 0. -1.
       -4    1    3    3    0  502  0.16309696662E+04  0.83616861113E+01 -0.45697609464E+03  0.16938006771E+04  0.12699999809E+01 0.  1.
</event>
<event>
 5   0  0.6424183E-07  0.3296655E+04  0.7818609E-02  0.8163747E-01
        2   -1    0    0  501    0  0.00000000000E+00  0.00000000000E+00  0.11036742348E+04  0.11036742348E+04  0.25500000920E-02 0. -1.
       -2   -1    0    0    0  501  0.00000000000E+00  0.00000000000E+00 -0.24617626981E+04  0.24617626981E+04  0.25500000920E-02 0.  1.
    10030    2    1    2    0    0  0.00000000000E+00  0.00000000000E+00 -0.13580884633E+04  0.35654369329E+04  0.32966553124E+04 0.  0.
        2    1    3    3  502    0  0.49275254126E+03  0.14803954756E+04 -0.12539962740E+04  0.20017198821E+04  0.25500000920E-02 0.  1.
       -2    1    3    3    0  502 -0.49275254126E+03 -0.14803954756E+04 -0.10409218938E+03  0.15637170509E+04  0.25500000920E-02 0. -1.
</event>
<event>
 5   0  0.6351753E-07  0.3292127E+04  0.7818609E-02  0.8164902E-01
        2   -1    0    0  501    0  0.00000000000E+00  0.00000000000E+00  0.21525934315E+04  0.21525934315E+04  0.25500000920E-02 0. -1.
       -2   -1    0    0    0  501  0.00000000000E+00  0.00000000000E+00 -0.12587255176E+04  0.12587255176E+04  0.25500000920E-02 0.  1.
    10030    2    1    2    0    0  0.00000000000E+00  0.00000000000E+00  0.89386791385E+03  0.34113189491E+04  0.32921265354E+04 0.  0.
        3    1    3    3  502    0  0.13472829332E+04  0.76159331659E+03  0.10278826099E+04  0.18578854517E+04  0.10100000352E+00 0.  1.
       -3    1    3    3    0  502 -0.13472829332E+04 -0.76159331659E+03 -0.13401469605E+03  0.15534334974E+04  0.10100000352E+00 0. -1.
</event>
<event>
 5   0  0.2037333E-07  0.3363399E+04  0.7818609E-02  0.8146948E-01
        1   -1    0    0  501    0  0.00000000000E+00  0.00000000000E+00  0.26402253389E+04  0.26402253389E+04  0.50400001928E-02 0. -1.
       -1   -1    0    0    0  501  0.00000000000E+00  0.00000000000E+00 -0.10711633976E+04  0.10711633976E+04  0.50400001928E-02 0.  1.
    10030    2    1    2    0    0  0.00000000000E+00  0.00000000000E+00  0.15690619412E+04  0.37113887365E+04  0.33633987242E+04 0.  0.
        3    1    3    3  502    0 -0.10630537151E+04 -0.67154981890E+03  0.20167845511E+04  0.23766535920E+04  0.10100000352E+00 0. -1.
       -3    1    3    3    0  502  0.10630537151E+04  0.67154981890E+03 -0.44772260983E+03  0.13347351446E+04  0.10100000352E+00 0.  1.
</event>
<event>
 5   0  0.6351753E-07  0.3397738E+04  0.7818609E-02  0.8138462E-01
       -2   -1    0    0    0  501  0.00000000000E+00  0.00000000000E+00  0.21257716037E+04  0.21257716037E+04  0.25500000920E-02 0. -1.
        2   -1    0    0  501    0  0.00000000000E+00  0.00000000000E+00 -0.13576979904E+04  0.13576979904E+04  0.25500000920E-02 0.  1.
    10030    2    1    2    0    0  0.00000000000E+00  0.00000000000E+00  0.76807361329E+03  0.34834695941E+04  0.33977379737E+04 0.  0.
        3    1    3    3  502    0 -0.63722582929E+03  0.13704192124E+04  0.11795337409E+04  0.19171346931E+04  0.10100000352E+00 0. -1.
       -3    1    3    3    0  502  0.63722582929E+03 -0.13704192124E+04 -0.41146012765E+03  0.15663349010E+04  0.10100000352E+00 0.  1.
</event>
<event>
 5   0  0.2080828E-07  0.3298749E+04  0.7818609E-02  0.8163214E-01
        1   -1    0    0  501    0  0.00000000000E+00  0.00000000000E+00  0.22422181296E+04  0.22422181296E+04  0.50400001928E-02 0. -1.
       -1   -1    0    0    0  501  0.00000000000E+00  0.00000000000E+00 -0.12132793227E+04  0.12132793227E+04  0.50400001928E-02 0.  1.
    10030    2    1    2    0    0  0.00000000000E+00  0.00000000000E+00  0.10289388069E+04  0.34554974524E+04  0.32987493956E+04 0.  0.
        1    1    3    3  502    0  0.16916888281E+03  0.13144696586E+04 -0.51401363738E+03  0.14214987209E+04  0.50400001928E-02 0.  1.
       -1    1    3    3    0  502 -0.16916888281E+03 -0.13144696586E+04  0.15429524443E+04  0.20339987315E+04  0.50400001928E-02 0. -1.
</event>
<event>
 5   0  0.6258718E-07  0.3306226E+04  0.7818609E-02  0.8161313E-01
       -2   -1    0    0    0  501  0.00000000000E+00  0.00000000000E+00  0.85045634115E+03  0.85045634115E+03  0.25500000920E-02 0. -1.
        2   -1    0    0  501    0  0.00000000000E+00  0.00000000000E+00 -0.32133129117E+04  0.32133129118E+04  0.25500000920E-02 0.  1.
    10030    2    1    2    0    0  0.00000000000E+00  0.00000000000E+00 -0.23628565706E+04  0.40637692529E+04  0.33062258494E+04 0.  0.
        5    1    3    3  502    0 -0.93447888970E+02 -0.14019440826E+04 -0.22519546557E+04  0.26543363728E+04  0.46999998093E+01 0.  1.
       -5    1    3    3    0  502  0.93447888970E+02  0.14019440826E+04 -0.11090191493E+03  0.14094328801E+04  0.46999998093E+01 0. -1.
</event>
<event>
 5   0  0.2037333E-07  0.3307065E+04  0.7818609E-02  0.8161100E-01
       -1   -1    0    0    0  501  0.00000000000E+00  0.00000000000E+00  0.15890143058E+04  0.15890143058E+04  0.50400001928E-02 0. -1.
        1   -1    0    0  501    0  0.00000000000E+00  0.00000000000E+00 -0.17206702779E+04  0.17206702779E+04  0.50400001928E-02 0.  1.
    10030    2    1    2    0    0  0.00000000000E+00  0.00000000000E+00 -0.13165597208E+03  0.33096845836E+04  0.33070649749E+04 0.  0.
        3    1    3    3  502    0  0.47604390706E+03 -0.10153438788E+04 -0.12819566629E+04  0.17032186851E+04  0.10100000352E+00 0.  1.
       -3    1    3    3    0  502 -0.47604390706E+03  0.10153438788E+04  0.11503006908E+04  0.16064658985E+04  0.10100000352E+00 0. -1.
</event>
<event>
 5   0  0.6424183E-07  0.3280494E+04  0.7818609E-02  0.8167876E-01
       -2   -1    0    0    0  501  0.00000000000E+00  0.00000000000E+00  0.16872925451E+04  0.16872925451E+04  0.25500000920E-02 0.  1.
        2   -1    0    0  501    0  0.00000000000E+00  0.00000000000E+00 -0.15945135277E+04  0.15945135277E+04  0.25500000920E-02 0. -1.
    10030    2    1    2    0    0  0.00000000000E+00  0.00000000000E+00  0.92779017335E+02  0.32818060728E+04  0.32804943459E+04 0.  0.
        2    1    3    3  502    0  0.15000312896E+04  0.22295863405E+03 -0.57884548845E+03  0.16232271935E+04  0.25500000920E-02 0. -1.
       -2    1    3    3    0  502 -0.15000312896E+04 -0.22295863405E+03  0.67162450579E+03  0.16585788793E+04  0.25500000920E-02 0.  1.
</event>
<event>
 5   0  0.2087665E-07  0.3335460E+04  0.7818609E-02  0.8153931E-01
       -1   -1    0    0    0  501  0.00000000000E+00  0.00000000000E+00  0.37360972796E+04  0.37360972796E+04  0.50400001928E-02 0. -1.
        1   -1    0    0  501    0  0.00000000000E+00  0.00000000000E+00 -0.74444604884E+03  0.74444604885E+03  0.50400001928E-02 0.  1.
    10030    2    1    2    0    0  0.00000000000E+00  0.00000000000E+00  0.29916512308E+04  0.44805433285E+04  0.33354597032E+04 0.  0.
        5    1    3    3  502    0 -0.48384221328E+03  0.11526253161E+04  0.12915251386E+02  0.12501349129E+04  0.46999998093E+01 0.  1.
       -5    1    3    3    0  502  0.48384221328E+03 -0.11526253161E+04  0.29787359794E+04  0.32304084156E+04  0.46999998093E+01 0. -1.
</event>
<event>
 5   0  0.2057130E-07  0.3293647E+04  0.7818609E-02  0.8164514E-01
       -1   -1    0    0    0  501  0.00000000000E+00  0.00000000000E+00  0.11183177841E+04  0.11183177841E+04  0.50400001928E-02 0. -1.
        1   -1    0    0  501    0  0.00000000000E+00  0.00000000000E+00 -0.24250950573E+04  0.24250950573E+04  0.50400001928E-02 0.  1.
    10030    2    1    2    0    0  0.00000000000E+00  0.00000000000E+00 -0.13067772732E+04  0.35434128414E+04  0.32936465692E+04 0.  0.
        2    1    3    3  502    0 -0.11475021094E+03 -0.10104833455E+04 -0.20469067552E+04  0.22856227744E+04  0.25500000920E-02 0.  1.
       -2    1    3    3    0  502  0.11475021094E+03  0.10104833455E+04  0.74012948200E+03  0.12577900670E+04  0.25500000920E-02 0. -1.
</event>
<event>
 5   0  0.1994250E-07  0.3300474E+04  0.7818609E-02  0.8162775E-01
        3   -1    0    0  501    0  0.00000000000E+00  0.00000000000E+00  0.98249189030E+03  0.98249189549E+03  0.10100000352E+00 0.  1.
       -3   -1    0    0    0  501  0.00000000000E+00  0.00000000000E+00 -0.27718105459E+04  0.27718105477E+04  0.10100000352E+00 0. -1.
    10030    2    1    2    0    0  0.00000000000E+00  0.00000000000E+00 -0.17893186556E+04  0.37543024432E+04  0.33004735393E+04 0.  0.
        2    1    3    3  502    0  0.11210981798E+04  0.10628797053E+04 -0.15547127286E+04  0.21917358566E+04  0.25500000920E-02 0. -1.
       -2    1    3    3    0  502 -0.11210981798E+04 -0.10628797053E+04 -0.23460592700E+03  0.15625665866E+04  0.25500000920E-02 0.  1.
</event>
<event>
 5   0  0.6258718E-07  0.3324096E+04  0.7818609E-02  0.8156791E-01
        2   -1    0    0  501    0  0.00000000000E+00  0.00000000000E+00  0.16476930894E+04  0.16476930894E+04  0.25500000920E-02 0. -1.
       -2   -1    0    0    0  501  0.00000000000E+00  0.00000000000E+00 -0.16765284521E+04  0.16765284521E+04  0.25500000920E-02 0.  1.
    10030    2    1    2    0    0  0.00000000000E+00  0.00000000000E+00 -0.28835362706E+02  0.33242215415E+04  0.33240964756E+04 0.  0.
        5    1    3    3  502    0 -0.52940231507E+03  0.85201261412E+03  0.13108453497E+04  0.16506150146E+04  0.46999998093E+01 0. -1.
       -5    1    3    3    0  502  0.52940231507E+03 -0.85201261412E+03 -0.13396807124E+04  0.16736065269E+04  0.46999998093E+01 0.  1.
</event>
<event>
 5   0  0.2087665E-07  0.3268790E+04  0.7818609E-02  0.8170882E-01
       -1   -1    0    0    0  501  0.00000000000E+00  0.00000000000E+00  0.14832570783E+04  0.14832570783E+04  0.50400001928E-02 0. -1.
        1   -1    0    0  501    0  0.00000000000E+00  0.00000000000E+00 -0.18009334319E+04  0.18009334319E+04  0.50400001928E-02 0.  1.
    10030    2    1    2    0    0  0.00000000000E+00  0.00000000000E+00 -0.31767635364E+03  0.32841905102E+04  0.32687901495E+04 0.  0.
        5    1    3    3  502    0  0.52049539562E+03  0.63302250160E+03 -0.15795697145E+04  0.17795211483E+04  0.46999998093E+01 0.  1.
       -5    1    3    3    0  502 -0.52049539562E+03 -0.63302250160E+03  0.12618933609E+04  0.15046693619E+04  0.46999998093E+01 0. -1.
</event>
<event>
 5   0  0.6377741E-07  0.3295113E+04  0.7818609E-02  0.8164140E-01
       -2   -1    0    0    0  501  0.00000000000E+00  0.00000000000E+00  0.32000774067E+04  0.32000774067E+04  0.25500000920E-02 0.  1.
        2   -1    0    0  501    0  0.00000000000E+00  0.00000000000E+00 -0.84824276129E+03  0.84824276129E+03  0.25500000920E-02 0. -1.
    10030    2    1    2    0    0  0.00000000000E+00  0.00000000000E+00  0.23518346454E+04  0.40483201680E+04  0.32951130456E+04 0.  0.
        1    1    3    3  502    0  0.69978305202E+03  0.10176439629E+03 -0.65231594466E+03  0.96206465684E+03  0.50400001928E-02 0. -1.
       -1    1    3    3    0  502 -0.69978305202E+03 -0.10176439629E+03  0.30041505901E+04  0.30862555111E+04  0.50400001928E-02 0.  1.
</event>
<event>
 5   0  0.6258718E-07  0.3330489E+04  0.7818609E-02  0.8155181E-01
        2   -1    0    0  501    0  0.00000000000E+00  0.00000000000E+00  0.19570142844E+04  0.19570142844E+04  0.25500000920E-02 0.  1.
       -2   -1    0    0    0  501  0.00000000000E+00  0.00000000000E+00 -0.14169741930E+04  0.14169741930E+04  0.25500000920E-02 0. -1.
    10030    2    1    2    0    0  0.00000000000E+00  0.00000000000E+00  0.54004009137E+03  0.33739884775E+04  0.33304886947E+04 0.  0.
        5    1    3    3  502    0 -0.49449869749E+03 -0.13921711762E+04  0.10483958879E+04  0.18115809597E+04  0.46999998093E+01 0.  1.
       -5    1    3    3    0  502  0.49449869749E+03  0.13921711762E+04 -0.50835579657E+03  0.15624075178E+04  0.46999998093E+01 0. -1.
</event>
<event>
 5   0  0.6258718E-07  0.3301501E+04  0.7818609E-02  0.8162514E-01
        2   -1    0    0  501    0  0.00000000000E+00  0.00000000000E+00  0.12830718339E+04  0.12830718339E+04  0.25500000920E-02 0. -1.
       -2   -1    0    0    0  501  0.00000000000E+00  0.00000000000E+00 -0.21237914580E+04  0.21237914580E+04  0.25500000920E-02 0.  1.
    10030    2    1    2    0    0  0.00000000000E+00  0.00000000000E+00 -0.84071962419E+03  0.34068632919E+04  0.33015008713E+04 0.  0.
        5    1    3    3  502    0 -0.33409709290E+03 -0.20914212841E+03 -0.20745121868E+04  0.21116306970E+04  0.46999998093E+01 0.  1.
       -5    1    3    3    0  502  0.33409709290E+03  0.20914212841E+03  0.12337925626E+04  0.12952325949E+04  0.46999998093E+01 0. -1.
</event>
<event>
 5   0  0.2087665E-07  0.3265534E+04  0.7818609E-02  0.8171721E-01
        1   -1    0    0  501    0  0.00000000000E+00  0.00000000000E+00  0.21899919161E+04  0.21899919161E+04  0.50400001928E-02 0. -1.
       -1   -1    0    0    0  501  0.00000000000E+00  0.00000000000E+00 -0.12173230707E+04  0.12173230707E+04  0.50400001928E-02 0.  1.
    10030    2    1    2    0    0  0.00000000000E+00  0.00000000000E+00  0.97266884540E+03  0.34073149867E+04  0.32655337597E+04 0.  0.
        5    1    3    3  502    0  0.68706408762E+03  0.11519828404E+04  0.14577690182E+04  0.19809679769E+04  0.46999998093E+01 0. -1.
       -5    1    3    3    0  502 -0.68706408762E+03 -0.11519828404E+04 -0.48510017277E+03  0.14263470099E+04  0.46999998093E+01 0.  1.
</event>
<event>
 5   0  0.2087665E-07  0.3303866E+04  0.7818609E-02  0.8161912E-01
        1   -1    0    0  501    0  0.00000000000E+00  0.00000000000E+00  0.22474810550E+04  0.22474810550E+04  0.50400001928E-02 0. -1.
       -1   -1    0    0    0  501  0.00000000000E+00  0.00000000000E+00 -0.12141958498E+04  0.12141958499E+04  0.50400001928E-02 0.  1.
    10030    2    1    2    0    0  0.00000000000E+00  0.00000000000E+00  0.10332852051E+04  0.34616769048E+04  0.33038657174E+04 0.  0.
        5    1    3    3  502    0 -0.62519152304E+03  0.15119494241E+04  0.27770476373E+03  0.16595172573E+04  0.46999998093E+01 0.  1.
       -5    1    3    3    0  502  0.62519152304E+03 -0.15119494241E+04  0.75558044141E+03  0.18021596475E+04  0.46999998093E+01 0. -1.
</event>
<event>
 5   0  0.6258718E-07  0.3297619E+04  0.7818609E-02  0.8163501E-01
       -2   -1    0    0    0  501  0.00000000000E+00  0.00000000000E+00  0.17654842592E+04  0.17654842592E+04  0.25500000920E-02 0.  1.
        2   -1    0    0  501    0  0.00000000000E+00  0.00000000000E+00 -0.15398453693E+04  0.15398453693E+04  0.25500000920E-02 0. -1.
    10030    2    1    2    0    0  0.00000000000E+00  0.00000000000E+00  0.22563888993E+03  0.33053296284E+04  0.32976189962E+04 0.  0.
        5    1    3    3  502    0 -0.55271727695E+03 -0.10753108943E+04 -0.10108552664E+04  0.15759569687E+04  0.46999998093E+01 0. -1.
       -5    1    3    3    0  502  0.55271727695E+03  0.10753108943E+04  0.12364941563E+04  0.17293726597E+04  0.46999998093E+01 0.  1.
</event>
<event>
 5   0  0.2080770E-07  0.3316985E+04  0.7818609E-02  0.8158587E-01
        1   -1    0    0  501    0  0.00000000000E+00  0.00000000000E+00  0.18807935553E+04  0.18807935553E+04  0.50400001928E-02 0.  1.
       -1   -1    0    0    0  501  0.00000000000E+00  0.00000000000E+00 -0.14624665946E+04  0.14624665946E+04  0.50400001928E-02 0. -1.
    10030    2    1    2    0    0  0.00000000000E+00  0.00000000000E+00  0.41832696075E+03  0.33432601499E+04  0.33169852251E+04 0.  0.
        4    1    3    3  502    0 -0.78416328600E+03  0.13750767249E+04 -0.28957741569E+03  0.16092248914E+04  0.12699999809E+01 0. -1.
       -4    1    3    3    0  502  0.78416328600E+03 -0.13750767249E+04  0.70790437644E+03  0.17340352585E+04  0.12699999809E+01 0.  1.
</event>
<event>
 5   0  0.6377741E-07  0.3189262E+04  0.7818609E-02  0.8191659E-01
        2   -1    0    0  501    0  0.00000000000E+00  0.00000000000E+00  0.16854526164E+04  0.16854526164E+04  0.25500000920E-02 0.  1.
       -2   -1    0    0    0  501  0.00000000000E+00  0.00000000000E+00 -0.15087031111E+04  0.15087031111E+04  0.25500000920E-02 0. -1.
    10030    2    1    2    0    0  0.00000000000E+00  0.00000000000E+00  0.17674950530E+03  0.31941557276E+04  0.31892617366E+04 0.  0.
        1    1    3    3  502    0 -0.76063094167E+03  0.89449105699E+03 -0.99224986626E+03  0.15372811967E+04  0.50400001928E-02 0. -1.
       -1    1    3    3    0  502  0.76063094167E+03 -0.89449105699E+03  0.11689993716E+04  0.16568745309E+04  0.50400001928E-02 0.  1.
</event>
<event>
 5   0  0.2087665E-07  0.3331830E+04  0.7818609E-02  0.8154843E-01
       -1   -1    0    0    0  501  0.00000000000E+00  0.00000000000E+00  0.11839258924E+04  0.11839258924E+04  0.50400001928E-02 0. -1.
        1   -1    0    0  501    0  0.00000000000E+00  0.00000000000E+00 -0.23441276723E+04  0.23441276723E+04  0.50400001928E-02 0.  1.
    10030    2    1    2    0    0  0.00000000000E+00  0.00000000000E+00 -0.11602017799E+04  0.35280535647E+04  0.33318303957E+04 0.  0.
        5    1    3    3  502    0 -0.11089825239E+03  0.67951991363E+03 -0.21864132363E+04  0.22922632190E+04  0.46999998093E+01 0.  1.
       -5    1    3    3    0  502  0.11089825239E+03 -0.67951991363E+03  0.10262114564E+04  0.12357903457E+04  0.46999998093E+01 0. -1.
</event>
<event>
 5   0  0.2080828E-07  0.3286949E+04  0.7818609E-02  0.8166224E-01
       -1   -1    0    0    0  501  0.00000000000E+00  0.00000000000E+00  0.10396504480E+04  0.10396504480E+04  0.50400001928E-02 0. -1.
        1   -1    0    0  501    0  0.00000000000E+00  0.00000000000E+00 -0.25979959887E+04  0.25979959887E+04  0.50400001928E-02 0.  1.
    10030    2    1    2    0    0  0.00000000000E+00  0.00000000000E+00 -0.15583455407E+04  0.36376464367E+04  0.32869485507E+04 0.  0.
        1    1    3    3  502    0  0.81460662662E+03  0.10721301232E+04  0.26368350858E+03  0.13720699508E+04  0.50400001928E-02 0. -1.
       -1    1    3    3    0  502 -0.81460662662E+03 -0.10721301232E+04 -0.18220290492E+04  0.22655764859E+04  0.50400001928E-02 0.  1.
</event>
<event>
 5   0  0.2080828E-07  0.3298334E+04  0.7818609E-02  0.8163319E-01
       -1   -1    0    0    0  501  0.00000000000E+00  0.00000000000E+00  0.11839871244E+04  0.11839871244E+04  0.50400001928E-02 0.  1.
        1   -1    0    0  501    0  0.00000000000E+00  0.00000000000E+00 -0.22971131854E+04  0.22971131854E+04  0.50400001928E-02 0. -1.
    10030    2    1    2    0    0  0.00000000000E+00  0.00000000000E+00 -0.11131260610E+04  0.34811003098E+04  0.32983343886E+04 0.  0.
        1    1    3    3  502    0  0.42032714838E+03  0.50825493461E+02 -0.22387759609E+04  0.22784591165E+04  0.50400001928E-02 0. -1.
       -1    1    3    3    0  502 -0.42032714838E+03 -0.50825493461E+02  0.11256498999E+04  0.12026411933E+04  0.50400001928E-02 0.  1.
</event>
<event>
 5   0  0.2080770E-07  0.3411958E+04  0.7818609E-02  0.8134978E-01
       -1   -1    0    0    0  501  0.00000000000E+00  0.00000000000E+00  0.33546188899E+04  0.33546188899E+04  0.50400001928E-02 0.  1.
        1   -1    0    0  501    0  0.00000000000E+00  0.00000000000E+00 -0.86756931185E+03  0.86756931187E+03  0.50400001928E-02 0. -1.
    10030    2    1    2    0    0  0.00000000000E+00  0.00000000000E+00  0.24870495781E+04  0.42221882018E+04  0.34119580313E+04 0.  0.
        4    1    3    3  502    0  0.61158647693E+03  0.15603844726E+04  0.16378191372E+04  0.23433503494E+04  0.12699999809E+01 0. -1.
       -4    1    3    3    0  502 -0.61158647693E+03 -0.15603844726E+04  0.84923044093E+03  0.18788378524E+04  0.12699999809E+01 0.  1.
</event>
<event>
 5   0  0.6426079E-07  0.3304697E+04  0.7818609E-02  0.8161701E-01
       -2   -1    0    0    0  501  0.00000000000E+00  0.00000000000E+00  0.12207108211E+04  0.12207108211E+04  0.25500000920E-02 0.  1.
        2   -1    0    0  501    0  0.00000000000E+00  0.00000000000E+00 -0.22366109282E+04  0.22366109282E+04  0.25500000920E-02 0. -1.
    10030    2    1    2    0    0  0.00000000000E+00  0.00000000000E+00 -0.10159001071E+04  0.34573217493E+04  0.33046967562E+04 0.  0.
        4    1    3    3  502    0 -0.42420531289E+02  0.37779156640E+03 -0.21902350358E+04  0.22229838268E+04  0.12699999809E+01 0. -1.
       -4    1    3    3    0  502  0.42420531289E+02 -0.37779156640E+03  0.11743349288E+04  0.12343379225E+04  0.12699999809E+01 0.  1.
</event>
<event>
 5   0  0.6351753E-07  0.3300215E+04  0.7818609E-02  0.8162841E-01
       -2   -1    0    0    0  501  0.00000000000E+00  0.00000000000E+00  0.10509145439E+04  0.10509145439E+04  0.25500000920E-02 0.  1.
        2   -1    0    0  501    0  0.00000000000E+00  0.00000000000E+00 -0.25909382382E+04  0.25909382382E+04  0.25500000920E-02 0. -1.
    10030    2    1    2    0    0  0.00000000000E+00  0.00000000000E+00 -0.15400236943E+04  0.36418527821E+04  0.33002149486E+04 0.  0.
        3    1    3    3  502    0 -0.34934846431E+03 -0.75967257817E+03 -0.23398470777E+04  0.24847597736E+04  0.10100000352E+00 0. -1.
       -3    1    3    3    0  502  0.34934846431E+03  0.75967257817E+03  0.79982338332E+03  0.11570930085E+04  0.10100000352E+00 0.  1.
</event>
<event>
 5   0  0.2080828E-07  0.3300262E+04  0.7818609E-02  0.8162829E-01
        1   -1    0    0  501    0  0.00000000000E+00  0.00000000000E+00  0.10593194616E+04  0.10593194616E+04  0.50400001928E-02 0.  1.
       -1   -1    0    0    0  501  0.00000000000E+00  0.00000000000E+00 -0.25704547958E+04  0.25704547958E+04  0.50400001928E-02 0. -1.
    10030    2    1    2    0    0  0.00000000000E+00  0.00000000000E+00 -0.15111353342E+04  0.36297742574E+04  0.33002622868E+04 0.  0.
        1    1    3    3  502    0  0.14083313834E+04 -0.80351527776E+03 -0.41854356742E+03  0.16745783962E+04  0.50400001928E-02 0. -1.
       -1    1    3    3    0  502 -0.14083313834E+04  0.80351527776E+03 -0.10925917668E+04  0.19551958613E+04  0.50400001928E-02 0.  1.
</event>
<event>
 5   0  0.6258718E-07  0.3347055E+04  0.7818609E-02  0.8151024E-01
       -2   -1    0    0    0  501  0.00000000000E+00  0.00000000000E+00  0.16210246194E+04  0.16210246194E+04  0.25500000920E-02 0. -1.
        2   -1    0    0  501    0  0.00000000000E+00  0.00000000000E+00 -0.17277309542E+04  0.17277309542E+04  0.25500000920E-02 0.  1.
    10030    2    1    2    0    0  0.00000000000E+00  0.00000000000E+00 -0.10670633472E+03  0.33487555736E+04  0.33470550712E+04 0.  0.
        5    1    3    3  502    0  0.15281625906E+04 -0.56953446748E+03  0.32236646332E+03  0.16624056784E+04  0.46999998093E+01 0.  1.
       -5    1    3    3    0  502 -0.15281625906E+04  0.56953446748E+03 -0.42907279804E+03  0.16863498952E+04  0.46999998093E+01 0. -1.
</event>
<event>
 5   0  0.6351753E-07  0.3308373E+04  0.7818609E-02  0.8160768E-01
       -2   -1    0    0    0  501  0.00000000000E+00  0.00000000000E+00  0.14616499912E+04  0.14616499912E+04  0.25500000920E-02 0.  1.
        2   -1    0    0  501    0  0.00000000000E+00  0.00000000000E+00 -0.18720848017E+04  0.18720848017E+04  0.25500000920E-02 0. -1.
    10030    2    1    2    0    0  0.00000000000E+00  0.00000000000E+00 -0.41043481051E+03  0.33337347929E+04  0.33083728532E+04 0.  0.
        3    1    3    3  502    0  0.57381837599E+03  0.76892169832E+03  0.11526380731E+04  0.14996941837E+04  0.10100000352E+00 0.  1.
       -3    1    3    3    0  502 -0.57381837599E+03 -0.76892169832E+03 -0.15630728836E+04  0.18340406093E+04  0.10100000352E+00 0. -1.
</event>
<event>
 5   0  0.6426079E-07  0.3325738E+04  0.7818609E-02  0.8156377E-01
       -2   -1    0    0    0  501  0.00000000000E+00  0.00000000000E+00  0.11043549390E+04  0.11043549390E+04  0.25500000920E-02 0. -1.
        2   -1    0    0  501    0  0.00000000000E+00  0.00000000000E+00 -0.25038453069E+04  0.25038453069E+04  0.25500000920E-02 0.  1.
    10030    2    1    2    0    0  0.00000000000E+00  0.00000000000E+00 -0.13994903679E+04  0.36082002460E+04  0.33257383730E+04 0.  0.
        4    1    3    3  502    0 -0.39585733274E+03 -0.96439059817E+03  0.70580936998E+03  0.12589363500E+04  0.12699999809E+01 0. -1.
       -4    1    3    3    0  502  0.39585733274E+03  0.96439059817E+03 -0.21052997379E+04  0.23492638960E+04  0.12699999809E+01 0.  1.
</event>
<event>
 5   0  0.6424183E-07  0.3295978E+04  0.7818609E-02  0.8163920E-01
       -2   -1    0    0    0  501  0.00000000000E+00  0.00000000000E+00  0.99141430589E+03  0.99141430590E+03  0.25500000920E-02 0.  1.
        2   -1    0    0  501    0  0.00000000000E+00  0.00000000000E+00 -0.27393865527E+04  0.27393865527E+04  0.25500000920E-02 0. -1.
    10030    2    1    2    0    0  0.00000000000E+00  0.00000000000E+00 -0.17479722468E+04  0.37308008586E+04  0.32959775592E+04 0.  0.
        2    1    3    3  502    0 -0.55135842435E+03  0.23119906656E+03 -0.26123000232E+04  0.26798433782E+04  0.25500000920E-02 0. -1.
       -2    1    3    3    0  502  0.55135842435E+03 -0.23119906656E+03  0.86432777641E+03  0.10509574804E+04  0.25500000920E-02 0.  1.
</event>
<event>
 5   0  0.6424183E-07  0.3304426E+04  0.7818609E-02  0.8161770E-01
        2   -1    0    0  501    0  0.00000000000E+00  0.00000000000E+00  0.27939469543E+04  0.27939469543E+04  0.25500000920E-02 0.  1.
       -2   -1    0    0    0  501  0.00000000000E+00  0.00000000000E+00 -0.97704368123E+03  0.97704368123E+03  0.25500000920E-02 0. -1.
    10030    2    1    2    0    0  0.00000000000E+00  0.00000000000E+00  0.18169032731E+04  0.37709906355E+04  0.33044262542E+04 0.  0.
        2    1    3    3  502    0 -0.10349735582E+04  0.29663602074E+03 -0.52175375546E+03  0.11964071950E+04  0.25500000920E-02 0. -1.
       -2    1    3    3    0  502  0.10349735582E+04 -0.29663602074E+03  0.23386570285E+04  0.25745834405E+04  0.25500000920E-02 0.  1.
</event>
<event>
 5   0  0.6424183E-07  0.3293065E+04  0.7818609E-02  0.8164662E-01
       -2   -1    0    0    0  501  0.00000000000E+00  0.00000000000E+00  0.14941472351E+04  0.14941472351E+04  0.25500000920E-02 0.  1.
        2   -1    0    0  501    0  0.00000000000E+00  0.00000000000E+00 -0.18144593334E+04  0.18144593334E+04  0.25500000920E-02 0. -1.
    10030    2    1    2    0    0  0.00000000000E+00  0.00000000000E+00 -0.32031209833E+03  0.33086065686E+04  0.32930650745E+04 0.  0.
        2    1    3    3  502    0  0.90286830743E+03  0.64368093890E+03  0.10627873340E+04  0.15359079559E+04  0.25500000920E-02 0.  1.
       -2    1    3    3    0  502 -0.90286830743E+03 -0.64368093890E+03 -0.13830994323E+04  0.17726986127E+04  0.25500000920E-02 0. -1.
</event>
<event>
 5   0  0.6351753E-07  0.3286692E+04  0.7818609E-02  0.8166290E-01
       -2   -1    0    0    0  501  0.00000000000E+00  0.00000000000E+00  0.11892860174E+04  0.11892860174E+04  0.25500000920E-02 0. -1.
        2   -1    0    0  501    0  0.00000000000E+00  0.00000000000E+00 -0.22707624551E+04  0.22707624551E+04  0.25500000920E-02 0.  1.
    10030    2    1    2    0    0  0.00000000000E+00  0.00000000000E+00 -0.10814764377E+04  0.34600484725E+04  0.32866919763E+04 0.  0.
        3    1    3    3  502    0  0.54377466368E+03 -0.15494528836E+04 -0.47340447224E+03  0.17089783287E+04  0.10100000352E+00 0.  1.
       -3    1    3    3    0  502 -0.54377466368E+03  0.15494528836E+04 -0.60807196543E+03  0.17510701439E+04  0.10100000352E+00 0. -1.
</event>
<event>
 5   0  0.6426079E-07  0.3300091E+04  0.7818609E-02  0.8162872E-01
       -2   -1    0    0    0  501  0.00000000000E+00  0.00000000000E+00  0.13126911235E+04  0.13126911235E+04  0.25500000920E-02 0.  1.
        2   -1    0    0  501    0  0.00000000000E+00  0.00000000000E+00 -0.20740975114E+04  0.20740975114E+04  0.25500000920E-02 0. -1.
    10030    2    1    2    0    0  0.00000000000E+00  0.00000000000E+00 -0.76140638790E+03  0.33867886349E+04  0.33000905397E+04 0.  0.
        4    1    3    3  502    0  0.49694266682E+03  0.12625579995E+04  0.58292308716E+03  0.14767551099E+04  0.12699999809E+01 0.  1.
       -4    1    3    3    0  502 -0.49694266682E+03 -0.12625579995E+04 -0.13443294751E+04  0.19100335250E+04  0.12699999809E+01 0. -1.
</event>
<event>
 5   0  0.6377741E-07  0.3306998E+04  0.7818609E-02  0.8161117E-01
       -2   -1    0    0    0  501  0.00000000000E+00  0.00000000000E+00  0.21375417403E+04  0.21375417403E+04  0.25500000920E-02 0. -1.
        2   -1    0    0  501    0  0.00000000000E+00  0.00000000000E+00 -0.12790666291E+04  0.12790666291E+04  0.25500000920E-02 0.  1.
    10030    2    1    2    0    0  0.00000000000E+00  0.00000000000E+00  0.85847511125E+03  0.34166083694E+04  0.33069976162E+04 0.  0.
        1    1    3    3  502    0  0.11317651486E+04 -0.16613321314E+03 -0.80430727919E+03  0.13983571774E+04  0.50400001928E-02 0.  1.
       -1    1    3    3    0  502 -0.11317651486E+04  0.16613321314E+03  0.16627823904E+04  0.20182511920E+04  0.50400001928E-02 0. -1.
</event>
<event>
 5   0  0.2080828E-07  0.3297136E+04  0.7818609E-02  0.8163625E-01
        1   -1    0    0  501    0  0.00000000000E+00  0.00000000000E+00  0.27772840808E+04  0.27772840808E+04  0.50400001928E-02 0.  1.
       -1   -1    0    0    0  501  0.00000000000E+00  0.00000000000E+00 -0.97857334009E+03  0.97857334010E+03  0.50400001928E-02 0. -1.
    10030    2    1    2    0    0  0.00000000000E+00  0.00000000000E+00  0.17987107407E+04  0.37558574209E+04  0.32971358233E+04 0.  0.
        1    1    3    3  502    0  0.55425808472E+02  0.13638536850E+02 -0.97744738594E+03  0.97911256873E+03  0.50400001928E-02 0. -1.
       -1    1    3    3    0  502 -0.55425808472E+02 -0.13638536850E+02  0.27761581266E+04  0.27767448521E+04  0.50400001928E-02 0.  1.
</event>
<event>
 5   0  0.2037333E-07  0.3311401E+04  0.7818609E-02  0.8160000E-01
       -1   -1    0    0    0  501  0.00000000000E+00  0.00000000000E+00  0.22510396704E+04  0.22510396704E+04  0.50400001928E-02 0.  1.
        1   -1    0    0  501    0  0.00000000000E+00  0.00000000000E+00 -0.12178124837E+04  0.12178124837E+04  0.50400001928E-02 0. -1.
    10030    2    1    2    0    0  0.00000000000E+00  0.00000000000E+00  0.10332271867E+04  0.34688521541E+04  0.33114010400E+04 0.  0.
        3    1    3    3  502    0 -0.81029748234E+03  0.11025053977E+04  0.14932768967E+04  0.20253335682E+04  0.10100000352E+00 0.  1.
       -3    1    3    3    0  502  0.81029748234E+03 -0.11025053977E+04 -0.46004971001E+03  0.14435185859E+04  0.10100000352E+00 0. -1.
</event>
<event>
 5   0  0.2080828E-07  0.3300974E+04  0.7818609E-02  0.8162648E-01
        1   -1    0    0  501    0  0.00000000000E+00  0.00000000000E+00  0.15161640955E+04  0.15161640955E+04  0.50400001928E-02 0.  1.
       -1   -1    0    0    0  501  0.00000000000E+00  0.00000000000E+00 -0.17967098071E+04  0.17967098071E+04  0.50400001928E-02 0. -1.
    10030    2    1    2    0    0  0.00000000000E+00  0.00000000000E+00 -0.28054571158E+03  0.33128739026E+04  0.33009737349E+04 0.  0.
        1    1    3    3  502    0 -0.70093876370E+03 -0.13885647050E+04  0.41369513908E+03  0.16095250102E+04  0.50400001928E-02 0.  1.
       -1    1    3    3    0  502  0.70093876370E+03  0.13885647050E+04 -0.69424085065E+03  0.17033488924E+04  0.50400001928E-02 0. -1.
</event>
<event>
 5   0  0.6426079E-07  0.3296410E+04  0.7818609E-02  0.8163809E-01
        2   -1    0    0  501    0  0.00000000000E+00  0.00000000000E+00  0.18333866375E+04  0.18333866375E+04  0.25500000920E-02 0.  1.
       -2   -1    0    0    0  501  0.00000000000E+00  0.00000000000E+00 -0.14817275982E+04  0.14817275982E+04  0.25500000920E-02 0. -1.
    10030    2    1    2    0    0  0.00000000000E+00  0.00000000000E+00  0.35165903935E+03  0.33151142357E+04  0.32964099132E+04 0.  0.
        4    1    3    3  502    0  0.57176130189E+03 -0.21047147251E+03  0.17159789267E+04  0.18209323207E+04  0.12699999809E+01 0.  1.
       -4    1    3    3    0  502 -0.57176130189E+03  0.21047147251E+03 -0.13643198873E+04  0.14941819149E+04  0.12699999809E+01 0. -1.
</event>
<event>
 5   0  0.6424183E-07  0.3267923E+04  0.7818609E-02  0.8171106E-01
        2   -1    0    0  501    0  0.00000000000E+00  0.00000000000E+00  0.18472767367E+04  0.18472767367E+04  0.25500000920E-02 0.  1.
       -2   -1    0    0    0  501  0.00000000000E+00  0.00000000000E+00 -0.14452791611E+04  0.14452791611E+04  0.25500000920E-02 0. -1.
    10030    2    1    2    0    0  0.00000000000E+00  0.00000000000E+00  0.40199757560E+03  0.32925558977E+04  0.32679232379E+04 0.  0.
        2    1    3    3  502    0  0.39131064167E+03  0.28152860367E+03  0.17739998197E+04  0.18383301481E+04  0.25500000920E-02 0.  1.
       -2    1    3    3    0  502 -0.39131064167E+03 -0.28152860367E+03 -0.13720022441E+04  0.14542257496E+04  0.25500000920E-02 0. -1.
</event>
<event>
 5   0  0.6424183E-07  0.3298637E+04  0.7818609E-02  0.8163242E-01
        2   -1    0    0  501    0  0.00000000000E+00  0.00000000000E+00  0.25979449842E+04  0.25979449843E+04  0.25500000920E-02 0. -1.
       -2   -1    0    0    0  501  0.00000000000E+00  0.00000000000E+00 -0.10470781941E+04  0.10470781941E+04  0.25500000920E-02 0.  1.
    10030    2    1    2    0    0  0.00000000000E+00  0.00000000000E+00  0.15508667901E+04  0.36450231784E+04  0.32986370170E+04 0.  0.
        2    1    3    3  502    0  0.81981850151E+03 -0.83127832937E+03  0.20627215481E+04  0.23702207115E+04  0.25500000920E-02 0. -1.
       -2    1    3    3    0  502 -0.81981850151E+03  0.83127832937E+03 -0.51185475796E+03  0.12748024669E+04  0.25500000920E-02 0.  1.
</event>
<event>
 5   0  0.6377741E-07  0.3306353E+04  0.7818609E-02  0.8161281E-01
        2   -1    0    0  501    0  0.00000000000E+00  0.00000000000E+00  0.17788166814E+04  0.17788166814E+04  0.25500000920E-02 0.  1.
       -2   -1    0    0    0  501  0.00000000000E+00  0.00000000000E+00 -0.15364107540E+04  0.15364107540E+04  0.25500000920E-02 0. -1.
    10030    2    1    2    0    0  0.00000000000E+00  0.00000000000E+00  0.24240592732E+03  0.33152274354E+04  0.33063533258E+04 0.  0.
        1    1    3    3  502    0  0.53095805659E+03  0.13939212226E+04 -0.59349356596E+03  0.16053558626E+04  0.50400001928E-02 0. -1.
       -1    1    3    3    0  502 -0.53095805659E+03 -0.13939212226E+04  0.83589949328E+03  0.17098715728E+04  0.50400001928E-02 0.  1.
</event>
<event>
 5   0  0.6258718E-07  0.3296750E+04  0.7818609E-02  0.8163723E-01
       -2   -1    0    0    0  501  0.00000000000E+00  0.00000000000E+00  0.18403550531E+04  0.18403550531E+04  0.25500000920E-02 0.  1.
        2   -1    0    0  501    0  0.00000000000E+00  0.00000000000E+00 -0.14764214432E+04  0.14764214432E+04  0.25500000920E-02 0. -1.
    10030    2    1    2    0    0  0.00000000000E+00  0.00000000000E+00  0.36393360990E+03  0.33167764963E+04  0.32967497105E+04 0.  0.
        5    1    3    3  502    0  0.43098081832E+03  0.15650915040E+04  0.46981969119E+03  0.16899729329E+04  0.46999998093E+01 0. -1.
       -5    1    3    3    0  502 -0.43098081832E+03 -0.15650915040E+04 -0.10588608129E+03  0.16268035634E+04  0.46999998093E+01 0.  1.
</event>
<event>
 5   0  0.2057130E-07  0.3301271E+04  0.7818609E-02  0.8162572E-01
       -1   -1    0    0    0  501  0.00000000000E+00  0.00000000000E+00  0.17853010074E+04  0.17853010075E+04  0.50400001928E-02 0.  1.
        1   -1    0    0  501    0  0.00000000000E+00  0.00000000000E+00 -0.15261274712E+04  0.15261274712E+04  0.50400001928E-02 0. -1.
    10030    2    1    2    0    0  0.00000000000E+00  0.00000000000E+00  0.25917353621E+03  0.33114284787E+04  0.33012706111E+04 0.  0.
        2    1    3    3  502    0  0.12023106488E+04 -0.59964787334E+03  0.10914264006E+04  0.17309939503E+04  0.25500000920E-02 0.  1.
       -2    1    3    3    0  502 -0.12023106488E+04  0.59964787334E+03 -0.83225286441E+03  0.15804345284E+04  0.25500000920E-02 0. -1.
</event>
<event>
 5   0  0.2037333E-07  0.3299370E+04  0.7818609E-02  0.8163056E-01
        1   -1    0    0  501    0  0.00000000000E+00  0.00000000000E+00  0.12461986658E+04  0.12461986658E+04  0.50400001928E-02 0.  1.
       -1   -1    0    0    0  501  0.00000000000E+00  0.00000000000E+00 -0.21838090998E+04  0.21838090998E+04  0.50400001928E-02 0. -1.
    10030    2    1    2    0    0  0.00000000000E+00  0.00000000000E+00 -0.93761043404E+03  0.34300077656E+04  0.32993696285E+04 0.  0.
        3    1    3    3  502    0  0.16360777983E+04 -0.19449794297E+03 -0.55503498571E+03  0.17385752378E+04  0.10100000352E+00 0. -1.
       -3    1    3    3    0  502 -0.16360777983E+04  0.19449794297E+03 -0.38257544833E+03  0.16914325277E+04  0.10100000352E+00 0.  1.
</event>
<event>
 5   0  0.2080828E-07  0.3302589E+04  0.7818609E-02  0.8162237E-01
        1   -1    0    0  501    0  0.00000000000E+00  0.00000000000E+00  0.16353678479E+04  0.16353678479E+04  0.50400001928E-02 0.  1.
       -1   -1    0    0    0  501  0.00000000000E+00  0.00000000000E+00 -0.16673763933E+04  0.16673763933E+04  0.50400001928E-02 0. -1.
    10030    2    1    2    0    0  0.00000000000E+00  0.00000000000E+00 -0.32008545371E+02  0.33027442412E+04  0.33025891321E+04 0.  0.
        1    1    3    3  502    0  0.13574352603E+04 -0.70192818351E+03  0.60967683834E+03  0.16453083322E+04  0.50400001928E-02 0.  1.
       -1    1    3    3    0  502 -0.13574352603E+04  0.70192818351E+03 -0.64168538371E+03  0.16574359090E+04  0.50400001928E-02 0. -1.
</event>
<event>
 5   0  0.2057130E-07  0.3297548E+04  0.7818609E-02  0.8163520E-01
       -1   -1    0    0    0  501  0.00000000000E+00  0.00000000000E+00  0.18927745480E+04  0.18927745480E+04  0.50400001928E-02 0. -1.
        1   -1    0    0  501    0  0.00000000000E+00  0.00000000000E+00 -0.14362280353E+04  0.14362280353E+04  0.50400001928E-02 0.  1.
    10030    2    1    2    0    0  0.00000000000E+00  0.00000000000E+00  0.45654651271E+03  0.33290025833E+04  0.32975481014E+04 0.  0.
        2    1    3    3  502    0 -0.96654482445E+03  0.27346710602E+03  0.15482090594E+04  0.18455201022E+04  0.25500000920E-02 0. -1.
       -2    1    3    3    0  502  0.96654482445E+03 -0.27346710602E+03 -0.10916625467E+04  0.14834824811E+04  0.25500000920E-02 0.  1.
</event>
<event>
 5   0  0.6351753E-07  0.3276258E+04  0.7818609E-02  0.8168963E-01
        2   -1    0    0  501    0  0.00000000000E+00  0.00000000000E+00  0.22350086226E+04  0.22350086226E+04  0.25500000920E-02 0. -1.
       -2   -1    0    0    0  501  0.00000000000E+00  0.00000000000E+00 -0.12006516102E+04  0.12006516102E+04  0.25500000920E-02 0.  1.
    10030    2    1    2    0    0  0.00000000000E+00  0.00000000000E+00  0.10343570124E+04  0.34356602327E+04  0.32762580493E+04 0.  0.
        3    1    3    3  502    0 -0.66759400732E+03 -0.77718230496E+03  0.18575584192E+04  0.21213715810E+04  0.10100000352E+00 0.  1.
       -3    1    3    3    0  502  0.66759400732E+03  0.77718230496E+03 -0.82320140681E+03  0.13142886517E+04  0.10100000352E+00 0. -1.
</event>
<event>
 5   0  0.2057130E-07  0.3297843E+04  0.7818609E-02  0.8163445E-01
       -1   -1    0    0    0  501  0.00000000000E+00  0.00000000000E+00  0.13889010763E+04  0.13889010763E+04  0.50400001928E-02 0.  1.
        1   -1    0    0  501    0  0.00000000000E+00  0.00000000000E+00 -0.19576207092E+04  0.19576207092E+04  0.50400001928E-02 0. -1.
    10030    2    1    2    0    0  0.00000000000E+00  0.00000000000E+00 -0.56871963285E+03  0.33465217855E+04  0.32978426342E+04 0.  0.
        2    1    3    3  502    0 -0.24507445339E+03  0.12057390921E+04  0.82960238294E+03  0.14839502551E+04  0.25500000920E-02 0.  1.
       -2    1    3    3    0  502  0.24507445339E+03 -0.12057390921E+04 -0.13983220158E+04  0.18625715304E+04  0.25500000920E-02 0. -1.
</event>
<event>
 5   0  0.6258718E-07  0.3305678E+04  0.7818609E-02  0.8161452E-01
        2   -1    0    0  501    0  0.00000000000E+00  0.00000000000E+00  0.29024743273E+04  0.29024743273E+04  0.25500000920E-02 0. -1.
       -2   -1    0    0    0  501  0.00000000000E+00  0.00000000000E+00 -0.94122366047E+03  0.94122366048E+03  0.25500000920E-02 0.  1.
    10030    2    1    2    0    0  0.00000000000E+00  0.00000000000E+00  0.19612506668E+04  0.38436979877E+04  0.33056784543E+04 0.  0.
        5    1    3    3  502    0  0.11687124384E+04  0.82262735984E+02  0.23362212506E+04  0.26135431397E+04  0.46999998093E+01 0. -1.
       -5    1    3    3    0  502 -0.11687124384E+04 -0.82262735984E+02 -0.37497058386E+03  0.12301548480E+04  0.46999998093E+01 0.  1.
</event>
<event>
 5   0  0.6377741E-07  0.3301340E+04  0.7818609E-02  0.8162554E-01
       -2   -1    0    0    0  501  0.00000000000E+00  0.00000000000E+00  0.11006381301E+04  0.11006381301E+04  0.25500000920E-02 0. -1.
        2   -1    0    0  501    0  0.00000000000E+00  0.00000000000E+00 -0.24755748512E+04  0.24755748512E+04  0.25500000920E-02 0.  1.
    10030    2    1    2    0    0  0.00000000000E+00  0.00000000000E+00 -0.13749367211E+04  0.35762129812E+04  0.33013403793E+04 0.  0.
        1    1    3    3  502    0  0.44122109501E+03 -0.15502911920E+04 -0.30198385075E+03  0.16399003265E+04  0.50400001928E-02 0. -1.
       -1    1    3    3    0  502 -0.44122109501E+03  0.15502911920E+04 -0.10729528703E+04  0.19363126547E+04  0.50400001928E-02 0.  1.
</event>
<event>
 5   0  0.2087665E-07  0.3303862E+04  0.7818609E-02  0.8161913E-01
       -1   -1    0    0    0  501  0.00000000000E+00  0.00000000000E+00  0.12422514016E+04  0.12422514016E+04  0.50400001928E-02 0. -1.
        1   -1    0    0  501    0  0.00000000000E+00  0.00000000000E+00 -0.21967180339E+04  0.21967180339E+04  0.50400001928E-02 0.  1.
    10030    2    1    2    0    0  0.00000000000E+00  0.00000000000E+00 -0.95446663234E+03  0.34389694356E+04  0.33038620169E+04 0.  0.
        5    1    3    3  502    0 -0.13489696199E+04 -0.68350381450E+03  0.21475163967E+03  0.15274281837E+04  0.46999998093E+01 0. -1.
       -5    1    3    3    0  502  0.13489696199E+04  0.68350381450E+03 -0.11692182720E+04  0.19115412518E+04  0.46999998093E+01 0.  1.
</event>
<event>
 5   0  0.2037333E-07  0.3296309E+04  0.7818609E-02  0.8163835E-01
       -1   -1    0    0    0  501  0.00000000000E+00  0.00000000000E+00  0.18089699827E+04  0.18089699827E+04  0.50400001928E-02 0. -1.
        1   -1    0    0  501    0  0.00000000000E+00  0.00000000000E+00 -0.15016356948E+04  0.15016356948E+04  0.50400001928E-02 0.  1.
    10030    2    1    2    0    0  0.00000000000E+00  0.00000000000E+00  0.30733428784E+03  0.33106056775E+04  0.32963093889E+04 0.  0.
        3    1    3    3  502    0  0.75732909250E+03  0.12880034080E+04  0.85232326889E+03  0.17201613582E+04  0.10100000352E+00 0. -1.
       -3    1    3    3    0  502 -0.75732909250E+03 -0.12880034080E+04 -0.54498898105E+03  0.15904443193E+04  0.10100000352E+00 0.  1.
</event>
<event>
 5   0  0.2080828E-07  0.3276964E+04  0.7818609E-02  0.8168782E-01
        1   -1    0    0  501    0  0.00000000000E+00  0.00000000000E+00  0.16525987499E+04  0.16525987499E+04  0.50400001928E-02 0.  1.
       -1   -1    0    0    0  501  0.00000000000E+00  0.00000000000E+00 -0.16244855685E+04  0.16244855685E+04  0.50400001928E-02 0. -1.
    10030    2    1    2    0    0  0.00000000000E+00  0.00000000000E+00  0.28113181389E+02  0.32770843183E+04  0.32769637286E+04 0.  0.
        1    1    3    3  502    0  0.11699068156E+04 -0.61638237664E+03  0.98157016610E+03  0.16468421850E+04  0.50400001928E-02 0.  1.
       -1    1    3    3    0  502 -0.11699068156E+04  0.61638237664E+03 -0.95345698471E+03  0.16302421333E+04  0.50400001928E-02 0. -1.
</event>
<event>
 5   0  0.2087665E-07  0.3304956E+04  0.7818609E-02  0.8161636E-01
        1   -1    0    0  501    0  0.00000000000E+00  0.00000000000E+00  0.20844029067E+04  0.20844029067E+04  0.50400001928E-02 0. -1.
       -1   -1    0    0    0  501  0.00000000000E+00  0.00000000000E+00 -0.13100554256E+04  0.13100554256E+04  0.50400001928E-02 0.  1.
    10030    2    1    2    0    0  0.00000000000E+00  0.00000000000E+00  0.77434748115E+03  0.33944583323E+04  0.33049558769E+04 0.  0.
        5    1    3    3  502    0 -0.12799701171E+04 -0.51095356777E+03 -0.54925418015E+03  0.14836102229E+04  0.46999998093E+01 0.  1.
       -5    1    3    3    0  502  0.12799701171E+04  0.51095356777E+03  0.13236016613E+04  0.19108481093E+04  0.46999998093E+01 0. -1.
</event>
<event>
 5   0  0.6424183E-07  0.3300352E+04  0.7818609E-02  0.8162806E-01
       -2   -1    0    0    0  501  0.00000000000E+00  0.00000000000E+00  0.99622807807E+03  0.99622807808E+03  0.25500000920E-02 0. -1.
        2   -1    0    0  501    0  0.00000000000E+00  0.00000000000E+00 -0.27333915654E+04  0.27333915654E+04  0.25500000920E-02 0.  1.
    10030    2    1    2    0    0  0.00000000000E+00  0.00000000000E+00 -0.17371634874E+04  0.37296196435E+04  0.33003523605E+04 0.  0.
        2    1    3    3  502    0 -0.93365418594E+03  0.77539105394E+03  0.39494244293E+03  0.12762918783E+04  0.25500000920E-02 0. -1.
       -2    1    3    3    0  502  0.93365418594E+03 -0.77539105394E+03 -0.21321059303E+04  0.24533277652E+04  0.25500000920E-02 0.  1.
</event>
<event>
 5   0  0.2057130E-07  0.3293526E+04  0.7818609E-02  0.8164545E-01
       -1   -1    0    0    0  501  0.00000000000E+00  0.00000000000E+00  0.22488704655E+04  0.22488704655E+04  0.50400001928E-02 0.  1.
        1   -1    0    0  501    0  0.00000000000E+00  0.00000000000E+00 -0.12058622272E+04  0.12058622272E+04  0.50400001928E-02 0. -1.
    10030    2    1    2    0    0  0.00000000000E+00  0.00000000000E+00  0.10430082383E+04  0.34547326927E+04  0.32935257389E+04 0.  0.
        2    1    3    3  502    0  0.93176764557E+02 -0.15824616697E+04  0.53620891038E+02  0.15861090900E+04  0.25500000920E-02 0. -1.
       -2    1    3    3    0  502 -0.93176764557E+02  0.15824616697E+04  0.98938734726E+03  0.18686236027E+04  0.25500000920E-02 0.  1.
</event>
<event>
 5   0  0.6258718E-07  0.3166076E+04  0.7818609E-02  0.8197834E-01
        2   -1    0    0  501    0  0.00000000000E+00  0.00000000000E+00  0.28581677442E+04  0.28581677443E+04  0.25500000920E-02 0. -1.
       -2   -1    0    0    0  501  0.00000000000E+00  0.00000000000E+00 -0.87678898503E+03  0.87678898503E+03  0.25500000920E-02 0.  1.
    10030    2    1    2    0    0  0.00000000000E+00  0.00000000000E+00  0.19813787592E+04  0.37349567293E+04  0.31660764334E+04 0.  0.
        5    1    3    3  502    0  0.17641340016E+03  0.14786889772E+04  0.16241512625E+04  0.22035272162E+04  0.46999998093E+01 0.  1.
       -5    1    3    3    0  502 -0.17641340016E+03 -0.14786889772E+04  0.35722749674E+03  0.15314295131E+04  0.46999998093E+01 0. -1.
</event>
<event>
 5   0  0.2037333E-07  0.3300763E+04  0.7818609E-02  0.8162701E-01
        1   -1    0    0  501    0  0.00000000000E+00  0.00000000000E+00  0.13966623594E+04  0.13966623594E+04  0.50400001928E-02 0.  1.
       -1   -1    0    0    0  501  0.00000000000E+00  0.00000000000E+00 -0.19501913799E+04  0.19501913799E+04  0.50400001928E-02 0. -1.
    10030    2    1    2    0    0  0.00000000000E+00  0.00000000000E+00 -0.55352902045E+03  0.33468537393E+04  0.33007628779E+04 0.  0.
        3    1    3    3  502    0  0.14318386696E+03 -0.12115605349E+04 -0.14037605699E+04  0.18598183506E+04  0.10100000352E+00 0. -1.
       -3    1    3    3    0  502 -0.14318386696E+03  0.12115605349E+04  0.85023154942E+03  0.14870353887E+04  0.10100000352E+00 0.  1.
</event>
<event>
 5   0  0.6258718E-07  0.3293931E+04  0.7818609E-02  0.8164441E-01
       -2   -1    0    0    0  501  0.00000000000E+00  0.00000000000E+00  0.14897737154E+04  0.14897737154E+04  0.25500000920E-02 0.  1.
        2   -1    0    0  501    0  0.00000000000E+00  0.00000000000E+00 -0.18207430921E+04  0.18207430921E+04  0.25500000920E-02 0. -1.
    10030    2    1    2    0    0  0.00000000000E+00  0.00000000000E+00 -0.33096937667E+03  0.33105168074E+04  0.32939309046E+04 0.  0.
        5    1    3    3  502    0  0.12945139297E+04 -0.32855128462E+03 -0.11340597044E+04  0.17520918252E+04  0.46999998093E+01 0.  1.
       -5    1    3    3    0  502 -0.12945139297E+04  0.32855128462E+03  0.80309032770E+03  0.15584249822E+04  0.46999998093E+01 0. -1.
</event>
<event>
 5   0  0.6258718E-07  0.3293723E+04  0.7818609E-02  0.8164494E-01
       -2   -1    0    0    0  501  0.00000000000E+00  0.00000000000E+00  0.18714274667E+04  0.18714274667E+04  0.25500000920E-02 0. -1.
        2   -1    0    0  501    0  0.00000000000E+00  0.00000000000E+00 -0.14492424978E+04  0.14492424978E+04  0.25500000920E-02 0.  1.
    10030    2    1    2    0    0  0.00000000000E+00  0.00000000000E+00  0.42218496890E+03  0.33206699644E+04  0.32937226454E+04 0.  0.
        5    1    3    3  502    0  0.20280414468E+03 -0.12312943743E+04  0.12945544140E+04  0.17980846972E+04  0.46999998093E+01 0. -1.
       -5    1    3    3    0  502 -0.20280414468E+03  0.12312943743E+04 -0.87236944508E+03  0.15225852673E+04  0.46999998093E+01 0.  1.
</event>
<event>
 5   0  0.1994250E-07  0.3308369E+04  0.7818609E-02  0.8160769E-01
        4   -1    0    0  501    0  0.00000000000E+00  0.00000000000E+00  0.23269405085E+04  0.23269408551E+04  0.12699999809E+01 0. -1.
       -4   -1    0    0    0  501  0.00000000000E+00  0.00000000000E+00 -0.11759326029E+04  0.11759332887E+04  0.12699999809E+01 0.  1.
    10030    2    1    2    0    0  0.00000000000E+00  0.00000000000E+00  0.11510079057E+04  0.35028741438E+04  0.33083693972E+04 0.  0.
        2    1    3    3  502    0  0.46504258013E+03 -0.63415720670E+03  0.21163668119E+04  0.22577485349E+04  0.25500000920E-02 0. -1.
       -2    1    3    3    0  502 -0.46504258013E+03  0.63415720670E+03 -0.96535890622E+03  0.12451256089E+04  0.25500000920E-02 0.  1.
</event>
<event>
 5   0  0.6351753E-07  0.3313930E+04  0.7818609E-02  0.8159360E-01
        2   -1    0    0  501    0  0.00000000000E+00  0.00000000000E+00  0.21237635477E+04  0.21237635477E+04  0.25500000920E-02 0.  1.
       -2   -1    0    0    0  501  0.00000000000E+00  0.00000000000E+00 -0.12927677554E+04  0.12927677554E+04  0.25500000920E-02 0. -1.
    10030    2    1    2    0    0  0.00000000000E+00  0.00000000000E+00  0.83099579230E+03  0.34165313030E+04  0.33139300140E+04 0.  0.
        3    1    3    3  502    0  0.12381435627E+04  0.86168560655E+02  0.15472600068E+04  0.19835417923E+04  0.10100000352E+00 0.  1.
       -3    1    3    3    0  502 -0.12381435627E+04 -0.86168560655E+02 -0.71626421451E+03  0.14329895108E+04  0.10100000352E+00 0. -1.
</event>
<event>
 5   0  0.2080828E-07  0.3308685E+04  0.7818609E-02  0.8160689E-01
        1   -1    0    0  501    0  0.00000000000E+00  0.00000000000E+00  0.20169136055E+04  0.20169136055E+04  0.50400001928E-02 0.  1.
       -1   -1    0    0    0  501  0.00000000000E+00  0.00000000000E+00 -0.13569492950E+04  0.13569492950E+04  0.50400001928E-02 0. -1.
    10030    2    1    2    0    0  0.00000000000E+00  0.00000000000E+00  0.65996431051E+03  0.33738629005E+04  0.33086852343E+04 0.  0.
        1    1    3    3  502    0  0.62031552842E+03 -0.14918597730E+04 -0.32567158068E+02  0.16160128579E+04  0.50400001928E-02 0. -1.
       -1    1    3    3    0  502 -0.62031552842E+03  0.14918597730E+04  0.69253146857E+03  0.17578500426E+04  0.50400001928E-02 0.  1.
</event>
<event>
 5   0  0.2080770E-07  0.3343787E+04  0.7818609E-02  0.8151842E-01
       -1   -1    0    0    0  501  0.00000000000E+00  0.00000000000E+00  0.11578969906E+04  0.11578969906E+04  0.50400001928E-02 0.  1.
        1   -1    0    0  501    0  0.00000000000E+00  0.00000000000E+00 -0.24140556538E+04  0.24140556538E+04  0.50400001928E-02 0. -1.
    10030    2    1    2    0    0  0.00000000000E+00  0.00000000000E+00 -0.12561586631E+04  0.35719526444E+04  0.33437869410E+04 0.  0.
        4    1    3    3  502    0 -0.23224494855E+03  0.47314406767E+03  0.10668250604E+04  0.11899245133E+04  0.12699999809E+01 0.  1.
       -4    1    3    3    0  502  0.23224494855E+03 -0.47314406767E+03 -0.23229837235E+04  0.23820281311E+04  0.12699999809E+01 0. -1.
</event>
<event>
 5   0  0.2087665E-07  0.3294258E+04  0.7818609E-02  0.8164358E-01
        1   -1    0    0  501    0  0.00000000000E+00  0.00000000000E+00  0.24572361514E+04  0.24572361514E+04  0.50400001928E-02 0. -1.
       -1   -1    0    0    0  501  0.00000000000E+00  0.00000000000E+00 -0.11040996716E+04  0.11040996716E+04  0.50400001928E-02 0.  1.
    10030    2    1    2    0    0  0.00000000000E+00  0.00000000000E+00  0.13531364798E+04  0.35613358229E+04  0.32942578088E+04 0.  0.
        5    1    3    3  502    0 -0.92925095858E+03 -0.13305521333E+04  0.37245156356E+03  0.16651181882E+04  0.46999998093E+01 0.  1.
       -5    1    3    3    0  502  0.92925095858E+03  0.13305521333E+04  0.98068491627E+03  0.18962176348E+04  0.46999998093E+01 0. -1.
</event>
<event>
 5   0  0.6424183E-07  0.3312564E+04  0.7818609E-02  0.8159706E-01
       -2   -1    0    0    0  501  0.00000000000E+00  0.00000000000E+00  0.27096324552E+04  0.27096324552E+04  0.25500000920E-02 0. -1.
        2   -1    0    0  501    0  0.00000000000E+00  0.00000000000E+00 -0.10124137902E+04  0.10124137902E+04  0.25500000920E-02 0.  1.
    10030    2    1    2    0    0  0.00000000000E+00  0.00000000000E+00  0.16972186649E+04  0.37220462454E+04  0.33125635173E+04 0.  0.
        2    1    3    3  502    0  0.77952654012E+02  0.16363371495E+04  0.11229034937E+04  0.19860987234E+04  0.25500000920E-02 0. -1.
       -2    1    3    3    0  502 -0.77952654012E+02 -0.16363371495E+04  0.57431517126E+03  0.17359475220E+04  0.25500000920E-02 0.  1.
</event>
<event>
 5   0  0.2037333E-07  0.3291699E+04  0.7818609E-02  0.8165011E-01
       -1   -1    0    0    0  501  0.00000000000E+00  0.00000000000E+00  0.15057522570E+04  0.15057522570E+04  0.50400001928E-02 0. -1.
        1   -1    0    0  501    0  0.00000000000E+00  0.00000000000E+00 -0.17989817619E+04  0.17989817619E+04  0.50400001928E-02 0.  1.
    10030    2    1    2    0    0  0.00000000000E+00  0.00000000000E+00 -0.29322950495E+03  0.33047340189E+04  0.32916991650E+04 0.  0.
        3    1    3    3  502    0  0.12653691834E+04  0.81724182024E+02 -0.12000470903E+04  0.17458382060E+04  0.10100000352E+00 0.  1.
       -3    1    3    3    0  502 -0.12653691834E+04 -0.81724182024E+02  0.90681758539E+03  0.15588958129E+04  0.10100000352E+00 0. -1.
</event>
<event>
 5   0  0.2080770E-07  0.3292306E+04  0.7818609E-02  0.8164856E-01
       -1   -1    0    0    0  501  0.00000000000E+00  0.00000000000E+00  0.16322191971E+04  0.16322191971E+04  0.50400001928E-02 0.  1.
        1   -1    0    0  501    0  0.00000000000E+00  0.00000000000E+00 -0.16602060634E+04  0.16602060634E+04  0.50400001928E-02 0. -1.
    10030    2    1    2    0    0  0.00000000000E+00  0.00000000000E+00 -0.27986866256E+02  0.32924252605E+04  0.32923063089E+04 0.  0.
        4    1    3    3  502    0 -0.12181770525E+04  0.89941893982E+03  0.63171467513E+03  0.16407238659E+04  0.12699999809E+01 0. -1.
       -4    1    3    3    0  502  0.12181770525E+04 -0.89941893982E+03 -0.65970154139E+03  0.16517013946E+04  0.12699999809E+01 0.  1.
</event>
<event>
 5   0  0.6426079E-07  0.3317231E+04  0.7818609E-02  0.8158525E-01
        2   -1    0    0  501    0  0.00000000000E+00  0.00000000000E+00  0.14444227596E+04  0.14444227596E+04  0.25500000920E-02 0. -1.
       -2   -1    0    0    0  501  0.00000000000E+00  0.00000000000E+00 -0.19045703120E+04  0.19045703120E+04  0.25500000920E-02 0.  1.
    10030    2    1    2    0    0  0.00000000000E+00  0.00000000000E+00 -0.46014755237E+03  0.33489930716E+04  0.33172305955E+04 0.  0.
        4    1    3    3  502    0  0.55168930443E+03  0.13227727320E+04 -0.10728810515E+04  0.17902972247E+04  0.12699999809E+01 0.  1.
       -4    1    3    3    0  502 -0.55168930443E+03 -0.13227727320E+04  0.61273349917E+03  0.15586958469E+04  0.12699999809E+01 0. -1.
</event>
<event>
 5   0  0.2080770E-07  0.3263582E+04  0.7818609E-02  0.8172224E-01
       -1   -1    0    0    0  501  0.00000000000E+00  0.00000000000E+00  0.99733320679E+03  0.99733320680E+03  0.50400001928E-02 0. -1.
        1   -1    0    0  501    0  0.00000000000E+00  0.00000000000E+00 -0.26698620980E+04  0.26698620980E+04  0.50400001928E-02 0.  1.
    10030    2    1    2    0    0  0.00000000000E+00  0.00000000000E+00 -0.16725288912E+04  0.36671953048E+04  0.32635821595E+04 0.  0.
        4    1    3    3  502    0 -0.13103168748E+04 -0.61691477346E+02 -0.19268655847E+04  0.23309973714E+04  0.12699999809E+01 0.  1.
       -4    1    3    3    0  502  0.13103168748E+04  0.61691477346E+02  0.25433669357E+03  0.13361979334E+04  0.12699999809E+01 0. -1.
</event>
<event>
 5   0  0.2080770E-07  0.3314699E+04  0.7818609E-02  0.8159165E-01
       -1   -1    0    0    0  501  0.00000000000E+00  0.00000000000E+00  0.15498939265E+04  0.15498939265E+04  0.50400001928E-02 0. -1.
        1   -1    0    0  501    0  0.00000000000E+00  0.00000000000E+00 -0.17722546427E+04  0.17722546427E+04  0.50400001928E-02 0.  1.
    10030    2    1    2    0    0  0.00000000000E+00  0.00000000000E+00 -0.22236071623E+03  0.33221485692E+04  0.33146986029E+04 0.  0.
        4    1    3    3  502    0 -0.13142615078E+04  0.10096779319E+04 -0.11969988082E+03  0.16616445202E+04  0.12699999809E+01 0. -1.
       -4    1    3    3    0  502  0.13142615078E+04 -0.10096779319E+04 -0.10266083541E+03  0.16605040491E+04  0.12699999809E+01 0.  1.
</event>
<event>
 5   0  0.2080828E-07  0.3292212E+04  0.7818609E-02  0.8164880E-01
       -1   -1    0    0    0  501  0.00000000000E+00  0.00000000000E+00  0.11865042378E+04  0.11865042378E+04  0.50400001928E-02 0. -1.
        1   -1    0    0  501    0  0.00000000000E+00  0.00000000000E+00 -0.22837381372E+04  0.22837381372E+04  0.50400001928E-02 0.  1.
    10030    2    1    2    0    0  0.00000000000E+00  0.00000000000E+00 -0.10972338994E+04  0.34702423749E+04  0.32922120088E+04 0.  0.
        1    1    3    3  502    0 -0.45595421329E+03  0.83159944776E+02  0.11163080801E+04  0.12086991151E+04  0.50400001928E-02 0. -1.
       -1    1    3    3    0  502  0.45595421329E+03 -0.83159944776E+02 -0.22135419795E+04  0.22615432598E+04  0.50400001928E-02 0.  1.
</event>
<event>
 5   0  0.6377741E-07  0.3309773E+04  0.7818609E-02  0.8160413E-01
       -2   -1    0    0    0  501  0.00000000000E+00  0.00000000000E+00  0.13185337484E+04  0.13185337484E+04  0.25500000920E-02 0.  1.
        2   -1    0    0  501    0  0.00000000000E+00  0.00000000000E+00 -0.20770412559E+04  0.20770412559E+04  0.25500000920E-02 0. -1.
    10030    2    1    2    0    0  0.00000000000E+00  0.00000000000E+00 -0.75850750754E+03  0.33955750044E+04  0.33097727975E+04 0.  0.
        1    1    3    3  502    0  0.55792115394E+02 -0.11148716043E+04  0.87413705677E+03  0.14178036001E+04  0.50400001928E-02 0.  1.
       -1    1    3    3    0  502 -0.55792115394E+02  0.11148716043E+04 -0.16326445643E+04  0.19777714043E+04  0.50400001928E-02 0. -1.
</event>
<event>
 5   0  0.2037333E-07  0.3307268E+04  0.7818609E-02  0.8161049E-01
       -1   -1    0    0    0  501  0.00000000000E+00  0.00000000000E+00  0.20679427714E+04  0.20679427714E+04  0.50400001928E-02 0.  1.
        1   -1    0    0  501    0  0.00000000000E+00  0.00000000000E+00 -0.13223309871E+04  0.13223309871E+04  0.50400001928E-02 0. -1.
    10030    2    1    2    0    0  0.00000000000E+00  0.00000000000E+00  0.74561178427E+03  0.33902737585E+04  0.33072676373E+04 0.  0.
        3    1    3    3  502    0  0.10334949112E+03  0.13664561197E+04 -0.57596177167E+03  0.14864775198E+04  0.10100000352E+00 0. -1.
       -3    1    3    3    0  502 -0.10334949112E+03 -0.13664561197E+04  0.13215735559E+04  0.19037962387E+04  0.10100000352E+00 0.  1.
</event>
<event>
 5   0  0.6424183E-07  0.3299906E+04  0.7818609E-02  0.8162919E-01
       -2   -1    0    0    0  501  0.00000000000E+00  0.00000000000E+00  0.21889396227E+04  0.21889396227E+04  0.25500000920E-02 0.  1.
        2   -1    0    0  501    0  0.00000000000E+00  0.00000000000E+00 -0.12436821389E+04  0.12436821389E+04  0.25500000920E-02 0. -1.
    10030    2    1    2    0    0  0.00000000000E+00  0.00000000000E+00  0.94525748381E+03  0.34326217615E+04  0.32999061270E+04 0.  0.
        2    1    3    3  502    0 -0.22466437150E+03  0.25868809072E+03 -0.12062687760E+04  0.12539848357E+04  0.25500000920E-02 0. -1.
       -2    1    3    3    0  502  0.22466437150E+03 -0.25868809072E+03  0.21515262598E+04  0.21786369259E+04  0.25500000920E-02 0.  1.
</event>
<event>
 5   0  0.6258718E-07  0.3299499E+04  0.7818609E-02  0.8163023E-01
       -2   -1    0    0    0  501  0.00000000000E+00  0.00000000000E+00  0.12233028801E+04  0.12233028801E+04  0.25500000920E-02 0. -1.
        2   -1    0    0  501    0  0.00000000000E+00  0.00000000000E+00 -0.22248564806E+04  0.22248564806E+04  0.25500000920E-02 0.  1.
    10030    2    1    2    0    0  0.00000000000E+00  0.00000000000E+00 -0.10015536005E+04  0.34481593607E+04  0.32994989562E+04 0.  0.
        5    1    3    3  502    0 -0.59106225135E+03  0.36537751317E+03 -0.20644521465E+04  0.21782653804E+04  0.46999998093E+01 0.  1.
       -5    1    3    3    0  502  0.59106225135E+03 -0.36537751317E+03  0.10628985460E+04  0.12698939803E+04  0.46999998093E+01 0. -1.
</event>
<event>
 5   0  0.2087665E-07  0.3279282E+04  0.7818609E-02  0.8168187E-01
        1   -1    0    0  501    0  0.00000000000E+00  0.00000000000E+00  0.23730713716E+04  0.23730713716E+04  0.50400001928E-02 0. -1.
       -1   -1    0    0    0  501  0.00000000000E+00  0.00000000000E+00 -0.11328870970E+04  0.11328870971E+04  0.50400001928E-02 0.  1.
    10030    2    1    2    0    0  0.00000000000E+00  0.00000000000E+00  0.12401842745E+04  0.35059584686E+04  0.32792815904E+04 0.  0.
        5    1    3    3  502    0 -0.23657033149E+03 -0.95589622916E+03 -0.78151945546E+03  0.12571785362E+04  0.46999998093E+01 0.  1.
       -5    1    3    3    0  502  0.23657033149E+03  0.95589622916E+03  0.20217037300E+04  0.22487799324E+04  0.46999998093E+01 0. -1.
</event>
<event>
 5   0  0.6426079E-07  0.3299203E+04  0.7818609E-02  0.8163098E-01
       -2   -1    0    0    0  501  0.00000000000E+00  0.00000000000E+00  0.19478358249E+04  0.19478358249E+04  0.25500000920E-02 0. -1.
        2   -1    0    0  501    0  0.00000000000E+00  0.00000000000E+00 -0.13970297973E+04  0.13970297973E+04  0.25500000920E-02 0.  1.
    10030    2    1    2    0    0  0.00000000000E+00  0.00000000000E+00  0.55080602753E+03  0.33448656222E+04  0.32992027447E+04 0.  0.
        4    1    3    3  502    0  0.88544067869E+03  0.30387414976E+03  0.16524502333E+04  0.18991940608E+04  0.12699999809E+01 0. -1.
       -4    1    3    3    0  502 -0.88544067869E+03 -0.30387414976E+03 -0.11016442058E+04  0.14456715614E+04  0.12699999809E+01 0.  1.
</event>
<event>
 5   0  0.6426079E-07  0.3313173E+04  0.7818609E-02  0.8159552E-01
        2   -1    0    0  501    0  0.00000000000E+00  0.00000000000E+00  0.25434453439E+04  0.25434453439E+04  0.25500000920E-02 0.  1.
       -2   -1    0    0    0  501  0.00000000000E+00  0.00000000000E+00 -0.10789609583E+04  0.10789609583E+04  0.25500000920E-02 0. -1.
    10030    2    1    2    0    0  0.00000000000E+00  0.00000000000E+00  0.14644843856E+04  0.36224063022E+04  0.33131726340E+04 0.  0.
        4    1    3    3  502    0  0.17697933045E+03 -0.27516817806E+02  0.25328277871E+04  0.25391528254E+04  0.12699999809E+01 0.  1.
       -4    1    3    3    0  502 -0.17697933045E+03  0.27516817806E+02 -0.10683434015E+04  0.10832534768E+04  0.12699999809E+01 0. -1.
</event>
<event>
 5   0  0.6424183E-07  0.3320034E+04  0.7818609E-02  0.8157816E-01
        2   -1    0    0  501    0  0.00000000000E+00  0.00000000000E+00  0.19520123531E+04  0.19520123531E+04  0.25500000920E-02 0. -1.
       -2   -1    0    0    0  501  0.00000000000E+00  0.00000000000E+00 -0.14117002999E+04  0.14117003000E+04  0.25500000920E-02 0.  1.
    10030    2    1    2    0    0  0.00000000000E+00  0.00000000000E+00  0.54031205313E+03  0.33637126530E+04  0.33200339904E+04 0.  0.
        2    1    3    3  502    0 -0.81672506462E+03 -0.12499209939E+04 -0.46486347542E+03  0.15637903865E+04  0.25500000920E-02 0.  1.
       -2    1    3    3    0  502  0.81672506462E+03  0.12499209939E+04  0.10051755285E+04  0.17999222665E+04  0.25500000920E-02 0. -1.
</event>
<event>
 5   0  0.2087665E-07  0.3307943E+04  0.7818609E-02  0.8160877E-01
       -1   -1    0    0    0  501  0.00000000000E+00  0.00000000000E+00  0.14405742485E+04  0.14405742485E+04  0.50400001928E-02 0.  1.
        1   -1    0    0  501    0  0.00000000000E+00  0.00000000000E+00 -0.18989804154E+04  0.18989804154E+04  0.50400001928E-02 0. -1.
    10030    2    1    2    0    0  0.00000000000E+00  0.00000000000E+00 -0.45840616684E+03  0.33395546639E+04  0.33079433398E+04 0.  0.
        5    1    3    3  502    0 -0.93594036623E+03  0.13635136763E+04 -0.20787585881E+03  0.16668498364E+04  0.46999998093E+01 0.  1.
       -5    1    3    3    0  502  0.93594036623E+03 -0.13635136763E+04 -0.25053030803E+03  0.16727048275E+04  0.46999998093E+01 0. -1.
</event>
<event>
 5   0  0.6351753E-07  0.3293395E+04  0.7818609E-02  0.8164578E-01
        2   -1    0    0  501    0  0.00000000000E+00  0.00000000000E+00  0.16885805627E+04  0.16885805627E+04  0.25500000920E-02 0. -1.
       -2   -1    0    0    0  501  0.00000000000E+00  0.00000000000E+00 -0.16058536099E+04  0.16058536099E+04  0.25500000920E-02 0.  1.
    10030    2    1    2    0    0  0.00000000000E+00  0.00000000000E+00  0.82726952734E+02  0.32944341726E+04  0.32933953253E+04 0.  0.
        3    1    3    3  502    0  0.59911278684E+02  0.28042883664E+02  0.16872509554E+04  0.16885471747E+04  0.10100000352E+00 0. -1.
       -3    1    3    3    0  502 -0.59911278684E+02 -0.28042883664E+02 -0.16045240027E+04  0.16058869979E+04  0.10100000352E+00 0.  1.
</event>
<event>
 5   0  0.2037333E-07  0.3300084E+04  0.7818609E-02  0.8162874E-01
       -1   -1    0    0    0  501  0.00000000000E+00  0.00000000000E+00  0.15073564866E+04  0.15073564866E+04  0.50400001928E-02 0. -1.
        1   -1    0    0  501    0  0.00000000000E+00  0.00000000000E+00 -0.18062336565E+04  0.18062336566E+04  0.50400001928E-02 0.  1.
    10030    2    1    2    0    0  0.00000000000E+00  0.00000000000E+00 -0.29887716995E+03  0.33135901432E+04  0.33000836465E+04 0.  0.
        3    1    3    3  502    0  0.23833346196E+03 -0.12731770100E+04  0.87692669471E+03  0.15642196060E+04  0.10100000352E+00 0. -1.
       -3    1    3    3    0  502 -0.23833346196E+03  0.12731770100E+04 -0.11758038647E+04  0.17493705371E+04  0.10100000352E+00 0.  1.
</event>
<event>
 5   0  0.6426079E-07  0.3302726E+04  0.7818609E-02  0.8162202E-01
        2   -1    0    0  501    0  0.00000000000E+00  0.00000000000E+00  0.16176102617E+04  0.16176102617E+04  0.25500000920E-02 0. -1.
       -2   -1    0    0    0  501  0.00000000000E+00  0.00000000000E+00 -0.16858202407E+04  0.16858202407E+04  0.25500000920E-02 0.  1.
    10030    2    1    2    0    0  0.00000000000E+00  0.00000000000E+00 -0.68209978993E+02  0.33034305023E+04  0.33027262197E+04 0.  0.
        4    1    3    3  502    0  0.13249536480E+04 -0.89597685976E+03 -0.44495017965E+03  0.16601984754E+04  0.12699999809E+01 0.  1.
       -4    1    3    3    0  502 -0.13249536480E+04  0.89597685976E+03  0.37674020066E+03  0.16432320269E+04  0.12699999809E+01 0. -1.
</event>
<event>
 5   0  0.2080770E-07  0.3310517E+04  0.7818609E-02  0.8160224E-01
       -1   -1    0    0    0  501  0.00000000000E+00  0.00000000000E+00  0.19707798937E+04  0.19707798937E+04  0.50400001928E-02 0. -1.
        1   -1    0    0  501    0  0.00000000000E+00  0.00000000000E+00 -0.13902524135E+04  0.13902524135E+04  0.50400001928E-02 0.  1.
    10030    2    1    2    0    0  0.00000000000E+00  0.00000000000E+00  0.58052748022E+03  0.33610323072E+04  0.33105174845E+04 0.  0.
        4    1    3    3  502    0  0.13451507107E+04  0.93591897437E+03  0.52728946865E+03  0.17214559413E+04  0.12699999809E+01 0.  1.
       -4    1    3    3    0  502 -0.13451507107E+04 -0.93591897437E+03  0.53238011570E+02  0.16395763660E+04  0.12699999809E+01 0. -1.
</event>
<event>
 5   0  0.2037333E-07  0.3301074E+04  0.7818609E-02  0.8162622E-01
       -1   -1    0    0    0  501  0.00000000000E+00  0.00000000000E+00  0.13263386338E+04  0.13263386338E+04  0.50400001928E-02 0.  1.
        1   -1    0    0  501    0  0.00000000000E+00  0.00000000000E+00 -0.20539798889E+04  0.20539798889E+04  0.50400001928E-02 0. -1.
    10030    2    1    2    0    0  0.00000000000E+00  0.00000000000E+00 -0.72764125509E+03  0.33803185227E+04  0.33010742977E+04 0.  0.
        3    1    3    3  502    0 -0.15738913326E+04 -0.11827826568E+03  0.13062584809E+03  0.15837256068E+04  0.10100000352E+00 0.  1.
       -3    1    3    3    0  502  0.15738913326E+04  0.11827826568E+03 -0.85826710318E+03  0.17965929160E+04  0.10100000352E+00 0. -1.
</event>
<event>
 5   0  0.6424183E-07  0.3295673E+04  0.7818609E-02  0.8163997E-01
        2   -1    0    0  501    0  0.00000000000E+00  0.00000000000E+00  0.22940602443E+04  0.22940602443E+04  0.25500000920E-02 0. -1.
       -2   -1    0    0    0  501  0.00000000000E+00  0.00000000000E+00 -0.11836505553E+04  0.11836505553E+04  0.25500000920E-02 0.  1.
    10030    2    1    2    0    0  0.00000000000E+00  0.00000000000E+00  0.11104096891E+04  0.34777107996E+04  0.32956733345E+04 0.  0.
        2    1    3    3  502    0  0.16165353261E+04  0.30199171865E+03  0.44463036771E+03  0.17035497124E+04  0.25500000920E-02 0.  1.
       -2    1    3    3    0  502 -0.16165353261E+04 -0.30199171865E+03  0.66577932138E+03  0.17741610872E+04  0.25500000920E-02 0. -1.
</event>
<event>
 5   0  0.2037333E-07  0.3299573E+04  0.7818609E-02  0.8163004E-01
       -1   -1    0    0    0  501  0.00000000000E+00  0.00000000000E+00  0.21496204542E+04  0.21496204542E+04  0.50400001928E-02 0.  1.
        1   -1    0    0  501    0  0.00000000000E+00  0.00000000000E+00 -0.12661749939E+04  0.12661749939E+04  0.50400001928E-02 0. -1.
    10030    2    1    2    0    0  0.00000000000E+00  0.00000000000E+00  0.88344546027E+03  0.34157954482E+04  0.32995731031E+04 0.  0.
        3    1    3    3  502    0  0.12285971926E+04  0.38151579806E+02  0.15808867956E+04  0.20025258239E+04  0.10100000352E+00 0.  1.
       -3    1    3    3    0  502 -0.12285971926E+04 -0.38151579806E+02 -0.69744133531E+03  0.14132696243E+04  0.10100000352E+00 0. -1.
</event>
<event>
 5   0  0.6377741E-07  0.3294515E+04  0.7818609E-02  0.8164292E-01
        2   -1    0    0  501    0  0.00000000000E+00  0.00000000000E+00  0.18114551692E+04  0.18114551692E+04  0.25500000920E-02 0.  1.
       -2   -1    0    0    0  501  0.00000000000E+00  0.00000000000E+00 -0.14979433700E+04  0.14979433700E+04  0.25500000920E-02 0. -1.
    10030    2    1    2    0    0  0.00000000000E+00  0.00000000000E+00  0.31351179922E+03  0.33093985393E+04  0.32945149937E+04 0.  0.
        1    1    3    3  502    0  0.42394362907E+03  0.17453850798E+03  0.17460747269E+04  0.18052614335E+04  0.50400001928E-02 0.  1.
       -1    1    3    3    0  502 -0.42394362907E+03 -0.17453850798E+03 -0.14325629276E+04  0.15041371058E+04  0.50400001928E-02 0. -1.
</event>
<event>
 5   0  0.6377741E-07  0.3293942E+04  0.7818609E-02  0.8164439E-01
       -2   -1    0    0    0  501  0.00000000000E+00  0.00000000000E+00  0.98366338946E+03  0.98366338946E+03  0.25500000920E-02 0.  1.
        2   -1    0    0  501    0  0.00000000000E+00  0.00000000000E+00 -0.27575624229E+04  0.27575624229E+04  0.25500000920E-02 0. -1.
    10030    2    1    2    0    0  0.00000000000E+00  0.00000000000E+00 -0.17738990334E+04  0.37412258123E+04  0.32939418328E+04 0.  0.
        1    1    3    3  502    0 -0.10973065286E+03 -0.17085161416E+03  0.96939198444E+03  0.99043016400E+03  0.50400001928E-02 0.  1.
       -1    1    3    3    0  502  0.10973065286E+03  0.17085161416E+03 -0.27432910178E+04  0.27507956483E+04  0.50400001928E-02 0. -1.
</event>
<event>
 5   0  0.6351753E-07  0.3287470E+04  0.7818609E-02  0.8166091E-01
        2   -1    0    0  501    0  0.00000000000E+00  0.00000000000E+00  0.21095504164E+04  0.21095504164E+04  0.25500000920E-02 0. -1.
       -2   -1    0    0    0  501  0.00000000000E+00  0.00000000000E+00 -0.12807776716E+04  0.12807776716E+04  0.25500000920E-02 0.  1.
    10030    2    1    2    0    0  0.00000000000E+00  0.00000000000E+00  0.82877274476E+03  0.33903280880E+04  0.32874701948E+04 0.  0.
        3    1    3    3  502    0 -0.21709313324E+03 -0.11741721072E+04 -0.75058347431E+03  0.14103847447E+04  0.10100000352E+00 0.  1.
       -3    1    3    3    0  502  0.21709313324E+03  0.11741721072E+04  0.15793562191E+04  0.19799433433E+04  0.10100000352E+00 0. -1.
</event>
<event>
 5   0  0.6351753E-07  0.3302345E+04  0.7818609E-02  0.8162299E-01
        2   -1    0    0  501    0  0.00000000000E+00  0.00000000000E+00  0.15870977685E+04  0.15870977685E+04  0.25500000920E-02 0. -1.
       -2   -1    0    0    0  501  0.00000000000E+00  0.00000000000E+00 -0.17178340165E+04  0.17178340165E+04  0.25500000920E-02 0.  1.
    10030    2    1    2    0    0  0.00000000000E+00  0.00000000000E+00 -0.13073624802E+03  0.33049317850E+04  0.33023449452E+04 0.  0.
        3    1    3    3  502    0 -0.11304509687E+04 -0.22743091630E+03  0.11173894056E+04  0.16056784573E+04  0.10100000352E+00 0. -1.
       -3    1    3    3    0  502  0.11304509687E+04  0.22743091630E+03 -0.12481256536E+04  0.16992533277E+04  0.10100000352E+00 0.  1.
</event>
<event>
 5   0  0.6258718E-07  0.3280350E+04  0.7818609E-02  0.8167914E-01
       -2   -1    0    0    0  501  0.00000000000E+00  0.00000000000E+00  0.12795445378E+04  0.12795445378E+04  0.25500000920E-02 0.  1.
        2   -1    0    0  501    0  0.00000000000E+00  0.00000000000E+00 -0.21024460293E+04  0.21024460293E+04  0.25500000920E-02 0. -1.
    10030    2    1    2    0    0  0.00000000000E+00  0.00000000000E+00 -0.82290149151E+03  0.33819905671E+04  0.32803495745E+04 0.  0.
        5    1    3    3  502    0  0.34632170127E+03 -0.15042230464E+04  0.16028173493E+03  0.15518820892E+04  0.46999998093E+01 0.  1.
       -5    1    3    3    0  502 -0.34632170127E+03  0.15042230464E+04 -0.98318322644E+03  0.18301084779E+04  0.46999998093E+01 0. -1.
</event>
<event>
 5   0  0.2037333E-07  0.3304503E+04  0.7818609E-02  0.8161751E-01
        1   -1    0    0  501    0  0.00000000000E+00  0.00000000000E+00  0.27923920695E+04  0.27923920695E+04  0.50400001928E-02 0. -1.
       -1   -1    0    0    0  501  0.00000000000E+00  0.00000000000E+00 -0.97763318859E+03  0.97763318860E+03  0.50400001928E-02 0.  1.
    10030    2    1    2    0    0  0.00000000000E+00  0.00000000000E+00  0.18147588809E+04  0.37700252581E+04  0.33045030868E+04 0.  0.
        3    1    3    3  502    0  0.77944812120E+03 -0.15900057741E+03 -0.74476943603E+03  0.10897256904E+04  0.10100000352E+00 0.  1.
       -3    1    3    3    0  502 -0.77944812120E+03  0.15900057741E+03  0.25595283169E+04  0.26802995677E+04  0.10100000352E+00 0. -1.
</event>
<event>
 5   0  0.2080770E-07  0.3290837E+04  0.7818609E-02  0.8165231E-01
       -1   -1    0    0    0  501  0.00000000000E+00  0.00000000000E+00  0.98940077843E+03  0.98940077845E+03  0.50400001928E-02 0. -1.
        1   -1    0    0  501    0  0.00000000000E+00  0.00000000000E+00 -0.27364051059E+04  0.27364051059E+04  0.50400001928E-02 0.  1.
    10030    2    1    2    0    0  0.00000000000E+00  0.00000000000E+00 -0.17470043275E+04  0.37258058844E+04  0.32908365757E+04 0.  0.
        4    1    3    3  502    0 -0.51863696249E+03  0.15596303266E+04 -0.96097090086E+03  0.19039164214E+04  0.12699999809E+01 0. -1.
       -4    1    3    3    0  502  0.51863696249E+03 -0.15596303266E+04 -0.78603342661E+03  0.18218894629E+04  0.12699999809E+01 0.  1.
</event>
<event>
 5   0  0.6426079E-07  0.3297233E+04  0.7818609E-02  0.8163600E-01
       -2   -1    0    0    0  501  0.00000000000E+00  0.00000000000E+00  0.94340312535E+03  0.94340312535E+03  0.25500000920E-02 0.  1.
        2   -1    0    0  501    0  0.00000000000E+00  0.00000000000E+00 -0.28809909557E+04  0.28809909557E+04  0.25500000920E-02 0. -1.
    10030    2    1    2    0    0  0.00000000000E+00  0.00000000000E+00 -0.19375878304E+04  0.38243940811E+04  0.32972327014E+04 0.  0.
        4    1    3    3  502    0  0.52569202393E+03 -0.92057691978E+03 -0.24332406621E+04  0.26541431201E+04  0.12699999809E+01 0. -1.
       -4    1    3    3    0  502 -0.52569202393E+03  0.92057691978E+03  0.49565283172E+03  0.11702509610E+04  0.12699999809E+01 0.  1.
</event>
<event>
 5   0  0.2037333E-07  0.3292815E+04  0.7818609E-02  0.8164726E-01
        1   -1    0    0  501    0  0.00000000000E+00  0.00000000000E+00  0.11924934100E+04  0.11924934100E+04  0.50400001928E-02 0.  1.
       -1   -1    0    0    0  501  0.00000000000E+00  0.00000000000E+00 -0.22731005550E+04  0.22731005550E+04  0.50400001928E-02 0. -1.
    10030    2    1    2    0    0  0.00000000000E+00  0.00000000000E+00 -0.10806071451E+04  0.34655939650E+04  0.32928148640E+04 0.  0.
        3    1    3    3  502    0 -0.54174667159E+03 -0.48379122769E+03 -0.20953686696E+04  0.22176819609E+04  0.10100000352E+00 0. -1.
       -3    1    3    3    0  502  0.54174667159E+03  0.48379122769E+03  0.10147615245E+04  0.12479120041E+04  0.10100000352E+00 0.  1.
</event>
<event>
 5   0  0.2080770E-07  0.3299610E+04  0.7818609E-02  0.8162995E-01
        1   -1    0    0  501    0  0.00000000000E+00  0.00000000000E+00  0.16580398000E+04  0.16580398000E+04  0.50400001928E-02 0.  1.
       -1   -1    0    0    0  501  0.00000000000E+00  0.00000000000E+00 -0.16416109256E+04  0.16416109256E+04  0.50400001928E-02 0. -1.
    10030    2    1    2    0    0  0.00000000000E+00  0.00000000000E+00  0.16428874422E+02  0.32996507256E+04  0.32996098259E+04 0.  0.
        4    1    3    3  502    0 -0.70503809599E+03 -0.97962552827E+03 -0.11165704793E+04  0.16442250882E+04  0.12699999809E+01 0. -1.
       -4    1    3    3    0  502  0.70503809599E+03  0.97962552827E+03  0.11329993538E+04  0.16554256374E+04  0.12699999809E+01 0.  1.
</event>
<event>
 5   0  0.2087665E-07  0.3287460E+04  0.7818609E-02  0.8166094E-01
        1   -1    0    0  501    0  0.00000000000E+00  0.00000000000E+00  0.22211957351E+04  0.22211957351E+04  0.50400001928E-02 0. -1.
       -1   -1    0    0    0  501  0.00000000000E+00  0.00000000000E+00 -0.12163936816E+04  0.12163936816E+04  0.50400001928E-02 0.  1.
    10030    2    1    2    0    0  0.00000000000E+00  0.00000000000E+00  0.10048020535E+04  0.34375894168E+04  0.32874600882E+04 0.  0.
        5    1    3    3  502    0  0.51470457969E+03  0.18781474075E+03 -0.11180901546E+04  0.12451276501E+04  0.46999998093E+01 0.  1.
       -5    1    3    3    0  502 -0.51470457969E+03 -0.18781474075E+03  0.21228922081E+04  0.21924617667E+04  0.46999998093E+01 0. -1.
</event>
<event>
 5   0  0.2037333E-07  0.3291697E+04  0.7818609E-02  0.8165011E-01
       -1   -1    0    0    0  501  0.00000000000E+00  0.00000000000E+00  0.14088480374E+04  0.14088480374E+04  0.50400001928E-02 0. -1.
        1   -1    0    0  501    0  0.00000000000E+00  0.00000000000E+00 -0.19227174334E+04  0.19227174334E+04  0.50400001928E-02 0.  1.
    10030    2    1    2    0    0  0.00000000000E+00  0.00000000000E+00 -0.51386939597E+03  0.33315654708E+04  0.32916966340E+04 0.  0.
        3    1    3    3  502    0  0.82654017190E+03  0.52743007023E+03 -0.15948630555E+04  0.18721483143E+04  0.10100000352E+00 0.  1.
       -3    1    3    3    0  502 -0.82654017190E+03 -0.52743007023E+03  0.10809936595E+04  0.14594171566E+04  0.10100000352E+00 0. -1.
</event>
<event>
 5   0  0.2087665E-07  0.3296471E+04  0.7818609E-02  0.8163794E-01
       -1   -1    0    0    0  501  0.00000000000E+00  0.00000000000E+00  0.18151793734E+04  0.18151793734E+04  0.50400001928E-02 0.  1.
        1   -1    0    0  501    0  0.00000000000E+00  0.00000000000E+00 -0.14966456585E+04  0.14966456585E+04  0.50400001928E-02 0. -1.
    10030    2    1    2    0    0  0.00000000000E+00  0.00000000000E+00  0.31853371483E+03  0.33118250319E+04  0.32964710395E+04 0.  0.
        5    1    3    3  502    0 -0.63532349378E+03 -0.81547187917E+02 -0.13664812200E+04  0.15091649679E+04  0.46999998093E+01 0. -1.
       -5    1    3    3    0  502  0.63532349378E+03  0.81547187917E+02  0.16850149349E+04  0.18026600640E+04  0.46999998093E+01 0.  1.
</event>
<event>
 5   0  0.2057130E-07  0.3279514E+04  0.7818609E-02  0.8168128E-01
        1   -1    0    0  501    0  0.00000000000E+00  0.00000000000E+00  0.11774220296E+04  0.11774220296E+04  0.50400001928E-02 0.  1.
       -1   -1    0    0    0  501  0.00000000000E+00  0.00000000000E+00 -0.22836354122E+04  0.22836354122E+04  0.50400001928E-02 0. -1.
    10030    2    1    2    0    0  0.00000000000E+00  0.00000000000E+00 -0.11062133827E+04  0.34610574418E+04  0.32795137700E+04 0.  0.
        2    1    3    3  502    0 -0.35671278430E+03 -0.19147334643E+03 -0.22300606776E+04  0.22665120072E+04  0.25500000920E-02 0. -1.
       -2    1    3    3    0  502  0.35671278430E+03  0.19147334643E+03  0.11238472950E+04  0.11945454346E+04  0.25500000920E-02 0.  1.
</event>
<event>
 5   0  0.2057130E-07  0.3292110E+04  0.7818609E-02  0.8164906E-01
        1   -1    0    0  501    0  0.00000000000E+00  0.00000000000E+00  0.23870277733E+04  0.23870277733E+04  0.50400001928E-02 0. -1.
       -1   -1    0    0    0  501  0.00000000000E+00  0.00000000000E+00 -0.11350921088E+04  0.11350921088E+04  0.50400001928E-02 0.  1.
    10030    2    1    2    0    0  0.00000000000E+00  0.00000000000E+00  0.12519356645E+04  0.35221198821E+04  0.32921095905E+04 0.  0.
        2    1    3    3  502    0  0.25332212585E+03 -0.68771679315E+03  0.22028409102E+04  0.23215586494E+04  0.25500000920E-02 0. -1.
       -2    1    3    3    0  502 -0.25332212585E+03  0.68771679315E+03 -0.95090524571E+03  0.12005612327E+04  0.25500000920E-02 0.  1.
</event>
<event>
 5   0  0.6258718E-07  0.3272385E+04  0.7818609E-02  0.8169958E-01
        2   -1    0    0  501    0  0.00000000000E+00  0.00000000000E+00  0.20763684390E+04  0.20763684390E+04  0.25500000920E-02 0. -1.
       -2   -1    0    0    0  501  0.00000000000E+00  0.00000000000E+00 -0.12893311415E+04  0.12893311415E+04  0.25500000920E-02 0.  1.
    10030    2    1    2    0    0  0.00000000000E+00  0.00000000000E+00  0.78703729745E+03  0.33656995805E+04  0.32723853622E+04 0.  0.
        5    1    3    3  502    0  0.21071802751E+03 -0.14778705902E+04 -0.29535717645E+03  0.15217626360E+04  0.46999998093E+01 0.  1.
       -5    1    3    3    0  502 -0.21071802751E+03  0.14778705902E+04  0.10823944739E+04  0.18439369446E+04  0.46999998093E+01 0. -1.
</event>
<event>
 5   0  0.2037333E-07  0.3299287E+04  0.7818609E-02  0.8163077E-01
       -1   -1    0    0    0  501  0.00000000000E+00  0.00000000000E+00  0.10705680928E+04  0.10705680928E+04  0.50400001928E-02 0.  1.
        1   -1    0    0  501    0  0.00000000000E+00  0.00000000000E+00 -0.25419431785E+04  0.25419431785E+04  0.50400001928E-02 0. -1.
    10030    2    1    2    0    0  0.00000000000E+00  0.00000000000E+00 -0.14713750857E+04  0.36125112713E+04  0.32992867475E+04 0.  0.
        3    1    3    3  502    0 -0.11039402833E+04  0.86715322949E+03 -0.16843633758E+04  0.21926511041E+04  0.10100000352E+00 0. -1.
       -3    1    3    3    0  502  0.11039402833E+04 -0.86715322949E+03  0.21298829010E+03  0.14198601672E+04  0.10100000352E+00 0.  1.
</event>
<event>
 5   0  0.6258718E-07  0.3299805E+04  0.7818609E-02  0.8162945E-01
       -2   -1    0    0    0  501  0.00000000000E+00  0.00000000000E+00  0.19822483609E+04  0.19822483609E+04  0.25500000920E-02 0. -1.
        2   -1    0    0  501    0  0.00000000000E+00  0.00000000000E+00 -0.13732778617E+04  0.13732778617E+04  0.25500000920E-02 0.  1.
    10030    2    1    2    0    0  0.00000000000E+00  0.00000000000E+00  0.60897049917E+03  0.33555262226E+04  0.32998047157E+04 0.  0.
        5    1    3    3  502    0  0.76849124687E+03  0.10315756225E+04 -0.74612546014E+03  0.14870952739E+04  0.46999998093E+01 0.  1.
       -5    1    3    3    0  502 -0.76849124687E+03 -0.10315756225E+04  0.13550959593E+04  0.18684309488E+04  0.46999998093E+01 0. -1.
</event>
<event>
 5   0  0.2037333E-07  0.3303645E+04  0.7818609E-02  0.8161968E-01
       -1   -1    0    0    0  501  0.00000000000E+00  0.00000000000E+00  0.11820833821E+04  0.11820833821E+04  0.50400001928E-02 0.  1.
        1   -1    0    0  501    0  0.00000000000E+00  0.00000000000E+00 -0.23082281073E+04  0.23082281073E+04  0.50400001928E-02 0. -1.
    10030    2    1    2    0    0  0.00000000000E+00  0.00000000000E+00 -0.11261447252E+04  0.34903114894E+04  0.33036453126E+04 0.  0.
        3    1    3    3  502    0 -0.10638240926E+04 -0.11751537117E+03 -0.18923306612E+04  0.21740393059E+04  0.10100000352E+00 0. -1.
       -3    1    3    3    0  502  0.10638240926E+04  0.11751537117E+03  0.76618593598E+03  0.13162721835E+04  0.10100000352E+00 0.  1.
</event>
<event>
 5   0  0.6426079E-07  0.3307214E+04  0.7818609E-02  0.8161062E-01
       -2   -1    0    0    0  501  0.00000000000E+00  0.00000000000E+00  0.11025105143E+04  0.11025105143E+04  0.25500000920E-02 0. -1.
        2   -1    0    0  501    0  0.00000000000E+00  0.00000000000E+00 -0.24801726674E+04  0.24801726674E+04  0.25500000920E-02 0.  1.
    10030    2    1    2    0    0  0.00000000000E+00  0.00000000000E+00 -0.13776621531E+04  0.35826831817E+04  0.33072142012E+04 0.  0.
        4    1    3    3  502    0 -0.15653968670E+04 -0.12742344391E+03 -0.12493354197E+04  0.20068743581E+04  0.12699999809E+01 0. -1.
       -4    1    3    3    0  502  0.15653968670E+04  0.12742344391E+03 -0.12832673344E+03  0.15758088237E+04  0.12699999809E+01 0.  1.
</event>
<event>
 5   0  0.2080770E-07  0.3299964E+04  0.7818609E-02  0.8162904E-01
       -1   -1    0    0    0  501  0.00000000000E+00  0.00000000000E+00  0.21573286697E+04  0.21573286697E+04  0.50400001928E-02 0. -1.
        1   -1    0    0  501    0  0.00000000000E+00  0.00000000000E+00 -0.12619500072E+04  0.12619500073E+04  0.50400001928E-02 0.  1.
    10030    2    1    2    0    0  0.00000000000E+00  0.00000000000E+00  0.89537866245E+03  0.34192786769E+04  0.32999642000E+04 0.  0.
        4    1    3    3  502    0  0.57466650832E+03  0.22844582172E+03  0.20327071445E+04  0.21246950457E+04  0.12699999809E+01 0. -1.
       -4    1    3    3    0  502 -0.57466650832E+03 -0.22844582172E+03 -0.11373284820E+04  0.12945836312E+04  0.12699999809E+01 0.  1.
</event>
<event>
 5   0  0.6426079E-07  0.3294162E+04  0.7818609E-02  0.8164382E-01
       -2   -1    0    0    0  501  0.00000000000E+00  0.00000000000E+00  0.15104276463E+04  0.15104276463E+04  0.25500000920E-02 0.  1.
        2   -1    0    0  501    0  0.00000000000E+00  0.00000000000E+00 -0.17960980084E+04  0.17960980084E+04  0.25500000920E-02 0. -1.
    10030    2    1    2    0    0  0.00000000000E+00  0.00000000000E+00 -0.28567036205E+03  0.33065256547E+04  0.32941621620E+04 0.  0.
        4    1    3    3  502    0 -0.14210173630E+04 -0.66551624209E+03 -0.64538608736E+03  0.16966811807E+04  0.12699999809E+01 0.  1.
       -4    1    3    3    0  502  0.14210173630E+04  0.66551624209E+03  0.35971572531E+03  0.16098444739E+04  0.12699999809E+01 0. -1.
</event>
<event>
 5   0  0.6424183E-07  0.3210158E+04  0.7818609E-02  0.8186140E-01
       -2   -1    0    0    0  501  0.00000000000E+00  0.00000000000E+00  0.11696084589E+04  0.11696084589E+04  0.25500000920E-02 0. -1.
        2   -1    0    0  501    0  0.00000000000E+00  0.00000000000E+00 -0.22026844296E+04  0.22026844296E+04  0.25500000920E-02 0.  1.
    10030    2    1    2    0    0  0.00000000000E+00  0.00000000000E+00 -0.10330759708E+04  0.33722928885E+04  0.32101578410E+04 0.  0.
        2    1    3    3  502    0 -0.42131475806E+03  0.32446258826E+03  0.10743804576E+04  0.11987808241E+04  0.25500000920E-02 0. -1.
       -2    1    3    3    0  502  0.42131475806E+03 -0.32446258826E+03 -0.21074564284E+04  0.21735120644E+04  0.25500000920E-02 0.  1.
</event>
<event>
 5   0  0.2080828E-07  0.3284507E+04  0.7818609E-02  0.8166849E-01
        1   -1    0    0  501    0  0.00000000000E+00  0.00000000000E+00  0.16003285285E+04  0.16003285285E+04  0.50400001928E-02 0.  1.
       -1   -1    0    0    0  501  0.00000000000E+00  0.00000000000E+00 -0.16852768652E+04  0.16852768652E+04  0.50400001928E-02 0. -1.
    10030    2    1    2    0    0  0.00000000000E+00  0.00000000000E+00 -0.84948336707E+02  0.32856053937E+04  0.32845070533E+04 0.  0.
        1    1    3    3  502    0  0.45229194214E+03  0.13495660837E+04  0.77700672693E+03  0.16216152654E+04  0.50400001928E-02 0.  1.
       -1    1    3    3    0  502 -0.45229194214E+03 -0.13495660837E+04 -0.86195506363E+03  0.16639901283E+04  0.50400001928E-02 0. -1.
</event>
<event>
 5   0  0.2080828E-07  0.3345706E+04  0.7818609E-02  0.8151362E-01
        1   -1    0    0  501    0  0.00000000000E+00  0.00000000000E+00  0.12989901076E+04  0.12989901077E+04  0.50400001928E-02 0. -1.
       -1   -1    0    0    0  501  0.00000000000E+00  0.00000000000E+00 -0.21543177863E+04  0.21543177863E+04  0.50400001928E-02 0.  1.
    10030    2    1    2    0    0  0.00000000000E+00  0.00000000000E+00 -0.85532767866E+03  0.34533078940E+04  0.33457061994E+04 0.  0.
        1    1    3    3  502    0 -0.81302636497E+03 -0.74612213209E+03 -0.17253688730E+04  0.20480741818E+04  0.50400001928E-02 0.  1.
       -1    1    3    3    0  502  0.81302636497E+03  0.74612213209E+03  0.87004119431E+03  0.14052337122E+04  0.50400001928E-02 0. -1.
</event>
<event>
 5   0  0.6258718E-07  0.3296964E+04  0.7818609E-02  0.8163668E-01
        2   -1    0    0  501    0  0.00000000000E+00  0.00000000000E+00  0.26570081449E+04  0.26570081449E+04  0.25500000920E-02 0.  1.
       -2   -1    0    0    0  501  0.00000000000E+00  0.00000000000E+00 -0.10227640345E+04  0.10227640345E+04  0.25500000920E-02 0. -1.
    10030    2    1    2    0    0  0.00000000000E+00  0.00000000000E+00  0.16342441103E+04  0.36797721794E+04  0.32969636759E+04 0.  0.
        5    1    3    3  502    0  0.39420576956E+03  0.11226233803E+04 -0.45631370348E+03  0.12743334449E+04  0.46999998093E+01 0. -1.
       -5    1    3    3    0  502 -0.39420576956E+03 -0.11226233803E+04  0.20905578138E+04  0.24054387345E+04  0.46999998093E+01 0.  1.
</event>
<event>
 5   0  0.6351753E-07  0.3256325E+04  0.7818609E-02  0.8174098E-01
        2   -1    0    0  501    0  0.00000000000E+00  0.00000000000E+00  0.20069160996E+04  0.20069160996E+04  0.25500000920E-02 0. -1.
       -2   -1    0    0    0  501  0.00000000000E+00  0.00000000000E+00 -0.13208890331E+04  0.13208890331E+04  0.25500000920E-02 0.  1.
    10030    2    1    2    0    0  0.00000000000E+00  0.00000000000E+00  0.68602706653E+03  0.33278051328E+04  0.32563252088E+04 0.  0.
        3    1    3    3  502    0  0.62126938342E+03 -0.49694481330E+03 -0.11087267865E+04  0.13646262827E+04  0.10100000352E+00 0.  1.
       -3    1    3    3    0  502 -0.62126938342E+03  0.49694481330E+03  0.17947538530E+04  0.19631788500E+04  0.10100000352E+00 0. -1.
</event>
<event>
 5   0  0.6258718E-07  0.3290419E+04  0.7818609E-02  0.8165338E-01
        2   -1    0    0  501    0  0.00000000000E+00  0.00000000000E+00  0.21191092981E+04  0.21191092981E+04  0.25500000920E-02 0.  1.
       -2   -1    0    0    0  501  0.00000000000E+00  0.00000000000E+00 -0.12772886204E+04  0.12772886204E+04  0.25500000920E-02 0. -1.
    10030    2    1    2    0    0  0.00000000000E+00  0.00000000000E+00  0.84182067765E+03  0.33963979185E+04  0.32904189349E+04 0.  0.
        5    1    3    3  502    0  0.79739113839E+03  0.62076492758E+03  0.17609976219E+04  0.20303488462E+04  0.46999998093E+01 0.  1.
       -5    1    3    3    0  502 -0.79739113839E+03 -0.62076492758E+03 -0.91917694429E+03  0.13660490723E+04  0.46999998093E+01 0. -1.
</event>
<event>
 5   0  0.2057130E-07  0.3291356E+04  0.7818609E-02  0.8165098E-01
       -1   -1    0    0    0  501  0.00000000000E+00  0.00000000000E+00  0.13703604761E+04  0.13703604761E+04  0.50400001928E-02 0. -1.
        1   -1    0    0  501    0  0.00000000000E+00  0.00000000000E+00 -0.19763095570E+04  0.19763095570E+04  0.50400001928E-02 0.  1.
    10030    2    1    2    0    0  0.00000000000E+00  0.00000000000E+00 -0.60594908085E+03  0.33466700331E+04  0.32913562588E+04 0.  0.
        2    1    3    3  502    0 -0.12352466249E+04 -0.73579833100E+03  0.51111999748E+03  0.15259348151E+04  0.25500000920E-02 0.  1.
       -2    1    3    3    0  502  0.12352466249E+04  0.73579833100E+03 -0.11170690783E+04  0.18207352180E+04  0.25500000920E-02 0. -1.
</event>
<event>
 5   0  0.6426079E-07  0.3300077E+04  0.7818609E-02  0.8162876E-01
       -2   -1    0    0    0  501  0.00000000000E+00  0.00000000000E+00  0.13214209250E+04  0.13214209250E+04  0.25500000920E-02 0.  1.
        2   -1    0    0  501    0  0.00000000000E+00  0.00000000000E+00 -0.20603787606E+04  0.20603787606E+04  0.25500000920E-02 0. -1.
    10030    2    1    2    0    0  0.00000000000E+00  0.00000000000E+00 -0.73895783560E+03  0.33817996857E+04  0.33000773371E+04 0.  0.
        4    1    3    3  502    0  0.11922382015E+04  0.61973111319E+03 -0.13508620726E+04  0.19053421042E+04  0.12699999809E+01 0. -1.
       -4    1    3    3    0  502 -0.11922382015E+04 -0.61973111319E+03  0.61190423704E+03  0.14764575815E+04  0.12699999809E+01 0.  1.
</event>
<event>
 5   0  0.2037333E-07  0.3302390E+04  0.7818609E-02  0.8162287E-01
       -1   -1    0    0    0  501  0.00000000000E+00  0.00000000000E+00  0.17514377541E+04  0.17514377541E+04  0.50400001928E-02 0.  1.
        1   -1    0    0  501    0  0.00000000000E+00  0.00000000000E+00 -0.15566898097E+04  0.15566898098E+04  0.50400001928E-02 0. -1.
    10030    2    1    2    0    0  0.00000000000E+00  0.00000000000E+00  0.19474794431E+03  0.33081275638E+04  0.33023902278E+04 0.  0.
        3    1    3    3  502    0  0.88397504022E+03  0.10159225908E+04 -0.85976217377E+03  0.15977176183E+04  0.10100000352E+00 0. -1.
       -3    1    3    3    0  502 -0.88397504022E+03 -0.10159225908E+04  0.10545101181E+04  0.17104099455E+04  0.10100000352E+00 0.  1.
</event>
<event>
 5   0  0.6351753E-07  0.3303389E+04  0.7818609E-02  0.8162034E-01
       -2   -1    0    0    0  501  0.00000000000E+00  0.00000000000E+00  0.17656272637E+04  0.17656272637E+04  0.25500000920E-02 0. -1.
        2   -1    0    0  501    0  0.00000000000E+00  0.00000000000E+00 -0.15451133761E+04  0.15451133761E+04  0.25500000920E-02 0.  1.
    10030    2    1    2    0    0  0.00000000000E+00  0.00000000000E+00  0.22051388765E+03  0.33107406398E+04  0.33033887463E+04 0.  0.
        3    1    3    3  502    0  0.10410938091E+04 -0.75191971648E+03 -0.93072436317E+03  0.15860351288E+04  0.10100000352E+00 0.  1.
       -3    1    3    3    0  502 -0.10410938091E+04  0.75191971648E+03  0.11512382508E+04  0.17247055110E+04  0.10100000352E+00 0. -1.
</event>
<event>
 5   0  0.2080828E-07  0.3304697E+04  0.7818609E-02  0.8161701E-01
        1   -1    0    0  501    0  0.00000000000E+00  0.00000000000E+00  0.20501555933E+04  0.20501555933E+04  0.50400001928E-02 0.  1.
       -1   -1    0    0    0  501  0.00000000000E+00  0.00000000000E+00 -0.13317305592E+04  0.13317305592E+04  0.50400001928E-02 0. -1.
    10030    2    1    2    0    0  0.00000000000E+00  0.00000000000E+00  0.71842503408E+03  0.33818861525E+04  0.33046965699E+04 0.  0.
        1    1    3    3  502    0 -0.17927810312E+03  0.14140371124E+04 -0.49614131702E+03  0.15092374896E+04  0.50400001928E-02 0. -1.
       -1    1    3    3    0  502  0.17927810312E+03 -0.14140371124E+04  0.12145663511E+04  0.18726486629E+04  0.50400001928E-02 0.  1.
</event>
<event>
 5   0  0.6258718E-07  0.3315810E+04  0.7818609E-02  0.8158884E-01
        2   -1    0    0  501    0  0.00000000000E+00  0.00000000000E+00  0.29398081794E+04  0.29398081794E+04  0.25500000920E-02 0.  1.
       -2   -1    0    0    0  501  0.00000000000E+00  0.00000000000E+00 -0.93497568803E+03  0.93497568803E+03  0.25500000920E-02 0. -1.
    10030    2    1    2    0    0  0.00000000000E+00  0.00000000000E+00  0.20048324914E+04  0.38747838674E+04  0.33158101123E+04 0.  0.
        5    1    3    3  502    0  0.49545260521E+03 -0.15665057997E+04  0.74317778652E+03  0.18032606625E+04  0.46999998093E+01 0. -1.
       -5    1    3    3    0  502 -0.49545260521E+03  0.15665057997E+04  0.12616547048E+04  0.20715232049E+04  0.46999998093E+01 0.  1.
</event>
<event>
 5   0  0.2080770E-07  0.3302327E+04  0.7818609E-02  0.8162304E-01
       -1   -1    0    0    0  501  0.00000000000E+00  0.00000000000E+00  0.12252747471E+04  0.12252747471E+04  0.50400001928E-02 0. -1.
        1   -1    0    0  501    0  0.00000000000E+00  0.00000000000E+00 -0.22250851835E+04  0.22250851835E+04  0.50400001928E-02 0.  1.
    10030    2    1    2    0    0  0.00000000000E+00  0.00000000000E+00 -0.99981043639E+03  0.34503599305E+04  0.33023268678E+04 0.  0.
        4    1    3    3  502    0 -0.52680387255E+03 -0.38836678136E+03  0.10839599990E+04  0.12662235069E+04  0.12699999809E+01 0. -1.
       -4    1    3    3    0  502  0.52680387255E+03  0.38836678136E+03 -0.20837704354E+04  0.21841364237E+04  0.12699999809E+01 0.  1.
</event>
<event>
 5   0  0.6424183E-07  0.3299994E+04  0.7818609E-02  0.8162897E-01
        2   -1    0    0  501    0  0.00000000000E+00  0.00000000000E+00  0.22767478750E+04  0.22767478750E+04  0.25500000920E-02 0.  1.
       -2   -1    0    0    0  501  0.00000000000E+00  0.00000000000E+00 -0.11957801874E+04  0.11957801874E+04  0.25500000920E-02 0. -1.
    10030    2    1    2    0    0  0.00000000000E+00  0.00000000000E+00  0.10809676876E+04  0.34725280623E+04  0.32999939397E+04 0.  0.
        2    1    3    3  502    0  0.71249112110E+03  0.25284584350E+03 -0.10027945800E+04  0.12558549231E+04  0.25500000920E-02 0. -1.
       -2    1    3    3    0  502 -0.71249112110E+03 -0.25284584350E+03  0.20837622676E+04  0.22166731392E+04  0.25500000920E-02 0.  1.
</event>
<event>
 5   0  0.6351753E-07  0.3315884E+04  0.7818609E-02  0.8158866E-01
       -2   -1    0    0    0  501  0.00000000000E+00  0.00000000000E+00  0.16752271830E+04  0.16752271830E+04  0.25500000920E-02 0.  1.
        2   -1    0    0  501    0  0.00000000000E+00  0.00000000000E+00 -0.16408348735E+04  0.16408348735E+04  0.25500000920E-02 0. -1.
    10030    2    1    2    0    0  0.00000000000E+00  0.00000000000E+00  0.34392309473E+02  0.33160620564E+04  0.33158837029E+04 0.  0.
        3    1    3    3  502    0 -0.16204693204E+04 -0.15016580467E+03 -0.29952355630E+03  0.16547461915E+04  0.10100000352E+00 0. -1.
       -3    1    3    3    0  502  0.16204693204E+04  0.15016580467E+03  0.33391586577E+03  0.16613158649E+04  0.10100000352E+00 0.  1.
</event>
<event>
 5   0  0.2087665E-07  0.3300506E+04  0.7818609E-02  0.8162767E-01
       -1   -1    0    0    0  501  0.00000000000E+00  0.00000000000E+00  0.24523509638E+04  0.24523509638E+04  0.50400001928E-02 0.  1.
        1   -1    0    0  501    0  0.00000000000E+00  0.00000000000E+00 -0.11104999257E+04  0.11104999257E+04  0.50400001928E-02 0. -1.
    10030    2    1    2    0    0  0.00000000000E+00  0.00000000000E+00  0.13418510381E+04  0.35628508895E+04  0.33005063630E+04 0.  0.
        5    1    3    3  502    0  0.39639856099E+03  0.12567787438E+04 -0.40135195167E+03  0.13775812532E+04  0.46999998093E+01 0. -1.
       -5    1    3    3    0  502 -0.39639856099E+03 -0.12567787438E+04  0.17432029897E+04  0.21852696363E+04  0.46999998093E+01 0.  1.
</event>
<event>
 5   0  0.2057130E-07  0.3301898E+04  0.7818609E-02  0.8162413E-01
       -1   -1    0    0    0  501  0.00000000000E+00  0.00000000000E+00  0.26313003254E+04  0.26313003254E+04  0.50400001928E-02 0.  1.
        1   -1    0    0  501    0  0.00000000000E+00  0.00000000000E+00 -0.10358501146E+04  0.10358501146E+04  0.50400001928E-02 0. -1.
    10030    2    1    2    0    0  0.00000000000E+00  0.00000000000E+00  0.15954502108E+04  0.36671504400E+04  0.33018980866E+04 0.  0.
        2    1    3    3  502    0  0.66466876067E+03  0.14086738519E+04  0.14055149533E+04  0.20980035429E+04  0.25500000920E-02 0. -1.
       -2    1    3    3    0  502 -0.66466876067E+03 -0.14086738519E+04  0.18993525756E+03  0.15691468970E+04  0.25500000920E-02 0.  1.
</event>
<event>
 5   0  0.6377741E-07  0.3330902E+04  0.7818609E-02  0.8155077E-01
        2   -1    0    0  501    0  0.00000000000E+00  0.00000000000E+00  0.14915490292E+04  0.14915490292E+04  0.25500000920E-02 0. -1.
       -2   -1    0    0    0  501  0.00000000000E+00  0.00000000000E+00 -0.18596282583E+04  0.18596282583E+04  0.25500000920E-02 0.  1.
    10030    2    1    2    0    0  0.00000000000E+00  0.00000000000E+00 -0.36807922914E+03  0.33511772875E+04  0.33309018138E+04 0.  0.
        1    1    3    3  502    0 -0.11694545557E+04 -0.86299164617E+02 -0.13738860342E+04  0.18062763739E+04  0.50400001928E-02 0. -1.
       -1    1    3    3    0  502  0.11694545557E+04  0.86299164617E+02  0.10058068051E+04  0.15449009136E+04  0.50400001928E-02 0.  1.
</event>
<event>
 5   0  0.6424183E-07  0.3182712E+04  0.7818609E-02  0.8193398E-01
       -2   -1    0    0    0  501  0.00000000000E+00  0.00000000000E+00  0.12400630036E+04  0.12400630036E+04  0.25500000920E-02 0.  1.
        2   -1    0    0  501    0  0.00000000000E+00  0.00000000000E+00 -0.20421657980E+04  0.20421657980E+04  0.25500000920E-02 0. -1.
    10030    2    1    2    0    0  0.00000000000E+00  0.00000000000E+00 -0.80210279435E+03  0.32822288016E+04  0.31827122103E+04 0.  0.
        2    1    3    3  502    0  0.80795382288E+03  0.13706608203E+04 -0.43222553792E+03  0.16487326587E+04  0.25500000920E-02 0. -1.
       -2    1    3    3    0  502 -0.80795382288E+03 -0.13706608203E+04 -0.36987725643E+03  0.16334961430E+04  0.25500000920E-02 0.  1.
</event>
<event>
 5   0  0.2057130E-07  0.3295367E+04  0.7818609E-02  0.8164075E-01
       -1   -1    0    0    0  501  0.00000000000E+00  0.00000000000E+00  0.27610943351E+04  0.27610943351E+04  0.50400001928E-02 0. -1.
        1   -1    0    0  501    0  0.00000000000E+00  0.00000000000E+00 -0.98325547898E+03  0.98325547899E+03  0.50400001928E-02 0.  1.
    10030    2    1    2    0    0  0.00000000000E+00  0.00000000000E+00  0.17778388561E+04  0.37443498141E+04  0.32953671316E+04 0.  0.
        2    1    3    3  502    0 -0.12432508842E+04 -0.41272396678E+02  0.21166363942E+04  0.24551019932E+04  0.25500000920E-02 0. -1.
       -2    1    3    3    0  502  0.12432508842E+04  0.41272396678E+02 -0.33879753807E+03  0.12892478209E+04  0.25500000920E-02 0.  1.
</event>
<event>
 5   0  0.6426079E-07  0.3297693E+04  0.7818609E-02  0.8163483E-01
       -2   -1    0    0    0  501  0.00000000000E+00  0.00000000000E+00  0.26990276759E+04  0.26990276759E+04  0.25500000920E-02 0. -1.
        2   -1    0    0  501    0  0.00000000000E+00  0.00000000000E+00 -0.10072866052E+04  0.10072866052E+04  0.25500000920E-02 0.  1.
    10030    2    1    2    0    0  0.00000000000E+00  0.00000000000E+00  0.16917410707E+04  0.37063142811E+04  0.32976927843E+04 0.  0.
        4    1    3    3  502    0 -0.60175343496E+03  0.93537276897E+03 -0.52219475813E+03  0.12287059826E+04  0.12699999809E+01 0.  1.
       -4    1    3    3    0  502  0.60175343496E+03 -0.93537276897E+03  0.22139358289E+04  0.24776082985E+04  0.12699999809E+01 0. -1.
</event>
<event>
 5   0  0.6258718E-07  0.3272608E+04  0.7818609E-02  0.8169901E-01
       -2   -1    0    0    0  501  0.00000000000E+00  0.00000000000E+00  0.12550728740E+04  0.12550728740E+04  0.25500000920E-02 0. -1.
        2   -1    0    0  501    0  0.00000000000E+00  0.00000000000E+00 -0.21333345175E+04  0.21333345175E+04  0.25500000920E-02 0.  1.
    10030    2    1    2    0    0  0.00000000000E+00  0.00000000000E+00 -0.87826164349E+03  0.33884073914E+04  0.32726076966E+04 0.  0.
        5    1    3    3  502    0 -0.28163170805E+03  0.14936649690E+04  0.18821031181E+03  0.15315993830E+04  0.46999998093E+01 0. -1.
       -5    1    3    3    0  502  0.28163170805E+03 -0.14936649690E+04 -0.10664719553E+04  0.18568080084E+04  0.46999998093E+01 0.  1.
</event>
<event>
 5   0  0.6426079E-07  0.3231552E+04  0.7818609E-02  0.8180534E-01
       -2   -1    0    0    0  501  0.00000000000E+00  0.00000000000E+00  0.24287118738E+04  0.24287118738E+04  0.25500000920E-02 0.  1.
        2   -1    0    0  501    0  0.00000000000E+00  0.00000000000E+00 -0.10749449941E+04  0.10749449941E+04  0.25500000920E-02 0. -1.
    10030    2    1    2    0    0  0.00000000000E+00  0.00000000000E+00  0.13537668797E+04  0.35036568679E+04  0.32315517455E+04 0.  0.
        4    1    3    3  502    0  0.13797247973E+04  0.83108572623E+03  0.81567008791E+03  0.18054537673E+04  0.12699999809E+01 0. -1.
       -4    1    3    3    0  502 -0.13797247973E+04 -0.83108572623E+03  0.53809679182E+03  0.16982031006E+04  0.12699999809E+01 0.  1.
</event>
<event>
 5   0  0.6424183E-07  0.3304286E+04  0.7818609E-02  0.8161806E-01
       -2   -1    0    0    0  501  0.00000000000E+00  0.00000000000E+00  0.13307012624E+04  0.13307012624E+04  0.25500000920E-02 0. -1.
        2   -1    0    0  501    0  0.00000000000E+00  0.00000000000E+00 -0.20512315259E+04  0.20512315259E+04  0.25500000920E-02 0.  1.
    10030    2    1    2    0    0  0.00000000000E+00  0.00000000000E+00 -0.72053026352E+03  0.33819327883E+04  0.33042859325E+04 0.  0.
        2    1    3    3  502    0 -0.12126792556E+04 -0.42160711617E+03 -0.14245232349E+04  0.19177095672E+04  0.25500000920E-02 0.  1.
       -2    1    3    3    0  502  0.12126792556E+04  0.42160711617E+03  0.70399297138E+03  0.14642232211E+04  0.25500000920E-02 0. -1.
</event>
<event>
 5   0  0.2057130E-07  0.3295693E+04  0.7818609E-02  0.8163992E-01
       -1   -1    0    0    0  501  0.00000000000E+00  0.00000000000E+00  0.10664395747E+04  0.10664395747E+04  0.50400001928E-02 0. -1.
        1   -1    0    0  501    0  0.00000000000E+00  0.00000000000E+00 -0.25462277663E+04  0.25462277663E+04  0.50400001928E-02 0.  1.
    10030    2    1    2    0    0  0.00000000000E+00  0.00000000000E+00 -0.14797881916E+04  0.36126673410E+04  0.32956929809E+04 0.  0.
        2    1    3    3  502    0 -0.12193315252E+04 -0.10461441484E+04 -0.33831096793E+03  0.16418408140E+04  0.25500000920E-02 0. -1.
       -2    1    3    3    0  502  0.12193315252E+04  0.10461441484E+04 -0.11414772237E+04  0.19708265270E+04  0.25500000920E-02 0.  1.
</event>
<event>
 5   0  0.2080828E-07  0.3298414E+04  0.7818609E-02  0.8163299E-01
       -1   -1    0    0    0  501  0.00000000000E+00  0.00000000000E+00  0.15154322827E+04  0.15154322827E+04  0.50400001928E-02 0.  1.
        1   -1    0    0  501    0  0.00000000000E+00  0.00000000000E+00 -0.17947910375E+04  0.17947910375E+04  0.50400001928E-02 0. -1.
    10030    2    1    2    0    0  0.00000000000E+00  0.00000000000E+00 -0.27935875483E+03  0.33102233202E+04  0.32984143335E+04 0.  0.
        1    1    3    3  502    0  0.11684288099E+04 -0.11484129082E+04  0.50223316379E+02  0.16390852549E+04  0.50400001928E-02 0. -1.
       -1    1    3    3    0  502 -0.11684288099E+04  0.11484129082E+04 -0.32958207121E+03  0.16711380653E+04  0.50400001928E-02 0.  1.
</event>
<event>
 5   0  0.6351753E-07  0.3296696E+04  0.7818609E-02  0.8163737E-01
        2   -1    0    0  501    0  0.00000000000E+00  0.00000000000E+00  0.31061629408E+04  0.31061629408E+04  0.25500000920E-02 0. -1.
       -2   -1    0    0    0  501  0.00000000000E+00  0.00000000000E+00 -0.87472917088E+03  0.87472917088E+03  0.25500000920E-02 0.  1.
    10030    2    1    2    0    0  0.00000000000E+00  0.00000000000E+00  0.22314337699E+04  0.39808921117E+04  0.32966961242E+04 0.  0.
        3    1    3    3  502    0  0.31424985714E+03  0.57053508339E+03 -0.71273462217E+03  0.96553296471E+03  0.10100000352E+00 0.  1.
       -3    1    3    3    0  502 -0.31424985714E+03 -0.57053508339E+03  0.29441683921E+04  0.30153591470E+04  0.10100000352E+00 0. -1.
</event>
<event>
 5   0  0.2080828E-07  0.3316016E+04  0.7818609E-02  0.8158832E-01
        1   -1    0    0  501    0  0.00000000000E+00  0.00000000000E+00  0.18807021641E+04  0.18807021641E+04  0.50400001928E-02 0.  1.
       -1   -1    0    0    0  501  0.00000000000E+00  0.00000000000E+00 -0.14616832529E+04  0.14616832530E+04  0.50400001928E-02 0. -1.
    10030    2    1    2    0    0  0.00000000000E+00  0.00000000000E+00  0.41901891112E+03  0.33423854170E+04  0.33160161984E+04 0.  0.
        1    1    3    3  502    0 -0.11252013893E+03  0.48294426922E+03 -0.13851888869E+04  0.14712729866E+04  0.50400001928E-02 0. -1.
       -1    1    3    3    0  502  0.11252013893E+03 -0.48294426922E+03  0.18042077980E+04  0.18711124304E+04  0.50400001928E-02 0.  1.
</event>
<event>
 5   0  0.6424183E-07  0.3297077E+04  0.7818609E-02  0.8163639E-01
        2   -1    0    0  501    0  0.00000000000E+00  0.00000000000E+00  0.16557098649E+04  0.16557098649E+04  0.25500000920E-02 0.  1.
       -2   -1    0    0    0  501  0.00000000000E+00  0.00000000000E+00 -0.16413985146E+04  0.16413985146E+04  0.25500000920E-02 0. -1.
    10030    2    1    2    0    0  0.00000000000E+00  0.00000000000E+00  0.14311350295E+02  0.32971083795E+04  0.32970773196E+04 0.  0.
        2    1    3    3  502    0 -0.79962667462E+03  0.27721651664E+03  0.14218873126E+04  0.16546949403E+04  0.25500000920E-02 0.  1.
       -2    1    3    3    0  502  0.79962667462E+03 -0.27721651664E+03 -0.14075759623E+04  0.16424134392E+04  0.25500000920E-02 0. -1.
</event>
<event>
 5   0  0.6258718E-07  0.3289447E+04  0.7818609E-02  0.8165586E-01
        2   -1    0    0  501    0  0.00000000000E+00  0.00000000000E+00  0.14202511803E+04  0.14202511803E+04  0.25500000920E-02 0. -1.
       -2   -1    0    0    0  501  0.00000000000E+00  0.00000000000E+00 -0.19046741015E+04  0.19046741015E+04  0.25500000920E-02 0.  1.
    10030    2    1    2    0    0  0.00000000000E+00  0.00000000000E+00 -0.48442292119E+03  0.33249252817E+04  0.32894471515E+04 0.  0.
        5    1    3    3  502    0 -0.41615251615E+03 -0.52704632276E+03 -0.17597814402E+04  0.18835640553E+04  0.46999998093E+01 0.  1.
       -5    1    3    3    0  502  0.41615251615E+03  0.52704632276E+03  0.12753585190E+04  0.14413612265E+04  0.46999998093E+01 0. -1.
</event>
<event>
 5   0  0.2037333E-07  0.3304552E+04  0.7818609E-02  0.8161738E-01
       -1   -1    0    0    0  501  0.00000000000E+00  0.00000000000E+00  0.13242238755E+04  0.13242238755E+04  0.50400001928E-02 0.  1.
        1   -1    0    0  501    0  0.00000000000E+00  0.00000000000E+00 -0.20615975792E+04  0.20615975792E+04  0.50400001928E-02 0. -1.
    10030    2    1    2    0    0  0.00000000000E+00  0.00000000000E+00 -0.73737370365E+03  0.33858214547E+04  0.33045524575E+04 0.  0.
        3    1    3    3  502    0  0.70900480462E+03  0.72112316746E+03  0.97008826334E+03  0.14013485236E+04  0.10100000352E+00 0.  1.
       -3    1    3    3    0  502 -0.70900480462E+03 -0.72112316746E+03 -0.17074619670E+04  0.19844729312E+04  0.10100000352E+00 0. -1.
</event>
<event>
 5   0  0.2080828E-07  0.3311442E+04  0.7818609E-02  0.8159990E-01
       -1   -1    0    0    0  501  0.00000000000E+00  0.00000000000E+00  0.15747880030E+04  0.15747880030E+04  0.50400001928E-02 0.  1.
        1   -1    0    0  501    0  0.00000000000E+00  0.00000000000E+00 -0.17408135857E+04  0.17408135857E+04  0.50400001928E-02 0. -1.
    10030    2    1    2    0    0  0.00000000000E+00  0.00000000000E+00 -0.16602558273E+03  0.33156015887E+04  0.33114421935E+04 0.  0.
        1    1    3    3  502    0  0.59738675619E+03 -0.14326209900E+04  0.49402569397E+03  0.16289061434E+04  0.50400001928E-02 0.  1.
       -1    1    3    3    0  502 -0.59738675619E+03  0.14326209900E+04 -0.66005127670E+03  0.16866954454E+04  0.50400001928E-02 0. -1.
</event>
<event>
 5   0  0.2087665E-07  0.3410459E+04  0.7818609E-02  0.8135344E-01
        1   -1    0    0  501    0  0.00000000000E+00  0.00000000000E+00  0.22350870063E+04  0.22350870063E+04  0.50400001928E-02 0. -1.
       -1   -1    0    0    0  501  0.00000000000E+00  0.00000000000E+00 -0.13009816238E+04  0.13009816238E+04  0.50400001928E-02 0.  1.
    10030    2    1    2    0    0  0.00000000000E+00  0.00000000000E+00  0.93410538249E+03  0.35360686302E+04  0.34104586923E+04 0.  0.
        5    1    3    3  502    0  0.75729645902E+03 -0.14731657747E+04  0.88702638913E+03  0.18789766448E+04  0.46999998093E+01 0.  1.
       -5    1    3    3    0  502 -0.75729645902E+03  0.14731657747E+04  0.47078993357E+02  0.16570919854E+04  0.46999998093E+01 0. -1.
</event>
<event>
 5   0  0.2037333E-07  0.3298482E+04  0.7818609E-02  0.8163282E-01
       -1   -1    0    0    0  501  0.00000000000E+00  0.00000000000E+00  0.15485950298E+04  0.15485950298E+04  0.50400001928E-02 0. -1.
        1   -1    0    0  501    0  0.00000000000E+00  0.00000000000E+00 -0.17564277102E+04  0.17564277102E+04  0.50400001928E-02 0.  1.
    10030    2    1    2    0    0  0.00000000000E+00  0.00000000000E+00 -0.20783268043E+03  0.33050227400E+04  0.32984816035E+04 0.  0.
        3    1    3    3  502    0  0.11094041799E+03 -0.59169683826E+03 -0.16424032864E+04  0.17492574111E+04  0.10100000352E+00 0.  1.
       -3    1    3    3    0  502 -0.11094041799E+03  0.59169683826E+03  0.14345706060E+04  0.15557653289E+04  0.10100000352E+00 0. -1.
</event>
<event>
 5   0  0.6258718E-07  0.3267188E+04  0.7818609E-02  0.8171295E-01
       -2   -1    0    0    0  501  0.00000000000E+00  0.00000000000E+00  0.11336549688E+04  0.11336549688E+04  0.25500000920E-02 0. -1.
        2   -1    0    0  501    0  0.00000000000E+00  0.00000000000E+00 -0.23540048274E+04  0.23540048274E+04  0.25500000920E-02 0.  1.
    10030    2    1    2    0    0  0.00000000000E+00  0.00000000000E+00 -0.12203498586E+04  0.34876597962E+04  0.32671879464E+04 0.  0.
        5    1    3    3  502    0 -0.34732025853E+03 -0.15634599463E+04 -0.26663715530E+03  0.16236242879E+04  0.46999998093E+01 0. -1.
       -5    1    3    3    0  502  0.34732025853E+03  0.15634599463E+04 -0.95371270335E+03  0.18640355083E+04  0.46999998093E+01 0.  1.
</event>
<event>
 5   0  0.6258718E-07  0.3337426E+04  0.7818609E-02  0.8153437E-01
       -2   -1    0    0    0  501  0.00000000000E+00  0.00000000000E+00  0.13239047918E+04  0.13239047918E+04  0.25500000920E-02 0.  1.
        2   -1    0    0  501    0  0.00000000000E+00  0.00000000000E+00 -0.21033252035E+04  0.21033252035E+04  0.25500000920E-02 0. -1.
    10030    2    1    2    0    0  0.00000000000E+00  0.00000000000E+00 -0.77942041179E+03  0.34272299953E+04  0.33374255441E+04 0.  0.
        5    1    3    3  502    0  0.46478214624E+03 -0.12260944385E+04  0.67017170175E+03  0.14725767265E+04  0.46999998093E+01 0.  1.
       -5    1    3    3    0  502 -0.46478214624E+03  0.12260944385E+04 -0.14495921135E+04  0.19546532688E+04  0.46999998093E+01 0. -1.
</event>
<event>
 5   0  0.2080828E-07  0.3311593E+04  0.7818609E-02  0.8159952E-01
       -1   -1    0    0    0  501  0.00000000000E+00  0.00000000000E+00  0.16934993214E+04  0.16934993214E+04  0.50400001928E-02 0.  1.
        1   -1    0    0  501    0  0.00000000000E+00  0.00000000000E+00 -0.16189331816E+04  0.16189331816E+04  0.50400001928E-02 0. -1.
    10030    2    1    2    0    0  0.00000000000E+00  0.00000000000E+00  0.74566139818E+02  0.33124325030E+04  0.33115931177E+04 0.  0.
        1    1    3    3  502    0 -0.62597196263E+03  0.15213228894E+04 -0.15090821437E+03  0.16519798791E+04  0.50400001928E-02 0. -1.
       -1    1    3    3    0  502  0.62597196263E+03 -0.15213228894E+04  0.22547435419E+03  0.16604526239E+04  0.50400001928E-02 0.  1.
</event>
<event>
 5   0  0.1994250E-07  0.3276809E+04  0.7818609E-02  0.8168821E-01
        3   -1    0    0  501    0  0.00000000000E+00  0.00000000000E+00  0.18868359539E+04  0.18868359566E+04  0.10100000352E+00 0.  1.
       -3   -1    0    0    0  501  0.00000000000E+00  0.00000000000E+00 -0.14226831685E+04  0.14226831721E+04  0.10100000352E+00 0. -1.
    10030    2    1    2    0    0  0.00000000000E+00  0.00000000000E+00  0.46415278544E+03  0.33095191287E+04  0.32768092797E+04 0.  0.
        2    1    3    3  502    0 -0.77647776744E+02 -0.11199018450E+04 -0.97321815043E+03  0.14857196532E+04  0.25500000920E-02 0. -1.
       -2    1    3    3    0  502  0.77647776744E+02  0.11199018450E+04  0.14373709359E+04  0.18237994755E+04  0.25500000920E-02 0.  1.
</event>
<event>
 5   0  0.6351753E-07  0.3305359E+04  0.7818609E-02  0.8161533E-01
       -2   -1    0    0    0  501  0.00000000000E+00  0.00000000000E+00  0.16959437110E+04  0.16959437110E+04  0.25500000920E-02 0.  1.
        2   -1    0    0  501    0  0.00000000000E+00  0.00000000000E+00 -0.16105190305E+04  0.16105190305E+04  0.25500000920E-02 0. -1.
    10030    2    1    2    0    0  0.00000000000E+00  0.00000000000E+00  0.85424680529E+02  0.33064627415E+04  0.33053590554E+04 0.  0.
        3    1    3    3  502    0  0.49945662342E+03  0.35648620364E+03 -0.14923391644E+04  0.16135722865E+04  0.10100000352E+00 0. -1.
       -3    1    3    3    0  502 -0.49945662342E+03 -0.35648620364E+03  0.15777638449E+04  0.16928904550E+04  0.10100000352E+00 0.  1.
</event>
<event>
 5   0  0.6258718E-07  0.3290620E+04  0.7818609E-02  0.8165286E-01
        2   -1    0    0  501    0  0.00000000000E+00  0.00000000000E+00  0.11933744768E+04  0.11933744768E+04  0.25500000920E-02 0.  1.
       -2   -1    0    0    0  501  0.00000000000E+00  0.00000000000E+00 -0.22683958964E+04  0.22683958964E+04  0.25500000920E-02 0. -1.
    10030    2    1    2    0    0  0.00000000000E+00  0.00000000000E+00 -0.10750214195E+04  0.34617703732E+04  0.32906204680E+04 0.  0.
        5    1    3    3  502    0  0.24880123068E+02  0.10208886780E+03 -0.22648553548E+04  0.22672964133E+04  0.46999998093E+01 0. -1.
       -5    1    3    3    0  502 -0.24880123068E+02 -0.10208886780E+03  0.11898339353E+04  0.11944739599E+04  0.46999998093E+01 0.  1.
</event>
<event>
 5   0  0.6426079E-07  0.3308239E+04  0.7818609E-02  0.8160802E-01
        2   -1    0    0  501    0  0.00000000000E+00  0.00000000000E+00  0.11991325854E+04  0.11991325854E+04  0.25500000920E-02 0.  1.
       -2   -1    0    0    0  501  0.00000000000E+00  0.00000000000E+00 -0.22817417504E+04  0.22817417504E+04  0.25500000920E-02 0. -1.
    10030    2    1    2    0    0  0.00000000000E+00  0.00000000000E+00 -0.10826091650E+04  0.34808743358E+04  0.33082387365E+04 0.  0.
        4    1    3    3  502    0 -0.77218997966E+03  0.14596490000E+04 -0.44007214807E+03  0.17089522159E+04  0.12699999809E+01 0.  1.
       -4    1    3    3    0  502  0.77218997966E+03 -0.14596490000E+04 -0.64253701692E+03  0.17719221199E+04  0.12699999809E+01 0. -1.
</event>
<event>
 5   0  0.2037333E-07  0.3302142E+04  0.7818609E-02  0.8162351E-01
       -1   -1    0    0    0  501  0.00000000000E+00  0.00000000000E+00  0.13697294243E+04  0.13697294243E+04  0.50400001928E-02 0.  1.
        1   -1    0    0  501    0  0.00000000000E+00  0.00000000000E+00 -0.19901994253E+04  0.19901994253E+04  0.50400001928E-02 0. -1.
    10030    2    1    2    0    0  0.00000000000E+00  0.00000000000E+00 -0.62047000095E+03  0.33599288496E+04  0.33021415554E+04 0.  0.
        3    1    3    3  502    0  0.42069349017E+03 -0.47045329758E+03 -0.18626229599E+04  0.19666401854E+04  0.10100000352E+00 0. -1.
       -3    1    3    3    0  502 -0.42069349017E+03  0.47045329758E+03  0.12421529590E+04  0.13932886641E+04  0.10100000352E+00 0.  1.
</event>
<event>
 5   0  0.2080770E-07  0.3298374E+04  0.7818609E-02  0.8163309E-01
        1   -1    0    0  501    0  0.00000000000E+00  0.00000000000E+00  0.24896220470E+04  0.24896220470E+04  0.50400001928E-02 0. -1.
       -1   -1    0    0    0  501  0.00000000000E+00  0.00000000000E+00 -0.10924620205E+04  0.10924620205E+04  0.50400001928E-02 0.  1.
    10030    2    1    2    0    0  0.00000000000E+00  0.00000000000E+00  0.13971600265E+04  0.35820840675E+04  0.32983738610E+04 0.  0.
        4    1    3    3  502    0  0.11129312593E+03 -0.13809243837E+04  0.16702314276E+04  0.21700260247E+04  0.12699999809E+01 0. -1.
       -4    1    3    3    0  502 -0.11129312593E+03  0.13809243837E+04 -0.27307140112E+03  0.14120580428E+04  0.12699999809E+01 0.  1.
</event>
<event>
 5   0  0.2080770E-07  0.3318341E+04  0.7818609E-02  0.8158244E-01
       -1   -1    0    0    0  501  0.00000000000E+00  0.00000000000E+00  0.15002522152E+04  0.15002522152E+04  0.50400001928E-02 0.  1.
        1   -1    0    0  501    0  0.00000000000E+00  0.00000000000E+00 -0.18349230140E+04  0.18349230140E+04  0.50400001928E-02 0. -1.
    10030    2    1    2    0    0  0.00000000000E+00  0.00000000000E+00 -0.33467079884E+03  0.33351752292E+04  0.33183413425E+04 0.  0.
        4    1    3    3  502    0 -0.38767948552E+03  0.12957149352E+04 -0.11332900838E+04  0.17645171021E+04  0.12699999809E+01 0. -1.
       -4    1    3    3    0  502  0.38767948552E+03 -0.12957149352E+04  0.79861928496E+03  0.15706581270E+04  0.12699999809E+01 0.  1.
</event>
<event>
 5   0  0.2080770E-07  0.3310968E+04  0.7818609E-02  0.8160110E-01
        1   -1    0    0  501    0  0.00000000000E+00  0.00000000000E+00  0.15135201830E+04  0.15135201830E+04  0.50400001928E-02 0.  1.
       -1   -1    0    0    0  501  0.00000000000E+00  0.00000000000E+00 -0.18107634647E+04  0.18107634647E+04  0.50400001928E-02 0. -1.
    10030    2    1    2    0    0  0.00000000000E+00  0.00000000000E+00 -0.29724328170E+03  0.33242836476E+04  0.33109678648E+04 0.  0.
        4    1    3    3  502    0  0.19608008058E+03  0.78594225808E+03  0.13009551421E+04  0.15325268434E+04  0.12699999809E+01 0.  1.
       -4    1    3    3    0  502 -0.19608008058E+03 -0.78594225808E+03 -0.15981984238E+04  0.17917568043E+04  0.12699999809E+01 0. -1.
</event>
<event>
 5   0  0.2080828E-07  0.3318607E+04  0.7818609E-02  0.8158177E-01
       -1   -1    0    0    0  501  0.00000000000E+00  0.00000000000E+00  0.19984076306E+04  0.19984076306E+04  0.50400001928E-02 0.  1.
        1   -1    0    0  501    0  0.00000000000E+00  0.00000000000E+00 -0.13777409027E+04  0.13777409027E+04  0.50400001928E-02 0. -1.
    10030    2    1    2    0    0  0.00000000000E+00  0.00000000000E+00  0.62066672788E+03  0.33761485334E+04  0.33186068963E+04 0.  0.
        1    1    3    3  502    0  0.30608243860E+03 -0.47513584037E+02 -0.13480678905E+04  0.13831959505E+04  0.50400001928E-02 0. -1.
       -1    1    3    3    0  502 -0.30608243860E+03  0.47513584037E+02  0.19687346184E+04  0.19929525829E+04  0.50400001928E-02 0.  1.
</event>
<event>
 5   0  0.2087665E-07  0.3226997E+04  0.7818609E-02  0.8181723E-01
        1   -1    0    0  501    0  0.00000000000E+00  0.00000000000E+00  0.11241487601E+04  0.11241487601E+04  0.50400001928E-02 0. -1.
       -1   -1    0    0    0  501  0.00000000000E+00  0.00000000000E+00 -0.23158658152E+04  0.23158658152E+04  0.50400001928E-02 0.  1.
    10030    2    1    2    0    0  0.00000000000E+00  0.00000000000E+00 -0.11917170551E+04  0.34400145753E+04  0.32269971706E+04 0.  0.
        5    1    3    3  502    0 -0.13231255568E+04  0.42171909408E+03 -0.14715769281E+04  0.20233805817E+04  0.46999998093E+01 0.  1.
       -5    1    3    3    0  502  0.13231255568E+04 -0.42171909408E+03  0.27985987291E+03  0.14166339936E+04  0.46999998093E+01 0. -1.
</event>
<event>
 5   0  0.6426079E-07  0.3288479E+04  0.7818609E-02  0.8165833E-01
       -2   -1    0    0    0  501  0.00000000000E+00  0.00000000000E+00  0.15437888877E+04  0.15437888877E+04  0.25500000920E-02 0.  1.
        2   -1    0    0  501    0  0.00000000000E+00  0.00000000000E+00 -0.17512261766E+04  0.17512261766E+04  0.25500000920E-02 0. -1.
    10030    2    1    2    0    0  0.00000000000E+00  0.00000000000E+00 -0.20743728893E+03  0.32950150643E+04  0.32884789866E+04 0.  0.
        4    1    3    3  502    0 -0.38209617952E+03  0.14771765442E+04 -0.71769576845E+03  0.16861603904E+04  0.12699999809E+01 0. -1.
       -4    1    3    3    0  502  0.38209617952E+03 -0.14771765442E+04  0.51025847952E+03  0.16088546739E+04  0.12699999809E+01 0.  1.
</event>
<event>
 5   0  0.2087665E-07  0.3299439E+04  0.7818609E-02  0.8163038E-01
        1   -1    0    0  501    0  0.00000000000E+00  0.00000000000E+00  0.30483853920E+04  0.30483853920E+04  0.50400001928E-02 0. -1.
       -1   -1    0    0    0  501  0.00000000000E+00  0.00000000000E+00 -0.89279198626E+03  0.89279198628E+03  0.50400001928E-02 0.  1.
    10030    2    1    2    0    0  0.00000000000E+00  0.00000000000E+00  0.21555934058E+04  0.39411773783E+04  0.32994387699E+04 0.  0.
        5    1    3    3  502    0 -0.63984283752E+03  0.10376899122E+04  0.24054399811E+04  0.26967318746E+04  0.46999998093E+01 0. -1.
       -5    1    3    3    0  502  0.63984283752E+03 -0.10376899122E+04 -0.24984657536E+03  0.12444455037E+04  0.46999998093E+01 0.  1.
</event>
<event>
 5   0  0.6426079E-07  0.3294403E+04  0.7818609E-02  0.8164321E-01
        2   -1    0    0  501    0  0.00000000000E+00  0.00000000000E+00  0.20292508512E+04  0.20292508512E+04  0.25500000920E-02 0.  1.
       -2   -1    0    0    0  501  0.00000000000E+00  0.00000000000E+00 -0.13370807830E+04  0.13370807830E+04  0.25500000920E-02 0. -1.
    10030    2    1    2    0    0  0.00000000000E+00  0.00000000000E+00  0.69217006829E+03  0.33663316342E+04  0.32944027179E+04 0.  0.
        4    1    3    3  502    0 -0.40156889287E+03 -0.56713126970E+03 -0.11799664283E+04  0.13693859345E+04  0.12699999809E+01 0. -1.
       -4    1    3    3    0  502  0.40156889287E+03  0.56713126970E+03  0.18721364966E+04  0.19969456997E+04  0.12699999809E+01 0.  1.
</event>
<event>
 5   0  0.2080828E-07  0.3292249E+04  0.7818609E-02  0.8164870E-01
        1   -1    0    0  501    0  0.00000000000E+00  0.00000000000E+00  0.27647920840E+04  0.27647920840E+04  0.50400001928E-02 0. -1.
       -1   -1    0    0    0  501  0.00000000000E+00  0.00000000000E+00 -0.98008289567E+03  0.98008289568E+03  0.50400001928E-02 0.  1.
    10030    2    1    2    0    0  0.00000000000E+00  0.00000000000E+00  0.17847091883E+04  0.37448749797E+04  0.32922487340E+04 0.  0.
        1    1    3    3  502    0  0.49724923779E+03  0.83391055705E+03 -0.61971073286E+03  0.11518268160E+04  0.50400001928E-02 0.  1.
       -1    1    3    3    0  502 -0.49724923779E+03 -0.83391055705E+03  0.24044199212E+04  0.25930481637E+04  0.50400001928E-02 0. -1.
</event>
<event>
 5   0  0.6377741E-07  0.3313168E+04  0.7818609E-02  0.8159553E-01
       -2   -1    0    0    0  501  0.00000000000E+00  0.00000000000E+00  0.14810522195E+04  0.14810522196E+04  0.25500000920E-02 0. -1.
        2   -1    0    0  501    0  0.00000000000E+00  0.00000000000E+00 -0.18529195681E+04  0.18529195681E+04  0.25500000920E-02 0.  1.
    10030    2    1    2    0    0  0.00000000000E+00  0.00000000000E+00 -0.37186734852E+03  0.33339717876E+04  0.33131680543E+04 0.  0.
        1    1    3    3  502    0 -0.75581156383E+03  0.82112487197E+03  0.10459975214E+04  0.15295777163E+04  0.50400001928E-02 0. -1.
       -1    1    3    3    0  502  0.75581156383E+03 -0.82112487197E+03 -0.14178648699E+04  0.18043940713E+04  0.50400001928E-02 0.  1.
</event>
<event>
 5   0  0.2037333E-07  0.3285710E+04  0.7818609E-02  0.8166541E-01
        1   -1    0    0  501    0  0.00000000000E+00  0.00000000000E+00  0.15550760388E+04  0.15550760388E+04  0.50400001928E-02 0.  1.
       -1   -1    0    0    0  501  0.00000000000E+00  0.00000000000E+00 -0.17355883112E+04  0.17355883112E+04  0.50400001928E-02 0. -1.
    10030    2    1    2    0    0  0.00000000000E+00  0.00000000000E+00 -0.18051227238E+03  0.32906643500E+04  0.32857095404E+04 0.  0.
        3    1    3    3  502    0 -0.39862370059E+03  0.52065598817E+03 -0.15988437690E+04  0.17280870697E+04  0.10100000352E+00 0. -1.
       -3    1    3    3    0  502  0.39862370059E+03 -0.52065598817E+03  0.14183314966E+04  0.15625772803E+04  0.10100000352E+00 0.  1.
</event>
<event>
 5   0  0.6424183E-07  0.3268193E+04  0.7818609E-02  0.8171036E-01
       -2   -1    0    0    0  501  0.00000000000E+00  0.00000000000E+00  0.12356594014E+04  0.12356594014E+04  0.25500000920E-02 0.  1.
        2   -1    0    0  501    0  0.00000000000E+00  0.00000000000E+00 -0.21610089271E+04  0.21610089271E+04  0.25500000920E-02 0. -1.
    10030    2    1    2    0    0  0.00000000000E+00  0.00000000000E+00 -0.92534952576E+03  0.33966683285E+04  0.32681927711E+04 0.  0.
        2    1    3    3  502    0 -0.62844512007E+03 -0.43482206043E+03 -0.19638432279E+04  0.21072953559E+04  0.25500000920E-02 0. -1.
       -2    1    3    3    0  502  0.62844512007E+03  0.43482206043E+03  0.10384937021E+04  0.12893729726E+04  0.25500000920E-02 0.  1.
</event>
<event>
 5   0  0.2080828E-07  0.3277902E+04  0.7818609E-02  0.8168541E-01
       -1   -1    0    0    0  501  0.00000000000E+00  0.00000000000E+00  0.17759030056E+04  0.17759030056E+04  0.50400001928E-02 0. -1.
        1   -1    0    0  501    0  0.00000000000E+00  0.00000000000E+00 -0.15125598669E+04  0.15125598669E+04  0.50400001928E-02 0.  1.
    10030    2    1    2    0    0  0.00000000000E+00  0.00000000000E+00  0.26334313871E+03  0.32884628725E+04  0.32779015323E+04 0.  0.
        1    1    3    3  502    0 -0.39187505288E+03  0.95858627377E+03 -0.11427386189E+04  0.15421754934E+04  0.50400001928E-02 0.  1.
       -1    1    3    3    0  502  0.39187505288E+03 -0.95858627377E+03  0.14060817576E+04  0.17462873791E+04  0.50400001928E-02 0. -1.
</event>
<event>
 5   0  0.2087665E-07  0.3297949E+04  0.7818609E-02  0.8163418E-01
       -1   -1    0    0    0  501  0.00000000000E+00  0.00000000000E+00  0.14889833247E+04  0.14889833248E+04  0.50400001928E-02 0.  1.
        1   -1    0    0  501    0  0.00000000000E+00  0.00000000000E+00 -0.18261562167E+04  0.18261562167E+04  0.50400001928E-02 0. -1.
    10030    2    1    2    0    0  0.00000000000E+00  0.00000000000E+00 -0.33717289191E+03  0.33151395414E+04  0.32979485472E+04 0.  0.
        5    1    3    3  502    0 -0.13791813524E+04 -0.84348153902E+03 -0.49507442636E+03  0.16907758832E+04  0.46999998093E+01 0. -1.
       -5    1    3    3    0  502  0.13791813524E+04  0.84348153902E+03  0.15790153445E+03  0.16243636582E+04  0.46999998093E+01 0.  1.
</event>
<event>
 5   0  0.2080828E-07  0.3287978E+04  0.7818609E-02  0.8165961E-01
        1   -1    0    0  501    0  0.00000000000E+00  0.00000000000E+00  0.22855135407E+04  0.22855135407E+04  0.50400001928E-02 0.  1.
       -1   -1    0    0    0  501  0.00000000000E+00  0.00000000000E+00 -0.11825352628E+04  0.11825352628E+04  0.50400001928E-02 0. -1.
    10030    2    1    2    0    0  0.00000000000E+00  0.00000000000E+00  0.11029782779E+04  0.34680488035E+04  0.32879783183E+04 0.  0.
        1    1    3    3  502    0 -0.10628668024E+04  0.35044731545E+02  0.18738592249E+04  0.21545909978E+04  0.50400001928E-02 0.  1.
       -1    1    3    3    0  502  0.10628668024E+04 -0.35044731545E+02 -0.77088094702E+03  0.13134578057E+04  0.50400001928E-02 0. -1.
</event>
<event>
 5   0  0.6258718E-07  0.3300407E+04  0.7818609E-02  0.8162792E-01
       -2   -1    0    0    0  501  0.00000000000E+00  0.00000000000E+00  0.17338970822E+04  0.17338970822E+04  0.25500000920E-02 0. -1.
        2   -1    0    0  501    0  0.00000000000E+00  0.00000000000E+00 -0.15705492570E+04  0.15705492570E+04  0.25500000920E-02 0.  1.
    10030    2    1    2    0    0  0.00000000000E+00  0.00000000000E+00  0.16334782520E+03  0.33044463392E+04  0.33004065047E+04 0.  0.
        5    1    3    3  502    0 -0.11845011027E+04  0.10661510664E+04 -0.34713495699E+03  0.16310259737E+04  0.46999998093E+01 0.  1.
       -5    1    3    3    0  502  0.11845011027E+04 -0.10661510664E+04  0.51048278219E+03  0.16734203655E+04  0.46999998093E+01 0. -1.
</event>
<event>
 5   0  0.6351753E-07  0.3283676E+04  0.7818609E-02  0.8167062E-01
        2   -1    0    0  501    0  0.00000000000E+00  0.00000000000E+00  0.21679231634E+04  0.21679231634E+04  0.25500000920E-02 0.  1.
       -2   -1    0    0    0  501  0.00000000000E+00  0.00000000000E+00 -0.12434165539E+04  0.12434165539E+04  0.25500000920E-02 0. -1.
    10030    2    1    2    0    0  0.00000000000E+00  0.00000000000E+00  0.92450660957E+03  0.34113397173E+04  0.32836757142E+04 0.  0.
        3    1    3    3  502    0  0.77637385804E+02 -0.35538123317E+03 -0.12010257524E+04  0.12549048779E+04  0.10100000352E+00 0. -1.
       -3    1    3    3    0  502 -0.77637385804E+02  0.35538123317E+03  0.21255323620E+04  0.21564348394E+04  0.10100000352E+00 0.  1.
</event>
<event>
 5   0  0.6377741E-07  0.3296393E+04  0.7818609E-02  0.8163814E-01
        2   -1    0    0  501    0  0.00000000000E+00  0.00000000000E+00  0.19511857741E+04  0.19511857741E+04  0.25500000920E-02 0. -1.
       -2   -1    0    0    0  501  0.00000000000E+00  0.00000000000E+00 -0.13922570714E+04  0.13922570714E+04  0.25500000920E-02 0.  1.
    10030    2    1    2    0    0  0.00000000000E+00  0.00000000000E+00  0.55892870266E+03  0.33434428455E+04  0.32963932966E+04 0.  0.
        1    1    3    3  502    0 -0.12082165728E+04 -0.81477132483E+03 -0.50153418232E+03  0.15411606453E+04  0.50400001928E-02 0.  1.
       -1    1    3    3    0  502  0.12082165728E+04  0.81477132483E+03  0.10604628850E+04  0.18022822002E+04  0.50400001928E-02 0. -1.
</event>
<event>
 5   0  0.2057130E-07  0.3281419E+04  0.7818609E-02  0.8167639E-01
       -1   -1    0    0    0  501  0.00000000000E+00  0.00000000000E+00  0.10410609924E+04  0.10410609924E+04  0.50400001928E-02 0. -1.
        1   -1    0    0  501    0  0.00000000000E+00  0.00000000000E+00 -0.25857538617E+04  0.25857538617E+04  0.50400001928E-02 0.  1.
    10030    2    1    2    0    0  0.00000000000E+00  0.00000000000E+00 -0.15446928693E+04  0.36268148541E+04  0.32814188891E+04 0.  0.
        2    1    3    3  502    0 -0.13025064916E+04 -0.97825563571E+03 -0.98898895665E+03  0.19056774139E+04  0.25500000920E-02 0.  1.
       -2    1    3    3    0  502  0.13025064916E+04  0.97825563571E+03 -0.55570391265E+03  0.17211374402E+04  0.25500000920E-02 0. -1.
</event>
<event>
 5   0  0.2080828E-07  0.3319589E+04  0.7818609E-02  0.8157929E-01
       -1   -1    0    0    0  501  0.00000000000E+00  0.00000000000E+00  0.16743108239E+04  0.16743108239E+04  0.50400001928E-02 0.  1.
        1   -1    0    0  501    0  0.00000000000E+00  0.00000000000E+00 -0.16454040210E+04  0.16454040210E+04  0.50400001928E-02 0. -1.
    10030    2    1    2    0    0  0.00000000000E+00  0.00000000000E+00  0.28906802895E+02  0.33197148449E+04  0.33195889878E+04 0.  0.
        1    1    3    3  502    0  0.10531051194E+04  0.19171549831E+03  0.12830173750E+04  0.16709035907E+04  0.50400001928E-02 0.  1.
       -1    1    3    3    0  502 -0.10531051194E+04 -0.19171549831E+03 -0.12541105721E+04  0.16488112542E+04  0.50400001928E-02 0. -1.
</event>
<event>
 5   0  0.6258718E-07  0.3304990E+04  0.7818609E-02  0.8161627E-01
       -2   -1    0    0    0  501  0.00000000000E+00  0.00000000000E+00  0.12960768981E+04  0.12960768981E+04  0.25500000920E-02 0. -1.
        2   -1    0    0  501    0  0.00000000000E+00  0.00000000000E+00 -0.21069274337E+04  0.21069274337E+04  0.25500000920E-02 0.  1.
    10030    2    1    2    0    0  0.00000000000E+00  0.00000000000E+00 -0.81085053555E+03  0.34030043318E+04  0.33049901500E+04 0.  0.
        5    1    3    3  502    0  0.14961762559E+04 -0.70144689519E+03 -0.39295207596E+03  0.16985301173E+04  0.46999998093E+01 0.  1.
       -5    1    3    3    0  502 -0.14961762559E+04  0.70144689519E+03 -0.41789845959E+03  0.17044742145E+04  0.46999998093E+01 0. -1.
</event>
<event>
 5   0  0.2087665E-07  0.3301178E+04  0.7818609E-02  0.8162596E-01
       -1   -1    0    0    0  501  0.00000000000E+00  0.00000000000E+00  0.22248092792E+04  0.22248092792E+04  0.50400001928E-02 0.  1.
        1   -1    0    0  501    0  0.00000000000E+00  0.00000000000E+00 -0.12245740492E+04  0.12245740492E+04  0.50400001928E-02 0. -1.
    10030    2    1    2    0    0  0.00000000000E+00  0.00000000000E+00  0.10002352299E+04  0.34493833284E+04  0.33011777945E+04 0.  0.
        5    1    3    3  502    0  0.59202363341E+02 -0.57416145588E+03 -0.11156746305E+04  0.12561521677E+04  0.46999998093E+01 0. -1.
       -5    1    3    3    0  502 -0.59202363341E+02  0.57416145588E+03  0.21159098604E+04  0.21932311608E+04  0.46999998093E+01 0.  1.
</event>
<event>
 5   0  0.2080770E-07  0.3300739E+04  0.7818609E-02  0.8162707E-01
        1   -1    0    0  501    0  0.00000000000E+00  0.00000000000E+00  0.14556420467E+04  0.14556420467E+04  0.50400001928E-02 0. -1.
       -1   -1    0    0    0  501  0.00000000000E+00  0.00000000000E+00 -0.18711462908E+04  0.18711462908E+04  0.50400001928E-02 0.  1.
    10030    2    1    2    0    0  0.00000000000E+00  0.00000000000E+00 -0.41550424414E+03  0.33267883376E+04  0.33007388364E+04 0.  0.
        4    1    3    3  502    0  0.14568741797E+04  0.71501017490E+03 -0.51011246803E+03  0.17011579200E+04  0.12699999809E+01 0.  1.
       -4    1    3    3    0  502 -0.14568741797E+04 -0.71501017490E+03  0.94608223888E+02  0.16256304176E+04  0.12699999809E+01 0. -1.
</event>
<event>
 5   0  0.6258718E-07  0.3327791E+04  0.7818609E-02  0.8155860E-01
       -2   -1    0    0    0  501  0.00000000000E+00  0.00000000000E+00  0.12331376155E+04  0.12331376155E+04  0.25500000920E-02 0.  1.
        2   -1    0    0  501    0  0.00000000000E+00  0.00000000000E+00 -0.22451248982E+04  0.22451248982E+04  0.25500000920E-02 0. -1.
    10030    2    1    2    0    0  0.00000000000E+00  0.00000000000E+00 -0.10119872827E+04  0.34782625137E+04  0.33277908369E+04 0.  0.
        5    1    3    3  502    0  0.74560269963E+03 -0.74225665517E+02  0.10468104088E+04  0.12873488094E+04  0.46999998093E+01 0.  1.
       -5    1    3    3    0  502 -0.74560269963E+03  0.74225665517E+02 -0.20587976915E+04  0.21909137043E+04  0.46999998093E+01 0. -1.
</event>
<event>
 5   0  0.1994250E-07  0.3306323E+04  0.7818609E-02  0.8161288E-01
        3   -1    0    0  501    0  0.00000000000E+00  0.00000000000E+00  0.20146737872E+04  0.20146737897E+04  0.10100000352E+00 0. -1.
       -3   -1    0    0    0  501  0.00000000000E+00  0.00000000000E+00 -0.13565188351E+04  0.13565188388E+04  0.10100000352E+00 0.  1.
    10030    2    1    2    0    0  0.00000000000E+00  0.00000000000E+00  0.65815495212E+03  0.33711926285E+04  0.33063230026E+04 0.  0.
        3    1    3    3  502    0  0.66403216367E+03  0.14445976708E+04 -0.13273468499E+03  0.15954371349E+04  0.10100000352E+00 0.  1.
       -3    1    3    3    0  502 -0.66403216367E+03 -0.14445976708E+04  0.79088963711E+03  0.17757554936E+04  0.10100000352E+00 0. -1.
</event>
<event>
 5   0  0.6258718E-07  0.3292376E+04  0.7818609E-02  0.8164838E-01
       -2   -1    0    0    0  501  0.00000000000E+00  0.00000000000E+00  0.11872753227E+04  0.11872753227E+04  0.25500000920E-02 0. -1.
        2   -1    0    0  501    0  0.00000000000E+00  0.00000000000E+00 -0.22824818466E+04  0.22824818466E+04  0.25500000920E-02 0.  1.
    10030    2    1    2    0    0  0.00000000000E+00  0.00000000000E+00 -0.10952065240E+04  0.34697571693E+04  0.32923756596E+04 0.  0.
        5    1    3    3  502    0  0.33372483698E+03  0.32762991502E+03 -0.22109924707E+04  0.22599166851E+04  0.46999998093E+01 0.  1.
       -5    1    3    3    0  502 -0.33372483698E+03 -0.32762991502E+03  0.11157859468E+04  0.12098404842E+04  0.46999998093E+01 0. -1.
</event>
<event>
 5   0  0.6426079E-07  0.3197906E+04  0.7818609E-02  0.8189370E-01
        2   -1    0    0  501    0  0.00000000000E+00  0.00000000000E+00  0.18063069434E+04  0.18063069434E+04  0.25500000920E-02 0.  1.
       -2   -1    0    0    0  501  0.00000000000E+00  0.00000000000E+00 -0.14154023264E+04  0.14154023264E+04  0.25500000920E-02 0. -1.
    10030    2    1    2    0    0  0.00000000000E+00  0.00000000000E+00  0.39090461696E+03  0.32217092698E+04  0.31979062212E+04 0.  0.
        4    1    3    3  502    0  0.10307254907E+04  0.46241066764E+03 -0.94453147805E+03  0.14725352249E+04  0.12699999809E+01 0. -1.
       -4    1    3    3    0  502 -0.10307254907E+04 -0.46241066764E+03  0.13354360950E+04  0.17491740449E+04  0.12699999809E+01 0.  1.
</event>
<event>
 5   0  0.6377741E-07  0.3297330E+04  0.7818609E-02  0.8163575E-01
       -2   -1    0    0    0  501  0.00000000000E+00  0.00000000000E+00  0.10530468275E+04  0.10530468275E+04  0.25500000920E-02 0. -1.
        2   -1    0    0  501    0  0.00000000000E+00  0.00000000000E+00 -0.25811739569E+04  0.25811739569E+04  0.25500000920E-02 0.  1.
    10030    2    1    2    0    0  0.00000000000E+00  0.00000000000E+00 -0.15281271294E+04  0.36342207844E+04  0.32973304636E+04 0.  0.
        1    1    3    3  502    0  0.29518567896E+03  0.60538102685E+03  0.89450228984E+03  0.11197120698E+04  0.50400001928E-02 0. -1.
       -1    1    3    3    0  502 -0.29518567896E+03 -0.60538102685E+03 -0.24226294192E+04  0.25145087146E+04  0.50400001928E-02 0.  1.
</event>
<event>
 5   0  0.6377741E-07  0.3346308E+04  0.7818609E-02  0.8151211E-01
        2   -1    0    0  501    0  0.00000000000E+00  0.00000000000E+00  0.23213881799E+04  0.23213881799E+04  0.25500000920E-02 0. -1.
       -2   -1    0    0    0  501  0.00000000000E+00  0.00000000000E+00 -0.12059354642E+04  0.12059354642E+04  0.25500000920E-02 0.  1.
    10030    2    1    2    0    0  0.00000000000E+00  0.00000000000E+00  0.11154527156E+04  0.35273236441E+04  0.33463080147E+04 0.  0.
        1    1    3    3  502    0 -0.18565740601E+03 -0.38544614392E+03  0.22627564226E+04  0.23028469403E+04  0.50400001928E-02 0. -1.
       -1    1    3    3    0  502  0.18565740601E+03  0.38544614392E+03 -0.11473037069E+04  0.12244767038E+04  0.50400001928E-02 0.  1.
</event>
<event>
 5   0  0.2057130E-07  0.3298542E+04  0.7818609E-02  0.8163266E-01
       -1   -1    0    0    0  501  0.00000000000E+00  0.00000000000E+00  0.12030352615E+04  0.12030352615E+04  0.50400001928E-02 0.  1.
        1   -1    0    0  501    0  0.00000000000E+00  0.00000000000E+00 -0.22610265987E+04  0.22610265988E+04  0.50400001928E-02 0. -1.
    10030    2    1    2    0    0  0.00000000000E+00  0.00000000000E+00 -0.10579913372E+04  0.34640618603E+04  0.32985419358E+04 0.  0.
        2    1    3    3  502    0 -0.79260635851E+03  0.80835015699E+03  0.73053715905E+03  0.13473452997E+04  0.25500000920E-02 0.  1.
       -2    1    3    3    0  502  0.79260635851E+03 -0.80835015699E+03 -0.17885284963E+04  0.21167165606E+04  0.25500000920E-02 0. -1.
</event>
<event>
 5   0  0.6377741E-07  0.3279945E+04  0.7818609E-02  0.8168017E-01
        2   -1    0    0  501    0  0.00000000000E+00  0.00000000000E+00  0.17042110855E+04  0.17042110855E+04  0.25500000920E-02 0. -1.
       -2   -1    0    0    0  501  0.00000000000E+00  0.00000000000E+00 -0.15781551111E+04  0.15781551111E+04  0.25500000920E-02 0.  1.
    10030    2    1    2    0    0  0.00000000000E+00  0.00000000000E+00  0.12605597437E+03  0.32823661966E+04  0.32799447770E+04 0.  0.
        1    1    3    3  502    0  0.85535511918E+03 -0.11274328304E+04  0.89235703026E+03  0.16730326466E+04  0.50400001928E-02 0. -1.
       -1    1    3    3    0  502 -0.85535511918E+03  0.11274328304E+04 -0.76630105589E+03  0.16093335500E+04  0.50400001928E-02 0.  1.
</event>
<event>
 5   0  0.2087665E-07  0.3299150E+04  0.7818609E-02  0.8163112E-01
       -1   -1    0    0    0  501  0.00000000000E+00  0.00000000000E+00  0.16610960758E+04  0.16610960758E+04  0.50400001928E-02 0.  1.
        1   -1    0    0  501    0  0.00000000000E+00  0.00000000000E+00 -0.16381334697E+04  0.16381334697E+04  0.50400001928E-02 0. -1.
    10030    2    1    2    0    0  0.00000000000E+00  0.00000000000E+00  0.22962606118E+02  0.32992295456E+04  0.32991496348E+04 0.  0.
        5    1    3    3  502    0 -0.12904376863E+04  0.58728200181E+03 -0.83171491216E+03  0.16437461352E+04  0.46999998093E+01 0. -1.
       -5    1    3    3    0  502  0.12904376863E+04 -0.58728200181E+03  0.85467751828E+03  0.16554834104E+04  0.46999998093E+01 0.  1.
</event>
<event>
 5   0  0.2037333E-07  0.3304809E+04  0.7818609E-02  0.8161673E-01
       -1   -1    0    0    0  501  0.00000000000E+00  0.00000000000E+00  0.26606143816E+04  0.26606143816E+04  0.50400001928E-02 0. -1.
        1   -1    0    0  501    0  0.00000000000E+00  0.00000000000E+00 -0.10262444468E+04  0.10262444468E+04  0.50400001928E-02 0.  1.
    10030    2    1    2    0    0  0.00000000000E+00  0.00000000000E+00  0.16343699348E+04  0.36868588284E+04  0.33048090621E+04 0.  0.
        3    1    3    3  502    0 -0.13608875256E+04  0.84175250750E+03  0.12769960665E+04  0.20472618556E+04  0.10100000352E+00 0.  1.
       -3    1    3    3    0  502  0.13608875256E+04 -0.84175250750E+03  0.35737386828E+03  0.16395969728E+04  0.10100000352E+00 0. -1.
</event>
<event>
 5   0  0.6426079E-07  0.3319006E+04  0.7818609E-02  0.8158076E-01
       -2   -1    0    0    0  501  0.00000000000E+00  0.00000000000E+00  0.13120811044E+04  0.13120811044E+04  0.25500000920E-02 0.  1.
        2   -1    0    0  501    0  0.00000000000E+00  0.00000000000E+00 -0.20989174438E+04  0.20989174438E+04  0.25500000920E-02 0. -1.
    10030    2    1    2    0    0  0.00000000000E+00  0.00000000000E+00 -0.78683633943E+03  0.34109985482E+04  0.33190058257E+04 0.  0.
        4    1    3    3  502    0  0.42220780246E+03 -0.11190508166E+04 -0.15757010642E+04  0.19782238536E+04  0.12699999809E+01 0. -1.
       -4    1    3    3    0  502 -0.42220780246E+03  0.11190508166E+04  0.78886472477E+03  0.14327746946E+04  0.12699999809E+01 0.  1.
</event>
<event>
 5   0  0.2080828E-07  0.3303332E+04  0.7818609E-02  0.8162048E-01
        1   -1    0    0  501    0  0.00000000000E+00  0.00000000000E+00  0.15329447309E+04  0.15329447309E+04  0.50400001928E-02 0.  1.
       -1   -1    0    0    0  501  0.00000000000E+00  0.00000000000E+00 -0.17795822388E+04  0.17795822388E+04  0.50400001928E-02 0. -1.
    10030    2    1    2    0    0  0.00000000000E+00  0.00000000000E+00 -0.24663750787E+03  0.33125269697E+04  0.33033323878E+04 0.  0.
        1    1    3    3  502    0  0.14422916757E+04 -0.26269847234E+03 -0.88621582959E+03  0.17130657495E+04  0.50400001928E-02 0. -1.
       -1    1    3    3    0  502 -0.14422916757E+04  0.26269847234E+03  0.63957832172E+03  0.15994612202E+04  0.50400001928E-02 0.  1.
</event>
<event>
 5   0  0.6351753E-07  0.3313384E+04  0.7818609E-02  0.8159498E-01
        2   -1    0    0  501    0  0.00000000000E+00  0.00000000000E+00  0.20016715120E+04  0.20016715120E+04  0.25500000920E-02 0. -1.
       -2   -1    0    0    0  501  0.00000000000E+00  0.00000000000E+00 -0.13711685490E+04  0.13711685490E+04  0.25500000920E-02 0.  1.
    10030    2    1    2    0    0  0.00000000000E+00  0.00000000000E+00  0.63050296298E+03  0.33728400610E+04  0.33133843862E+04 0.  0.
        3    1    3    3  502    0 -0.80465369509E+03  0.13515121955E+04 -0.21425190982E+03  0.15874371404E+04  0.10100000352E+00 0.  1.
       -3    1    3    3    0  502  0.80465369509E+03 -0.13515121955E+04  0.84475487281E+03  0.17854029206E+04  0.10100000352E+00 0. -1.
</event>
<event>
 5   0  0.6351753E-07  0.3296221E+04  0.7818609E-02  0.8163858E-01
        2   -1    0    0  501    0  0.00000000000E+00  0.00000000000E+00  0.22126375547E+04  0.22126375547E+04  0.25500000920E-02 0.  1.
       -2   -1    0    0    0  501  0.00000000000E+00  0.00000000000E+00 -0.12276152133E+04  0.12276152133E+04  0.25500000920E-02 0. -1.
    10030    2    1    2    0    0  0.00000000000E+00  0.00000000000E+00  0.98502234140E+03  0.34402527680E+04  0.32962205774E+04 0.  0.
        3    1    3    3  502    0 -0.73061487173E+02  0.16264360319E+04  0.22512247398E+03  0.16435669397E+04  0.10100000352E+00 0.  1.
       -3    1    3    3    0  502  0.73061487173E+02 -0.16264360319E+04  0.75989986741E+03  0.17966858283E+04  0.10100000352E+00 0. -1.
</event>
<event>
 5   0  0.6351753E-07  0.3299230E+04  0.7818609E-02  0.8163091E-01
       -2   -1    0    0    0  501  0.00000000000E+00  0.00000000000E+00  0.11482707276E+04  0.11482707277E+04  0.25500000920E-02 0.  1.
        2   -1    0    0  501    0  0.00000000000E+00  0.00000000000E+00 -0.23698507428E+04  0.23698507428E+04  0.25500000920E-02 0. -1.
    10030    2    1    2    0    0  0.00000000000E+00  0.00000000000E+00 -0.12215800152E+04  0.35181214705E+04  0.32992303568E+04 0.  0.
        3    1    3    3  502    0  0.10625237462E+04 -0.45002321033E+02 -0.19555062838E+04  0.22259799542E+04  0.10100000352E+00 0. -1.
       -3    1    3    3    0  502 -0.10625237462E+04  0.45002321033E+02  0.73392626862E+03  0.12921415163E+04  0.10100000352E+00 0.  1.
</event>
<event>
 5   0  0.2057130E-07  0.3287398E+04  0.7818609E-02  0.8166109E-01
        1   -1    0    0  501    0  0.00000000000E+00  0.00000000000E+00  0.15918462169E+04  0.15918462170E+04  0.50400001928E-02 0.  1.
       -1   -1    0    0    0  501  0.00000000000E+00  0.00000000000E+00 -0.16972408099E+04  0.16972408099E+04  0.50400001928E-02 0. -1.
    10030    2    1    2    0    0  0.00000000000E+00  0.00000000000E+00 -0.10539459293E+03  0.32890870268E+04  0.32873979756E+04 0.  0.
        2    1    3    3  502    0 -0.99039142037E+03 -0.35124569554E+03 -0.13172682336E+04  0.16850650740E+04  0.25500000920E-02 0. -1.
       -2    1    3    3    0  502  0.99039142037E+03  0.35124569554E+03  0.12118736407E+04  0.16040219529E+04  0.25500000920E-02 0.  1.
</event>
<event>
 5   0  0.6258718E-07  0.3299274E+04  0.7818609E-02  0.8163080E-01
       -2   -1    0    0    0  501  0.00000000000E+00  0.00000000000E+00  0.90786691729E+03  0.90786691729E+03  0.25500000920E-02 0.  1.
        2   -1    0    0  501    0  0.00000000000E+00  0.00000000000E+00 -0.29974680612E+04  0.29974680612E+04  0.25500000920E-02 0. -1.
    10030    2    1    2    0    0  0.00000000000E+00  0.00000000000E+00 -0.20896011439E+04  0.39053349785E+04  0.32992739131E+04 0.  0.
        5    1    3    3  502    0 -0.58270514115E+03  0.45873128697E+03 -0.27890149677E+04  0.28859324759E+04  0.46999998093E+01 0. -1.
       -5    1    3    3    0  502  0.58270514115E+03 -0.45873128697E+03  0.69941382388E+03  0.10194025025E+04  0.46999998093E+01 0.  1.
</event>
<event>
 5   0  0.6258718E-07  0.3310973E+04  0.7818609E-02  0.8160109E-01
       -2   -1    0    0    0  501  0.00000000000E+00  0.00000000000E+00  0.11400714070E+04  0.11400714070E+04  0.25500000920E-02 0. -1.
        2   -1    0    0  501    0  0.00000000000E+00  0.00000000000E+00 -0.24039157894E+04  0.24039157894E+04  0.25500000920E-02 0.  1.
    10030    2    1    2    0    0  0.00000000000E+00  0.00000000000E+00 -0.12638443824E+04  0.35439871964E+04  0.33109730633E+04 0.  0.
        5    1    3    3  502    0 -0.31408626770E+03 -0.47700425570E+03  0.10312753531E+04  0.11788698772E+04  0.46999998093E+01 0. -1.
       -5    1    3    3    0  502  0.31408626770E+03  0.47700425570E+03 -0.22951197355E+04  0.23651173192E+04  0.46999998093E+01 0.  1.
</event>
<event>
 5   0  0.6426079E-07  0.3274969E+04  0.7818609E-02  0.8169294E-01
        2   -1    0    0  501    0  0.00000000000E+00  0.00000000000E+00  0.15428343467E+04  0.15428343467E+04  0.25500000920E-02 0.  1.
       -2   -1    0    0    0  501  0.00000000000E+00  0.00000000000E+00 -0.17379415227E+04  0.17379415227E+04  0.25500000920E-02 0. -1.
    10030    2    1    2    0    0  0.00000000000E+00  0.00000000000E+00 -0.19510717600E+03  0.32807758694E+04  0.32749692357E+04 0.  0.
        4    1    3    3  502    0 -0.75662594829E+03  0.96871219790E+03  0.98624637197E+03  0.15759345377E+04  0.12699999809E+01 0.  1.
       -4    1    3    3    0  502  0.75662594829E+03 -0.96871219790E+03 -0.11813535480E+04  0.17048413317E+04  0.12699999809E+01 0. -1.
</event>
<event>
 5   0  0.6426079E-07  0.3309252E+04  0.7818609E-02  0.8160545E-01
       -2   -1    0    0    0  501  0.00000000000E+00  0.00000000000E+00  0.18032973266E+04  0.18032973266E+04  0.25500000920E-02 0.  1.
        2   -1    0    0  501    0  0.00000000000E+00  0.00000000000E+00 -0.15182115022E+04  0.15182115023E+04  0.25500000920E-02 0. -1.
    10030    2    1    2    0    0  0.00000000000E+00  0.00000000000E+00  0.28508582431E+03  0.33215088288E+04  0.33092517240E+04 0.  0.
        4    1    3    3  502    0 -0.12761730127E+04  0.10017571812E+04  0.46878546627E+03  0.16887558837E+04  0.12699999809E+01 0. -1.
       -4    1    3    3    0  502  0.12761730127E+04 -0.10017571812E+04 -0.18369964196E+03  0.16327529451E+04  0.12699999809E+01 0.  1.
</event>
<event>
 5   0  0.2080770E-07  0.3282699E+04  0.7818609E-02  0.8167312E-01
       -1   -1    0    0    0  501  0.00000000000E+00  0.00000000000E+00  0.14069327673E+04  0.14069327673E+04  0.50400001928E-02 0. -1.
        1   -1    0    0  501    0  0.00000000000E+00  0.00000000000E+00 -0.19148234229E+04  0.19148234229E+04  0.50400001928E-02 0.  1.
    10030    2    1    2    0    0  0.00000000000E+00  0.00000000000E+00 -0.50789065567E+03  0.33217561902E+04  0.32826987783E+04 0.  0.
        4    1    3    3  502    0 -0.14453105233E+04  0.76209784598E+03 -0.41171890757E+03  0.16850013968E+04  0.12699999809E+01 0.  1.
       -4    1    3    3    0  502  0.14453105233E+04 -0.76209784598E+03 -0.96171748103E+02  0.16367547934E+04  0.12699999809E+01 0. -1.
</event>
<event>
 5   0  0.6351753E-07  0.3300762E+04  0.7818609E-02  0.8162701E-01
       -2   -1    0    0    0  501  0.00000000000E+00  0.00000000000E+00  0.17188507779E+04  0.17188507779E+04  0.25500000920E-02 0.  1.
        2   -1    0    0  501    0  0.00000000000E+00  0.00000000000E+00 -0.15846389998E+04  0.15846389998E+04  0.25500000920E-02 0. -1.
    10030    2    1    2    0    0  0.00000000000E+00  0.00000000000E+00  0.13421177814E+03  0.33034897777E+04  0.33007623226E+04 0.  0.
        3    1    3    3  502    0 -0.10598704295E+04 -0.12223260825E+04  0.39349127403E+03  0.16650050367E+04  0.10100000352E+00 0. -1.
       -3    1    3    3    0  502  0.10598704295E+04  0.12223260825E+04 -0.25927949589E+03  0.16384847410E+04  0.10100000352E+00 0.  1.
</event>
<event>
 5   0  0.2080770E-07  0.3306699E+04  0.7818609E-02  0.8161193E-01
        1   -1    0    0  501    0  0.00000000000E+00  0.00000000000E+00  0.18810824220E+04  0.18810824220E+04  0.50400001928E-02 0. -1.
       -1   -1    0    0    0  501  0.00000000000E+00  0.00000000000E+00 -0.14531874637E+04  0.14531874637E+04  0.50400001928E-02 0.  1.
    10030    2    1    2    0    0  0.00000000000E+00  0.00000000000E+00  0.42789495830E+03  0.33342698857E+04  0.33066994988E+04 0.  0.
        4    1    3    3  502    0  0.54234634698E+03  0.12768820408E+04 -0.69299414644E+03  0.15507449197E+04  0.12699999809E+01 0.  1.
       -4    1    3    3    0  502 -0.54234634698E+03 -0.12768820408E+04  0.11208891047E+04  0.17835249660E+04  0.12699999809E+01 0. -1.
</event>
<event>
 5   0  0.6377741E-07  0.3295646E+04  0.7818609E-02  0.8164004E-01
       -2   -1    0    0    0  501  0.00000000000E+00  0.00000000000E+00  0.14411437491E+04  0.14411437491E+04  0.25500000920E-02 0.  1.
        2   -1    0    0  501    0  0.00000000000E+00  0.00000000000E+00 -0.18841433479E+04  0.18841433479E+04  0.25500000920E-02 0. -1.
    10030    2    1    2    0    0  0.00000000000E+00  0.00000000000E+00 -0.44299959873E+03  0.33252870970E+04  0.32956464666E+04 0.  0.
        1    1    3    3  502    0 -0.35801594747E+02  0.74165908625E+02 -0.18820655721E+04  0.18838665435E+04  0.50400001928E-02 0. -1.
       -1    1    3    3    0  502  0.35801594747E+02 -0.74165908625E+02  0.14390659734E+04  0.14414205535E+04  0.50400001928E-02 0.  1.
</event>
<event>
 5   0  0.6424183E-07  0.3236793E+04  0.7818609E-02  0.8179167E-01
       -2   -1    0    0    0  501  0.00000000000E+00  0.00000000000E+00  0.10040143652E+04  0.10040143652E+04  0.25500000920E-02 0. -1.
        2   -1    0    0  501    0  0.00000000000E+00  0.00000000000E+00 -0.26087355356E+04  0.26087355356E+04  0.25500000920E-02 0.  1.
    10030    2    1    2    0    0  0.00000000000E+00  0.00000000000E+00 -0.16047211705E+04  0.36127499008E+04  0.32367934458E+04 0.  0.
        2    1    3    3  502    0 -0.13699272268E+04  0.82757255269E+03 -0.53441225839E+03  0.16873569269E+04  0.25500000920E-02 0.  1.
       -2    1    3    3    0  502  0.13699272268E+04 -0.82757255269E+03 -0.10703089121E+04  0.19253929739E+04  0.25500000920E-02 0. -1.
</event>
<event>
 5   0  0.2080828E-07  0.3250709E+04  0.7818609E-02  0.8175552E-01
        1   -1    0    0  501    0  0.00000000000E+00  0.00000000000E+00  0.18317938060E+04  0.18317938061E+04  0.50400001928E-02 0.  1.
       -1   -1    0    0    0  501  0.00000000000E+00  0.00000000000E+00 -0.14421806974E+04  0.14421806974E+04  0.50400001928E-02 0. -1.
    10030    2    1    2    0    0  0.00000000000E+00  0.00000000000E+00  0.38961310870E+03  0.32739745034E+04  0.32507092572E+04 0.  0.
        1    1    3    3  502    0  0.77974210432E+02  0.14020838261E+04  0.10191130939E+04  0.17350822836E+04  0.50400001928E-02 0.  1.
       -1    1    3    3    0  502 -0.77974210432E+02 -0.14020838261E+04 -0.62949998519E+03  0.15388922198E+04  0.50400001928E-02 0. -1.
</event>
<event>
 5   0  0.2057130E-07  0.3315467E+04  0.7818609E-02  0.8158971E-01
        1   -1    0    0  501    0  0.00000000000E+00  0.00000000000E+00  0.16907170136E+04  0.16907170136E+04  0.50400001928E-02 0.  1.
       -1   -1    0    0    0  501  0.00000000000E+00  0.00000000000E+00 -0.16253930990E+04  0.16253930990E+04  0.50400001928E-02 0. -1.
    10030    2    1    2    0    0  0.00000000000E+00  0.00000000000E+00  0.65323914558E+02  0.33161101126E+04  0.33154666437E+04 0.  0.
        2    1    3    3  502    0 -0.15469595497E+04 -0.22312923501E+03 -0.51990273985E+03  0.16471701074E+04  0.25500000920E-02 0. -1.
       -2    1    3    3    0  502  0.15469595497E+04  0.22312923501E+03  0.58522665441E+03  0.16689400052E+04  0.25500000920E-02 0.  1.
</event>
<event>
 5   0  0.6426079E-07  0.3314502E+04  0.7818609E-02  0.8159215E-01
        2   -1    0    0  501    0  0.00000000000E+00  0.00000000000E+00  0.19734797003E+04  0.19734797003E+04  0.25500000920E-02 0. -1.
       -2   -1    0    0    0  501  0.00000000000E+00  0.00000000000E+00 -0.13916942385E+04  0.13916942385E+04  0.25500000920E-02 0.  1.
    10030    2    1    2    0    0  0.00000000000E+00  0.00000000000E+00  0.58178546180E+03  0.33651739387E+04  0.33145016691E+04 0.  0.
        4    1    3    3  502    0 -0.11592143207E+04 -0.69515972942E+03 -0.68264824789E+03  0.15142770994E+04  0.12699999809E+01 0.  1.
       -4    1    3    3    0  502  0.11592143207E+04  0.69515972942E+03  0.12644337097E+04  0.18508968393E+04  0.12699999809E+01 0. -1.
</event>
<event>
 5   0  0.6426079E-07  0.3310240E+04  0.7818609E-02  0.8160295E-01
       -2   -1    0    0    0  501  0.00000000000E+00  0.00000000000E+00  0.12729212256E+04  0.12729212256E+04  0.25500000920E-02 0. -1.
        2   -1    0    0  501    0  0.00000000000E+00  0.00000000000E+00 -0.21520749141E+04  0.21520749141E+04  0.25500000920E-02 0.  1.
    10030    2    1    2    0    0  0.00000000000E+00  0.00000000000E+00 -0.87915368856E+03  0.34249961397E+04  0.33102397721E+04 0.  0.
        4    1    3    3  502    0 -0.12663651270E+04 -0.72327069853E+03 -0.12494106379E+04  0.19203722798E+04  0.12699999809E+01 0.  1.
       -4    1    3    3    0  502  0.12663651270E+04  0.72327069853E+03  0.37025694936E+03  0.15046238598E+04  0.12699999809E+01 0. -1.
</event>
<event>
 5   0  0.2080770E-07  0.3231962E+04  0.7818609E-02  0.8180427E-01
       -1   -1    0    0    0  501  0.00000000000E+00  0.00000000000E+00  0.19741784661E+04  0.19741784661E+04  0.50400001928E-02 0. -1.
        1   -1    0    0  501    0  0.00000000000E+00  0.00000000000E+00 -0.13227749542E+04  0.13227749542E+04  0.50400001928E-02 0.  1.
    10030    2    1    2    0    0  0.00000000000E+00  0.00000000000E+00  0.65140351186E+03  0.32969534203E+04  0.32319615283E+04 0.  0.
        4    1    3    3  502    0  0.75668758842E+03  0.98869843849E+03  0.13766080028E+04  0.18561120427E+04  0.12699999809E+01 0.  1.
       -4    1    3    3    0  502 -0.75668758842E+03 -0.98869843849E+03 -0.72520449094E+03  0.14408413776E+04  0.12699999809E+01 0. -1.
</event>
<event>
 5   0  0.2057130E-07  0.3301256E+04  0.7818609E-02  0.8162576E-01
       -1   -1    0    0    0  501  0.00000000000E+00  0.00000000000E+00  0.96110897107E+03  0.96110897108E+03  0.50400001928E-02 0.  1.
        1   -1    0    0  501    0  0.00000000000E+00  0.00000000000E+00 -0.28348214879E+04  0.28348214879E+04  0.50400001928E-02 0. -1.
    10030    2    1    2    0    0  0.00000000000E+00  0.00000000000E+00 -0.18737125169E+04  0.37959304590E+04  0.33012557389E+04 0.  0.
        2    1    3    3  502    0  0.15498462712E+04 -0.26910242797E+03 -0.36178139431E+03  0.16141020285E+04  0.25500000920E-02 0. -1.
       -2    1    3    3    0  502 -0.15498462712E+04  0.26910242797E+03 -0.15119311225E+04  0.21818284305E+04  0.25500000920E-02 0.  1.
</event>
<event>
 5   0  0.6258718E-07  0.3261363E+04  0.7818609E-02  0.8172797E-01
       -2   -1    0    0    0  501  0.00000000000E+00  0.00000000000E+00  0.12448528494E+04  0.12448528494E+04  0.25500000920E-02 0.  1.
        2   -1    0    0  501    0  0.00000000000E+00  0.00000000000E+00 -0.21360937640E+04  0.21360937640E+04  0.25500000920E-02 0. -1.
    10030    2    1    2    0    0  0.00000000000E+00  0.00000000000E+00 -0.89124091465E+03  0.33809466134E+04  0.32613631560E+04 0.  0.
        5    1    3    3  502    0 -0.70980435824E+03  0.14676618598E+04 -0.40901633083E+03  0.16808242058E+04  0.46999998093E+01 0.  1.
       -5    1    3    3    0  502  0.70980435824E+03 -0.14676618598E+04 -0.48222458382E+03  0.17001224077E+04  0.46999998093E+01 0. -1.
</event>
<event>
 5   0  0.2057130E-07  0.3160077E+04  0.7818609E-02  0.8199441E-01
       -1   -1    0    0    0  501  0.00000000000E+00  0.00000000000E+00  0.11413858971E+04  0.11413858971E+04  0.50400001928E-02 0. -1.
        1   -1    0    0  501    0  0.00000000000E+00  0.00000000000E+00 -0.21872723919E+04  0.21872723919E+04  0.50400001928E-02 0.  1.
    10030    2    1    2    0    0  0.00000000000E+00  0.00000000000E+00 -0.10458864948E+04  0.33286582890E+04  0.31600771264E+04 0.  0.
        2    1    3    3  502    0  0.14145582373E+04 -0.61005943667E+03 -0.89292810480E+03  0.17805808387E+04  0.25500000920E-02 0.  1.
       -2    1    3    3    0  502 -0.14145582373E+04  0.61005943667E+03 -0.15295839002E+03  0.15480774503E+04  0.25500000920E-02 0. -1.
</event>
<event>
 5   0  0.2087665E-07  0.3315027E+04  0.7818609E-02  0.8159082E-01
        1   -1    0    0  501    0  0.00000000000E+00  0.00000000000E+00  0.18176568095E+04  0.18176568095E+04  0.50400001928E-02 0. -1.
       -1   -1    0    0    0  501  0.00000000000E+00  0.00000000000E+00 -0.15114796311E+04  0.15114796312E+04  0.50400001928E-02 0.  1.
    10030    2    1    2    0    0  0.00000000000E+00  0.00000000000E+00  0.30617717837E+03  0.33291364407E+04  0.33150271456E+04 0.  0.
        5    1    3    3  502    0  0.15641335186E+04 -0.51635427703E+03  0.33879114229E+03  0.16816470889E+04  0.46999998093E+01 0. -1.
       -5    1    3    3    0  502 -0.15641335186E+04  0.51635427703E+03 -0.32613963916E+02  0.16474893518E+04  0.46999998093E+01 0.  1.
</event>
<event>
 5   0  0.6424183E-07  0.3279759E+04  0.7818609E-02  0.8168065E-01
       -2   -1    0    0    0  501  0.00000000000E+00  0.00000000000E+00  0.12248113779E+04  0.12248113779E+04  0.25500000920E-02 0. -1.
        2   -1    0    0  501    0  0.00000000000E+00  0.00000000000E+00 -0.21956079228E+04  0.21956079228E+04  0.25500000920E-02 0.  1.
    10030    2    1    2    0    0  0.00000000000E+00  0.00000000000E+00 -0.97079654488E+03  0.34204193007E+04  0.32797594822E+04 0.  0.
        2    1    3    3  502    0  0.10399089569E+04  0.12190459118E+04 -0.12154869329E+03  0.16069404651E+04  0.25500000920E-02 0.  1.
       -2    1    3    3    0  502 -0.10399089569E+04 -0.12190459118E+04 -0.84924785159E+03  0.18134788356E+04  0.25500000920E-02 0. -1.
</event>
<event>
 5   0  0.2080828E-07  0.3282968E+04  0.7818609E-02  0.8167243E-01
       -1   -1    0    0    0  501  0.00000000000E+00  0.00000000000E+00  0.19069177900E+04  0.19069177900E+04  0.50400001928E-02 0.  1.
        1   -1    0    0  501    0  0.00000000000E+00  0.00000000000E+00 -0.14129970198E+04  0.14129970198E+04  0.50400001928E-02 0. -1.
    10030    2    1    2    0    0  0.00000000000E+00  0.00000000000E+00  0.49392077015E+03  0.33199148098E+04  0.32829676540E+04 0.  0.
        1    1    3    3  502    0  0.49332590278E+03  0.91278319095E+03  0.15332524875E+04  0.18513256846E+04  0.50400001928E-02 0.  1.
       -1    1    3    3    0  502 -0.49332590278E+03 -0.91278319095E+03 -0.10393317173E+04  0.14685891252E+04  0.50400001928E-02 0. -1.
</event>
<event>
 5   0  0.6351753E-07  0.3262392E+04  0.7818609E-02  0.8172531E-01
       -2   -1    0    0    0  501  0.00000000000E+00  0.00000000000E+00  0.95628010785E+03  0.95628010785E+03  0.25500000920E-02 0. -1.
        2   -1    0    0  501    0  0.00000000000E+00  0.00000000000E+00 -0.27824481908E+04  0.27824481908E+04  0.25500000920E-02 0.  1.
    10030    2    1    2    0    0  0.00000000000E+00  0.00000000000E+00 -0.18261680829E+04  0.37387282986E+04  0.32623916724E+04 0.  0.
        3    1    3    3  502    0  0.12691494201E+04  0.72686473112E+03 -0.85314258109E+02  0.14650430439E+04  0.10100000352E+00 0. -1.
       -3    1    3    3    0  502 -0.12691494201E+04 -0.72686473112E+03 -0.17408538248E+04  0.22736852547E+04  0.10100000352E+00 0.  1.
</event>
<event>
 5   0  0.2057130E-07  0.3290293E+04  0.7818609E-02  0.8165370E-01
       -1   -1    0    0    0  501  0.00000000000E+00  0.00000000000E+00  0.11015863316E+04  0.11015863316E+04  0.50400001928E-02 0.  1.
        1   -1    0    0  501    0  0.00000000000E+00  0.00000000000E+00 -0.24569172116E+04  0.24569172116E+04  0.50400001928E-02 0. -1.
    10030    2    1    2    0    0  0.00000000000E+00  0.00000000000E+00 -0.13553308800E+04  0.35585035432E+04  0.32902926424E+04 0.  0.
        2    1    3    3  502    0 -0.13588246365E+04 -0.85173774660E+03 -0.10745166674E+04  0.19304009040E+04  0.25500000920E-02 0. -1.
       -2    1    3    3    0  502  0.13588246365E+04  0.85173774660E+03 -0.28081421268E+03  0.16281026392E+04  0.25500000920E-02 0.  1.
</event>
<event>
 5   0  0.6424183E-07  0.3302774E+04  0.7818609E-02  0.8162190E-01
        2   -1    0    0  501    0  0.00000000000E+00  0.00000000000E+00  0.11662560495E+04  0.11662560495E+04  0.25500000920E-02 0. -1.
       -2   -1    0    0    0  501  0.00000000000E+00  0.00000000000E+00 -0.23383196169E+04  0.23383196169E+04  0.25500000920E-02 0.  1.
    10030    2    1    2    0    0  0.00000000000E+00  0.00000000000E+00 -0.11720635674E+04  0.35045756665E+04  0.33027742272E+04 0.  0.
        2    1    3    3  502    0  0.94748926564E+03 -0.12891975434E+04 -0.15199989694E+03  0.16071310411E+04  0.25500000920E-02 0.  1.
       -2    1    3    3    0  502 -0.94748926564E+03  0.12891975434E+04 -0.10200636705E+04  0.18974446254E+04  0.25500000920E-02 0. -1.
</event>
<event>
 5   0  0.2037333E-07  0.3274125E+04  0.7818609E-02  0.8169511E-01
       -1   -1    0    0    0  501  0.00000000000E+00  0.00000000000E+00  0.15071967254E+04  0.15071967254E+04  0.50400001928E-02 0. -1.
        1   -1    0    0  501    0  0.00000000000E+00  0.00000000000E+00 -0.17781182928E+04  0.17781182928E+04  0.50400001928E-02 0.  1.
    10030    2    1    2    0    0  0.00000000000E+00  0.00000000000E+00 -0.27092156733E+03  0.32853150182E+04  0.32741252684E+04 0.  0.
        3    1    3    3  502    0  0.86884037391E+03 -0.99732323035E+03 -0.11033489399E+04  0.17224738356E+04  0.10100000352E+00 0.  1.
       -3    1    3    3    0  502 -0.86884037391E+03  0.99732323035E+03  0.83242737256E+03  0.15628411826E+04  0.10100000352E+00 0. -1.
</event>
<event>
 5   0  0.6424183E-07  0.3265537E+04  0.7818609E-02  0.8171720E-01
       -2   -1    0    0    0  501  0.00000000000E+00  0.00000000000E+00  0.91026620030E+03  0.91026620031E+03  0.25500000920E-02 0. -1.
        2   -1    0    0  501    0  0.00000000000E+00  0.00000000000E+00 -0.29287407048E+04  0.29287407048E+04  0.25500000920E-02 0.  1.
    10030    2    1    2    0    0  0.00000000000E+00  0.00000000000E+00 -0.20184745045E+04  0.38390069051E+04  0.32655374278E+04 0.  0.
        2    1    3    3  502    0 -0.57893743538E+02  0.14615812469E+04 -0.15632060054E+03  0.14710566124E+04  0.25500000920E-02 0. -1.
       -2    1    3    3    0  502  0.57893743538E+02 -0.14615812469E+04 -0.18621539040E+04  0.23679502927E+04  0.25500000920E-02 0.  1.
</event>
<event>
 5   0  0.2087665E-07  0.3285726E+04  0.7818609E-02  0.8166537E-01
        1   -1    0    0  501    0  0.00000000000E+00  0.00000000000E+00  0.16095863015E+04  0.16095863015E+04  0.50400001928E-02 0. -1.
       -1   -1    0    0    0  501  0.00000000000E+00  0.00000000000E+00 -0.16768271746E+04  0.16768271746E+04  0.50400001928E-02 0.  1.
    10030    2    1    2    0    0  0.00000000000E+00  0.00000000000E+00 -0.67240873064E+02  0.32864134761E+04  0.32857255212E+04 0.  0.
        5    1    3    3  502    0  0.39303609547E+03 -0.10859437399E+04  0.11350525436E+04  0.16192953854E+04  0.46999998093E+01 0. -1.
       -5    1    3    3    0  502 -0.39303609547E+03  0.10859437399E+04 -0.12022934166E+04  0.16671180907E+04  0.46999998093E+01 0.  1.
</event>
<event>
 5   0  0.2080770E-07  0.3297992E+04  0.7818609E-02  0.8163407E-01
        1   -1    0    0  501    0  0.00000000000E+00  0.00000000000E+00  0.11767034092E+04  0.11767034092E+04  0.50400001928E-02 0. -1.
       -1   -1    0    0    0  501  0.00000000000E+00  0.00000000000E+00 -0.23108518712E+04  0.23108518712E+04  0.50400001928E-02 0.  1.
    10030    2    1    2    0    0  0.00000000000E+00  0.00000000000E+00 -0.11341484620E+04  0.34875552804E+04  0.32979916768E+04 0.  0.
        4    1    3    3  502    0 -0.72919749522E+03  0.30190196371E+03 -0.20981599041E+04  0.22416847189E+04  0.12699999809E+01 0.  1.
       -4    1    3    3    0  502  0.72919749522E+03 -0.30190196371E+03  0.96401144211E+03  0.12458705616E+04  0.12699999809E+01 0. -1.
</event>
<event>
 5   0  0.6351753E-07  0.3149919E+04  0.7818609E-02  0.8202170E-01
       -2   -1    0    0    0  501  0.00000000000E+00  0.00000000000E+00  0.13264084810E+04  0.13264084810E+04  0.25500000920E-02 0. -1.
        2   -1    0    0  501    0  0.00000000000E+00  0.00000000000E+00 -0.18700855876E+04  0.18700855876E+04  0.25500000920E-02 0.  1.
    10030    2    1    2    0    0  0.00000000000E+00  0.00000000000E+00 -0.54367710665E+03  0.31964940686E+04  0.31499189726E+04 0.  0.
        3    1    3    3  502    0 -0.13334350810E+04  0.69373897818E+03 -0.74908426654E+03  0.16794195824E+04  0.10100000352E+00 0.  1.
       -3    1    3    3    0  502  0.13334350810E+04 -0.69373897818E+03  0.20540715989E+03  0.15170744862E+04  0.10100000352E+00 0. -1.
</event>
<event>
 5   0  0.2037333E-07  0.3260221E+04  0.7818609E-02  0.8173092E-01
       -1   -1    0    0    0  501  0.00000000000E+00  0.00000000000E+00  0.12354827078E+04  0.12354827078E+04  0.50400001928E-02 0. -1.
        1   -1    0    0  501    0  0.00000000000E+00  0.00000000000E+00 -0.21507865584E+04  0.21507865584E+04  0.50400001928E-02 0.  1.
    10030    2    1    2    0    0  0.00000000000E+00  0.00000000000E+00 -0.91530385055E+03  0.33862692662E+04  0.32602206067E+04 0.  0.
        3    1    3    3  502    0  0.26498439857E+03  0.12243258706E+04  0.62578273185E+03  0.14002837593E+04  0.10100000352E+00 0. -1.
       -3    1    3    3    0  502 -0.26498439857E+03 -0.12243258706E+04 -0.15410865824E+04  0.19859855069E+04  0.10100000352E+00 0.  1.
</event>
<event>
 5   0  0.2057130E-07  0.3297609E+04  0.7818609E-02  0.8163504E-01
       -1   -1    0    0    0  501  0.00000000000E+00  0.00000000000E+00  0.14236409475E+04  0.14236409475E+04  0.50400001928E-02 0. -1.
        1   -1    0    0  501    0  0.00000000000E+00  0.00000000000E+00 -0.19095794441E+04  0.19095794441E+04  0.50400001928E-02 0.  1.
    10030    2    1    2    0    0  0.00000000000E+00  0.00000000000E+00 -0.48593849663E+03  0.33332203916E+04  0.32976085208E+04 0.  0.
        2    1    3    3  502    0  0.15478005535E+04  0.27618228888E+03  0.25897406221E+03  0.15934336431E+04  0.25500000920E-02 0.  1.
       -2    1    3    3    0  502 -0.15478005535E+04 -0.27618228888E+03 -0.74491255883E+03  0.17397867485E+04  0.25500000920E-02 0. -1.
</event>
<event>
 5   0  0.2057130E-07  0.3253126E+04  0.7818609E-02  0.8174926E-01
       -1   -1    0    0    0  501  0.00000000000E+00  0.00000000000E+00  0.17991002831E+04  0.17991002831E+04  0.50400001928E-02 0.  1.
        1   -1    0    0  501    0  0.00000000000E+00  0.00000000000E+00 -0.14705723333E+04  0.14705723333E+04  0.50400001928E-02 0. -1.
    10030    2    1    2    0    0  0.00000000000E+00  0.00000000000E+00  0.32852794984E+03  0.32696726164E+04  0.32531259436E+04 0.  0.
        2    1    3    3  502    0  0.10582184932E+04  0.11074056044E+04 -0.38581637236E+03  0.15795657078E+04  0.25500000920E-02 0.  1.
       -2    1    3    3    0  502 -0.10582184932E+04 -0.11074056044E+04  0.71434432220E+03  0.16901069087E+04  0.25500000920E-02 0. -1.
</event>
<event>
 5   0  0.6426079E-07  0.3291581E+04  0.7818609E-02  0.8165041E-01
       -2   -1    0    0    0  501  0.00000000000E+00  0.00000000000E+00  0.14183447551E+04  0.14183447551E+04  0.25500000920E-02 0. -1.
        2   -1    0    0  501    0  0.00000000000E+00  0.00000000000E+00 -0.19097089680E+04  0.19097089680E+04  0.25500000920E-02 0.  1.
    10030    2    1    2    0    0  0.00000000000E+00  0.00000000000E+00 -0.49136421289E+03  0.33280537231E+04  0.32915805921E+04 0.  0.
        4    1    3    3  502    0  0.10041545069E+04  0.13038814628E+04 -0.23171077661E+03  0.16619640909E+04  0.12699999809E+01 0.  1.
       -4    1    3    3    0  502 -0.10041545069E+04 -0.13038814628E+04 -0.25965343628E+03  0.16660896322E+04  0.12699999809E+01 0. -1.
</event>
<event>
 5   0  0.2080828E-07  0.3127897E+04  0.7818609E-02  0.8208123E-01
        1   -1    0    0  501    0  0.00000000000E+00  0.00000000000E+00  0.20342460238E+04  0.20342460238E+04  0.50400001928E-02 0. -1.
       -1   -1    0    0    0  501  0.00000000000E+00  0.00000000000E+00 -0.12023790430E+04  0.12023790430E+04  0.50400001928E-02 0.  1.
    10030    2    1    2    0    0  0.00000000000E+00  0.00000000000E+00  0.83186698077E+03  0.32366250668E+04  0.31278969211E+04 0.  0.
        1    1    3    3  502    0 -0.46014560130E+03 -0.80842740367E+03 -0.88500649299E+03  0.12839491166E+04  0.50400001928E-02 0.  1.
       -1    1    3    3    0  502  0.46014560130E+03  0.80842740367E+03  0.17168734738E+04  0.19526759502E+04  0.50400001928E-02 0. -1.
</event>
<event>
 5   0  0.2080828E-07  0.3317640E+04  0.7818609E-02  0.8158421E-01
       -1   -1    0    0    0  501  0.00000000000E+00  0.00000000000E+00  0.19200219564E+04  0.19200219564E+04  0.50400001928E-02 0.  1.
        1   -1    0    0  501    0  0.00000000000E+00  0.00000000000E+00 -0.14331518714E+04  0.14331518715E+04  0.50400001928E-02 0. -1.
    10030    2    1    2    0    0  0.00000000000E+00  0.00000000000E+00  0.48687008491E+03  0.33531738278E+04  0.33176395585E+04 0.  0.
        1    1    3    3  502    0 -0.42444428072E+03 -0.14713505976E+00  0.18642098300E+04  0.19119182146E+04  0.50400001928E-02 0.  1.
       -1    1    3    3    0  502  0.42444428072E+03  0.14713505976E+00 -0.13773397451E+04  0.14412556132E+04  0.50400001928E-02 0. -1.
</event>
<event>
 5   0  0.6258718E-07  0.3297192E+04  0.7818609E-02  0.8163610E-01
        2   -1    0    0  501    0  0.00000000000E+00  0.00000000000E+00  0.20546982552E+04  0.20546982552E+04  0.25500000920E-02 0.  1.
       -2   -1    0    0    0  501  0.00000000000E+00  0.00000000000E+00 -0.13227582716E+04  0.13227582716E+04  0.25500000920E-02 0. -1.
    10030    2    1    2    0    0  0.00000000000E+00  0.00000000000E+00  0.73193998366E+03  0.33774565268E+04  0.32971922071E+04 0.  0.
        5    1    3    3  502    0  0.99980060633E+03  0.63645101759E+03  0.15398047097E+04  0.19431139401E+04  0.46999998093E+01 0.  1.
       -5    1    3    3    0  502 -0.99980060633E+03 -0.63645101759E+03 -0.80786472608E+03  0.14343425866E+04  0.46999998093E+01 0. -1.
</event>
<event>
 5   0  0.6377741E-07  0.3302909E+04  0.7818609E-02  0.8162156E-01
       -2   -1    0    0    0  501  0.00000000000E+00  0.00000000000E+00  0.94819895353E+03  0.94819895353E+03  0.25500000920E-02 0.  1.
        2   -1    0    0  501    0  0.00000000000E+00  0.00000000000E+00 -0.28762974586E+04  0.28762974586E+04  0.25500000920E-02 0. -1.
    10030    2    1    2    0    0  0.00000000000E+00  0.00000000000E+00 -0.19280985050E+04  0.38244964121E+04  0.33029091663E+04 0.  0.
        1    1    3    3  502    0  0.13902399713E+04 -0.12022770157E+03 -0.19867470017E+04  0.24278355642E+04  0.50400001928E-02 0. -1.
       -1    1    3    3    0  502 -0.13902399713E+04  0.12022770157E+03  0.58648496639E+02  0.13966608479E+04  0.50400001928E-02 0.  1.
</event>
<event>
 5   0  0.6377741E-07  0.3299993E+04  0.7818609E-02  0.8162897E-01
        2   -1    0    0  501    0  0.00000000000E+00  0.00000000000E+00  0.20717042511E+04  0.20717042511E+04  0.25500000920E-02 0.  1.
       -2   -1    0    0    0  501  0.00000000000E+00  0.00000000000E+00 -0.13141299839E+04  0.13141299839E+04  0.25500000920E-02 0. -1.
    10030    2    1    2    0    0  0.00000000000E+00  0.00000000000E+00  0.75757426728E+03  0.33858342350E+04  0.32999931358E+04 0.  0.
        1    1    3    3  502    0  0.99576157391E+03  0.11823891424E+04  0.97077365909E+03  0.18253730285E+04  0.50400001928E-02 0.  1.
       -1    1    3    3    0  502 -0.99576157391E+03 -0.11823891424E+04 -0.21319939181E+03  0.15604612064E+04  0.50400001928E-02 0. -1.
</event>
<event>
 5   0  0.2037333E-07  0.3296163E+04  0.7818609E-02  0.8163872E-01
       -1   -1    0    0    0  501  0.00000000000E+00  0.00000000000E+00  0.11904635735E+04  0.11904635735E+04  0.50400001928E-02 0.  1.
        1   -1    0    0  501    0  0.00000000000E+00  0.00000000000E+00 -0.22816095450E+04  0.22816095450E+04  0.50400001928E-02 0. -1.
    10030    2    1    2    0    0  0.00000000000E+00  0.00000000000E+00 -0.10911459715E+04  0.34720731185E+04  0.32961632558E+04 0.  0.
        3    1    3    3  502    0  0.16009872168E+04 -0.27646420932E+03 -0.83707347544E+03  0.18276445335E+04  0.10100000352E+00 0.  1.
       -3    1    3    3    0  502 -0.16009872168E+04  0.27646420932E+03 -0.25407249605E+03  0.16444285849E+04  0.10100000352E+00 0. -1.
</event>
<event>
 5   0  0.6258718E-07  0.3292370E+04  0.7818609E-02  0.8164840E-01
       -2   -1    0    0    0  501  0.00000000000E+00  0.00000000000E+00  0.16106292871E+04  0.16106292871E+04  0.25500000920E-02 0. -1.
        2   -1    0    0  501    0  0.00000000000E+00  0.00000000000E+00 -0.16825251922E+04  0.16825251922E+04  0.25500000920E-02 0.  1.
    10030    2    1    2    0    0  0.00000000000E+00  0.00000000000E+00 -0.71895905131E+02  0.32931544793E+04  0.32923695727E+04 0.  0.
        5    1    3    3  502    0 -0.15575054282E+04  0.51299334038E+03 -0.18060931255E+03  0.16497354758E+04  0.46999998093E+01 0. -1.
       -5    1    3    3    0  502  0.15575054282E+04 -0.51299334038E+03  0.10871340742E+03  0.16434190035E+04  0.46999998093E+01 0.  1.
</event>
<event>
 5   0  0.6424183E-07  0.3301789E+04  0.7818609E-02  0.8162440E-01
       -2   -1    0    0    0  501  0.00000000000E+00  0.00000000000E+00  0.12894215377E+04  0.12894215377E+04  0.25500000920E-02 0.  1.
        2   -1    0    0  501    0  0.00000000000E+00  0.00000000000E+00 -0.21137019371E+04  0.21137019371E+04  0.25500000920E-02 0. -1.
    10030    2    1    2    0    0  0.00000000000E+00  0.00000000000E+00 -0.82428039940E+03  0.34031234748E+04  0.33017890919E+04 0.  0.
        2    1    3    3  502    0  0.16054947405E+03 -0.23434708564E+03  0.12640425131E+04  0.12955686648E+04  0.25500000920E-02 0.  1.
       -2    1    3    3    0  502 -0.16054947405E+03  0.23434708564E+03 -0.20883229125E+04  0.21075548100E+04  0.25500000920E-02 0. -1.
</event>
<event>
 5   0  0.2087665E-07  0.3301591E+04  0.7818609E-02  0.8162491E-01
       -1   -1    0    0    0  501  0.00000000000E+00  0.00000000000E+00  0.17867999496E+04  0.17867999496E+04  0.50400001928E-02 0. -1.
        1   -1    0    0  501    0  0.00000000000E+00  0.00000000000E+00 -0.15251434994E+04  0.15251434994E+04  0.50400001928E-02 0.  1.
    10030    2    1    2    0    0  0.00000000000E+00  0.00000000000E+00  0.26165645020E+03  0.33119434489E+04  0.33015913301E+04 0.  0.
        5    1    3    3  502    0  0.16410635818E+04  0.17801757888E+03  0.11276343666E+03  0.16545445357E+04  0.46999998093E+01 0.  1.
       -5    1    3    3    0  502 -0.16410635818E+04 -0.17801757888E+03  0.14889301354E+03  0.16573989132E+04  0.46999998093E+01 0. -1.
</event>
<event>
 5   0  0.6377741E-07  0.3295548E+04  0.7818609E-02  0.8164029E-01
       -2   -1    0    0    0  501  0.00000000000E+00  0.00000000000E+00  0.26667698254E+04  0.26667698254E+04  0.25500000920E-02 0. -1.
        2   -1    0    0  501    0  0.00000000000E+00  0.00000000000E+00 -0.10181451944E+04  0.10181451944E+04  0.25500000920E-02 0.  1.
    10030    2    1    2    0    0  0.00000000000E+00  0.00000000000E+00  0.16486246310E+04  0.36849150199E+04  0.32955478345E+04 0.  0.
        1    1    3    3  502    0  0.16323921996E+04  0.74739415883E+02  0.10611610989E+04  0.19484232476E+04  0.50400001928E-02 0. -1.
       -1    1    3    3    0  502 -0.16323921996E+04 -0.74739415883E+02  0.58746353207E+03  0.17364917723E+04  0.50400001928E-02 0.  1.
</event>
<event>
 5   0  0.6426079E-07  0.3334551E+04  0.7818609E-02  0.8154159E-01
       -2   -1    0    0    0  501  0.00000000000E+00  0.00000000000E+00  0.16731959461E+04  0.16731959461E+04  0.25500000920E-02 0.  1.
        2   -1    0    0  501    0  0.00000000000E+00  0.00000000000E+00 -0.16613755985E+04  0.16613755985E+04  0.25500000920E-02 0. -1.
    10030    2    1    2    0    0  0.00000000000E+00  0.00000000000E+00  0.11820347541E+02  0.33345715446E+04  0.33345505943E+04 0.  0.
        4    1    3    3  502    0 -0.12692124950E+04 -0.88096345510E+03 -0.62083799951E+03  0.16650640832E+04  0.12699999809E+01 0. -1.
       -4    1    3    3    0  502  0.12692124950E+04  0.88096345510E+03  0.63265834705E+03  0.16695074614E+04  0.12699999809E+01 0.  1.
</event>
<event>
 5   0  0.6377741E-07  0.3296204E+04  0.7818609E-02  0.8163862E-01
        2   -1    0    0  501    0  0.00000000000E+00  0.00000000000E+00  0.24961431984E+04  0.24961431984E+04  0.25500000920E-02 0. -1.
       -2   -1    0    0    0  501  0.00000000000E+00  0.00000000000E+00 -0.10881746848E+04  0.10881746848E+04  0.25500000920E-02 0.  1.
    10030    2    1    2    0    0  0.00000000000E+00  0.00000000000E+00  0.14079685136E+04  0.35843178833E+04  0.32962037791E+04 0.  0.
        1    1    3    3  502    0  0.21461202393E+03  0.89997142823E+03  0.21871037122E+04  0.23747483110E+04  0.50400001928E-02 0. -1.
       -1    1    3    3    0  502 -0.21461202393E+03 -0.89997142823E+03 -0.77913519863E+03  0.12095695723E+04  0.50400001928E-02 0.  1.
</event>
<event>
 5   0  0.6424183E-07  0.3285158E+04  0.7818609E-02  0.8166682E-01
       -2   -1    0    0    0  501  0.00000000000E+00  0.00000000000E+00  0.15277463703E+04  0.15277463703E+04  0.25500000920E-02 0.  1.
        2   -1    0    0  501    0  0.00000000000E+00  0.00000000000E+00 -0.17660426472E+04  0.17660426472E+04  0.25500000920E-02 0. -1.
    10030    2    1    2    0    0  0.00000000000E+00  0.00000000000E+00 -0.23829627686E+03  0.32937890175E+04  0.32851576790E+04 0.  0.
        2    1    3    3  502    0 -0.31682545877E+03 -0.94335377683E+03  0.11911023024E+04  0.15521016121E+04  0.25500000920E-02 0.  1.
       -2    1    3    3    0  502  0.31682545877E+03  0.94335377683E+03 -0.14293985793E+04  0.17416874054E+04  0.25500000920E-02 0. -1.
</event>
<event>
 5   0  0.2057130E-07  0.3300729E+04  0.7818609E-02  0.8162710E-01
        1   -1    0    0  501    0  0.00000000000E+00  0.00000000000E+00  0.99758436775E+03  0.99758436777E+03  0.50400001928E-02 0.  1.
       -1   -1    0    0    0  501  0.00000000000E+00  0.00000000000E+00 -0.27302985552E+04  0.27302985552E+04  0.50400001928E-02 0. -1.
    10030    2    1    2    0    0  0.00000000000E+00  0.00000000000E+00 -0.17327141874E+04  0.37278829229E+04  0.33007291061E+04 0.  0.
        2    1    3    3  502    0 -0.96421192090E+03 -0.75013883667E+03  0.38687815923E+03  0.12814396641E+04  0.25500000920E-02 0.  1.
       -2    1    3    3    0  502  0.96421192090E+03  0.75013883667E+03 -0.21195923466E+04  0.24464432588E+04  0.25500000920E-02 0. -1.
</event>
<event>
 5   0  0.2057130E-07  0.3303467E+04  0.7818609E-02  0.8162014E-01
        1   -1    0    0  501    0  0.00000000000E+00  0.00000000000E+00  0.17450236139E+04  0.17450236139E+04  0.50400001928E-02 0.  1.
       -1   -1    0    0    0  501  0.00000000000E+00  0.00000000000E+00 -0.15634303871E+04  0.15634303871E+04  0.50400001928E-02 0. -1.
    10030    2    1    2    0    0  0.00000000000E+00  0.00000000000E+00  0.18159322679E+03  0.33084540010E+04  0.33034666301E+04 0.  0.
        2    1    3    3  502    0  0.77255594584E+03  0.10589571848E+04 -0.91570320225E+03  0.15989826026E+04  0.25500000920E-02 0. -1.
       -2    1    3    3    0  502 -0.77255594584E+03 -0.10589571848E+04  0.10972964290E+04  0.17094713984E+04  0.25500000920E-02 0.  1.
</event>
<event>
 5   0  0.6377741E-07  0.3260209E+04  0.7818609E-02  0.8173095E-01
        2   -1    0    0  501    0  0.00000000000E+00  0.00000000000E+00  0.15387947224E+04  0.15387947224E+04  0.25500000920E-02 0. -1.
       -2   -1    0    0    0  501  0.00000000000E+00  0.00000000000E+00 -0.17268324347E+04  0.17268324347E+04  0.25500000920E-02 0.  1.
    10030    2    1    2    0    0  0.00000000000E+00  0.00000000000E+00 -0.18803771224E+03  0.32656271571E+04  0.32602089731E+04 0.  0.
        1    1    3    3  502    0 -0.42475747709E+03  0.76616517282E+03  0.12829703519E+04  0.15535253169E+04  0.50400001928E-02 0. -1.
       -1    1    3    3    0  502  0.42475747709E+03 -0.76616517282E+03 -0.14710080642E+04  0.17121018402E+04  0.50400001928E-02 0.  1.
</event>
<event>
 5   0  0.2037333E-07  0.3299424E+04  0.7818609E-02  0.8163042E-01
       -1   -1    0    0    0  501  0.00000000000E+00  0.00000000000E+00  0.15887797565E+04  0.15887797566E+04  0.50400001928E-02 0.  1.
        1   -1    0    0  501    0  0.00000000000E+00  0.00000000000E+00 -0.17129814090E+04  0.17129814090E+04  0.50400001928E-02 0. -1.
    10030    2    1    2    0    0  0.00000000000E+00  0.00000000000E+00 -0.12420165246E+03  0.33017611656E+04  0.32994243049E+04 0.  0.
        3    1    3    3  502    0  0.54713487120E+03 -0.12293679909E+04  0.89295867377E+03  0.16149543113E+04  0.10100000352E+00 0.  1.
       -3    1    3    3    0  502 -0.54713487120E+03  0.12293679909E+04 -0.10171603262E+04  0.16868068543E+04  0.10100000352E+00 0. -1.
</event>
<event>
 5   0  0.2087665E-07  0.3296719E+04  0.7818609E-02  0.8163731E-01
        1   -1    0    0  501    0  0.00000000000E+00  0.00000000000E+00  0.16708591536E+04  0.16708591536E+04  0.50400001928E-02 0.  1.
       -1   -1    0    0    0  501  0.00000000000E+00  0.00000000000E+00 -0.16261624040E+04  0.16261624040E+04  0.50400001928E-02 0. -1.
    10030    2    1    2    0    0  0.00000000000E+00  0.00000000000E+00  0.44696749587E+02  0.32970215576E+04  0.32967185733E+04 0.  0.
        5    1    3    3  502    0 -0.49328767183E+03  0.11827378002E+04  0.10592005321E+04  0.16625670779E+04  0.46999998093E+01 0.  1.
       -5    1    3    3    0  502  0.49328767183E+03 -0.11827378002E+04 -0.10145037825E+04  0.16344544797E+04  0.46999998093E+01 0. -1.
</event>
<event>
 5   0  0.6351753E-07  0.3303095E+04  0.7818609E-02  0.8162108E-01
       -2   -1    0    0    0  501  0.00000000000E+00  0.00000000000E+00  0.93413947544E+03  0.93413947544E+03  0.25500000920E-02 0.  1.
        2   -1    0    0  501    0  0.00000000000E+00  0.00000000000E+00 -0.29199158193E+04  0.29199158193E+04  0.25500000920E-02 0. -1.
    10030    2    1    2    0    0  0.00000000000E+00  0.00000000000E+00 -0.19857763439E+04  0.38540552948E+04  0.33030946894E+04 0.  0.
        3    1    3    3  502    0 -0.83144569536E+03 -0.14165557530E+02  0.67204616797E+03  0.10691813080E+04  0.10100000352E+00 0.  1.
       -3    1    3    3    0  502  0.83144569536E+03  0.14165557530E+02 -0.26578225118E+04  0.27848739867E+04  0.10100000352E+00 0. -1.
</event>
<event>
 5   0  0.2080770E-07  0.3295604E+04  0.7818609E-02  0.8164015E-01
        1   -1    0    0  501    0  0.00000000000E+00  0.00000000000E+00  0.17470056262E+04  0.17470056262E+04  0.50400001928E-02 0.  1.
       -1   -1    0    0    0  501  0.00000000000E+00  0.00000000000E+00 -0.15542320039E+04  0.15542320039E+04  0.50400001928E-02 0. -1.
    10030    2    1    2    0    0  0.00000000000E+00  0.00000000000E+00  0.19277362229E+03  0.33012376302E+04  0.32956043788E+04 0.  0.
        4    1    3    3  502    0  0.58716237806E+03 -0.10222764479E+04 -0.10568593621E+04  0.15832757556E+04  0.12699999809E+01 0. -1.
       -4    1    3    3    0  502 -0.58716237806E+03  0.10222764479E+04  0.12496329844E+04  0.17179618746E+04  0.12699999809E+01 0.  1.
</event>
<event>
 5   0  0.6424183E-07  0.3298673E+04  0.7818609E-02  0.8163233E-01
        2   -1    0    0  501    0  0.00000000000E+00  0.00000000000E+00  0.10828239204E+04  0.10828239204E+04  0.25500000920E-02 0.  1.
       -2   -1    0    0    0  501  0.00000000000E+00  0.00000000000E+00 -0.25122374964E+04  0.25122374964E+04  0.25500000920E-02 0. -1.
    10030    2    1    2    0    0  0.00000000000E+00  0.00000000000E+00 -0.14294135760E+04  0.35950614168E+04  0.32986729785E+04 0.  0.
        2    1    3    3  502    0 -0.20958029952E+03  0.48871901075E+03 -0.24162500184E+04  0.24740724171E+04  0.25500000920E-02 0. -1.
       -2    1    3    3    0  502  0.20958029952E+03 -0.48871901075E+03  0.98683644239E+03  0.11209889997E+04  0.25500000920E-02 0.  1.
</event>
<event>
 5   0  0.2080828E-07  0.3282638E+04  0.7818609E-02  0.8167327E-01
        1   -1    0    0  501    0  0.00000000000E+00  0.00000000000E+00  0.14774488735E+04  0.14774488735E+04  0.50400001928E-02 0.  1.
       -1   -1    0    0    0  501  0.00000000000E+00  0.00000000000E+00 -0.18233641217E+04  0.18233641217E+04  0.50400001928E-02 0. -1.
    10030    2    1    2    0    0  0.00000000000E+00  0.00000000000E+00 -0.34591524823E+03  0.33008129952E+04  0.32826375173E+04 0.  0.
        1    1    3    3  502    0  0.84763872079E+03 -0.12883420196E+04  0.39194534288E+03  0.15912063701E+04  0.50400001928E-02 0.  1.
       -1    1    3    3    0  502 -0.84763872079E+03  0.12883420196E+04 -0.73786059111E+03  0.17096066250E+04  0.50400001928E-02 0. -1.
</event>
<event>
 5   0  0.2080828E-07  0.3250616E+04  0.7818609E-02  0.8175576E-01
       -1   -1    0    0    0  501  0.00000000000E+00  0.00000000000E+00  0.12397636811E+04  0.12397636811E+04  0.50400001928E-02 0. -1.
        1   -1    0    0  501    0  0.00000000000E+00  0.00000000000E+00 -0.21307501520E+04  0.21307501520E+04  0.50400001928E-02 0.  1.
    10030    2    1    2    0    0  0.00000000000E+00  0.00000000000E+00 -0.89098647090E+03  0.33705138331E+04  0.32506163428E+04 0.  0.
        1    1    3    3  502    0 -0.83916436473E+03 -0.13842150840E+04 -0.59709987614E+03  0.17253337335E+04  0.50400001928E-02 0.  1.
       -1    1    3    3    0  502  0.83916436473E+03  0.13842150840E+04 -0.29388659476E+03  0.16451800997E+04  0.50400001928E-02 0. -1.
</event>
<event>
 5   0  0.6258718E-07  0.3295655E+04  0.7818609E-02  0.8164002E-01
       -2   -1    0    0    0  501  0.00000000000E+00  0.00000000000E+00  0.16545413256E+04  0.16545413256E+04  0.25500000920E-02 0.  1.
        2   -1    0    0  501    0  0.00000000000E+00  0.00000000000E+00 -0.16411408111E+04  0.16411408111E+04  0.25500000920E-02 0. -1.
    10030    2    1    2    0    0  0.00000000000E+00  0.00000000000E+00  0.13400514419E+02  0.32956821367E+04  0.32956548928E+04 0.  0.
        5    1    3    3  502    0  0.96815035389E+02 -0.15043913296E+04  0.67209795754E+03  0.16505466301E+04  0.46999998093E+01 0. -1.
       -5    1    3    3    0  502 -0.96815035389E+02  0.15043913296E+04 -0.65869744313E+03  0.16451355066E+04  0.46999998093E+01 0.  1.
</event>
<event>
 5   0  0.2037333E-07  0.3286247E+04  0.7818609E-02  0.8166404E-01
       -1   -1    0    0    0  501  0.00000000000E+00  0.00000000000E+00  0.10847506731E+04  0.10847506731E+04  0.50400001928E-02 0. -1.
        1   -1    0    0  501    0  0.00000000000E+00  0.00000000000E+00 -0.24889180312E+04  0.24889180312E+04  0.50400001928E-02 0.  1.
    10030    2    1    2    0    0  0.00000000000E+00  0.00000000000E+00 -0.14041673581E+04  0.35736687043E+04  0.32862474098E+04 0.  0.
        3    1    3    3  502    0 -0.50088120950E+03  0.30792973957E+03 -0.23706034421E+04  0.24424298148E+04  0.10100000352E+00 0.  1.
       -3    1    3    3    0  502  0.50088120950E+03 -0.30792973957E+03  0.96643608393E+03  0.11312388895E+04  0.10100000352E+00 0. -1.
</event>
<event>
 5   0  0.2087665E-07  0.3324557E+04  0.7818609E-02  0.8156675E-01
       -1   -1    0    0    0  501  0.00000000000E+00  0.00000000000E+00  0.11578413220E+04  0.11578413220E+04  0.50400001928E-02 0. -1.
        1   -1    0    0  501    0  0.00000000000E+00  0.00000000000E+00 -0.23864839466E+04  0.23864839466E+04  0.50400001928E-02 0.  1.
    10030    2    1    2    0    0  0.00000000000E+00  0.00000000000E+00 -0.12286426246E+04  0.35443252686E+04  0.33245569495E+04 0.  0.
        5    1    3    3  502    0 -0.46960680391E+03  0.15144547604E+04 -0.11463532688E+04  0.19565918528E+04  0.46999998093E+01 0.  1.
       -5    1    3    3    0  502  0.46960680391E+03 -0.15144547604E+04 -0.82289355821E+02  0.15877334158E+04  0.46999998093E+01 0. -1.
</event>
<event>
 5   0  0.6424183E-07  0.3305225E+04  0.7818609E-02  0.8161567E-01
        2   -1    0    0  501    0  0.00000000000E+00  0.00000000000E+00  0.22865463887E+04  0.22865463887E+04  0.25500000920E-02 0. -1.
       -2   -1    0    0    0  501  0.00000000000E+00  0.00000000000E+00 -0.11944334712E+04  0.11944334712E+04  0.25500000920E-02 0.  1.
    10030    2    1    2    0    0  0.00000000000E+00  0.00000000000E+00  0.10921129175E+04  0.34809798598E+04  0.33052246762E+04 0.  0.
        2    1    3    3  502    0  0.83388308331E+03 -0.26317976749E+02  0.20484739019E+04  0.22118541903E+04  0.25500000920E-02 0. -1.
       -2    1    3    3    0  502 -0.83388308331E+03  0.26317976749E+02 -0.95636098438E+03  0.12691256695E+04  0.25500000920E-02 0.  1.
</event>
<event>
 5   0  0.6426079E-07  0.3291365E+04  0.7818609E-02  0.8165096E-01
       -2   -1    0    0    0  501  0.00000000000E+00  0.00000000000E+00  0.16527242587E+04  0.16527242587E+04  0.25500000920E-02 0.  1.
        2   -1    0    0  501    0  0.00000000000E+00  0.00000000000E+00 -0.16386711587E+04  0.16386711587E+04  0.25500000920E-02 0. -1.
    10030    2    1    2    0    0  0.00000000000E+00  0.00000000000E+00  0.14053099955E+02  0.32913954174E+04  0.32913654164E+04 0.  0.
        4    1    3    3  502    0 -0.78696444716E+03  0.42716107109E+02  0.14517307775E+04  0.16518660873E+04  0.12699999809E+01 0.  1.
       -4    1    3    3    0  502  0.78696444716E+03 -0.42716107109E+02 -0.14376776776E+04  0.16395293302E+04  0.12699999809E+01 0. -1.
</event>
<event>
 5   0  0.2037333E-07  0.3294990E+04  0.7818609E-02  0.8164171E-01
       -1   -1    0    0    0  501  0.00000000000E+00  0.00000000000E+00  0.14750191483E+04  0.14750191483E+04  0.50400001928E-02 0. -1.
        1   -1    0    0  501    0  0.00000000000E+00  0.00000000000E+00 -0.18401389655E+04  0.18401389655E+04  0.50400001928E-02 0.  1.
    10030    2    1    2    0    0  0.00000000000E+00  0.00000000000E+00 -0.36511981720E+03  0.33151581138E+04  0.32949902638E+04 0.  0.
        3    1    3    3  502    0 -0.28791788379E+03 -0.11903069492E+04 -0.12913546803E+04  0.17796978007E+04  0.10100000352E+00 0.  1.
       -3    1    3    3    0  502  0.28791788379E+03  0.11903069492E+04  0.92623486315E+03  0.15354603131E+04  0.10100000352E+00 0. -1.
</event>
<event>
 5   0  0.6424183E-07  0.3318740E+04  0.7818609E-02  0.8158143E-01
       -2   -1    0    0    0  501  0.00000000000E+00  0.00000000000E+00  0.11455474326E+04  0.11455474326E+04  0.25500000920E-02 0.  1.
        2   -1    0    0  501    0  0.00000000000E+00  0.00000000000E+00 -0.24036625594E+04  0.24036625594E+04  0.25500000920E-02 0. -1.
    10030    2    1    2    0    0  0.00000000000E+00  0.00000000000E+00 -0.12581151268E+04  0.35492099920E+04  0.33187404080E+04 0.  0.
        2    1    3    3  502    0 -0.37719906709E+03 -0.12704876261E+04  0.43883097613E+03  0.13960625237E+04  0.25500000920E-02 0.  1.
       -2    1    3    3    0  502  0.37719906709E+03  0.12704876261E+04 -0.16969461029E+04  0.21531474684E+04  0.25500000920E-02 0. -1.
</event>
<event>
 5   0  0.6426079E-07  0.3281652E+04  0.7818609E-02  0.8167580E-01
       -2   -1    0    0    0  501  0.00000000000E+00  0.00000000000E+00  0.15585360958E+04  0.15585360958E+04  0.25500000920E-02 0.  1.
        2   -1    0    0  501    0  0.00000000000E+00  0.00000000000E+00 -0.17274610054E+04  0.17274610054E+04  0.25500000920E-02 0. -1.
    10030    2    1    2    0    0  0.00000000000E+00  0.00000000000E+00 -0.16892490967E+03  0.32859971012E+04  0.32816522247E+04 0.  0.
        4    1    3    3  502    0  0.37035645642E+03  0.89843225020E+03 -0.14083189220E+04  0.17110547075E+04  0.12699999809E+01 0. -1.
       -4    1    3    3    0  502 -0.37035645642E+03 -0.89843225020E+03  0.12393940123E+04  0.15749423938E+04  0.12699999809E+01 0.  1.
</event>
<event>
 5   0  0.6351753E-07  0.3301753E+04  0.7818609E-02  0.8162449E-01
       -2   -1    0    0    0  501  0.00000000000E+00  0.00000000000E+00  0.17190114122E+04  0.17190114122E+04  0.25500000920E-02 0. -1.
        2   -1    0    0  501    0  0.00000000000E+00  0.00000000000E+00 -0.15854424025E+04  0.15854424025E+04  0.25500000920E-02 0.  1.
    10030    2    1    2    0    0  0.00000000000E+00  0.00000000000E+00  0.13356900976E+03  0.33044538147E+04  0.33017532211E+04 0.  0.
        3    1    3    3  502    0 -0.16724197398E+03 -0.11368496190E+04  0.12530795561E+04  0.17001780255E+04  0.10100000352E+00 0. -1.
       -3    1    3    3    0  502  0.16724197398E+03  0.11368496190E+04 -0.11195105464E+04  0.16042757892E+04  0.10100000352E+00 0.  1.
</event>
<event>
 5   0  0.2087665E-07  0.3297266E+04  0.7818609E-02  0.8163591E-01
       -1   -1    0    0    0  501  0.00000000000E+00  0.00000000000E+00  0.22295971888E+04  0.22295971888E+04  0.50400001928E-02 0.  1.
        1   -1    0    0  501    0  0.00000000000E+00  0.00000000000E+00 -0.12190503727E+04  0.12190503727E+04  0.50400001928E-02 0. -1.
    10030    2    1    2    0    0  0.00000000000E+00  0.00000000000E+00  0.10105468161E+04  0.34486475615E+04  0.32972663126E+04 0.  0.
        5    1    3    3  502    0 -0.14620620263E+03 -0.10352376047E+03  0.22193796984E+04  0.22266031884E+04  0.46999998093E+01 0.  1.
       -5    1    3    3    0  502  0.14620620263E+03  0.10352376047E+03 -0.12088328823E+04  0.12220443732E+04  0.46999998093E+01 0. -1.
</event>
<event>
 5   0  0.6424183E-07  0.3288514E+04  0.7818609E-02  0.8165824E-01
       -2   -1    0    0    0  501  0.00000000000E+00  0.00000000000E+00  0.15566137668E+04  0.15566137668E+04  0.25500000920E-02 0. -1.
        2   -1    0    0  501    0  0.00000000000E+00  0.00000000000E+00 -0.17368346621E+04  0.17368346621E+04  0.25500000920E-02 0.  1.
    10030    2    1    2    0    0  0.00000000000E+00  0.00000000000E+00 -0.18022089528E+03  0.32934484289E+04  0.32885137955E+04 0.  0.
        2    1    3    3  502    0  0.13225512770E+04 -0.54274793678E+03  0.72342834458E+03  0.16022065326E+04  0.25500000920E-02 0. -1.
       -2    1    3    3    0  502 -0.13225512770E+04  0.54274793678E+03 -0.90364923985E+03  0.16912418964E+04  0.25500000920E-02 0.  1.
</event>
<event>
 5   0  0.1994250E-07  0.3303717E+04  0.7818609E-02  0.8161950E-01
        3   -1    0    0  501    0  0.00000000000E+00  0.00000000000E+00  0.14075171769E+04  0.14075171806E+04  0.10100000352E+00 0. -1.
       -3   -1    0    0    0  501  0.00000000000E+00  0.00000000000E+00 -0.19386171329E+04  0.19386171356E+04  0.10100000352E+00 0.  1.
    10030    2    1    2    0    0  0.00000000000E+00  0.00000000000E+00 -0.53109995601E+03  0.33461343161E+04  0.33037172546E+04 0.  0.
        5    1    3    3  502    0  0.50217425043E+03  0.24070227661E+03 -0.18406690456E+04  0.19230707707E+04  0.46999998093E+01 0.  1.
       -5    1    3    3    0  502 -0.50217425043E+03 -0.24070227661E+03  0.13095690896E+04  0.14230635454E+04  0.46999998093E+01 0. -1.
</event>
<event>
 5   0  0.2080770E-07  0.3296550E+04  0.7818609E-02  0.8163774E-01
       -1   -1    0    0    0  501  0.00000000000E+00  0.00000000000E+00  0.14874205200E+04  0.14874205200E+04  0.50400001928E-02 0. -1.
        1   -1    0    0  501    0  0.00000000000E+00  0.00000000000E+00 -0.18265252425E+04  0.18265252425E+04  0.50400001928E-02 0.  1.
    10030    2    1    2    0    0  0.00000000000E+00  0.00000000000E+00 -0.33910472251E+03  0.33139457625E+04  0.32965503946E+04 0.  0.
        4    1    3    3  502    0 -0.99948288883E+03 -0.73654331009E+03 -0.12594075754E+04  0.17684940335E+04  0.12699999809E+01 0.  1.
       -4    1    3    3    0  502  0.99948288883E+03  0.73654331009E+03  0.92030285290E+03  0.15454517290E+04  0.12699999809E+01 0. -1.
</event>
<event>
 5   0  0.6424183E-07  0.3313779E+04  0.7818609E-02  0.8159398E-01
        2   -1    0    0  501    0  0.00000000000E+00  0.00000000000E+00  0.18851643922E+04  0.18851643922E+04  0.25500000920E-02 0.  1.
       -2   -1    0    0    0  501  0.00000000000E+00  0.00000000000E+00 -0.14562565807E+04  0.14562565807E+04  0.25500000920E-02 0. -1.
    10030    2    1    2    0    0  0.00000000000E+00  0.00000000000E+00  0.42890781156E+03  0.33414209729E+04  0.33137791428E+04 0.  0.
        2    1    3    3  502    0 -0.95857958270E+03  0.55016642306E+03  0.14591431908E+04  0.18304799264E+04  0.25500000920E-02 0.  1.
       -2    1    3    3    0  502  0.95857958270E+03 -0.55016642306E+03 -0.10302353793E+04  0.15109410465E+04  0.25500000920E-02 0. -1.
</event>
<event>
 5   0  0.2087665E-07  0.3300755E+04  0.7818609E-02  0.8162703E-01
       -1   -1    0    0    0  501  0.00000000000E+00  0.00000000000E+00  0.16026823822E+04  0.16026823822E+04  0.50400001928E-02 0. -1.
        1   -1    0    0  501    0  0.00000000000E+00  0.00000000000E+00 -0.16994924244E+04  0.16994924244E+04  0.50400001928E-02 0.  1.
    10030    2    1    2    0    0  0.00000000000E+00  0.00000000000E+00 -0.96810042181E+02  0.33021748066E+04  0.33007554089E+04 0.  0.
        5    1    3    3  502    0  0.39287820451E+03 -0.53632776729E+02 -0.16511222427E+04  0.16980743531E+04  0.46999998093E+01 0.  1.
       -5    1    3    3    0  502 -0.39287820451E+03  0.53632776729E+02  0.15543122005E+04  0.16041004535E+04  0.46999998093E+01 0. -1.
</event>
<event>
 5   0  0.2087665E-07  0.3163423E+04  0.7818609E-02  0.8198544E-01
        1   -1    0    0  501    0  0.00000000000E+00  0.00000000000E+00  0.19801682696E+04  0.19801682696E+04  0.50400001928E-02 0. -1.
       -1   -1    0    0    0  501  0.00000000000E+00  0.00000000000E+00 -0.12634338618E+04  0.12634338618E+04  0.50400001928E-02 0.  1.
    10030    2    1    2    0    0  0.00000000000E+00  0.00000000000E+00  0.71673440777E+03  0.32436021314E+04  0.31634232369E+04 0.  0.
        5    1    3    3  502    0 -0.34743884616E+03 -0.78355571426E+02  0.19385096923E+04  0.19709630297E+04  0.46999998093E+01 0. -1.
       -5    1    3    3    0  502  0.34743884616E+03  0.78355571426E+02 -0.12217752845E+04  0.12726391017E+04  0.46999998093E+01 0.  1.
</event>
<event>
 5   0  0.2037333E-07  0.3333263E+04  0.7818609E-02  0.8154483E-01
        1   -1    0    0  501    0  0.00000000000E+00  0.00000000000E+00  0.14767867006E+04  0.14767867006E+04  0.50400001928E-02 0.  1.
       -1   -1    0    0    0  501  0.00000000000E+00  0.00000000000E+00 -0.18808812517E+04  0.18808812517E+04  0.50400001928E-02 0. -1.
    10030    2    1    2    0    0  0.00000000000E+00  0.00000000000E+00 -0.40409455115E+03  0.33576679523E+04  0.33332629167E+04 0.  0.
        3    1    3    3  502    0 -0.15304241887E+04 -0.54489370575E+03 -0.57699975980E+03  0.17239594198E+04  0.10100000352E+00 0. -1.
       -3    1    3    3    0  502  0.15304241887E+04  0.54489370575E+03  0.17290520865E+03  0.16337085325E+04  0.10100000352E+00 0.  1.
</event>
<event>
 5   0  0.2057130E-07  0.3265193E+04  0.7818609E-02  0.8171809E-01
       -1   -1    0    0    0  501  0.00000000000E+00  0.00000000000E+00  0.19935308449E+04  0.19935308449E+04  0.50400001928E-02 0.  1.
        1   -1    0    0  501    0  0.00000000000E+00  0.00000000000E+00 -0.13370106378E+04  0.13370106378E+04  0.50400001928E-02 0. -1.
    10030    2    1    2    0    0  0.00000000000E+00  0.00000000000E+00  0.65652020704E+03  0.33305414827E+04  0.32651933765E+04 0.  0.
        2    1    3    3  502    0 -0.77753487027E+03 -0.14129082226E+04  0.69205122724E+02  0.16142055225E+04  0.25500000920E-02 0. -1.
       -2    1    3    3    0  502  0.77753487027E+03  0.14129082226E+04  0.58731508431E+03  0.17163359602E+04  0.25500000920E-02 0.  1.
</event>
<event>
 5   0  0.6258718E-07  0.3367080E+04  0.7818609E-02  0.8146034E-01
       -2   -1    0    0    0  501  0.00000000000E+00  0.00000000000E+00  0.12239813566E+04  0.12239813566E+04  0.25500000920E-02 0.  1.
        2   -1    0    0  501    0  0.00000000000E+00  0.00000000000E+00 -0.23156455791E+04  0.23156455791E+04  0.25500000920E-02 0. -1.
    10030    2    1    2    0    0  0.00000000000E+00  0.00000000000E+00 -0.10916642225E+04  0.35396269357E+04  0.33670800509E+04 0.  0.
        5    1    3    3  502    0 -0.47922441985E+03  0.62232901709E+03 -0.21112120094E+04  0.22525957668E+04  0.46999998093E+01 0. -1.
       -5    1    3    3    0  502  0.47922441985E+03 -0.62232901709E+03  0.10195477869E+04  0.12870311689E+04  0.46999998093E+01 0.  1.
</event>
<event>
 5   0  0.2080828E-07  0.3268694E+04  0.7818609E-02  0.8170907E-01
        1   -1    0    0  501    0  0.00000000000E+00  0.00000000000E+00  0.27161580885E+04  0.27161580885E+04  0.50400001928E-02 0.  1.
       -1   -1    0    0    0  501  0.00000000000E+00  0.00000000000E+00 -0.98340746417E+03  0.98340746418E+03  0.50400001928E-02 0. -1.
    10030    2    1    2    0    0  0.00000000000E+00  0.00000000000E+00  0.17327506244E+04  0.36995655527E+04  0.32686940133E+04 0.  0.
        1    1    3    3  502    0 -0.10005067280E+04 -0.46559760860E+03  0.22308120134E+04  0.24888385012E+04  0.50400001928E-02 0.  1.
       -1    1    3    3    0  502  0.10005067280E+04  0.46559760860E+03 -0.49806138902E+03  0.12107270515E+04  0.50400001928E-02 0. -1.
</event>
<event>
 5   0  0.2087665E-07  0.3292334E+04  0.7818609E-02  0.8164849E-01
       -1   -1    0    0    0  501  0.00000000000E+00  0.00000000000E+00  0.13316174322E+04  0.13316174322E+04  0.50400001928E-02 0.  1.
        1   -1    0    0  501    0  0.00000000000E+00  0.00000000000E+00 -0.20350187287E+04  0.20350187287E+04  0.50400001928E-02 0. -1.
    10030    2    1    2    0    0  0.00000000000E+00  0.00000000000E+00 -0.70340129654E+03  0.33666361609E+04  0.32923343779E+04 0.  0.
        5    1    3    3  502    0  0.73771325794E+03 -0.11536448925E+04  0.58255226504E+03  0.14881218433E+04  0.46999998093E+01 0.  1.
       -5    1    3    3    0  502 -0.73771325794E+03  0.11536448925E+04 -0.12859535616E+04  0.18785143176E+04  0.46999998093E+01 0. -1.
</event>
<event>
 5   0  0.6424183E-07  0.3282229E+04  0.7818609E-02  0.8167432E-01
       -2   -1    0    0    0  501  0.00000000000E+00  0.00000000000E+00  0.15875855626E+04  0.15875855626E+04  0.25500000920E-02 0.  1.
        2   -1    0    0  501    0  0.00000000000E+00  0.00000000000E+00 -0.16964486972E+04  0.16964486972E+04  0.25500000920E-02 0. -1.
    10030    2    1    2    0    0  0.00000000000E+00  0.00000000000E+00 -0.10886313458E+03  0.32840342598E+04  0.32822294005E+04 0.  0.
        2    1    3    3  502    0  0.16330354514E+04 -0.13838514093E+03 -0.13993162313E+03  0.16448513891E+04  0.25500000920E-02 0.  1.
       -2    1    3    3    0  502 -0.16330354514E+04  0.13838514093E+03  0.31068488551E+02  0.16391828708E+04  0.25500000920E-02 0. -1.
</event>
<event>
 5   0  0.2057130E-07  0.3304253E+04  0.7818609E-02  0.8161814E-01
       -1   -1    0    0    0  501  0.00000000000E+00  0.00000000000E+00  0.12851424034E+04  0.12851424034E+04  0.50400001928E-02 0. -1.
        1   -1    0    0  501    0  0.00000000000E+00  0.00000000000E+00 -0.21239065827E+04  0.21239065827E+04  0.50400001928E-02 0.  1.
    10030    2    1    2    0    0  0.00000000000E+00  0.00000000000E+00 -0.83876417928E+03  0.34090489861E+04  0.33042532653E+04 0.  0.
        2    1    3    3  502    0 -0.37300061945E+03  0.96657991570E+03 -0.17470984864E+04  0.20311965234E+04  0.25500000920E-02 0.  1.
       -2    1    3    3    0  502  0.37300061945E+03 -0.96657991570E+03  0.90833430710E+03  0.13778524627E+04  0.25500000920E-02 0. -1.
</event>
<event>
 5   0  0.6258718E-07  0.3293947E+04  0.7818609E-02  0.8164437E-01
        2   -1    0    0  501    0  0.00000000000E+00  0.00000000000E+00  0.25880589327E+04  0.25880589327E+04  0.25500000920E-02 0.  1.
       -2   -1    0    0    0  501  0.00000000000E+00  0.00000000000E+00 -0.10480909369E+04  0.10480909369E+04  0.25500000920E-02 0. -1.
    10030    2    1    2    0    0  0.00000000000E+00  0.00000000000E+00  0.15399679958E+04  0.36361498696E+04  0.32939466368E+04 0.  0.
        5    1    3    3  502    0 -0.26317217538E+03  0.14932400509E+04  0.14798054118E+04  0.21186957286E+04  0.46999998093E+01 0.  1.
       -5    1    3    3    0  502  0.26317217538E+03 -0.14932400509E+04  0.60162584083E+02  0.15174541410E+04  0.46999998093E+01 0. -1.
</event>
<event>
 5   0  0.2080828E-07  0.3308809E+04  0.7818609E-02  0.8160657E-01
       -1   -1    0    0    0  501  0.00000000000E+00  0.00000000000E+00  0.22363076083E+04  0.22363076084E+04  0.50400001928E-02 0.  1.
        1   -1    0    0  501    0  0.00000000000E+00  0.00000000000E+00 -0.12239170147E+04  0.12239170147E+04  0.50400001928E-02 0. -1.
    10030    2    1    2    0    0  0.00000000000E+00  0.00000000000E+00  0.10123905937E+04  0.34602246230E+04  0.33088094124E+04 0.  0.
        1    1    3    3  502    0 -0.61433787860E+03 -0.79457692131E+03 -0.86860946145E+03  0.13278727008E+04  0.50400001928E-02 0. -1.
       -1    1    3    3    0  502  0.61433787860E+03  0.79457692131E+03  0.18810000551E+04  0.21323519223E+04  0.50400001928E-02 0.  1.
</event>
<event>
 5   0  0.6351753E-07  0.3296089E+04  0.7818609E-02  0.8163891E-01
        2   -1    0    0  501    0  0.00000000000E+00  0.00000000000E+00  0.24522274732E+04  0.24522274732E+04  0.25500000920E-02 0.  1.
       -2   -1    0    0    0  501  0.00000000000E+00  0.00000000000E+00 -0.11075852358E+04  0.11075852358E+04  0.25500000920E-02 0. -1.
    10030    2    1    2    0    0  0.00000000000E+00  0.00000000000E+00  0.13446422375E+04  0.35598127090E+04  0.32960891639E+04 0.  0.
        3    1    3    3  502    0 -0.48775099745E+03 -0.15556675360E+04  0.93253076021E+03  0.18781949172E+04  0.10100000352E+00 0. -1.
       -3    1    3    3    0  502  0.48775099745E+03  0.15556675360E+04  0.41211147727E+03  0.16816177918E+04  0.10100000352E+00 0.  1.
</event>
<event>
 5   0  0.6258718E-07  0.3305104E+04  0.7818609E-02  0.8161598E-01
        2   -1    0    0  501    0  0.00000000000E+00  0.00000000000E+00  0.16449093526E+04  0.16449093526E+04  0.25500000920E-02 0.  1.
       -2   -1    0    0    0  501  0.00000000000E+00  0.00000000000E+00 -0.16602301203E+04  0.16602301203E+04  0.25500000920E-02 0. -1.
    10030    2    1    2    0    0  0.00000000000E+00  0.00000000000E+00 -0.15320767681E+02  0.33051394730E+04  0.33051039635E+04 0.  0.
        5    1    3    3  502    0  0.56193747736E+03  0.40311809076E+03 -0.15085522663E+04  0.16595270271E+04  0.46999998093E+01 0. -1.
       -5    1    3    3    0  502 -0.56193747736E+03 -0.40311809076E+03  0.14932314986E+04  0.16456124459E+04  0.46999998093E+01 0.  1.
</event>
<event>
 5   0  0.2080828E-07  0.3292386E+04  0.7818609E-02  0.8164835E-01
       -1   -1    0    0    0  501  0.00000000000E+00  0.00000000000E+00  0.16845755596E+04  0.16845755596E+04  0.50400001928E-02 0. -1.
        1   -1    0    0  501    0  0.00000000000E+00  0.00000000000E+00 -0.16086849395E+04  0.16086849395E+04  0.50400001928E-02 0.  1.
    10030    2    1    2    0    0  0.00000000000E+00  0.00000000000E+00  0.75890620037E+02  0.32932604991E+04  0.32923859629E+04 0.  0.
        1    1    3    3  502    0 -0.14817928114E+04 -0.64739246222E+02 -0.67642240002E+03  0.16301682028E+04  0.50400001928E-02 0.  1.
       -1    1    3    3    0  502  0.14817928114E+04  0.64739246222E+02  0.75231302006E+03  0.16630922964E+04  0.50400001928E-02 0. -1.
</event>
<event>
 5   0  0.6424183E-07  0.3257853E+04  0.7818609E-02  0.8173703E-01
       -2   -1    0    0    0  501  0.00000000000E+00  0.00000000000E+00  0.12740032678E+04  0.12740032678E+04  0.25500000920E-02 0. -1.
        2   -1    0    0  501    0  0.00000000000E+00  0.00000000000E+00 -0.20827273751E+04  0.20827273751E+04  0.25500000920E-02 0.  1.
    10030    2    1    2    0    0  0.00000000000E+00  0.00000000000E+00 -0.80872410729E+03  0.33567306429E+04  0.32578529628E+04 0.  0.
        2    1    3    3  502    0 -0.48888624634E+03  0.95021448856E+03  0.86237598444E+03  0.13731750342E+04  0.25500000920E-02 0. -1.
       -2    1    3    3    0  502  0.48888624634E+03 -0.95021448856E+03 -0.16711000917E+04  0.19835556087E+04  0.25500000920E-02 0.  1.
</event>
<event>
 5   0  0.6258718E-07  0.3297205E+04  0.7818609E-02  0.8163607E-01
       -2   -1    0    0    0  501  0.00000000000E+00  0.00000000000E+00  0.10755301795E+04  0.10755301795E+04  0.25500000920E-02 0.  1.
        2   -1    0    0  501    0  0.00000000000E+00  0.00000000000E+00 -0.25270229358E+04  0.25270229358E+04  0.25500000920E-02 0. -1.
    10030    2    1    2    0    0  0.00000000000E+00  0.00000000000E+00 -0.14514927563E+04  0.36025531154E+04  0.32972045322E+04 0.  0.
        5    1    3    3  502    0  0.60868212166E+03  0.96222382456E+03 -0.20284263685E+04  0.23261350425E+04  0.46999998093E+01 0. -1.
       -5    1    3    3    0  502 -0.60868212166E+03 -0.96222382456E+03  0.57693361216E+03  0.12764180728E+04  0.46999998093E+01 0.  1.
</event>
<event>
 5   0  0.2080770E-07  0.3295897E+04  0.7818609E-02  0.8163940E-01
       -1   -1    0    0    0  501  0.00000000000E+00  0.00000000000E+00  0.22271418643E+04  0.22271418643E+04  0.50400001928E-02 0.  1.
        1   -1    0    0  501    0  0.00000000000E+00  0.00000000000E+00 -0.12193812705E+04  0.12193812705E+04  0.50400001928E-02 0. -1.
    10030    2    1    2    0    0  0.00000000000E+00  0.00000000000E+00  0.10077605939E+04  0.34465231348E+04  0.32958974960E+04 0.  0.
        4    1    3    3  502    0  0.10210737179E+04 -0.15669948592E+03  0.18465322965E+04  0.21158519327E+04  0.12699999809E+01 0.  1.
       -4    1    3    3    0  502 -0.10210737179E+04  0.15669948592E+03 -0.83877170260E+03  0.13306712021E+04  0.12699999809E+01 0. -1.
</event>
<event>
 5   0  0.6258718E-07  0.3299634E+04  0.7818609E-02  0.8162989E-01
        2   -1    0    0  501    0  0.00000000000E+00  0.00000000000E+00  0.15301008475E+04  0.15301008475E+04  0.25500000920E-02 0.  1.
       -2   -1    0    0    0  501  0.00000000000E+00  0.00000000000E+00 -0.17788998435E+04  0.17788998435E+04  0.25500000920E-02 0. -1.
    10030    2    1    2    0    0  0.00000000000E+00  0.00000000000E+00 -0.24879899600E+03  0.33090006909E+04  0.32996340149E+04 0.  0.
        5    1    3    3  502    0 -0.86237653641E+03  0.39934794019E+03  0.12280213536E+04  0.15528137695E+04  0.46999998093E+01 0.  1.
       -5    1    3    3    0  502  0.86237653641E+03 -0.39934794019E+03 -0.14768203496E+04  0.17561869214E+04  0.46999998093E+01 0. -1.
</event>
<event>
 5   0  0.2080770E-07  0.3289653E+04  0.7818609E-02  0.8165533E-01
        1   -1    0    0  501    0  0.00000000000E+00  0.00000000000E+00  0.10417119288E+04  0.10417119288E+04  0.50400001928E-02 0.  1.
       -1   -1    0    0    0  501  0.00000000000E+00  0.00000000000E+00 -0.25971229021E+04  0.25971229022E+04  0.50400001928E-02 0. -1.
    10030    2    1    2    0    0  0.00000000000E+00  0.00000000000E+00 -0.15554109734E+04  0.36388348310E+04  0.32896528131E+04 0.  0.
        4    1    3    3  502    0  0.89066127952E+03  0.37903965636E+03  0.69330329871E+03  0.11906383384E+04  0.12699999809E+01 0.  1.
       -4    1    3    3    0  502 -0.89066127952E+03 -0.37903965636E+03 -0.22487142721E+04  0.24481964926E+04  0.12699999809E+01 0. -1.
</event>
<event>
 5   0  0.2087665E-07  0.3303503E+04  0.7818609E-02  0.8162005E-01
       -1   -1    0    0    0  501  0.00000000000E+00  0.00000000000E+00  0.19620121451E+04  0.19620121451E+04  0.50400001928E-02 0. -1.
        1   -1    0    0  501    0  0.00000000000E+00  0.00000000000E+00 -0.13905536155E+04  0.13905536155E+04  0.50400001928E-02 0.  1.
    10030    2    1    2    0    0  0.00000000000E+00  0.00000000000E+00  0.57145852967E+03  0.33525657606E+04  0.33035030389E+04 0.  0.
        5    1    3    3  502    0  0.93378752024E+03 -0.49565977425E+03  0.15736809637E+04  0.18958195089E+04  0.46999998093E+01 0. -1.
       -5    1    3    3    0  502 -0.93378752024E+03  0.49565977425E+03 -0.10022224340E+04  0.14567462517E+04  0.46999998093E+01 0.  1.
</event>
<event>
 5   0  0.2087665E-07  0.3284058E+04  0.7818609E-02  0.8166964E-01
        1   -1    0    0  501    0  0.00000000000E+00  0.00000000000E+00  0.91407369395E+03  0.91407369397E+03  0.50400001928E-02 0.  1.
       -1   -1    0    0    0  501  0.00000000000E+00  0.00000000000E+00 -0.29497169179E+04  0.29497169179E+04  0.50400001928E-02 0. -1.
    10030    2    1    2    0    0  0.00000000000E+00  0.00000000000E+00 -0.20356432240E+04  0.38637906119E+04  0.32840576361E+04 0.  0.
        5    1    3    3  502    0 -0.20036680526E+03 -0.10818432882E+04 -0.24518873981E+04  0.26874347731E+04  0.46999998093E+01 0. -1.
       -5    1    3    3    0  502  0.20036680526E+03  0.10818432882E+04  0.41624417416E+03  0.11763558387E+04  0.46999998093E+01 0.  1.
</event>
<event>
 5   0  0.6258718E-07  0.3298641E+04  0.7818609E-02  0.8163241E-01
       -2   -1    0    0    0  501  0.00000000000E+00  0.00000000000E+00  0.15103054495E+04  0.15103054495E+04  0.25500000920E-02 0. -1.
        2   -1    0    0  501    0  0.00000000000E+00  0.00000000000E+00 -0.18011310154E+04  0.18011310154E+04  0.25500000920E-02 0.  1.
    10030    2    1    2    0    0  0.00000000000E+00  0.00000000000E+00 -0.29082556591E+03  0.33114364649E+04  0.32986409248E+04 0.  0.
        5    1    3    3  502    0 -0.62307851660E+03 -0.34741121095E+03 -0.16382300229E+04  0.17868243017E+04  0.46999998093E+01 0.  1.
       -5    1    3    3    0  502  0.62307851660E+03  0.34741121095E+03  0.13474044570E+04  0.15246121631E+04  0.46999998093E+01 0. -1.
</event>
<event>
 5   0  0.2087665E-07  0.3300879E+04  0.7818609E-02  0.8162672E-01
        1   -1    0    0  501    0  0.00000000000E+00  0.00000000000E+00  0.14775845066E+04  0.14775845066E+04  0.50400001928E-02 0. -1.
       -1   -1    0    0    0  501  0.00000000000E+00  0.00000000000E+00 -0.18435160119E+04  0.18435160119E+04  0.50400001928E-02 0.  1.
    10030    2    1    2    0    0  0.00000000000E+00  0.00000000000E+00 -0.36593150529E+03  0.33211005186E+04  0.33008790932E+04 0.  0.
        5    1    3    3  502    0 -0.13455775097E+04 -0.72008964769E+02  0.77584889411E+03  0.15549044094E+04  0.46999998093E+01 0. -1.
       -5    1    3    3    0  502  0.13455775097E+04  0.72008964769E+02 -0.11417803994E+04  0.17661961092E+04  0.46999998093E+01 0.  1.
</event>
<event>
 5   0  0.2087665E-07  0.3298276E+04  0.7818609E-02  0.8163334E-01
       -1   -1    0    0    0  501  0.00000000000E+00  0.00000000000E+00  0.14983590881E+04  0.14983590881E+04  0.50400001928E-02 0. -1.
        1   -1    0    0  501    0  0.00000000000E+00  0.00000000000E+00 -0.18150899535E+04  0.18150899535E+04  0.50400001928E-02 0.  1.
    10030    2    1    2    0    0  0.00000000000E+00  0.00000000000E+00 -0.31673086541E+03  0.33134490416E+04  0.32982762332E+04 0.  0.
        5    1    3    3  502    0 -0.85569670262E+03  0.68158561953E+03 -0.13980838852E+04  0.17752285610E+04  0.46999998093E+01 0.  1.
       -5    1    3    3    0  502  0.85569670262E+03 -0.68158561953E+03  0.10813530198E+04  0.15382204806E+04  0.46999998093E+01 0. -1.
</event>
<event>
 5   0  0.6351753E-07  0.3307244E+04  0.7818609E-02  0.8161054E-01
        2   -1    0    0  501    0  0.00000000000E+00  0.00000000000E+00  0.16829012083E+04  0.16829012083E+04  0.25500000920E-02 0. -1.
       -2   -1    0    0    0  501  0.00000000000E+00  0.00000000000E+00 -0.16248526217E+04  0.16248526217E+04  0.25500000920E-02 0.  1.
    10030    2    1    2    0    0  0.00000000000E+00  0.00000000000E+00  0.58048586568E+02  0.33077538301E+04  0.33072444364E+04 0.  0.
        3    1    3    3  502    0 -0.90649572802E+03 -0.10631964203E+04 -0.85561479417E+03  0.16383521658E+04  0.10100000352E+00 0. -1.
       -3    1    3    3    0  502  0.90649572802E+03  0.10631964203E+04  0.91366338073E+03  0.16694016642E+04  0.10100000352E+00 0.  1.
</event>
<event>
 5   0  0.6377741E-07  0.3296947E+04  0.7818609E-02  0.8163673E-01
       -2   -1    0    0    0  501  0.00000000000E+00  0.00000000000E+00  0.92848583876E+03  0.92848583876E+03  0.25500000920E-02 0.  1.
        2   -1    0    0  501    0  0.00000000000E+00  0.00000000000E+00 -0.29267695437E+04  0.29267695437E+04  0.25500000920E-02 0. -1.
    10030    2    1    2    0    0  0.00000000000E+00  0.00000000000E+00 -0.19982837050E+04  0.38552553825E+04  0.32969465113E+04 0.  0.
        1    1    3    3  502    0  0.12238604840E+04  0.10343720870E+04 -0.54670505630E+03  0.16931173962E+04  0.50400001928E-02 0.  1.
       -1    1    3    3    0  502 -0.12238604840E+04 -0.10343720870E+04 -0.14515786487E+04  0.21621379863E+04  0.50400001928E-02 0. -1.
</event>
<event>
 5   0  0.6426079E-07  0.3260521E+04  0.7818609E-02  0.8173014E-01
       -2   -1    0    0    0  501  0.00000000000E+00  0.00000000000E+00  0.11188771607E+04  0.11188771607E+04  0.25500000920E-02 0.  1.
        2   -1    0    0  501    0  0.00000000000E+00  0.00000000000E+00 -0.23753713981E+04  0.23753713981E+04  0.25500000920E-02 0. -1.
    10030    2    1    2    0    0  0.00000000000E+00  0.00000000000E+00 -0.12564942374E+04  0.34942485588E+04  0.32605206980E+04 0.  0.
        4    1    3    3  502    0 -0.84486091032E+03 -0.22318321684E+03 -0.21031846085E+04  0.22774959531E+04  0.12699999809E+01 0. -1.
       -4    1    3    3    0  502  0.84486091032E+03  0.22318321684E+03  0.84669037113E+03  0.12167526057E+04  0.12699999809E+01 0.  1.
</event>
<event>
 5   0  0.2080770E-07  0.3318083E+04  0.7818609E-02  0.8158309E-01
       -1   -1    0    0    0  501  0.00000000000E+00  0.00000000000E+00  0.12622720611E+04  0.12622720611E+04  0.50400001928E-02 0. -1.
        1   -1    0    0  501    0  0.00000000000E+00  0.00000000000E+00 -0.21805268789E+04  0.21805268789E+04  0.50400001928E-02 0.  1.
    10030    2    1    2    0    0  0.00000000000E+00  0.00000000000E+00 -0.91825481774E+03  0.34427989400E+04  0.33180826739E+04 0.  0.
        4    1    3    3  502    0  0.63339021267E+03  0.12564278582E+04  0.45290046388E+03  0.14781456516E+04  0.12699999809E+01 0. -1.
       -4    1    3    3    0  502 -0.63339021267E+03 -0.12564278582E+04 -0.13711552816E+04  0.19646532884E+04  0.12699999809E+01 0.  1.
</event>
<event>
 5   0  0.2057130E-07  0.3243336E+04  0.7818609E-02  0.8177465E-01
       -1   -1    0    0    0  501  0.00000000000E+00  0.00000000000E+00  0.12099776098E+04  0.12099776098E+04  0.50400001928E-02 0. -1.
        1   -1    0    0  501    0  0.00000000000E+00  0.00000000000E+00 -0.21734346323E+04  0.21734346323E+04  0.50400001928E-02 0.  1.
    10030    2    1    2    0    0  0.00000000000E+00  0.00000000000E+00 -0.96345702251E+03  0.33834122422E+04  0.32433360859E+04 0.  0.
        2    1    3    3  502    0  0.24730589103E+03 -0.15391013541E+04 -0.15417163623E+02  0.15589197769E+04  0.25500000920E-02 0.  1.
       -2    1    3    3    0  502 -0.24730589103E+03  0.15391013541E+04 -0.94803985889E+03  0.18244924653E+04  0.25500000920E-02 0. -1.
</event>
<event>
 5   0  0.2080770E-07  0.3296619E+04  0.7818609E-02  0.8163756E-01
        1   -1    0    0  501    0  0.00000000000E+00  0.00000000000E+00  0.12700903985E+04  0.12700903985E+04  0.50400001928E-02 0.  1.
       -1   -1    0    0    0  501  0.00000000000E+00  0.00000000000E+00 -0.21391576801E+04  0.21391576801E+04  0.50400001928E-02 0. -1.
    10030    2    1    2    0    0  0.00000000000E+00  0.00000000000E+00 -0.86906728159E+03  0.34092480786E+04  0.32966186497E+04 0.  0.
        4    1    3    3  502    0  0.23884048383E+03 -0.71483537870E+02  0.12504788580E+04  0.12750896675E+04  0.12699999809E+01 0.  1.
       -4    1    3    3    0  502 -0.23884048383E+03  0.71483537870E+02 -0.21195461396E+04  0.21341584111E+04  0.12699999809E+01 0. -1.
</event>
<event>
 5   0  0.6377741E-07  0.3287918E+04  0.7818609E-02  0.8165977E-01
        2   -1    0    0  501    0  0.00000000000E+00  0.00000000000E+00  0.18617537455E+04  0.18617537455E+04  0.25500000920E-02 0. -1.
       -2   -1    0    0    0  501  0.00000000000E+00  0.00000000000E+00 -0.14516424857E+04  0.14516424857E+04  0.25500000920E-02 0.  1.
    10030    2    1    2    0    0  0.00000000000E+00  0.00000000000E+00  0.41011125976E+03  0.33133962312E+04  0.32879177818E+04 0.  0.
        1    1    3    3  502    0  0.13566048041E+04 -0.61350419453E+03  0.90747689074E+03  0.17436393831E+04  0.50400001928E-02 0. -1.
       -1    1    3    3    0  502 -0.13566048041E+04  0.61350419453E+03 -0.49736563098E+03  0.15697568481E+04  0.50400001928E-02 0.  1.
</event>
<event>
 5   0  0.2057130E-07  0.3297044E+04  0.7818609E-02  0.8163648E-01
       -1   -1    0    0    0  501  0.00000000000E+00  0.00000000000E+00  0.10693371314E+04  0.10693371314E+04  0.50400001928E-02 0.  1.
        1   -1    0    0  501    0  0.00000000000E+00  0.00000000000E+00 -0.25414111004E+04  0.25414111004E+04  0.50400001928E-02 0. -1.
    10030    2    1    2    0    0  0.00000000000E+00  0.00000000000E+00 -0.14720739689E+04  0.36107482318E+04  0.32970442859E+04 0.  0.
        2    1    3    3  502    0 -0.20965614704E+03 -0.11830211971E+04  0.50013633543E+03  0.13013958686E+04  0.25500000920E-02 0.  1.
       -2    1    3    3    0  502  0.20965614704E+03  0.11830211971E+04 -0.19722103044E+04  0.23093523632E+04  0.25500000920E-02 0. -1.
</event>
<event>
 5   0  0.6424183E-07  0.3301004E+04  0.7818609E-02  0.8162640E-01
       -2   -1    0    0    0  501  0.00000000000E+00  0.00000000000E+00  0.12259594289E+04  0.12259594289E+04  0.25500000920E-02 0.  1.
        2   -1    0    0  501    0  0.00000000000E+00  0.00000000000E+00 -0.22220607721E+04  0.22220607721E+04  0.25500000920E-02 0. -1.
    10030    2    1    2    0    0  0.00000000000E+00  0.00000000000E+00 -0.99610134321E+03  0.34480202011E+04  0.33010036991E+04 0.  0.
        2    1    3    3  502    0  0.21999706848E+03 -0.16150884341E+04 -0.22718109281E+03  0.16457583690E+04  0.25500000920E-02 0. -1.
       -2    1    3    3    0  502 -0.21999706848E+03  0.16150884341E+04 -0.76892025040E+03  0.18022618321E+04  0.25500000920E-02 0.  1.
</event>
<event>
 5   0  0.2080828E-07  0.3303665E+04  0.7818609E-02  0.8161964E-01
       -1   -1    0    0    0  501  0.00000000000E+00  0.00000000000E+00  0.92923346475E+03  0.92923346476E+03  0.50400001928E-02 0.  1.
        1   -1    0    0  501    0  0.00000000000E+00  0.00000000000E+00 -0.29363448589E+04  0.29363448589E+04  0.50400001928E-02 0. -1.
    10030    2    1    2    0    0  0.00000000000E+00  0.00000000000E+00 -0.20071113941E+04  0.38655783236E+04  0.33036645756E+04 0.  0.
        1    1    3    3  502    0 -0.44005499971E+03  0.13355482312E+04 -0.20177003669E+04  0.24593601304E+04  0.50400001928E-02 0. -1.
       -1    1    3    3    0  502  0.44005499971E+03 -0.13355482312E+04  0.10588972803E+02  0.14062181932E+04  0.50400001928E-02 0.  1.
</event>
<event>
 5   0  0.2080770E-07  0.3284189E+04  0.7818609E-02  0.8166930E-01
       -1   -1    0    0    0  501  0.00000000000E+00  0.00000000000E+00  0.25903417021E+04  0.25903417021E+04  0.50400001928E-02 0. -1.
        1   -1    0    0  501    0  0.00000000000E+00  0.00000000000E+00 -0.10409724373E+04  0.10409724373E+04  0.50400001928E-02 0.  1.
    10030    2    1    2    0    0  0.00000000000E+00  0.00000000000E+00  0.15493692648E+04  0.36313141395E+04  0.32841889806E+04 0.  0.
        4    1    3    3  502    0 -0.82739188388E+03  0.12817934028E+04  0.14462536067E+04  0.21021947495E+04  0.12699999809E+01 0.  1.
       -4    1    3    3    0  502  0.82739188388E+03 -0.12817934028E+04  0.10311565810E+03  0.15291193900E+04  0.12699999809E+01 0. -1.
</event>
<event>
 5   0  0.6424183E-07  0.3300537E+04  0.7818609E-02  0.8162759E-01
        2   -1    0    0  501    0  0.00000000000E+00  0.00000000000E+00  0.92731219023E+03  0.92731219023E+03  0.25500000920E-02 0. -1.
       -2   -1    0    0    0  501  0.00000000000E+00  0.00000000000E+00 -0.29368605082E+04  0.29368605082E+04  0.25500000920E-02 0.  1.
    10030    2    1    2    0    0  0.00000000000E+00  0.00000000000E+00 -0.20095483179E+04  0.38641726984E+04  0.33005372594E+04 0.  0.
        2    1    3    3  502    0 -0.58222459520E+03 -0.55310440506E+03 -0.26926653880E+04  0.28098677645E+04  0.25500000920E-02 0.  1.
       -2    1    3    3    0  502  0.58222459520E+03  0.55310440506E+03  0.68311707009E+03  0.10543049339E+04  0.25500000920E-02 0. -1.
</event>
<event>
 5   0  0.6258718E-07  0.3309315E+04  0.7818609E-02  0.8160529E-01
        2   -1    0    0  501    0  0.00000000000E+00  0.00000000000E+00  0.12929646346E+04  0.12929646346E+04  0.25500000920E-02 0. -1.
       -2   -1    0    0    0  501  0.00000000000E+00  0.00000000000E+00 -0.21175306028E+04  0.21175306028E+04  0.25500000920E-02 0.  1.
    10030    2    1    2    0    0  0.00000000000E+00  0.00000000000E+00 -0.82456596815E+03  0.34104952374E+04  0.33093154471E+04 0.  0.
        5    1    3    3  502    0  0.11132129370E+04 -0.12241041019E+04 -0.39784770482E+03  0.17017575566E+04  0.46999998093E+01 0.  1.
       -5    1    3    3    0  502 -0.11132129370E+04  0.12241041019E+04 -0.42671826334E+03  0.17087376807E+04  0.46999998093E+01 0. -1.
</event>
<event>
 5   0  0.2080828E-07  0.3282480E+04  0.7818609E-02  0.8167368E-01
        1   -1    0    0  501    0  0.00000000000E+00  0.00000000000E+00  0.18072546618E+04  0.18072546618E+04  0.50400001928E-02 0. -1.
       -1   -1    0    0    0  501  0.00000000000E+00  0.00000000000E+00 -0.14904750953E+04  0.14904750953E+04  0.50400001928E-02 0.  1.
    10030    2    1    2    0    0  0.00000000000E+00  0.00000000000E+00  0.31677956652E+03  0.32977297571E+04  0.32824795897E+04 0.  0.
        1    1    3    3  502    0 -0.89904268295E+03  0.35064166324E+03  0.14921270638E+04  0.17769835386E+04  0.50400001928E-02 0. -1.
       -1    1    3    3    0  502  0.89904268295E+03 -0.35064166324E+03 -0.11753474973E+04  0.15207462185E+04  0.50400001928E-02 0.  1.
</event>
<event>
 5   0  0.2057130E-07  0.3305412E+04  0.7818609E-02  0.8161520E-01
       -1   -1    0    0    0  501  0.00000000000E+00  0.00000000000E+00  0.13320938099E+04  0.13320938099E+04  0.50400001928E-02 0.  1.
        1   -1    0    0  501    0  0.00000000000E+00  0.00000000000E+00 -0.20504834890E+04  0.20504834890E+04  0.50400001928E-02 0. -1.
    10030    2    1    2    0    0  0.00000000000E+00  0.00000000000E+00 -0.71838967911E+03  0.33825772989E+04  0.33054115405E+04 0.  0.
        2    1    3    3  502    0  0.17792977005E+03  0.10574142439E+04  0.92780272102E+03  0.14179569018E+04  0.25500000920E-02 0.  1.
       -2    1    3    3    0  502 -0.17792977005E+03 -0.10574142439E+04 -0.16461924001E+04  0.19646203971E+04  0.25500000920E-02 0. -1.
</event>
<event>
 5   0  0.6426079E-07  0.3306575E+04  0.7818609E-02  0.8161224E-01
       -2   -1    0    0    0  501  0.00000000000E+00  0.00000000000E+00  0.11320094630E+04  0.11320094630E+04  0.25500000920E-02 0. -1.
        2   -1    0    0  501    0  0.00000000000E+00  0.00000000000E+00 -0.24146079648E+04  0.24146079648E+04  0.25500000920E-02 0.  1.
    10030    2    1    2    0    0  0.00000000000E+00  0.00000000000E+00 -0.12825985018E+04  0.35466174278E+04  0.33065747024E+04 0.  0.
        4    1    3    3  502    0  0.75979662695E+03  0.88291032873E+03  0.61713281106E+03  0.13182094228E+04  0.12699999809E+01 0. -1.
       -4    1    3    3    0  502 -0.75979662695E+03 -0.88291032873E+03 -0.18997313129E+04  0.22284080050E+04  0.12699999809E+01 0.  1.
</event>
<event>
 5   0  0.1994250E-07  0.3301847E+04  0.7818609E-02  0.8162425E-01
        3   -1    0    0  501    0  0.00000000000E+00  0.00000000000E+00  0.18377979678E+04  0.18377979705E+04  0.10100000352E+00 0. -1.
       -3   -1    0    0    0  501  0.00000000000E+00  0.00000000000E+00 -0.14830514277E+04  0.14830514312E+04  0.10100000352E+00 0.  1.
    10030    2    1    2    0    0  0.00000000000E+00  0.00000000000E+00  0.35474654003E+03  0.33208494017E+04  0.33018473074E+04 0.  0.
        3    1    3    3  502    0 -0.91977162251E+03  0.97242640853E+02 -0.11980175207E+04  0.15134999039E+04  0.10100000352E+00 0.  1.
       -3    1    3    3    0  502  0.91977162251E+03 -0.97242640853E+02  0.15527640608E+04  0.18073494979E+04  0.10100000352E+00 0. -1.
</event>
<event>
 5   0  0.6426079E-07  0.3298988E+04  0.7818609E-02  0.8163153E-01
       -2   -1    0    0    0  501  0.00000000000E+00  0.00000000000E+00  0.17821747188E+04  0.17821747188E+04  0.25500000920E-02 0.  1.
        2   -1    0    0  501    0  0.00000000000E+00  0.00000000000E+00 -0.15266915200E+04  0.15266915200E+04  0.25500000920E-02 0. -1.
    10030    2    1    2    0    0  0.00000000000E+00  0.00000000000E+00  0.25548319880E+03  0.33088662388E+04  0.32989883482E+04 0.  0.
        4    1    3    3  502    0 -0.78541497977E+03 -0.77947277768E+03 -0.10991851617E+04  0.15597000142E+04  0.12699999809E+01 0. -1.
       -4    1    3    3    0  502  0.78541497977E+03  0.77947277768E+03  0.13546683605E+04  0.17491662246E+04  0.12699999809E+01 0.  1.
</event>
<event>
 5   0  0.6426079E-07  0.3305293E+04  0.7818609E-02  0.8161550E-01
        2   -1    0    0  501    0  0.00000000000E+00  0.00000000000E+00  0.18833016804E+04  0.18833016804E+04  0.25500000920E-02 0.  1.
       -2   -1    0    0    0  501  0.00000000000E+00  0.00000000000E+00 -0.14502402353E+04  0.14502402353E+04  0.25500000920E-02 0. -1.
    10030    2    1    2    0    0  0.00000000000E+00  0.00000000000E+00  0.43306144505E+03  0.33335419157E+04  0.33052926480E+04 0.  0.
        4    1    3    3  502    0 -0.15307729408E+04  0.33060198536E+03 -0.31587761033E+03  0.15976056293E+04  0.12699999809E+01 0.  1.
       -4    1    3    3    0  502  0.15307729408E+04 -0.33060198536E+03  0.74893905538E+03  0.17359362865E+04  0.12699999809E+01 0. -1.
</event>
<event>
 5   0  0.6258718E-07  0.3288641E+04  0.7818609E-02  0.8165792E-01
       -2   -1    0    0    0  501  0.00000000000E+00  0.00000000000E+00  0.16077999477E+04  0.16077999477E+04  0.25500000920E-02 0. -1.
        2   -1    0    0  501    0  0.00000000000E+00  0.00000000000E+00 -0.16816706948E+04  0.16816706948E+04  0.25500000920E-02 0.  1.
    10030    2    1    2    0    0  0.00000000000E+00  0.00000000000E+00 -0.73870747143E+02  0.32894706426E+04  0.32886410903E+04 0.  0.
        5    1    3    3  502    0  0.51624621186E+03  0.14825279992E+04  0.45244108795E+03  0.16337455272E+04  0.46999998093E+01 0. -1.
       -5    1    3    3    0  502 -0.51624621186E+03 -0.14825279992E+04 -0.52631183509E+03  0.16557251153E+04  0.46999998093E+01 0.  1.
</event>
<event>
 5   0  0.2057130E-07  0.3298958E+04  0.7818609E-02  0.8163161E-01
       -1   -1    0    0    0  501  0.00000000000E+00  0.00000000000E+00  0.21573335932E+04  0.21573335932E+04  0.50400001928E-02 0.  1.
        1   -1    0    0  501    0  0.00000000000E+00  0.00000000000E+00 -0.12611774667E+04  0.12611774667E+04  0.50400001928E-02 0. -1.
    10030    2    1    2    0    0  0.00000000000E+00  0.00000000000E+00  0.89615612648E+03  0.34185110599E+04  0.32989577238E+04 0.  0.
        2    1    3    3  502    0  0.10746877845E+04  0.12286148747E+04  0.20213278766E+03  0.16447814470E+04  0.25500000920E-02 0. -1.
       -2    1    3    3    0  502 -0.10746877845E+04 -0.12286148747E+04  0.69402333883E+03  0.17737296128E+04  0.25500000920E-02 0.  1.
</event>
<event>
 5   0  0.2080828E-07  0.3293605E+04  0.7818609E-02  0.8164525E-01
        1   -1    0    0  501    0  0.00000000000E+00  0.00000000000E+00  0.19918801244E+04  0.19918801244E+04  0.50400001928E-02 0. -1.
       -1   -1    0    0    0  501  0.00000000000E+00  0.00000000000E+00 -0.13615064691E+04  0.13615064691E+04  0.50400001928E-02 0.  1.
    10030    2    1    2    0    0  0.00000000000E+00  0.00000000000E+00  0.63037365530E+03  0.33533865935E+04  0.32936045148E+04 0.  0.
        1    1    3    3  502    0  0.10904232090E+04 -0.92324479137E+03  0.11489237575E+04  0.18334201701E+04  0.50400001928E-02 0. -1.
       -1    1    3    3    0  502 -0.10904232090E+04  0.92324479137E+03 -0.51855010223E+03  0.15199664234E+04  0.50400001928E-02 0.  1.
</event>
<event>
 5   0  0.1994250E-07  0.3297233E+04  0.7818609E-02  0.8163600E-01
        3   -1    0    0  501    0  0.00000000000E+00  0.00000000000E+00  0.21580250804E+04  0.21580250827E+04  0.10100000352E+00 0. -1.
       -3   -1    0    0    0  501  0.00000000000E+00  0.00000000000E+00 -0.12594551625E+04  0.12594551665E+04  0.10100000352E+00 0.  1.
    10030    2    1    2    0    0  0.00000000000E+00  0.00000000000E+00  0.89856991786E+03  0.34174802493E+04  0.32972326816E+04 0.  0.
        2    1    3    3  502    0 -0.79424403140E+03 -0.30652717021E+03 -0.10139928101E+04  0.13239954330E+04  0.25500000920E-02 0.  1.
       -2    1    3    3    0  502  0.79424403140E+03  0.30652717021E+03  0.19125627280E+04  0.20934848163E+04  0.25500000920E-02 0. -1.
</event>
<event>
 5   0  0.6377741E-07  0.3296396E+04  0.7818609E-02  0.8163813E-01
        2   -1    0    0  501    0  0.00000000000E+00  0.00000000000E+00  0.25975393342E+04  0.25975393342E+04  0.25500000920E-02 0.  1.
       -2   -1    0    0    0  501  0.00000000000E+00  0.00000000000E+00 -0.10458194611E+04  0.10458194611E+04  0.25500000920E-02 0. -1.
    10030    2    1    2    0    0  0.00000000000E+00  0.00000000000E+00  0.15517198730E+04  0.36433587953E+04  0.32963963274E+04 0.  0.
        1    1    3    3  502    0  0.56515822594E+03 -0.76457930211E+03  0.22638846258E+04  0.24554345702E+04  0.50400001928E-02 0.  1.
       -1    1    3    3    0  502 -0.56515822594E+03  0.76457930211E+03 -0.71216475276E+03  0.11879242251E+04  0.50400001928E-02 0. -1.
</event>
<event>
 5   0  0.2057130E-07  0.3289946E+04  0.7818609E-02  0.8165458E-01
        1   -1    0    0  501    0  0.00000000000E+00  0.00000000000E+00  0.28229807210E+04  0.28229807210E+04  0.50400001928E-02 0. -1.
       -1   -1    0    0    0  501  0.00000000000E+00  0.00000000000E+00 -0.95853886723E+03  0.95853886724E+03  0.50400001928E-02 0.  1.
    10030    2    1    2    0    0  0.00000000000E+00  0.00000000000E+00  0.18644418538E+04  0.37815195882E+04  0.32899463476E+04 0.  0.
        2    1    3    3  502    0 -0.43767585841E+03 -0.12480170881E+04 -0.19211196382E+03  0.13364182787E+04  0.25500000920E-02 0.  1.
       -2    1    3    3    0  502  0.43767585841E+03  0.12480170881E+04  0.20565538176E+04  0.24451013095E+04  0.25500000920E-02 0. -1.
</event>
<event>
 5   0  0.6426079E-07  0.3286125E+04  0.7818609E-02  0.8166435E-01
       -2   -1    0    0    0  501  0.00000000000E+00  0.00000000000E+00  0.11920764236E+04  0.11920764236E+04  0.25500000920E-02 0. -1.
        2   -1    0    0  501    0  0.00000000000E+00  0.00000000000E+00 -0.22646650790E+04  0.22646650790E+04  0.25500000920E-02 0.  1.
    10030    2    1    2    0    0  0.00000000000E+00  0.00000000000E+00 -0.10725886554E+04  0.34567415025E+04  0.32861246768E+04 0.  0.
        4    1    3    3  502    0 -0.75439726522E+03 -0.38405371972E+03  0.94502461376E+03  0.12687338676E+04  0.12699999809E+01 0. -1.
       -4    1    3    3    0  502  0.75439726522E+03  0.38405371972E+03 -0.20176132692E+04  0.21880076349E+04  0.12699999809E+01 0.  1.
</event>
<event>
 5   0  0.2087665E-07  0.3294896E+04  0.7818609E-02  0.8164195E-01
       -1   -1    0    0    0  501  0.00000000000E+00  0.00000000000E+00  0.14355470709E+04  0.14355470709E+04  0.50400001928E-02 0.  1.
        1   -1    0    0  501    0  0.00000000000E+00  0.00000000000E+00 -0.18906271057E+04  0.18906271057E+04  0.50400001928E-02 0. -1.
    10030    2    1    2    0    0  0.00000000000E+00  0.00000000000E+00 -0.45508003482E+03  0.33261741765E+04  0.32948955696E+04 0.  0.
        5    1    3    3  502    0 -0.26309849690E+03 -0.13246965229E+03 -0.18638199137E+04  0.18869594030E+04  0.46999998093E+01 0. -1.
       -5    1    3    3    0  502  0.26309849690E+03  0.13246965229E+03  0.14087398789E+04  0.14392147735E+04  0.46999998093E+01 0.  1.
</event>
<event>
 5   0  0.2037333E-07  0.3305576E+04  0.7818609E-02  0.8161478E-01
       -1   -1    0    0    0  501  0.00000000000E+00  0.00000000000E+00  0.31100002146E+04  0.31100002146E+04  0.50400001928E-02 0. -1.
        1   -1    0    0  501    0  0.00000000000E+00  0.00000000000E+00 -0.87836286637E+03  0.87836286639E+03  0.50400001928E-02 0.  1.
    10030    2    1    2    0    0  0.00000000000E+00  0.00000000000E+00  0.22316373482E+04  0.39883630810E+04  0.33055763207E+04 0.  0.
        3    1    3    3  502    0 -0.90454581646E+03 -0.44183231452E+03  0.26974151923E+04  0.28791435633E+04  0.10100000352E+00 0. -1.
       -3    1    3    3    0  502  0.90454581646E+03  0.44183231452E+03 -0.46577784406E+03  0.11092195177E+04  0.10100000352E+00 0.  1.
</event>
<event>
 5   0  0.2057130E-07  0.3297658E+04  0.7818609E-02  0.8163491E-01
        1   -1    0    0  501    0  0.00000000000E+00  0.00000000000E+00  0.14625906614E+04  0.14625906614E+04  0.50400001928E-02 0. -1.
       -1   -1    0    0    0  501  0.00000000000E+00  0.00000000000E+00 -0.18587823652E+04  0.18587823652E+04  0.50400001928E-02 0.  1.
    10030    2    1    2    0    0  0.00000000000E+00  0.00000000000E+00 -0.39619170385E+03  0.33213730266E+04  0.32976583989E+04 0.  0.
        2    1    3    3  502    0 -0.70819604158E+03 -0.68183781730E+03 -0.15313194586E+04  0.18197207826E+04  0.25500000920E-02 0.  1.
       -2    1    3    3    0  502  0.70819604158E+03  0.68183781730E+03  0.11351277547E+04  0.15016522440E+04  0.25500000920E-02 0. -1.
</event>
<event>
 5   0  0.2057130E-07  0.3271548E+04  0.7818609E-02  0.8170173E-01
        1   -1    0    0  501    0  0.00000000000E+00  0.00000000000E+00  0.17588189703E+04  0.17588189703E+04  0.50400001928E-02 0.  1.
       -1   -1    0    0    0  501  0.00000000000E+00  0.00000000000E+00 -0.15213374572E+04  0.15213374572E+04  0.50400001928E-02 0. -1.
    10030    2    1    2    0    0  0.00000000000E+00  0.00000000000E+00  0.23748151303E+03  0.32801564275E+04  0.32715483674E+04 0.  0.
        2    1    3    3  502    0  0.11679302186E+04 -0.60135388285E+03 -0.85853908786E+03  0.15693236930E+04  0.25500000920E-02 0. -1.
       -2    1    3    3    0  502 -0.11679302186E+04  0.60135388285E+03  0.10960206009E+04  0.17108327345E+04  0.25500000920E-02 0.  1.
</event>
<event>
 5   0  0.2087665E-07  0.3299719E+04  0.7818609E-02  0.8162967E-01
        1   -1    0    0  501    0  0.00000000000E+00  0.00000000000E+00  0.23158974796E+04  0.23158974796E+04  0.50400001928E-02 0.  1.
       -1   -1    0    0    0  501  0.00000000000E+00  0.00000000000E+00 -0.11753701272E+04  0.11753701272E+04  0.50400001928E-02 0. -1.
    10030    2    1    2    0    0  0.00000000000E+00  0.00000000000E+00  0.11405273525E+04  0.34912676068E+04  0.32997192094E+04 0.  0.
        5    1    3    3  502    0  0.96277824177E+03  0.13345267219E+04  0.69594963358E+03  0.17866928938E+04  0.46999998093E+01 0.  1.
       -5    1    3    3    0  502 -0.96277824177E+03 -0.13345267219E+04  0.44457771887E+03  0.17045747130E+04  0.46999998093E+01 0. -1.
</event>
<event>
 5   0  0.6377741E-07  0.3283548E+04  0.7818609E-02  0.8167094E-01
       -2   -1    0    0    0  501  0.00000000000E+00  0.00000000000E+00  0.15414614300E+04  0.15414614300E+04  0.25500000920E-02 0.  1.
        2   -1    0    0  501    0  0.00000000000E+00  0.00000000000E+00 -0.17486145890E+04  0.17486145890E+04  0.25500000920E-02 0. -1.
    10030    2    1    2    0    0  0.00000000000E+00  0.00000000000E+00 -0.20715315901E+03  0.32900760189E+04  0.32835480473E+04 0.  0.
        1    1    3    3  502    0 -0.13253844675E+03 -0.10355616758E+03 -0.17399589107E+04  0.17480696012E+04  0.50400001928E-02 0. -1.
       -1    1    3    3    0  502  0.13253844675E+03  0.10355616758E+03  0.15328057517E+04  0.15420064177E+04  0.50400001928E-02 0.  1.
</event>
<event>
 5   0  0.2080770E-07  0.3273654E+04  0.7818609E-02  0.8169632E-01
       -1   -1    0    0    0  501  0.00000000000E+00  0.00000000000E+00  0.12208018937E+04  0.12208018937E+04  0.50400001928E-02 0.  1.
        1   -1    0    0  501    0  0.00000000000E+00  0.00000000000E+00 -0.21946254721E+04  0.21946254721E+04  0.50400001928E-02 0. -1.
    10030    2    1    2    0    0  0.00000000000E+00  0.00000000000E+00 -0.97382357835E+03  0.34154273658E+04  0.32736541860E+04 0.  0.
        4    1    3    3  502    0  0.78512248303E+03 -0.97750177685E+03  0.61093025699E+03  0.13946915175E+04  0.12699999809E+01 0.  1.
       -4    1    3    3    0  502 -0.78512248303E+03  0.97750177685E+03 -0.15847538353E+04  0.20207358483E+04  0.12699999809E+01 0. -1.
</event>
<event>
 5   0  0.2080828E-07  0.3306380E+04  0.7818609E-02  0.8161274E-01
        1   -1    0    0  501    0  0.00000000000E+00  0.00000000000E+00  0.10707078420E+04  0.10707078421E+04  0.50400001928E-02 0.  1.
       -1   -1    0    0    0  501  0.00000000000E+00  0.00000000000E+00 -0.25525523329E+04  0.25525523329E+04  0.50400001928E-02 0. -1.
    10030    2    1    2    0    0  0.00000000000E+00  0.00000000000E+00 -0.14818444909E+04  0.36232601750E+04  0.33063803775E+04 0.  0.
        1    1    3    3  502    0 -0.10230009465E+04  0.43567181339E+03 -0.20815667744E+04  0.23599281985E+04  0.50400001928E-02 0. -1.
       -1    1    3    3    0  502  0.10230009465E+04 -0.43567181339E+03  0.59972228353E+03  0.12633319765E+04  0.50400001928E-02 0.  1.
</event>
<event>
 5   0  0.6426079E-07  0.3298042E+04  0.7818609E-02  0.8163394E-01
        2   -1    0    0  501    0  0.00000000000E+00  0.00000000000E+00  0.14360307587E+04  0.14360307587E+04  0.25500000920E-02 0. -1.
       -2   -1    0    0    0  501  0.00000000000E+00  0.00000000000E+00 -0.18936017364E+04  0.18936017364E+04  0.25500000920E-02 0.  1.
    10030    2    1    2    0    0  0.00000000000E+00  0.00000000000E+00 -0.45757097766E+03  0.33296324951E+04  0.32980420483E+04 0.  0.
        4    1    3    3  502    0 -0.14228626898E+04 -0.83328231358E+03 -0.20933761306E+03  0.16621436452E+04  0.12699999809E+01 0. -1.
       -4    1    3    3    0  502  0.14228626898E+04  0.83328231358E+03 -0.24823336460E+03  0.16674888498E+04  0.12699999809E+01 0.  1.
</event>
<event>
 5   0  0.2087665E-07  0.3428897E+04  0.7818609E-02  0.8130850E-01
       -1   -1    0    0    0  501  0.00000000000E+00  0.00000000000E+00  0.15185360803E+04  0.15185360803E+04  0.50400001928E-02 0. -1.
        1   -1    0    0  501    0  0.00000000000E+00  0.00000000000E+00 -0.19356361721E+04  0.19356361721E+04  0.50400001928E-02 0.  1.
    10030    2    1    2    0    0  0.00000000000E+00  0.00000000000E+00 -0.41710009184E+03  0.34541722524E+04  0.34288968288E+04 0.  0.
        5    1    3    3  502    0 -0.61065165500E+03  0.16545168143E+03 -0.18137327780E+04  0.19209160270E+04  0.46999998093E+01 0.  1.
       -5    1    3    3    0  502  0.61065165500E+03 -0.16545168143E+03  0.13966326862E+04  0.15332562254E+04  0.46999998093E+01 0. -1.
</event>
<event>
 5   0  0.1994250E-07  0.3291554E+04  0.7818609E-02  0.8165048E-01
        3   -1    0    0  501    0  0.00000000000E+00  0.00000000000E+00  0.22905262587E+04  0.22905262609E+04  0.10100000352E+00 0.  1.
       -3   -1    0    0    0  501  0.00000000000E+00  0.00000000000E+00 -0.11825150619E+04  0.11825150662E+04  0.10100000352E+00 0. -1.
    10030    2    1    2    0    0  0.00000000000E+00  0.00000000000E+00  0.11080111968E+04  0.34730413271E+04  0.32915539260E+04 0.  0.
        2    1    3    3  502    0 -0.37313357393E+03 -0.10834302034E+04  0.18004671836E+04  0.21341817515E+04  0.25500000920E-02 0.  1.
       -2    1    3    3    0  502  0.37313357393E+03  0.10834302034E+04 -0.69245598678E+03  0.13388595756E+04  0.25500000920E-02 0. -1.
</event>
<event>
 5   0  0.2080770E-07  0.3284916E+04  0.7818609E-02  0.8166744E-01
        1   -1    0    0  501    0  0.00000000000E+00  0.00000000000E+00  0.23543803684E+04  0.23543803684E+04  0.50400001928E-02 0.  1.
       -1   -1    0    0    0  501  0.00000000000E+00  0.00000000000E+00 -0.11458078332E+04  0.11458078332E+04  0.50400001928E-02 0. -1.
    10030    2    1    2    0    0  0.00000000000E+00  0.00000000000E+00  0.12085725351E+04  0.35001882016E+04  0.32849155048E+04 0.  0.
        4    1    3    3  502    0  0.59897583457E+03  0.98398915785E+03 -0.64318895133E+03  0.13193560373E+04  0.12699999809E+01 0. -1.
       -4    1    3    3    0  502 -0.59897583457E+03 -0.98398915785E+03  0.18517614865E+04  0.21808321643E+04  0.12699999809E+01 0.  1.
</event>
<event>
 5   0  0.6377741E-07  0.3290153E+04  0.7818609E-02  0.8165405E-01
       -2   -1    0    0    0  501  0.00000000000E+00  0.00000000000E+00  0.12514004825E+04  0.12514004825E+04  0.25500000920E-02 0. -1.
        2   -1    0    0  501    0  0.00000000000E+00  0.00000000000E+00 -0.21625987773E+04  0.21625987773E+04  0.25500000920E-02 0.  1.
    10030    2    1    2    0    0  0.00000000000E+00  0.00000000000E+00 -0.91119829472E+03  0.34139992598E+04  0.32901532812E+04 0.  0.
        1    1    3    3  502    0 -0.12170805331E+04 -0.50944492470E+03 -0.14751619529E+04  0.19791215078E+04  0.50400001928E-02 0.  1.
       -1    1    3    3    0  502  0.12170805331E+04  0.50944492470E+03  0.56396365816E+03  0.14348777520E+04  0.50400001928E-02 0. -1.
</event>
<event>
 5   0  0.2080770E-07  0.3307567E+04  0.7818609E-02  0.8160973E-01
        1   -1    0    0  501    0  0.00000000000E+00  0.00000000000E+00  0.15811557998E+04  0.15811557998E+04  0.50400001928E-02 0. -1.
       -1   -1    0    0    0  501  0.00000000000E+00  0.00000000000E+00 -0.17297476966E+04  0.17297476966E+04  0.50400001928E-02 0.  1.
    10030    2    1    2    0    0  0.00000000000E+00  0.00000000000E+00 -0.14859189682E+03  0.33109034965E+04  0.33075674462E+04 0.  0.
        4    1    3    3  502    0 -0.35610730105E+03  0.63378864787E+03 -0.15612229048E+04  0.17221843779E+04  0.12699999809E+01 0.  1.
       -4    1    3    3    0  502  0.35610730105E+03 -0.63378864787E+03  0.14126310080E+04  0.15887191186E+04  0.12699999809E+01 0. -1.
</event>
<event>
 5   0  0.6377741E-07  0.3297178E+04  0.7818609E-02  0.8163614E-01
       -2   -1    0    0    0  501  0.00000000000E+00  0.00000000000E+00  0.11341058814E+04  0.11341058814E+04  0.25500000920E-02 0.  1.
        2   -1    0    0  501    0  0.00000000000E+00  0.00000000000E+00 -0.23964650586E+04  0.23964650586E+04  0.25500000920E-02 0. -1.
    10030    2    1    2    0    0  0.00000000000E+00  0.00000000000E+00 -0.12623591771E+04  0.35305709400E+04  0.32971776522E+04 0.  0.
        1    1    3    3  502    0 -0.63984096662E+03  0.26208756818E+03  0.97133951972E+03  0.11923031571E+04  0.50400001928E-02 0.  1.
       -1    1    3    3    0  502  0.63984096662E+03 -0.26208756818E+03 -0.22336986969E+04  0.23382677829E+04  0.50400001928E-02 0. -1.
</event>
<event>
 5   0  0.6351753E-07  0.3300151E+04  0.7818609E-02  0.8162857E-01
       -2   -1    0    0    0  501  0.00000000000E+00  0.00000000000E+00  0.11285075354E+04  0.11285075354E+04  0.25500000920E-02 0. -1.
        2   -1    0    0  501    0  0.00000000000E+00  0.00000000000E+00 -0.24126993522E+04  0.24126993522E+04  0.25500000920E-02 0.  1.
    10030    2    1    2    0    0  0.00000000000E+00  0.00000000000E+00 -0.12841918168E+04  0.35412068876E+04  0.33001511479E+04 0.  0.
        3    1    3    3  502    0  0.90159499150E+03 -0.10208158992E+04  0.35751269328E+03  0.14081029667E+04  0.10100000352E+00 0. -1.
       -3    1    3    3    0  502 -0.90159499150E+03  0.10208158992E+04 -0.16417045101E+04  0.21331039209E+04  0.10100000352E+00 0.  1.
</event>
<event>
 5   0  0.6351753E-07  0.3300154E+04  0.7818609E-02  0.8162856E-01
       -2   -1    0    0    0  501  0.00000000000E+00  0.00000000000E+00  0.13671130177E+04  0.13671130177E+04  0.25500000920E-02 0. -1.
        2   -1    0    0  501    0  0.00000000000E+00  0.00000000000E+00 -0.19916088537E+04  0.19916088537E+04  0.25500000920E-02 0.  1.
    10030    2    1    2    0    0  0.00000000000E+00  0.00000000000E+00 -0.62449583591E+03  0.33587218714E+04  0.33001541722E+04 0.  0.
        3    1    3    3  502    0 -0.26244375946E+03 -0.10887862326E+04 -0.15455381249E+04  0.19086697705E+04  0.10100000352E+00 0.  1.
       -3    1    3    3    0  502  0.26244375946E+03  0.10887862326E+04  0.92104228897E+03  0.14500521009E+04  0.10100000352E+00 0. -1.
</event>
<event>
 5   0  0.2080828E-07  0.3288042E+04  0.7818609E-02  0.8165945E-01
        1   -1    0    0  501    0  0.00000000000E+00  0.00000000000E+00  0.19299798791E+04  0.19299798791E+04  0.50400001928E-02 0. -1.
       -1   -1    0    0    0  501  0.00000000000E+00  0.00000000000E+00 -0.14004313303E+04  0.14004313303E+04  0.50400001928E-02 0.  1.
    10030    2    1    2    0    0  0.00000000000E+00  0.00000000000E+00  0.52954854883E+03  0.33304112093E+04  0.32880415383E+04 0.  0.
        1    1    3    3  502    0  0.11862877268E+04  0.11351486957E+04  0.18025346095E+03  0.16517664612E+04  0.50400001928E-02 0.  1.
       -1    1    3    3    0  502 -0.11862877268E+04 -0.11351486957E+04  0.34929508788E+03  0.16786447482E+04  0.50400001928E-02 0. -1.
</event>
<event>
 5   0  0.2087665E-07  0.3337570E+04  0.7818609E-02  0.8153401E-01
       -1   -1    0    0    0  501  0.00000000000E+00  0.00000000000E+00  0.12002969725E+04  0.12002969725E+04  0.50400001928E-02 0.  1.
        1   -1    0    0  501    0  0.00000000000E+00  0.00000000000E+00 -0.23201291232E+04  0.23201291232E+04  0.50400001928E-02 0. -1.
    10030    2    1    2    0    0  0.00000000000E+00  0.00000000000E+00 -0.11198321507E+04  0.35204260956E+04  0.33375703512E+04 0.  0.
        5    1    3    3  502    0  0.11292025633E+04 -0.21912040500E+03 -0.18351661747E+04  0.21658645294E+04  0.46999998093E+01 0. -1.
       -5    1    3    3    0  502 -0.11292025633E+04  0.21912040500E+03  0.71533402401E+03  0.13545615662E+04  0.46999998093E+01 0.  1.
</event>
<event>
 5   0  0.6351753E-07  0.3186793E+04  0.7818609E-02  0.8192314E-01
       -2   -1    0    0    0  501  0.00000000000E+00  0.00000000000E+00  0.12697687789E+04  0.12697687789E+04  0.25500000920E-02 0.  1.
        2   -1    0    0  501    0  0.00000000000E+00  0.00000000000E+00 -0.19995079560E+04  0.19995079560E+04  0.25500000920E-02 0. -1.
    10030    2    1    2    0    0  0.00000000000E+00  0.00000000000E+00 -0.72973917707E+03  0.32692767350E+04  0.31867932320E+04 0.  0.
        3    1    3    3  502    0 -0.10250531576E+03  0.11447049347E+04 -0.14970911792E+04  0.18873629053E+04  0.10100000352E+00 0. -1.
       -3    1    3    3    0  502  0.10250531576E+03 -0.11447049347E+04  0.76735200216E+03  0.13819138297E+04  0.10100000352E+00 0.  1.
</event>
<event>
 5   0  0.2087665E-07  0.3295666E+04  0.7818609E-02  0.8163999E-01
       -1   -1    0    0    0  501  0.00000000000E+00  0.00000000000E+00  0.16550060550E+04  0.16550060551E+04  0.50400001928E-02 0. -1.
        1   -1    0    0  501    0  0.00000000000E+00  0.00000000000E+00 -0.16406907779E+04  0.16406907779E+04  0.50400001928E-02 0.  1.
    10030    2    1    2    0    0  0.00000000000E+00  0.00000000000E+00  0.14315277173E+02  0.32956968329E+04  0.32956657427E+04 0.  0.
        5    1    3    3  502    0 -0.73568242746E+03  0.44092987506E+03 -0.13998678213E+04  0.16417368229E+04  0.46999998093E+01 0.  1.
       -5    1    3    3    0  502  0.73568242746E+03 -0.44092987506E+03  0.14141830984E+04  0.16539600100E+04  0.46999998093E+01 0. -1.
</event>
<event>
 5   0  0.6424183E-07  0.3375280E+04  0.7818609E-02  0.8144000E-01
       -2   -1    0    0    0  501  0.00000000000E+00  0.00000000000E+00  0.20284882747E+04  0.20284882747E+04  0.25500000920E-02 0.  1.
        2   -1    0    0  501    0  0.00000000000E+00  0.00000000000E+00 -0.14040646306E+04  0.14040646306E+04  0.25500000920E-02 0. -1.
    10030    2    1    2    0    0  0.00000000000E+00  0.00000000000E+00  0.62442364406E+03  0.34325529053E+04  0.33752799233E+04 0.  0.
        2    1    3    3  502    0  0.16654986663E+03 -0.13816300859E+04 -0.65870704881E+03  0.15396543536E+04  0.25500000920E-02 0.  1.
       -2    1    3    3    0  502 -0.16654986663E+03  0.13816300859E+04  0.12831306929E+04  0.18928985518E+04  0.25500000920E-02 0. -1.
</event>
<event>
 5   0  0.2037333E-07  0.3287455E+04  0.7818609E-02  0.8166095E-01
        1   -1    0    0  501    0  0.00000000000E+00  0.00000000000E+00  0.10670713582E+04  0.10670713582E+04  0.50400001928E-02 0.  1.
       -1   -1    0    0    0  501  0.00000000000E+00  0.00000000000E+00 -0.25320145719E+04  0.25320145719E+04  0.50400001928E-02 0. -1.
    10030    2    1    2    0    0  0.00000000000E+00  0.00000000000E+00 -0.14649432137E+04  0.35990859300E+04  0.32874550814E+04 0.  0.
        3    1    3    3  502    0 -0.10511064080E+04  0.96315686309E+03 -0.16281605302E+04  0.21641170362E+04  0.10100000352E+00 0. -1.
       -3    1    3    3    0  502  0.10511064080E+04 -0.96315686309E+03  0.16321731655E+03  0.14349688939E+04  0.10100000352E+00 0.  1.
</event>
<event>
 5   0  0.2037333E-07  0.3290563E+04  0.7818609E-02  0.8165301E-01
        1   -1    0    0  501    0  0.00000000000E+00  0.00000000000E+00  0.24365954278E+04  0.24365954278E+04  0.50400001928E-02 0.  1.
       -1   -1    0    0    0  501  0.00000000000E+00  0.00000000000E+00 -0.11109560449E+04  0.11109560450E+04  0.50400001928E-02 0. -1.
    10030    2    1    2    0    0  0.00000000000E+00  0.00000000000E+00  0.13256393829E+04  0.35475514728E+04  0.32905625170E+04 0.  0.
        3    1    3    3  502    0 -0.11056588782E+03  0.10842380851E+04 -0.66597954443E+03  0.12772336531E+04  0.10100000352E+00 0. -1.
       -3    1    3    3    0  502  0.11056588782E+03 -0.10842380851E+04  0.19916189273E+04  0.22703178197E+04  0.10100000352E+00 0.  1.
</event>
<event>
 5   0  0.2080770E-07  0.3306849E+04  0.7818609E-02  0.8161155E-01
       -1   -1    0    0    0  501  0.00000000000E+00  0.00000000000E+00  0.90431617080E+03  0.90431617082E+03  0.50400001928E-02 0. -1.
        1   -1    0    0  501    0  0.00000000000E+00  0.00000000000E+00 -0.30230722120E+04  0.30230722120E+04  0.50400001928E-02 0.  1.
    10030    2    1    2    0    0  0.00000000000E+00  0.00000000000E+00 -0.21187560412E+04  0.39273883828E+04  0.33068493083E+04 0.  0.
        4    1    3    3  502    0 -0.14620009926E+03 -0.88810291611E+03 -0.27066270943E+04  0.28523557105E+04  0.12699999809E+01 0.  1.
       -4    1    3    3    0  502  0.14620009926E+03  0.88810291611E+03  0.58787105310E+03  0.10750326723E+04  0.12699999809E+01 0. -1.
</event>
<event>
 5   0  0.6426079E-07  0.3333953E+04  0.7818609E-02  0.8154309E-01
       -2   -1    0    0    0  501  0.00000000000E+00  0.00000000000E+00  0.15633791895E+04  0.15633791895E+04  0.25500000920E-02 0.  1.
        2   -1    0    0  501    0  0.00000000000E+00  0.00000000000E+00 -0.17774390656E+04  0.17774390656E+04  0.25500000920E-02 0. -1.
    10030    2    1    2    0    0  0.00000000000E+00  0.00000000000E+00 -0.21405987613E+03  0.33408182551E+04  0.33339533565E+04 0.  0.
        4    1    3    3  502    0 -0.11884086251E+04 -0.71086821960E+03 -0.10369283240E+04  0.17299915167E+04  0.12699999809E+01 0.  1.
       -4    1    3    3    0  502  0.11884086251E+04  0.71086821960E+03  0.82286844792E+03  0.16108267384E+04  0.12699999809E+01 0. -1.
</event>
<event>
 5   0  0.2037333E-07  0.3305836E+04  0.7818609E-02  0.8161412E-01
       -1   -1    0    0    0  501  0.00000000000E+00  0.00000000000E+00  0.16280141781E+04  0.16280141781E+04  0.50400001928E-02 0. -1.
        1   -1    0    0  501    0  0.00000000000E+00  0.00000000000E+00 -0.16782031752E+04  0.16782031752E+04  0.50400001928E-02 0.  1.
    10030    2    1    2    0    0  0.00000000000E+00  0.00000000000E+00 -0.50188997082E+02  0.33062173534E+04  0.33058363922E+04 0.  0.
        3    1    3    3  502    0  0.82264704014E+03  0.20716704903E+03  0.13936852839E+04  0.16315713345E+04  0.10100000352E+00 0. -1.
       -3    1    3    3    0  502 -0.82264704014E+03 -0.20716704903E+03 -0.14438742810E+04  0.16746460188E+04  0.10100000352E+00 0.  1.
</event>
<event>
 5   0  0.2087665E-07  0.3314056E+04  0.7818609E-02  0.8159328E-01
        1   -1    0    0  501    0  0.00000000000E+00  0.00000000000E+00  0.13385166856E+04  0.13385166856E+04  0.50400001928E-02 0. -1.
       -1   -1    0    0    0  501  0.00000000000E+00  0.00000000000E+00 -0.20513322330E+04  0.20513322330E+04  0.50400001928E-02 0.  1.
    10030    2    1    2    0    0  0.00000000000E+00  0.00000000000E+00 -0.71281554733E+03  0.33898489186E+04  0.33140563795E+04 0.  0.
        5    1    3    3  502    0 -0.76263012477E+03  0.17838790540E+03 -0.18500408741E+04  0.20090047979E+04  0.46999998093E+01 0.  1.
       -5    1    3    3    0  502  0.76263012477E+03 -0.17838790540E+03  0.11372253268E+04  0.13808441207E+04  0.46999998093E+01 0. -1.
</event>
<event>
 5   0  0.2080770E-07  0.3314364E+04  0.7818609E-02  0.8159250E-01
        1   -1    0    0  501    0  0.00000000000E+00  0.00000000000E+00  0.19443784495E+04  0.19443784495E+04  0.50400001928E-02 0. -1.
       -1   -1    0    0    0  501  0.00000000000E+00  0.00000000000E+00 -0.14124064709E+04  0.14124064710E+04  0.50400001928E-02 0.  1.
    10030    2    1    2    0    0  0.00000000000E+00  0.00000000000E+00  0.53197197854E+03  0.33567849204E+04  0.33143643155E+04 0.  0.
        4    1    3    3  502    0 -0.67133050221E+03 -0.11293940492E+04  0.12888806712E+04  0.18404973674E+04  0.12699999809E+01 0. -1.
       -4    1    3    3    0  502  0.67133050221E+03  0.11293940492E+04 -0.75690869270E+03  0.15162875531E+04  0.12699999809E+01 0.  1.
</event>
<event>
 5   0  0.6424183E-07  0.3295177E+04  0.7818609E-02  0.8164124E-01
       -2   -1    0    0    0  501  0.00000000000E+00  0.00000000000E+00  0.89053564996E+03  0.89053564996E+03  0.25500000920E-02 0. -1.
        2   -1    0    0  501    0  0.00000000000E+00  0.00000000000E+00 -0.30482183990E+04  0.30482183990E+04  0.25500000920E-02 0.  1.
    10030    2    1    2    0    0  0.00000000000E+00  0.00000000000E+00 -0.21576827490E+04  0.39387540490E+04  0.32951765678E+04 0.  0.
        2    1    3    3  502    0  0.11630561377E+04 -0.95942715536E+03 -0.18729324483E+04  0.24043868245E+04  0.25500000920E-02 0.  1.
       -2    1    3    3    0  502 -0.11630561377E+04  0.95942715536E+03 -0.28475030075E+03  0.15343672245E+04  0.25500000920E-02 0. -1.
</event>
<event>
 5   0  0.6426079E-07  0.3288912E+04  0.7818609E-02  0.8165723E-01
       -2   -1    0    0    0  501  0.00000000000E+00  0.00000000000E+00  0.86418969436E+03  0.86418969437E+03  0.25500000920E-02 0.  1.
        2   -1    0    0  501    0  0.00000000000E+00  0.00000000000E+00 -0.31292147295E+04  0.31292147295E+04  0.25500000920E-02 0. -1.
    10030    2    1    2    0    0  0.00000000000E+00  0.00000000000E+00 -0.22650250352E+04  0.39934044239E+04  0.32889117475E+04 0.  0.
        4    1    3    3  502    0 -0.79397265024E+03 -0.90831683872E+03  0.22435602311E+03  0.12270979125E+04  0.12699999809E+01 0.  1.
       -4    1    3    3    0  502  0.79397265024E+03  0.90831683872E+03 -0.24893810583E+04  0.27663065114E+04  0.12699999809E+01 0. -1.
</event>
<event>
 5   0  0.6426079E-07  0.3297071E+04  0.7818609E-02  0.8163641E-01
        2   -1    0    0  501    0  0.00000000000E+00  0.00000000000E+00  0.20501727173E+04  0.20501727174E+04  0.25500000920E-02 0. -1.
       -2   -1    0    0    0  501  0.00000000000E+00  0.00000000000E+00 -0.13255808082E+04  0.13255808082E+04  0.25500000920E-02 0.  1.
    10030    2    1    2    0    0  0.00000000000E+00  0.00000000000E+00  0.72459190916E+03  0.33757535255E+04  0.32970711898E+04 0.  0.
        4    1    3    3  502    0 -0.45680749368E+03 -0.79965006814E+03 -0.10376507126E+04  0.13873838445E+04  0.12699999809E+01 0.  1.
       -4    1    3    3    0  502  0.45680749368E+03  0.79965006814E+03  0.17622426217E+04  0.19883696810E+04  0.12699999809E+01 0. -1.
</event>
<event>
 5   0  0.2080770E-07  0.3303628E+04  0.7818609E-02  0.8161973E-01
       -1   -1    0    0    0  501  0.00000000000E+00  0.00000000000E+00  0.13874806553E+04  0.13874806553E+04  0.50400001928E-02 0.  1.
        1   -1    0    0  501    0  0.00000000000E+00  0.00000000000E+00 -0.19665062485E+04  0.19665062485E+04  0.50400001928E-02 0. -1.
    10030    2    1    2    0    0  0.00000000000E+00  0.00000000000E+00 -0.57902559326E+03  0.33539869038E+04  0.33036279320E+04 0.  0.
        4    1    3    3  502    0  0.91612523055E+03 -0.13263471556E+04  0.76546280070E+02  0.16137977448E+04  0.12699999809E+01 0. -1.
       -4    1    3    3    0  502 -0.91612523055E+03  0.13263471556E+04 -0.65557187333E+03  0.17401891590E+04  0.12699999809E+01 0.  1.
</event>
<event>
 5   0  0.6424183E-07  0.3304633E+04  0.7818609E-02  0.8161718E-01
        2   -1    0    0  501    0  0.00000000000E+00  0.00000000000E+00  0.19786265653E+04  0.19786265653E+04  0.25500000920E-02 0.  1.
       -2   -1    0    0    0  501  0.00000000000E+00  0.00000000000E+00 -0.13798205359E+04  0.13798205359E+04  0.25500000920E-02 0. -1.
    10030    2    1    2    0    0  0.00000000000E+00  0.00000000000E+00  0.59880602945E+03  0.33584471012E+04  0.33046328496E+04 0.  0.
        2    1    3    3  502    0  0.22391499488E+03 -0.17245894063E+03  0.19538784388E+04  0.19742140119E+04  0.25500000920E-02 0.  1.
       -2    1    3    3    0  502 -0.22391499488E+03  0.17245894063E+03 -0.13550724093E+04  0.13842330893E+04  0.25500000920E-02 0. -1.
</event>
<event>
 5   0  0.6426079E-07  0.3290488E+04  0.7818609E-02  0.8165320E-01
       -2   -1    0    0    0  501  0.00000000000E+00  0.00000000000E+00  0.17672504937E+04  0.17672504937E+04  0.25500000920E-02 0.  1.
        2   -1    0    0  501    0  0.00000000000E+00  0.00000000000E+00 -0.15316605830E+04  0.15316605830E+04  0.25500000920E-02 0. -1.
    10030    2    1    2    0    0  0.00000000000E+00  0.00000000000E+00  0.23558991070E+03  0.32989110767E+04  0.32904880620E+04 0.  0.
        4    1    3    3  502    0  0.21205669495E+03 -0.16282050514E+04  0.13574162611E+02  0.16420126681E+04  0.12699999809E+01 0.  1.
       -4    1    3    3    0  502 -0.21205669495E+03  0.16282050514E+04  0.22201574809E+03  0.16568984087E+04  0.12699999809E+01 0. -1.
</event>
<event>
 5   0  0.6258718E-07  0.3297386E+04  0.7818609E-02  0.8163561E-01
       -2   -1    0    0    0  501  0.00000000000E+00  0.00000000000E+00  0.15625926790E+04  0.15625926790E+04  0.25500000920E-02 0.  1.
        2   -1    0    0  501    0  0.00000000000E+00  0.00000000000E+00 -0.17395372492E+04  0.17395372492E+04  0.25500000920E-02 0. -1.
    10030    2    1    2    0    0  0.00000000000E+00  0.00000000000E+00 -0.17694457014E+03  0.33021299282E+04  0.32973857345E+04 0.  0.
        5    1    3    3  502    0 -0.10813655890E+04  0.12036570231E+04  0.22824895828E+03  0.16340934622E+04  0.46999998093E+01 0. -1.
       -5    1    3    3    0  502  0.10813655890E+04 -0.12036570231E+04 -0.40519352842E+03  0.16680364660E+04  0.46999998093E+01 0.  1.
</event>
<event>
 5   0  0.2057130E-07  0.3242981E+04  0.7818609E-02  0.8177557E-01
       -1   -1    0    0    0  501  0.00000000000E+00  0.00000000000E+00  0.12892550216E+04  0.12892550216E+04  0.50400001928E-02 0.  1.
        1   -1    0    0  501    0  0.00000000000E+00  0.00000000000E+00 -0.20393418195E+04  0.20393418195E+04  0.50400001928E-02 0. -1.
    10030    2    1    2    0    0  0.00000000000E+00  0.00000000000E+00 -0.75008679785E+03  0.33285968411E+04  0.32429811480E+04 0.  0.
        2    1    3    3  502    0  0.12608667484E+04  0.81892405677E+03  0.24828682235E+03  0.15238332961E+04  0.25500000920E-02 0.  1.
       -2    1    3    3    0  502 -0.12608667484E+04 -0.81892405677E+03 -0.99837362020E+03  0.18047635451E+04  0.25500000920E-02 0. -1.
</event>
<event>
 5   0  0.6258718E-07  0.3301034E+04  0.7818609E-02  0.8162632E-01
       -2   -1    0    0    0  501  0.00000000000E+00  0.00000000000E+00  0.13452214246E+04  0.13452214246E+04  0.25500000920E-02 0. -1.
        2   -1    0    0  501    0  0.00000000000E+00  0.00000000000E+00 -0.20250992181E+04  0.20250992181E+04  0.25500000920E-02 0.  1.
    10030    2    1    2    0    0  0.00000000000E+00  0.00000000000E+00 -0.67987779349E+03  0.33703206427E+04  0.33010342956E+04 0.  0.
        5    1    3    3  502    0  0.16094113218E+04  0.36242837750E+03 -0.39225534533E+03  0.16957138548E+04  0.46999998093E+01 0. -1.
       -5    1    3    3    0  502 -0.16094113218E+04 -0.36242837750E+03 -0.28762244816E+03  0.16746067879E+04  0.46999998093E+01 0.  1.
</event>
<event>
 5   0  0.1994250E-07  0.3237278E+04  0.7818609E-02  0.8179041E-01
        3   -1    0    0  501    0  0.00000000000E+00  0.00000000000E+00  0.98014898613E+03  0.98014899134E+03  0.10100000352E+00 0. -1.
       -3   -1    0    0    0  501  0.00000000000E+00  0.00000000000E+00 -0.26730553509E+04  0.26730553528E+04  0.10100000352E+00 0.  1.
    10030    2    1    2    0    0  0.00000000000E+00  0.00000000000E+00 -0.16929063647E+04  0.36532043441E+04  0.32372781808E+04 0.  0.
        4    1    3    3  502    0  0.14273911429E+04 -0.12578668697E+03  0.30781732556E+01  0.14329266742E+04  0.12699999809E+01 0.  1.
       -4    1    3    3    0  502 -0.14273911429E+04  0.12578668697E+03 -0.16959845380E+04  0.22202776699E+04  0.12699999809E+01 0. -1.
</event>
<event>
 5   0  0.2057130E-07  0.3287618E+04  0.7818609E-02  0.8166053E-01
       -1   -1    0    0    0  501  0.00000000000E+00  0.00000000000E+00  0.11592133708E+04  0.11592133709E+04  0.50400001928E-02 0. -1.
        1   -1    0    0  501    0  0.00000000000E+00  0.00000000000E+00 -0.23309839192E+04  0.23309839192E+04  0.50400001928E-02 0.  1.
    10030    2    1    2    0    0  0.00000000000E+00  0.00000000000E+00 -0.11717705483E+04  0.34901972900E+04  0.32876178162E+04 0.  0.
        2    1    3    3  502    0  0.67087767974E+03  0.77915137141E+03  0.77570214912E+03  0.12879703199E+04  0.25500000920E-02 0. -1.
       -2    1    3    3    0  502 -0.67087767974E+03 -0.77915137141E+03 -0.19474726975E+04  0.22022269702E+04  0.25500000920E-02 0.  1.
</event>
<event>
 5   0  0.6377741E-07  0.3306836E+04  0.7818609E-02  0.8161158E-01
       -2   -1    0    0    0  501  0.00000000000E+00  0.00000000000E+00  0.16896185047E+04  0.16896185047E+04  0.25500000920E-02 0. -1.
        2   -1    0    0  501    0  0.00000000000E+00  0.00000000000E+00 -0.16179928727E+04  0.16179928727E+04  0.25500000920E-02 0.  1.
    10030    2    1    2    0    0  0.00000000000E+00  0.00000000000E+00  0.71625632023E+02  0.33076113774E+04  0.33068357675E+04 0.  0.
        1    1    3    3  502    0  0.12851056892E+04 -0.66004349001E+03  0.84013863716E+03  0.16712231960E+04  0.50400001928E-02 0. -1.
       -1    1    3    3    0  502 -0.12851056892E+04  0.66004349001E+03 -0.76851300514E+03  0.16363881814E+04  0.50400001928E-02 0.  1.
</event>
<event>
 5   0  0.2080828E-07  0.3292292E+04  0.7818609E-02  0.8164859E-01
       -1   -1    0    0    0  501  0.00000000000E+00  0.00000000000E+00  0.15796868429E+04  0.15796868429E+04  0.50400001928E-02 0.  1.
        1   -1    0    0  501    0  0.00000000000E+00  0.00000000000E+00 -0.17154011112E+04  0.17154011112E+04  0.50400001928E-02 0. -1.
    10030    2    1    2    0    0  0.00000000000E+00  0.00000000000E+00 -0.13571426829E+03  0.32950879541E+04  0.32922919468E+04 0.  0.
        1    1    3    3  502    0 -0.91802961746E+03 -0.13253636497E+04  0.26473425034E+03  0.16338455881E+04  0.50400001928E-02 0.  1.
       -1    1    3    3    0  502  0.91802961746E+03  0.13253636497E+04 -0.40044851863E+03  0.16612423660E+04  0.50400001928E-02 0. -1.
</event>
<event>
 5   0  0.6258718E-07  0.3271337E+04  0.7818609E-02  0.8170227E-01
        2   -1    0    0  501    0  0.00000000000E+00  0.00000000000E+00  0.24747538201E+04  0.24747538201E+04  0.25500000920E-02 0. -1.
       -2   -1    0    0    0  501  0.00000000000E+00  0.00000000000E+00 -0.10810821595E+04  0.10810821595E+04  0.25500000920E-02 0.  1.
    10030    2    1    2    0    0  0.00000000000E+00  0.00000000000E+00  0.13936716606E+04  0.35558359796E+04  0.32713374660E+04 0.  0.
        5    1    3    3  502    0  0.25123075670E+03 -0.95231207056E+03  0.21163061335E+04  0.23342641053E+04  0.46999998093E+01 0. -1.
       -5    1    3    3    0  502 -0.25123075670E+03  0.95231207056E+03 -0.72263447282E+03  0.12215718743E+04  0.46999998093E+01 0.  1.
</event>
<event>
 5   0  0.2087665E-07  0.3316110E+04  0.7818609E-02  0.8158808E-01
       -1   -1    0    0    0  501  0.00000000000E+00  0.00000000000E+00  0.16674555375E+04  0.16674555375E+04  0.50400001928E-02 0.  1.
        1   -1    0    0  501    0  0.00000000000E+00  0.00000000000E+00 -0.16487075970E+04  0.16487075970E+04  0.50400001928E-02 0. -1.
    10030    2    1    2    0    0  0.00000000000E+00  0.00000000000E+00  0.18747940518E+02  0.33161631345E+04  0.33161101383E+04 0.  0.
        5    1    3    3  502    0 -0.14242854331E+04 -0.74657198714E+03  0.41331828679E+03  0.16603652679E+04  0.46999998093E+01 0.  1.
       -5    1    3    3    0  502  0.14242854331E+04  0.74657198714E+03 -0.39457034627E+03  0.16557978666E+04  0.46999998093E+01 0. -1.
</event>
<event>
 5   0  0.2037333E-07  0.3300496E+04  0.7818609E-02  0.8162769E-01
        1   -1    0    0  501    0  0.00000000000E+00  0.00000000000E+00  0.17447173520E+04  0.17447173520E+04  0.50400001928E-02 0.  1.
       -1   -1    0    0    0  501  0.00000000000E+00  0.00000000000E+00 -0.15608938362E+04  0.15608938362E+04  0.50400001928E-02 0. -1.
    10030    2    1    2    0    0  0.00000000000E+00  0.00000000000E+00  0.18382351578E+03  0.33056111881E+04  0.33004960600E+04 0.  0.
        3    1    3    3  502    0 -0.76639536227E+03 -0.13409718509E+04  0.67397610389E+03  0.16851739243E+04  0.10100000352E+00 0. -1.
       -3    1    3    3    0  502  0.76639536227E+03  0.13409718509E+04 -0.49015258811E+03  0.16204372639E+04  0.10100000352E+00 0.  1.
</event>
<event>
 5   0  0.6424183E-07  0.3269618E+04  0.7818609E-02  0.8170669E-01
        2   -1    0    0  501    0  0.00000000000E+00  0.00000000000E+00  0.16021092998E+04  0.16021092998E+04  0.25500000920E-02 0. -1.
       -2   -1    0    0    0  501  0.00000000000E+00  0.00000000000E+00 -0.16681762795E+04  0.16681762795E+04  0.25500000920E-02 0.  1.
    10030    2    1    2    0    0  0.00000000000E+00  0.00000000000E+00 -0.66066979715E+02  0.32702855794E+04  0.32696181619E+04 0.  0.
        2    1    3    3  502    0 -0.13860675421E+04  0.48320021880E+03  0.68679046015E+03  0.16206007587E+04  0.25500000920E-02 0. -1.
       -2    1    3    3    0  502  0.13860675421E+04 -0.48320021880E+03 -0.75285743986E+03  0.16496848207E+04  0.25500000920E-02 0.  1.
</event>
<event>
 5   0  0.6258718E-07  0.3314685E+04  0.7818609E-02  0.8159169E-01
        2   -1    0    0  501    0  0.00000000000E+00  0.00000000000E+00  0.26943148833E+04  0.26943148833E+04  0.25500000920E-02 0. -1.
       -2   -1    0    0    0  501  0.00000000000E+00  0.00000000000E+00 -0.10194741949E+04  0.10194741949E+04  0.25500000920E-02 0.  1.
    10030    2    1    2    0    0  0.00000000000E+00  0.00000000000E+00  0.16748406884E+04  0.37137890781E+04  0.33146852015E+04 0.  0.
        5    1    3    3  502    0 -0.13870509241E+04 -0.10903249984E+03 -0.17154383429E+03  0.14018729361E+04  0.46999998093E+01 0. -1.
       -5    1    3    3    0  502  0.13870509241E+04  0.10903249984E+03  0.18463845227E+04  0.23119161420E+04  0.46999998093E+01 0.  1.
</event>
<event>
 5   0  0.2080828E-07  0.3311966E+04  0.7818609E-02  0.8159857E-01
        1   -1    0    0  501    0  0.00000000000E+00  0.00000000000E+00  0.21340711381E+04  0.21340711381E+04  0.50400001928E-02 0.  1.
       -1   -1    0    0    0  501  0.00000000000E+00  0.00000000000E+00 -0.12849988302E+04  0.12849988302E+04  0.50400001928E-02 0. -1.
    10030    2    1    2    0    0  0.00000000000E+00  0.00000000000E+00  0.84907230794E+03  0.34190699683E+04  0.33119655288E+04 0.  0.
        1    1    3    3  502    0 -0.77009979756E+03  0.12574018272E+04 -0.35360744367E+03  0.15162952475E+04  0.50400001928E-02 0. -1.
       -1    1    3    3    0  502  0.77009979756E+03 -0.12574018272E+04  0.12026797516E+04  0.19027747208E+04  0.50400001928E-02 0.  1.
</event>
<event>
 5   0  0.6426079E-07  0.3293029E+04  0.7818609E-02  0.8164671E-01
        2   -1    0    0  501    0  0.00000000000E+00  0.00000000000E+00  0.22900423307E+04  0.22900423307E+04  0.25500000920E-02 0. -1.
       -2   -1    0    0    0  501  0.00000000000E+00  0.00000000000E+00 -0.11838250741E+04  0.11838250741E+04  0.25500000920E-02 0.  1.
    10030    2    1    2    0    0  0.00000000000E+00  0.00000000000E+00  0.11062172566E+04  0.34738674048E+04  0.32930287164E+04 0.  0.
        4    1    3    3  502    0  0.14723680593E+04 -0.52707757704E+03  0.10964971292E+04  0.19099701677E+04  0.12699999809E+01 0.  1.
       -4    1    3    3    0  502 -0.14723680593E+04  0.52707757704E+03  0.97201274138E+01  0.15638972371E+04  0.12699999809E+01 0. -1.
</event>
<event>
 5   0  0.2087665E-07  0.3298618E+04  0.7818609E-02  0.8163247E-01
       -1   -1    0    0    0  501  0.00000000000E+00  0.00000000000E+00  0.15720534727E+04  0.15720534727E+04  0.50400001928E-02 0. -1.
        1   -1    0    0  501    0  0.00000000000E+00  0.00000000000E+00 -0.17303611965E+04  0.17303611965E+04  0.50400001928E-02 0.  1.
    10030    2    1    2    0    0  0.00000000000E+00  0.00000000000E+00 -0.15830772380E+03  0.33024146693E+04  0.32986180913E+04 0.  0.
        5    1    3    3  502    0 -0.42198403438E+03  0.82027546090E+03 -0.14479421148E+04  0.17168228840E+04  0.46999998093E+01 0.  1.
       -5    1    3    3    0  502  0.42198403438E+03 -0.82027546090E+03  0.12896343910E+04  0.15855917853E+04  0.46999998093E+01 0. -1.
</event>
<event>
 5   0  0.6424183E-07  0.3308192E+04  0.7818609E-02  0.8160814E-01
        2   -1    0    0  501    0  0.00000000000E+00  0.00000000000E+00  0.19832374519E+04  0.19832374519E+04  0.25500000920E-02 0. -1.
       -2   -1    0    0    0  501  0.00000000000E+00  0.00000000000E+00 -0.13795790185E+04  0.13795790185E+04  0.25500000920E-02 0.  1.
    10030    2    1    2    0    0  0.00000000000E+00  0.00000000000E+00  0.60365843342E+03  0.33628164703E+04  0.33081915164E+04 0.  0.
        2    1    3    3  502    0 -0.13964964199E+04  0.64867635787E+03  0.91599894478E+03  0.17916577059E+04  0.25500000920E-02 0. -1.
       -2    1    3    3    0  502  0.13964964199E+04 -0.64867635787E+03 -0.31234051136E+03  0.15711587645E+04  0.25500000920E-02 0.  1.
</event>
<event>
 5   0  0.6351753E-07  0.3295483E+04  0.7818609E-02  0.8164046E-01
        2   -1    0    0  501    0  0.00000000000E+00  0.00000000000E+00  0.21614281251E+04  0.21614281251E+04  0.25500000920E-02 0. -1.
       -2   -1    0    0    0  501  0.00000000000E+00  0.00000000000E+00 -0.12561378658E+04  0.12561378658E+04  0.25500000920E-02 0.  1.
    10030    2    1    2    0    0  0.00000000000E+00  0.00000000000E+00  0.90529025926E+03  0.34175659909E+04  0.32954827945E+04 0.  0.
        3    1    3    3  502    0  0.48230517160E+03  0.56387329326E+03  0.19783645796E+04  0.21129358224E+04  0.10100000352E+00 0. -1.
       -3    1    3    3    0  502 -0.48230517160E+03 -0.56387329326E+03 -0.10730743204E+04  0.13046301685E+04  0.10100000352E+00 0.  1.
</event>
<event>
 5   0  0.2080770E-07  0.3337144E+04  0.7818609E-02  0.8153508E-01
       -1   -1    0    0    0  501  0.00000000000E+00  0.00000000000E+00  0.12210160145E+04  0.12210160145E+04  0.50400001928E-02 0. -1.
        1   -1    0    0  501    0  0.00000000000E+00  0.00000000000E+00 -0.22801769192E+04  0.22801769192E+04  0.50400001928E-02 0.  1.
    10030    2    1    2    0    0  0.00000000000E+00  0.00000000000E+00 -0.10591609047E+04  0.35011929337E+04  0.33371440090E+04 0.  0.
        4    1    3    3  502    0 -0.19900195443E+03 -0.75067917872E+03  0.10198422493E+04  0.12818739539E+04  0.12699999809E+01 0. -1.
       -4    1    3    3    0  502  0.19900195443E+03  0.75067917872E+03 -0.20790031540E+04  0.22193189799E+04  0.12699999809E+01 0.  1.
</event>
<event>
 5   0  0.2087665E-07  0.3294309E+04  0.7818609E-02  0.8164345E-01
       -1   -1    0    0    0  501  0.00000000000E+00  0.00000000000E+00  0.16063022430E+04  0.16063022430E+04  0.50400001928E-02 0.  1.
        1   -1    0    0  501    0  0.00000000000E+00  0.00000000000E+00 -0.16890453546E+04  0.16890453546E+04  0.50400001928E-02 0. -1.
    10030    2    1    2    0    0  0.00000000000E+00  0.00000000000E+00 -0.82743111588E+02  0.32953475976E+04  0.32943086326E+04 0.  0.
        5    1    3    3  502    0  0.14694328637E+04  0.70520180641E+03  0.19651160858E+03  0.16417007739E+04  0.46999998093E+01 0.  1.
       -5    1    3    3    0  502 -0.14694328637E+04 -0.70520180641E+03 -0.27925472017E+03  0.16536468237E+04  0.46999998093E+01 0. -1.
</event>
<event>
 5   0  0.6351753E-07  0.3297241E+04  0.7818609E-02  0.8163598E-01
       -2   -1    0    0    0  501  0.00000000000E+00  0.00000000000E+00  0.12097493393E+04  0.12097493393E+04  0.25500000920E-02 0. -1.
        2   -1    0    0  501    0  0.00000000000E+00  0.00000000000E+00 -0.22467047679E+04  0.22467047679E+04  0.25500000920E-02 0.  1.
    10030    2    1    2    0    0  0.00000000000E+00  0.00000000000E+00 -0.10369554286E+04  0.34564541072E+04  0.32972410337E+04 0.  0.
        3    1    3    3  502    0 -0.84610904400E+03 -0.25324523157E+03 -0.19777877399E+04  0.21660281660E+04  0.10100000352E+00 0.  1.
       -3    1    3    3    0  502  0.84610904400E+03  0.25324523157E+03  0.94083231125E+03  0.12904259412E+04  0.10100000352E+00 0. -1.
</event>
<event>
 5   0  0.6351753E-07  0.3327363E+04  0.7818609E-02  0.8155968E-01
       -2   -1    0    0    0  501  0.00000000000E+00  0.00000000000E+00  0.13133010246E+04  0.13133010246E+04  0.25500000920E-02 0.  1.
        2   -1    0    0  501    0  0.00000000000E+00  0.00000000000E+00 -0.21075407446E+04  0.21075407446E+04  0.25500000920E-02 0. -1.
    10030    2    1    2    0    0  0.00000000000E+00  0.00000000000E+00 -0.79423971997E+03  0.34208417692E+04  0.33273625708E+04 0.  0.
        3    1    3    3  502    0 -0.10076530706E+04  0.12051149004E+04  0.16614883654E+03  0.15796430229E+04  0.10100000352E+00 0.  1.
       -3    1    3    3    0  502  0.10076530706E+04 -0.12051149004E+04 -0.96038855651E+03  0.18411987463E+04  0.10100000352E+00 0. -1.
</event>
<event>
 5   0  0.6424183E-07  0.3284319E+04  0.7818609E-02  0.8166897E-01
        2   -1    0    0  501    0  0.00000000000E+00  0.00000000000E+00  0.11889942521E+04  0.11889942521E+04  0.25500000920E-02 0.  1.
       -2   -1    0    0    0  501  0.00000000000E+00  0.00000000000E+00 -0.22680412960E+04  0.22680412960E+04  0.25500000920E-02 0. -1.
    10030    2    1    2    0    0  0.00000000000E+00  0.00000000000E+00 -0.10790470439E+04  0.34570355481E+04  0.32843191468E+04 0.  0.
        2    1    3    3  502    0 -0.10439514216E+03 -0.13385583348E+02 -0.22644874193E+04  0.22669320219E+04  0.25500000920E-02 0. -1.
       -2    1    3    3    0  502  0.10439514216E+03  0.13385583348E+02  0.11854403754E+04  0.11901035263E+04  0.25500000920E-02 0.  1.
</event>
<event>
 5   0  0.2080828E-07  0.3299761E+04  0.7818609E-02  0.8162956E-01
        1   -1    0    0  501    0  0.00000000000E+00  0.00000000000E+00  0.21474034471E+04  0.21474034471E+04  0.50400001928E-02 0.  1.
       -1   -1    0    0    0  501  0.00000000000E+00  0.00000000000E+00 -0.12676262506E+04  0.12676262506E+04  0.50400001928E-02 0. -1.
    10030    2    1    2    0    0  0.00000000000E+00  0.00000000000E+00  0.87977719646E+03  0.34150296977E+04  0.32997605853E+04 0.  0.
        1    1    3    3  502    0  0.55032901199E+03 -0.77244049226E+03 -0.95730051389E+03  0.13475721166E+04  0.50400001928E-02 0. -1.
       -1    1    3    3    0  502 -0.55032901199E+03  0.77244049226E+03  0.18370777104E+04  0.20674575810E+04  0.50400001928E-02 0.  1.
</event>
<event>
 5   0  0.6426079E-07  0.3301466E+04  0.7818609E-02  0.8162522E-01
        2   -1    0    0  501    0  0.00000000000E+00  0.00000000000E+00  0.20988256353E+04  0.20988256353E+04  0.25500000920E-02 0. -1.
       -2   -1    0    0    0  501  0.00000000000E+00  0.00000000000E+00 -0.12983070614E+04  0.12983070614E+04  0.25500000920E-02 0.  1.
    10030    2    1    2    0    0  0.00000000000E+00  0.00000000000E+00  0.80051857392E+03  0.33971326967E+04  0.33014664275E+04 0.  0.
        4    1    3    3  502    0 -0.87420812441E+03  0.13596976262E+04  0.74446867238E+03  0.17796776946E+04  0.12699999809E+01 0. -1.
       -4    1    3    3    0  502  0.87420812441E+03 -0.13596976262E+04  0.56049901538E+02  0.16174550021E+04  0.12699999809E+01 0.  1.
</event>
<event>
 5   0  0.6351753E-07  0.3304575E+04  0.7818609E-02  0.8161732E-01
        2   -1    0    0  501    0  0.00000000000E+00  0.00000000000E+00  0.21011269983E+04  0.21011269983E+04  0.25500000920E-02 0. -1.
       -2   -1    0    0    0  501  0.00000000000E+00  0.00000000000E+00 -0.12993284306E+04  0.12993284306E+04  0.25500000920E-02 0.  1.
    10030    2    1    2    0    0  0.00000000000E+00  0.00000000000E+00  0.80179856770E+03  0.34004554290E+04  0.33045750379E+04 0.  0.
        3    1    3    3  502    0 -0.40856582630E+02 -0.92319254449E+02 -0.12961517315E+04  0.13000774694E+04  0.10100000352E+00 0.  1.
       -3    1    3    3    0  502  0.40856582630E+02  0.92319254449E+02  0.20979502992E+04  0.21003779596E+04  0.10100000352E+00 0. -1.
</event>
<event>
 5   0  0.2057130E-07  0.3295356E+04  0.7818609E-02  0.8164078E-01
       -1   -1    0    0    0  501  0.00000000000E+00  0.00000000000E+00  0.11479348640E+04  0.11479348640E+04  0.50400001928E-02 0. -1.
        1   -1    0    0  501    0  0.00000000000E+00  0.00000000000E+00 -0.23649793658E+04  0.23649793658E+04  0.50400001928E-02 0.  1.
    10030    2    1    2    0    0  0.00000000000E+00  0.00000000000E+00 -0.12170445018E+04  0.35129142299E+04  0.32953556814E+04 0.  0.
        2    1    3    3  502    0 -0.81363141124E+03 -0.11316873109E+04  0.32819920862E+03  0.14319312007E+04  0.25500000920E-02 0. -1.
       -2    1    3    3    0  502  0.81363141124E+03  0.11316873109E+04 -0.15452437104E+04  0.20809830291E+04  0.25500000920E-02 0.  1.
</event>
<event>
 5   0  0.2080828E-07  0.3304473E+04  0.7818609E-02  0.8161758E-01
        1   -1    0    0  501    0  0.00000000000E+00  0.00000000000E+00  0.13975018541E+04  0.13975018541E+04  0.50400001928E-02 0. -1.
       -1   -1    0    0    0  501  0.00000000000E+00  0.00000000000E+00 -0.19534033792E+04  0.19534033792E+04  0.50400001928E-02 0.  1.
    10030    2    1    2    0    0  0.00000000000E+00  0.00000000000E+00 -0.55590152509E+03  0.33509052333E+04  0.33044726322E+04 0.  0.
        1    1    3    3  502    0  0.59570240215E+03 -0.11835464071E+04 -0.12788567231E+04  0.18414988374E+04  0.50400001928E-02 0.  1.
       -1    1    3    3    0  502 -0.59570240215E+03  0.11835464071E+04  0.72295519804E+03  0.15094063959E+04  0.50400001928E-02 0. -1.
</event>
<event>
 5   0  0.6377741E-07  0.3371059E+04  0.7818609E-02  0.8145046E-01
        2   -1    0    0  501    0  0.00000000000E+00  0.00000000000E+00  0.17766567345E+04  0.17766567345E+04  0.25500000920E-02 0. -1.
       -2   -1    0    0    0  501  0.00000000000E+00  0.00000000000E+00 -0.15990767381E+04  0.15990767381E+04  0.25500000920E-02 0.  1.
    10030    2    1    2    0    0  0.00000000000E+00  0.00000000000E+00  0.17757999639E+03  0.33757334726E+04  0.33710594511E+04 0.  0.
        1    1    3    3  502    0 -0.27835781774E+03  0.13512679192E+04 -0.88085127147E+03  0.16368588903E+04  0.50400001928E-02 0.  1.
       -1    1    3    3    0  502  0.27835781774E+03 -0.13512679192E+04  0.10584312679E+04  0.17388745823E+04  0.50400001928E-02 0. -1.
</event>
<event>
 5   0  0.2087665E-07  0.3310318E+04  0.7818609E-02  0.8160275E-01
       -1   -1    0    0    0  501  0.00000000000E+00  0.00000000000E+00  0.10891917279E+04  0.10891917279E+04  0.50400001928E-02 0.  1.
        1   -1    0    0  501    0  0.00000000000E+00  0.00000000000E+00 -0.25152154777E+04  0.25152154777E+04  0.50400001928E-02 0. -1.
    10030    2    1    2    0    0  0.00000000000E+00  0.00000000000E+00 -0.14260237499E+04  0.36044072056E+04  0.33103183485E+04 0.  0.
        5    1    3    3  502    0  0.25789799045E+03  0.89445476418E+03  0.77713609206E+03  0.12126513490E+04  0.46999998093E+01 0.  1.
       -5    1    3    3    0  502 -0.25789799045E+03 -0.89445476418E+03 -0.22031598419E+04  0.23917558566E+04  0.46999998093E+01 0. -1.
</event>
<event>
 5   0  0.2080828E-07  0.3242765E+04  0.7818609E-02  0.8177614E-01
        1   -1    0    0  501    0  0.00000000000E+00  0.00000000000E+00  0.10665655013E+04  0.10665655013E+04  0.50400001928E-02 0. -1.
       -1   -1    0    0    0  501  0.00000000000E+00  0.00000000000E+00 -0.24648093146E+04  0.24648093146E+04  0.50400001928E-02 0.  1.
    10030    2    1    2    0    0  0.00000000000E+00  0.00000000000E+00 -0.13982438133E+04  0.35313748158E+04  0.32427646119E+04 0.  0.
        1    1    3    3  502    0 -0.96257272149E+03 -0.12899830531E+04 -0.48606120433E+03  0.16813262669E+04  0.50400001928E-02 0. -1.
       -1    1    3    3    0  502  0.96257272149E+03  0.12899830531E+04 -0.91218260897E+03  0.18500485489E+04  0.50400001928E-02 0.  1.
</event>
<event>
 5   0  0.6351753E-07  0.3300827E+04  0.7818609E-02  0.8162685E-01
       -2   -1    0    0    0  501  0.00000000000E+00  0.00000000000E+00  0.11423012587E+04  0.11423012587E+04  0.25500000920E-02 0.  1.
        2   -1    0    0  501    0  0.00000000000E+00  0.00000000000E+00 -0.23845413314E+04  0.23845413314E+04  0.25500000920E-02 0. -1.
    10030    2    1    2    0    0  0.00000000000E+00  0.00000000000E+00 -0.12422400726E+04  0.35268425901E+04  0.33008269051E+04 0.  0.
        3    1    3    3  502    0 -0.35592554947E+03  0.12472169156E+04 -0.17116067619E+04  0.21475173454E+04  0.10100000352E+00 0. -1.
       -3    1    3    3    0  502  0.35592554947E+03 -0.12472169156E+04  0.46936668928E+03  0.13793252447E+04  0.10100000352E+00 0.  1.
</event>
<event>
 5   0  0.2080828E-07  0.3310221E+04  0.7818609E-02  0.8160299E-01
       -1   -1    0    0    0  501  0.00000000000E+00  0.00000000000E+00  0.12613660157E+04  0.12613660157E+04  0.50400001928E-02 0.  1.
        1   -1    0    0  501    0  0.00000000000E+00  0.00000000000E+00 -0.21717653269E+04  0.21717653270E+04  0.50400001928E-02 0. -1.
    10030    2    1    2    0    0  0.00000000000E+00  0.00000000000E+00 -0.91039931129E+03  0.34331313426E+04  0.33102211270E+04 0.  0.
        1    1    3    3  502    0  0.12215290583E+04  0.10183003334E+04 -0.93083699120E+03  0.18426953936E+04  0.50400001928E-02 0.  1.
       -1    1    3    3    0  502 -0.12215290583E+04 -0.10183003334E+04  0.20437679914E+02  0.15904359491E+04  0.50400001928E-02 0. -1.
</event>
<event>
 5   0  0.2080828E-07  0.3309453E+04  0.7818609E-02  0.8160494E-01
        1   -1    0    0  501    0  0.00000000000E+00  0.00000000000E+00  0.23244527504E+04  0.23244527504E+04  0.50400001928E-02 0.  1.
       -1   -1    0    0    0  501  0.00000000000E+00  0.00000000000E+00 -0.11779631970E+04  0.11779631971E+04  0.50400001928E-02 0. -1.
    10030    2    1    2    0    0  0.00000000000E+00  0.00000000000E+00  0.11464895533E+04  0.35024159474E+04  0.33094530021E+04 0.  0.
        1    1    3    3  502    0 -0.98194952618E+03  0.39576440725E+03 -0.77262226726E+03  0.13106485059E+04  0.50400001928E-02 0. -1.
       -1    1    3    3    0  502  0.98194952618E+03 -0.39576440725E+03  0.19191118206E+04  0.21917674416E+04  0.50400001928E-02 0.  1.
</event>
<event>
 5   0  0.2057130E-07  0.3152543E+04  0.7818609E-02  0.8201464E-01
       -1   -1    0    0    0  501  0.00000000000E+00  0.00000000000E+00  0.15249908819E+04  0.15249908820E+04  0.50400001928E-02 0.  1.
        1   -1    0    0  501    0  0.00000000000E+00  0.00000000000E+00 -0.16292762560E+04  0.16292762560E+04  0.50400001928E-02 0. -1.
    10030    2    1    2    0    0  0.00000000000E+00  0.00000000000E+00 -0.10428537410E+03  0.31542671380E+04  0.31525427418E+04 0.  0.
        2    1    3    3  502    0 -0.50101462742E+03  0.59366023701E+03  0.13201698957E+04  0.15317626081E+04  0.25500000920E-02 0.  1.
       -2    1    3    3    0  502  0.50101462742E+03 -0.59366023701E+03 -0.14244552698E+04  0.16225045299E+04  0.25500000920E-02 0. -1.
</event>
<event>
 5   0  0.6377741E-07  0.3282214E+04  0.7818609E-02  0.8167436E-01
        2   -1    0    0  501    0  0.00000000000E+00  0.00000000000E+00  0.16176131100E+04  0.16176131100E+04  0.25500000920E-02 0.  1.
       -2   -1    0    0    0  501  0.00000000000E+00  0.00000000000E+00 -0.16649425799E+04  0.16649425799E+04  0.25500000920E-02 0. -1.
    10030    2    1    2    0    0  0.00000000000E+00  0.00000000000E+00 -0.47329469905E+02  0.32825556899E+04  0.32822144626E+04 0.  0.
        1    1    3    3  502    0 -0.70473087184E+03  0.91056622783E+02  0.14557780857E+04  0.16199465254E+04  0.50400001928E-02 0.  1.
       -1    1    3    3    0  502  0.70473087184E+03 -0.91056622783E+02 -0.15031075556E+04  0.16626091645E+04  0.50400001928E-02 0. -1.
</event>
<event>
 5   0  0.6351753E-07  0.3312819E+04  0.7818609E-02  0.8159641E-01
        2   -1    0    0  501    0  0.00000000000E+00  0.00000000000E+00  0.27392840453E+04  0.27392840453E+04  0.25500000920E-02 0.  1.
       -2   -1    0    0    0  501  0.00000000000E+00  0.00000000000E+00 -0.10016092872E+04  0.10016092872E+04  0.25500000920E-02 0. -1.
    10030    2    1    2    0    0  0.00000000000E+00  0.00000000000E+00  0.17376747581E+04  0.37408933325E+04  0.33128189447E+04 0.  0.
        3    1    3    3  502    0  0.14588960762E+04 -0.76930185252E+03  0.10419034758E+04  0.19508372471E+04  0.10100000352E+00 0.  1.
       -3    1    3    3    0  502 -0.14588960762E+04  0.76930185252E+03  0.69577128229E+03  0.17900560854E+04  0.10100000352E+00 0. -1.
</event>
<event>
 5   0  0.6424183E-07  0.3333563E+04  0.7818609E-02  0.8154407E-01
       -2   -1    0    0    0  501  0.00000000000E+00  0.00000000000E+00  0.11379663550E+04  0.11379663550E+04  0.25500000920E-02 0. -1.
        2   -1    0    0  501    0  0.00000000000E+00  0.00000000000E+00 -0.24413384232E+04  0.24413384232E+04  0.25500000920E-02 0.  1.
    10030    2    1    2    0    0  0.00000000000E+00  0.00000000000E+00 -0.13033720682E+04  0.35793047783E+04  0.33335632509E+04 0.  0.
        2    1    3    3  502    0 -0.12494033730E+04 -0.39078249368E+03 -0.17594591640E+04  0.21930381428E+04  0.25500000920E-02 0.  1.
       -2    1    3    3    0  502  0.12494033730E+04  0.39078249368E+03  0.45608709580E+03  0.13862666355E+04  0.25500000920E-02 0. -1.
</event>
<event>
 5   0  0.6377741E-07  0.3300341E+04  0.7818609E-02  0.8162809E-01
        2   -1    0    0  501    0  0.00000000000E+00  0.00000000000E+00  0.25418960003E+04  0.25418960003E+04  0.25500000920E-02 0.  1.
       -2   -1    0    0    0  501  0.00000000000E+00  0.00000000000E+00 -0.10712723040E+04  0.10712723040E+04  0.25500000920E-02 0. -1.
    10030    2    1    2    0    0  0.00000000000E+00  0.00000000000E+00  0.14706236962E+04  0.36131683043E+04  0.33003410641E+04 0.  0.
        1    1    3    3  502    0  0.21569095154E+03 -0.16241403365E+04  0.95070494796E+03  0.18942529708E+04  0.50400001928E-02 0. -1.
       -1    1    3    3    0  502 -0.21569095154E+03  0.16241403365E+04  0.51991874826E+03  0.17189153336E+04  0.50400001928E-02 0.  1.
</event>
<event>
 5   0  0.6351753E-07  0.3308015E+04  0.7818609E-02  0.8160859E-01
       -2   -1    0    0    0  501  0.00000000000E+00  0.00000000000E+00  0.12307549471E+04  0.12307549471E+04  0.25500000920E-02 0.  1.
        2   -1    0    0  501    0  0.00000000000E+00  0.00000000000E+00 -0.22228147070E+04  0.22228147070E+04  0.25500000920E-02 0. -1.
    10030    2    1    2    0    0  0.00000000000E+00  0.00000000000E+00 -0.99205975991E+03  0.34535696540E+04  0.33080146294E+04 0.  0.
        3    1    3    3  502    0 -0.91534281629E+03 -0.13775524302E+04 -0.51210266020E+03  0.17314018350E+04  0.10100000352E+00 0.  1.
       -3    1    3    3    0  502  0.91534281629E+03  0.13775524302E+04 -0.47995709970E+03  0.17221678191E+04  0.10100000352E+00 0. -1.
</event>
<event>
 5   0  0.2037333E-07  0.3287598E+04  0.7818609E-02  0.8166058E-01
       -1   -1    0    0    0  501  0.00000000000E+00  0.00000000000E+00  0.23279196532E+04  0.23279196532E+04  0.50400001928E-02 0.  1.
        1   -1    0    0  501    0  0.00000000000E+00  0.00000000000E+00 -0.11607252434E+04  0.11607252434E+04  0.50400001928E-02 0. -1.
    10030    2    1    2    0    0  0.00000000000E+00  0.00000000000E+00  0.11671944099E+04  0.34886448966E+04  0.32875979718E+04 0.  0.
        3    1    3    3  502    0  0.19733900373E+03 -0.80434566863E+03  0.20903451515E+04  0.22484344552E+04  0.10100000352E+00 0.  1.
       -3    1    3    3    0  502 -0.19733900373E+03  0.80434566863E+03 -0.92315074160E+03  0.12402104414E+04  0.10100000352E+00 0. -1.
</event>
<event>
 5   0  0.6426079E-07  0.3290032E+04  0.7818609E-02  0.8165436E-01
        2   -1    0    0  501    0  0.00000000000E+00  0.00000000000E+00  0.23751007881E+04  0.23751007881E+04  0.25500000920E-02 0. -1.
       -2   -1    0    0    0  501  0.00000000000E+00  0.00000000000E+00 -0.11393529672E+04  0.11393529672E+04  0.25500000920E-02 0.  1.
    10030    2    1    2    0    0  0.00000000000E+00  0.00000000000E+00  0.12357478209E+04  0.35144537553E+04  0.32900322979E+04 0.  0.
        4    1    3    3  502    0  0.96072675173E+03  0.11477407017E+04 -0.11115427171E+03  0.15008869028E+04  0.12699999809E+01 0.  1.
       -4    1    3    3    0  502 -0.96072675173E+03 -0.11477407017E+04  0.13469020926E+04  0.20135668526E+04  0.12699999809E+01 0. -1.
</event>
<event>
 5   0  0.6424183E-07  0.3236023E+04  0.7818609E-02  0.8179368E-01
       -2   -1    0    0    0  501  0.00000000000E+00  0.00000000000E+00  0.11894896194E+04  0.11894896194E+04  0.25500000920E-02 0. -1.
        2   -1    0    0  501    0  0.00000000000E+00  0.00000000000E+00 -0.22009110563E+04  0.22009110563E+04  0.25500000920E-02 0.  1.
    10030    2    1    2    0    0  0.00000000000E+00  0.00000000000E+00 -0.10114214369E+04  0.33904006757E+04  0.32360227778E+04 0.  0.
        2    1    3    3  502    0 -0.49517904331E+03 -0.49305302016E+03  0.10232429193E+04  0.12390841931E+04  0.25500000920E-02 0. -1.
       -2    1    3    3    0  502  0.49517904331E+03  0.49305302016E+03 -0.20346643563E+04  0.21513164826E+04  0.25500000920E-02 0.  1.
</event>
<event>
 5   0  0.2057130E-07  0.3243525E+04  0.7818609E-02  0.8177416E-01
       -1   -1    0    0    0  501  0.00000000000E+00  0.00000000000E+00  0.17448052131E+04  0.17448052131E+04  0.50400001928E-02 0. -1.
        1   -1    0    0  501    0  0.00000000000E+00  0.00000000000E+00 -0.15073971034E+04  0.15073971034E+04  0.50400001928E-02 0.  1.
    10030    2    1    2    0    0  0.00000000000E+00  0.00000000000E+00  0.23740810973E+03  0.32522023165E+04  0.32435254426E+04 0.  0.
        2    1    3    3  502    0 -0.15377895130E+04 -0.64054455342E+02  0.63116303317E+03  0.16635102446E+04  0.25500000920E-02 0. -1.
       -2    1    3    3    0  502  0.15377895130E+04  0.64054455342E+02 -0.39375492345E+03  0.15886920719E+04  0.25500000920E-02 0.  1.
</event>
<event>
 5   0  0.2057130E-07  0.3202579E+04  0.7818609E-02  0.8188136E-01
        1   -1    0    0  501    0  0.00000000000E+00  0.00000000000E+00  0.19212256954E+04  0.19212256954E+04  0.50400001928E-02 0.  1.
       -1   -1    0    0    0  501  0.00000000000E+00  0.00000000000E+00 -0.13346313909E+04  0.13346313909E+04  0.50400001928E-02 0. -1.
    10030    2    1    2    0    0  0.00000000000E+00  0.00000000000E+00  0.58659430452E+03  0.32558570864E+04  0.32025790371E+04 0.  0.
        2    1    3    3  502    0  0.14697508457E+04  0.56880843441E+03  0.58159464492E+03  0.16798699100E+04  0.25500000920E-02 0.  1.
       -2    1    3    3    0  502 -0.14697508457E+04 -0.56880843441E+03  0.49996595991E+01  0.15759871764E+04  0.25500000920E-02 0. -1.
</event>
<event>
 5   0  0.6377741E-07  0.3328834E+04  0.7818609E-02  0.8155597E-01
        2   -1    0    0  501    0  0.00000000000E+00  0.00000000000E+00  0.16414007586E+04  0.16414007586E+04  0.25500000920E-02 0. -1.
       -2   -1    0    0    0  501  0.00000000000E+00  0.00000000000E+00 -0.16877561294E+04  0.16877561294E+04  0.25500000920E-02 0.  1.
    10030    2    1    2    0    0  0.00000000000E+00  0.00000000000E+00 -0.46355370758E+02  0.33291568881E+04  0.33288341450E+04 0.  0.
        1    1    3    3  502    0 -0.16581725917E+04 -0.78397107040E+02 -0.14402706436E+03  0.16662611577E+04  0.50400001928E-02 0.  1.
       -1    1    3    3    0  502  0.16581725917E+04  0.78397107040E+02  0.97671693597E+02  0.16628957304E+04  0.50400001928E-02 0. -1.
</event>
<event>
 5   0  0.2080828E-07  0.3294587E+04  0.7818609E-02  0.8164274E-01
        1   -1    0    0  501    0  0.00000000000E+00  0.00000000000E+00  0.23643928096E+04  0.23643928096E+04  0.50400001928E-02 0. -1.
       -1   -1    0    0    0  501  0.00000000000E+00  0.00000000000E+00 -0.11476840698E+04  0.11476840698E+04  0.50400001928E-02 0.  1.
    10030    2    1    2    0    0  0.00000000000E+00  0.00000000000E+00  0.12167087398E+04  0.35120768794E+04  0.32945870530E+04 0.  0.
        1    1    3    3  502    0 -0.12275145911E+04  0.10942992095E+04  0.50558964687E+03  0.17204370731E+04  0.50400001928E-02 0. -1.
       -1    1    3    3    0  502  0.12275145911E+04 -0.10942992095E+04  0.71111909295E+03  0.17916398064E+04  0.50400001928E-02 0.  1.
</event>
<event>
 5   0  0.2087665E-07  0.3300525E+04  0.7818609E-02  0.8162762E-01
       -1   -1    0    0    0  501  0.00000000000E+00  0.00000000000E+00  0.14389063696E+04  0.14389063696E+04  0.50400001928E-02 0. -1.
        1   -1    0    0  501    0  0.00000000000E+00  0.00000000000E+00 -0.18926634944E+04  0.18926634944E+04  0.50400001928E-02 0.  1.
    10030    2    1    2    0    0  0.00000000000E+00  0.00000000000E+00 -0.45375712477E+03  0.33315698640E+04  0.33005245387E+04 0.  0.
        5    1    3    3  502    0  0.66627614552E+03  0.87771773503E+03  0.10131025226E+04  0.14969005097E+04  0.46999998093E+01 0. -1.
       -5    1    3    3    0  502 -0.66627614552E+03 -0.87771773503E+03 -0.14668596474E+04  0.18346693543E+04  0.46999998093E+01 0.  1.
</event>
<event>
 5   0  0.2080828E-07  0.3299841E+04  0.7818609E-02  0.8162936E-01
       -1   -1    0    0    0  501  0.00000000000E+00  0.00000000000E+00  0.13294202765E+04  0.13294202765E+04  0.50400001928E-02 0.  1.
        1   -1    0    0  501    0  0.00000000000E+00  0.00000000000E+00 -0.20476883967E+04  0.20476883967E+04  0.50400001928E-02 0. -1.
    10030    2    1    2    0    0  0.00000000000E+00  0.00000000000E+00 -0.71826812015E+03  0.33771086732E+04  0.32998414959E+04 0.  0.
        1    1    3    3  502    0 -0.11682223412E+04 -0.94175662768E+03  0.34292406278E+03  0.15392354911E+04  0.50400001928E-02 0.  1.
       -1    1    3    3    0  502  0.11682223412E+04  0.94175662768E+03 -0.10611921829E+04  0.18378731821E+04  0.50400001928E-02 0. -1.
</event>
<event>
 5   0  0.2037333E-07  0.3269435E+04  0.7818609E-02  0.8170716E-01
       -1   -1    0    0    0  501  0.00000000000E+00  0.00000000000E+00  0.13542371303E+04  0.13542371303E+04  0.50400001928E-02 0. -1.
        1   -1    0    0  501    0  0.00000000000E+00  0.00000000000E+00 -0.19732892315E+04  0.19732892315E+04  0.50400001928E-02 0.  1.
    10030    2    1    2    0    0  0.00000000000E+00  0.00000000000E+00 -0.61905210118E+03  0.33275263618E+04  0.32694351476E+04 0.  0.
        3    1    3    3  502    0 -0.80490381191E+03  0.13507797611E+04  0.14543493074E+03  0.15791223634E+04  0.10100000352E+00 0.  1.
       -3    1    3    3    0  502  0.80490381191E+03 -0.13507797611E+04 -0.76448703192E+03  0.17484039984E+04  0.10100000352E+00 0. -1.
</event>
<event>
 5   0  0.6351753E-07  0.3295485E+04  0.7818609E-02  0.8164045E-01
       -2   -1    0    0    0  501  0.00000000000E+00  0.00000000000E+00  0.20441050450E+04  0.20441050450E+04  0.25500000920E-02 0. -1.
        2   -1    0    0  501    0  0.00000000000E+00  0.00000000000E+00 -0.13282370597E+04  0.13282370597E+04  0.25500000920E-02 0.  1.
    10030    2    1    2    0    0  0.00000000000E+00  0.00000000000E+00  0.71586798530E+03  0.33723421046E+04  0.32954854420E+04 0.  0.
        3    1    3    3  502    0 -0.16358451209E+04  0.13638943844E+03  0.21154271815E+03  0.16550956680E+04  0.10100000352E+00 0. -1.
       -3    1    3    3    0  502  0.16358451209E+04 -0.13638943844E+03  0.50432526715E+03  0.17172464366E+04  0.10100000352E+00 0.  1.
</event>
<event>
 5   0  0.6377741E-07  0.3296840E+04  0.7818609E-02  0.8163700E-01
        2   -1    0    0  501    0  0.00000000000E+00  0.00000000000E+00  0.29801717323E+04  0.29801717323E+04  0.25500000920E-02 0.  1.
       -2   -1    0    0    0  501  0.00000000000E+00  0.00000000000E+00 -0.91178932653E+03  0.91178932653E+03  0.25500000920E-02 0. -1.
    10030    2    1    2    0    0  0.00000000000E+00  0.00000000000E+00  0.20683824058E+04  0.38919610588E+04  0.32968401701E+04 0.  0.
        1    1    3    3  502    0  0.77675510278E+03  0.89910059872E+03  0.23830570073E+04  0.26628351575E+04  0.50400001928E-02 0.  1.
       -1    1    3    3    0  502 -0.77675510278E+03 -0.89910059872E+03 -0.31467460151E+03  0.12291259013E+04  0.50400001928E-02 0. -1.
</event>
<event>
 5   0  0.6426079E-07  0.3341288E+04  0.7818609E-02  0.8152468E-01
        2   -1    0    0  501    0  0.00000000000E+00  0.00000000000E+00  0.81066960456E+03  0.81066960456E+03  0.25500000920E-02 0. -1.
       -2   -1    0    0    0  501  0.00000000000E+00  0.00000000000E+00 -0.34428967363E+04  0.34428967363E+04  0.25500000920E-02 0.  1.
    10030    2    1    2    0    0  0.00000000000E+00  0.00000000000E+00 -0.26322271317E+04  0.42535663408E+04  0.33412882161E+04 0.  0.
        4    1    3    3  502    0 -0.16001672921E+04  0.44578776067E+03 -0.15430849444E+04  0.22672394776E+04  0.12699999809E+01 0.  1.
       -4    1    3    3    0  502  0.16001672921E+04 -0.44578776067E+03 -0.10891421873E+04  0.19863268632E+04  0.12699999809E+01 0. -1.
</event>
<event>
 5   0  0.2057130E-07  0.3257780E+04  0.7818609E-02  0.8173722E-01
        1   -1    0    0  501    0  0.00000000000E+00  0.00000000000E+00  0.15918938820E+04  0.15918938820E+04  0.50400001928E-02 0. -1.
       -1   -1    0    0    0  501  0.00000000000E+00  0.00000000000E+00 -0.16667458822E+04  0.16667458822E+04  0.50400001928E-02 0.  1.
    10030    2    1    2    0    0  0.00000000000E+00  0.00000000000E+00 -0.74852000164E+02  0.32586397642E+04  0.32577799635E+04 0.  0.
        2    1    3    3  502    0  0.97858206922E+03  0.20386246822E+03 -0.13238835483E+04  0.16588702244E+04  0.25500000920E-02 0.  1.
       -2    1    3    3    0  502 -0.97858206922E+03 -0.20386246822E+03  0.12490315481E+04  0.15997695398E+04  0.25500000920E-02 0. -1.
</event>
<event>
 5   0  0.6258718E-07  0.3307126E+04  0.7818609E-02  0.8161085E-01
        2   -1    0    0  501    0  0.00000000000E+00  0.00000000000E+00  0.16563066134E+04  0.16563066134E+04  0.25500000920E-02 0. -1.
       -2   -1    0    0    0  501  0.00000000000E+00  0.00000000000E+00 -0.16508240457E+04  0.16508240457E+04  0.25500000920E-02 0.  1.
    10030    2    1    2    0    0  0.00000000000E+00  0.00000000000E+00  0.54825676961E+01  0.33071306592E+04  0.33071261147E+04 0.  0.
        5    1    3    3  502    0 -0.14243607420E+04 -0.18759432684E+03 -0.81594997777E+03  0.16522081016E+04  0.46999998093E+01 0.  1.
       -5    1    3    3    0  502  0.14243607420E+04  0.18759432684E+03  0.82143254547E+03  0.16549225576E+04  0.46999998093E+01 0. -1.
</event>
<event>
 5   0  0.6258718E-07  0.3261742E+04  0.7818609E-02  0.8172699E-01
       -2   -1    0    0    0  501  0.00000000000E+00  0.00000000000E+00  0.15442252203E+04  0.15442252203E+04  0.25500000920E-02 0. -1.
        2   -1    0    0  501    0  0.00000000000E+00  0.00000000000E+00 -0.17223779302E+04  0.17223779302E+04  0.25500000920E-02 0.  1.
    10030    2    1    2    0    0  0.00000000000E+00  0.00000000000E+00 -0.17815270992E+03  0.32666031505E+04  0.32617415218E+04 0.  0.
        5    1    3    3  502    0 -0.10727121930E+04  0.11843373730E+03  0.11354395523E+04  0.15665194113E+04  0.46999998093E+01 0. -1.
       -5    1    3    3    0  502  0.10727121930E+04 -0.11843373730E+03 -0.13135922622E+04  0.17000837392E+04  0.46999998093E+01 0.  1.
</event>
<event>
 5   0  0.6351753E-07  0.3301993E+04  0.7818609E-02  0.8162388E-01
       -2   -1    0    0    0  501  0.00000000000E+00  0.00000000000E+00  0.14095760986E+04  0.14095760986E+04  0.25500000920E-02 0. -1.
        2   -1    0    0  501    0  0.00000000000E+00  0.00000000000E+00 -0.19337657125E+04  0.19337657125E+04  0.25500000920E-02 0.  1.
    10030    2    1    2    0    0  0.00000000000E+00  0.00000000000E+00 -0.52418961385E+03  0.33433418111E+04  0.33019932942E+04 0.  0.
        3    1    3    3  502    0  0.92697054818E+03 -0.12796515238E+04 -0.74663459441E+03  0.17476400222E+04  0.10100000352E+00 0. -1.
       -3    1    3    3    0  502 -0.92697054818E+03  0.12796515238E+04  0.22244498056E+03  0.15957017889E+04  0.10100000352E+00 0.  1.
</event>
<event>
 5   0  0.6258718E-07  0.3336180E+04  0.7818609E-02  0.8153750E-01
        2   -1    0    0  501    0  0.00000000000E+00  0.00000000000E+00  0.23179115000E+04  0.23179115000E+04  0.25500000920E-02 0. -1.
       -2   -1    0    0    0  501  0.00000000000E+00  0.00000000000E+00 -0.12004446042E+04  0.12004446042E+04  0.25500000920E-02 0.  1.
    10030    2    1    2    0    0  0.00000000000E+00  0.00000000000E+00  0.11174668958E+04  0.35183561042E+04  0.33361800630E+04 0.  0.
        5    1    3    3  502    0  0.90193711260E+03 -0.67472335869E+03  0.18562677192E+04  0.21712885808E+04  0.46999998093E+01 0. -1.
       -5    1    3    3    0  502 -0.90193711260E+03  0.67472335869E+03 -0.73880082339E+03  0.13470675234E+04  0.46999998093E+01 0.  1.
</event>
<event>
 5   0  0.6424183E-07  0.3308336E+04  0.7818609E-02  0.8160778E-01
        2   -1    0    0  501    0  0.00000000000E+00  0.00000000000E+00  0.23466108848E+04  0.23466108848E+04  0.25500000920E-02 0. -1.
       -2   -1    0    0    0  501  0.00000000000E+00  0.00000000000E+00 -0.11660526666E+04  0.11660526666E+04  0.25500000920E-02 0.  1.
    10030    2    1    2    0    0  0.00000000000E+00  0.00000000000E+00  0.11805582183E+04  0.35126635514E+04  0.33083360650E+04 0.  0.
        2    1    3    3  502    0  0.74707282138E+03 -0.14679204039E+04  0.75257157843E+03  0.18108760569E+04  0.25500000920E-02 0. -1.
       -2    1    3    3    0  502 -0.74707282138E+03  0.14679204039E+04  0.42798663983E+03  0.17017874946E+04  0.25500000920E-02 0.  1.
</event>
<event>
 5   0  0.6258718E-07  0.3281648E+04  0.7818609E-02  0.8167581E-01
       -2   -1    0    0    0  501  0.00000000000E+00  0.00000000000E+00  0.19915923132E+04  0.19915923132E+04  0.25500000920E-02 0. -1.
        2   -1    0    0  501    0  0.00000000000E+00  0.00000000000E+00 -0.13518347050E+04  0.13518347050E+04  0.25500000920E-02 0.  1.
    10030    2    1    2    0    0  0.00000000000E+00  0.00000000000E+00  0.63975760811E+03  0.33434270182E+04  0.32816481269E+04 0.  0.
        5    1    3    3  502    0 -0.11745129762E+04  0.25453893218E+03  0.14580536754E+04  0.18895008361E+04  0.46999998093E+01 0. -1.
       -5    1    3    3    0  502  0.11745129762E+04 -0.25453893218E+03 -0.81829606733E+03  0.14539261821E+04  0.46999998093E+01 0.  1.
</event>
<event>
 5   0  0.6424183E-07  0.3389935E+04  0.7818609E-02  0.8140381E-01
        2   -1    0    0  501    0  0.00000000000E+00  0.00000000000E+00  0.20691611293E+04  0.20691611293E+04  0.25500000920E-02 0. -1.
       -2   -1    0    0    0  501  0.00000000000E+00  0.00000000000E+00 -0.13884438330E+04  0.13884438330E+04  0.25500000920E-02 0.  1.
    10030    2    1    2    0    0  0.00000000000E+00  0.00000000000E+00  0.68071729627E+03  0.34576049623E+04  0.33899345182E+04 0.  0.
        2    1    3    3  502    0 -0.97943955258E+03 -0.48038414762E+03  0.16634989419E+04  0.19892962313E+04  0.25500000920E-02 0. -1.
       -2    1    3    3    0  502  0.97943955258E+03  0.48038414762E+03 -0.98278164560E+03  0.14683087309E+04  0.25500000920E-02 0.  1.
</event>
<event>
 5   0  0.6426079E-07  0.3278560E+04  0.7818609E-02  0.8168372E-01
       -2   -1    0    0    0  501  0.00000000000E+00  0.00000000000E+00  0.13987967442E+04  0.13987967442E+04  0.25500000920E-02 0. -1.
        2   -1    0    0  501    0  0.00000000000E+00  0.00000000000E+00 -0.19211074096E+04  0.19211074096E+04  0.25500000920E-02 0.  1.
    10030    2    1    2    0    0  0.00000000000E+00  0.00000000000E+00 -0.52231066534E+03  0.33199041538E+04  0.32785599216E+04 0.  0.
        4    1    3    3  502    0 -0.12605574886E+04  0.67501091085E+03  0.55057199460E+03  0.15322454261E+04  0.12699999809E+01 0. -1.
       -4    1    3    3    0  502  0.12605574886E+04 -0.67501091085E+03 -0.10728826599E+04  0.17876587277E+04  0.12699999809E+01 0.  1.
</event>
<event>
 5   0  0.6377741E-07  0.3307632E+04  0.7818609E-02  0.8160956E-01
       -2   -1    0    0    0  501  0.00000000000E+00  0.00000000000E+00  0.14227703449E+04  0.14227703450E+04  0.25500000920E-02 0. -1.
        2   -1    0    0  501    0  0.00000000000E+00  0.00000000000E+00 -0.19223809291E+04  0.19223809291E+04  0.25500000920E-02 0.  1.
    10030    2    1    2    0    0  0.00000000000E+00  0.00000000000E+00 -0.49961058411E+03  0.33451512740E+04  0.33076315258E+04 0.  0.
        1    1    3    3  502    0 -0.49279608932E+02  0.36130443573E+03 -0.18812176036E+04  0.19162330358E+04  0.50400001928E-02 0.  1.
       -1    1    3    3    0  502  0.49279608932E+02 -0.36130443573E+03  0.13816070195E+04  0.14289182382E+04  0.50400001928E-02 0. -1.
</event>
<event>
 5   0  0.2080828E-07  0.3295519E+04  0.7818609E-02  0.8164036E-01
        1   -1    0    0  501    0  0.00000000000E+00  0.00000000000E+00  0.14446910608E+04  0.14446910609E+04  0.50400001928E-02 0.  1.
       -1   -1    0    0    0  501  0.00000000000E+00  0.00000000000E+00 -0.18793719885E+04  0.18793719885E+04  0.50400001928E-02 0. -1.
    10030    2    1    2    0    0  0.00000000000E+00  0.00000000000E+00 -0.43468092763E+03  0.33240630493E+04  0.32955193289E+04 0.  0.
        1    1    3    3  502    0 -0.16411103414E+04 -0.13232417441E+03 -0.15074534449E+03  0.16533230171E+04  0.50400001928E-02 0. -1.
       -1    1    3    3    0  502  0.16411103414E+04  0.13232417441E+03 -0.28393558314E+03  0.16707400322E+04  0.50400001928E-02 0.  1.
</event>
<event>
 5   0  0.2087665E-07  0.3295092E+04  0.7818609E-02  0.8164145E-01
       -1   -1    0    0    0  501  0.00000000000E+00  0.00000000000E+00  0.13849419626E+04  0.13849419626E+04  0.50400001928E-02 0.  1.
        1   -1    0    0  501    0  0.00000000000E+00  0.00000000000E+00 -0.19599439670E+04  0.19599439670E+04  0.50400001928E-02 0. -1.
    10030    2    1    2    0    0  0.00000000000E+00  0.00000000000E+00 -0.57500200440E+03  0.33448859296E+04  0.32950924990E+04 0.  0.
        5    1    3    3  502    0 -0.53447668578E+03 -0.34207179044E+03 -0.18309070585E+04  0.19377619008E+04  0.46999998093E+01 0. -1.
       -5    1    3    3    0  502  0.53447668578E+03  0.34207179044E+03  0.12559050541E+04  0.14071240288E+04  0.46999998093E+01 0.  1.
</event>
<event>
 5   0  0.2057130E-07  0.3291050E+04  0.7818609E-02  0.8165176E-01
       -1   -1    0    0    0  501  0.00000000000E+00  0.00000000000E+00  0.16621869889E+04  0.16621869889E+04  0.50400001928E-02 0. -1.
        1   -1    0    0  501    0  0.00000000000E+00  0.00000000000E+00 -0.16290298339E+04  0.16290298339E+04  0.50400001928E-02 0.  1.
    10030    2    1    2    0    0  0.00000000000E+00  0.00000000000E+00  0.33157155047E+02  0.32912168228E+04  0.32910497987E+04 0.  0.
        2    1    3    3  502    0  0.67454627276E+03 -0.40259005912E+03  0.14625637006E+04  0.16601758968E+04  0.25500000920E-02 0. -1.
       -2    1    3    3    0  502 -0.67454627276E+03  0.40259005912E+03 -0.14294065456E+04  0.16310409260E+04  0.25500000920E-02 0.  1.
</event>
<event>
 5   0  0.1994250E-07  0.3306686E+04  0.7818609E-02  0.8161196E-01
        3   -1    0    0  501    0  0.00000000000E+00  0.00000000000E+00  0.20440923978E+04  0.20440924003E+04  0.10100000352E+00 0. -1.
       -3   -1    0    0    0  501  0.00000000000E+00  0.00000000000E+00 -0.13372890065E+04  0.13372890103E+04  0.10100000352E+00 0.  1.
    10030    2    1    2    0    0  0.00000000000E+00  0.00000000000E+00  0.70680339125E+03  0.33813814106E+04  0.33066855324E+04 0.  0.
        2    1    3    3  502    0 -0.12434580073E+04 -0.86798590036E+03 -0.32023167855E+03  0.15498824688E+04  0.25500000920E-02 0.  1.
       -2    1    3    3    0  502  0.12434580073E+04  0.86798590036E+03  0.10270350698E+04  0.18314989418E+04  0.25500000920E-02 0. -1.
</event>
<event>
 5   0  0.6351753E-07  0.3142743E+04  0.7818609E-02  0.8204104E-01
       -2   -1    0    0    0  501  0.00000000000E+00  0.00000000000E+00  0.10288935988E+04  0.10288935988E+04  0.25500000920E-02 0. -1.
        2   -1    0    0  501    0  0.00000000000E+00  0.00000000000E+00 -0.23998671196E+04  0.23998671196E+04  0.25500000920E-02 0.  1.
    10030    2    1    2    0    0  0.00000000000E+00  0.00000000000E+00 -0.13709735208E+04  0.34287607185E+04  0.31427426986E+04 0.  0.
        3    1    3    3  502    0 -0.10550151664E+04  0.53053278014E+02  0.58371659175E+03  0.12068954890E+04  0.10100000352E+00 0. -1.
       -3    1    3    3    0  502  0.10550151664E+04 -0.53053278014E+02 -0.19546901126E+04  0.22218652295E+04  0.10100000352E+00 0.  1.
</event>
<event>
 5   0  0.6426079E-07  0.3295858E+04  0.7818609E-02  0.8163950E-01
       -2   -1    0    0    0  501  0.00000000000E+00  0.00000000000E+00  0.15392171511E+04  0.15392171511E+04  0.25500000920E-02 0. -1.
        2   -1    0    0  501    0  0.00000000000E+00  0.00000000000E+00 -0.17643185466E+04  0.17643185466E+04  0.25500000920E-02 0.  1.
    10030    2    1    2    0    0  0.00000000000E+00  0.00000000000E+00 -0.22510139541E+03  0.33035356977E+04  0.32958576225E+04 0.  0.
        4    1    3    3  502    0  0.52428771752E+03 -0.11683885139E+03 -0.16741078021E+04  0.17581716281E+04  0.12699999809E+01 0.  1.
       -4    1    3    3    0  502 -0.52428771752E+03  0.11683885139E+03  0.14490064067E+04  0.15453640696E+04  0.12699999809E+01 0. -1.
</event>
<event>
 5   0  0.2080770E-07  0.3294226E+04  0.7818609E-02  0.8164366E-01
        1   -1    0    0  501    0  0.00000000000E+00  0.00000000000E+00  0.10975616838E+04  0.10975616838E+04  0.50400001928E-02 0.  1.
       -1   -1    0    0    0  501  0.00000000000E+00  0.00000000000E+00 -0.24718250118E+04  0.24718250118E+04  0.50400001928E-02 0. -1.
    10030    2    1    2    0    0  0.00000000000E+00  0.00000000000E+00 -0.13742633280E+04  0.35693866956E+04  0.32942255066E+04 0.  0.
        4    1    3    3  502    0 -0.14070917587E+04  0.21462366946E+03  0.21096122610E+03  0.14389151430E+04  0.12699999809E+01 0.  1.
       -4    1    3    3    0  502  0.14070917587E+04 -0.21462366946E+03 -0.15852245541E+04  0.21304715527E+04  0.12699999809E+01 0. -1.
</event>
<event>
 5   0  0.2057130E-07  0.3315023E+04  0.7818609E-02  0.8159083E-01
        1   -1    0    0  501    0  0.00000000000E+00  0.00000000000E+00  0.16981966339E+04  0.16981966339E+04  0.50400001928E-02 0.  1.
       -1   -1    0    0    0  501  0.00000000000E+00  0.00000000000E+00 -0.16178015075E+04  0.16178015075E+04  0.50400001928E-02 0. -1.
    10030    2    1    2    0    0  0.00000000000E+00  0.00000000000E+00  0.80395126419E+02  0.33159981415E+04  0.33150234234E+04 0.  0.
        2    1    3    3  502    0  0.11374893601E+04  0.22491935867E+03  0.12249757742E+04  0.16867235724E+04  0.25500000920E-02 0.  1.
       -2    1    3    3    0  502 -0.11374893601E+04 -0.22491935867E+03 -0.11445806478E+04  0.16292745691E+04  0.25500000920E-02 0. -1.
</event>
<event>
 5   0  0.2057130E-07  0.3301585E+04  0.7818609E-02  0.8162492E-01
        1   -1    0    0  501    0  0.00000000000E+00  0.00000000000E+00  0.19365561792E+04  0.19365561792E+04  0.50400001928E-02 0. -1.
       -1   -1    0    0    0  501  0.00000000000E+00  0.00000000000E+00 -0.14071967805E+04  0.14071967805E+04  0.50400001928E-02 0.  1.
    10030    2    1    2    0    0  0.00000000000E+00  0.00000000000E+00  0.52935939869E+03  0.33437529596E+04  0.33015848440E+04 0.  0.
        2    1    3    3  502    0  0.11445739680E+04  0.10057157180E+04 -0.37873110245E+03  0.15700162170E+04  0.25500000920E-02 0.  1.
       -2    1    3    3    0  502 -0.11445739680E+04 -0.10057157180E+04  0.90809050114E+03  0.17737367426E+04  0.25500000920E-02 0. -1.
</event>
<event>
 5   0  0.6424183E-07  0.3286892E+04  0.7818609E-02  0.8166239E-01
       -2   -1    0    0    0  501  0.00000000000E+00  0.00000000000E+00  0.14951529974E+04  0.14951529974E+04  0.25500000920E-02 0. -1.
        2   -1    0    0  501    0  0.00000000000E+00  0.00000000000E+00 -0.18064473680E+04  0.18064473680E+04  0.25500000920E-02 0.  1.
    10030    2    1    2    0    0  0.00000000000E+00  0.00000000000E+00 -0.31129437056E+03  0.33016003654E+04  0.32868922689E+04 0.  0.
        2    1    3    3  502    0  0.20184141040E+03 -0.15589760809E+04 -0.63713420343E+03  0.16961976208E+04  0.25500000920E-02 0.  1.
       -2    1    3    3    0  502 -0.20184141040E+03  0.15589760809E+04  0.32583983286E+03  0.16054027446E+04  0.25500000920E-02 0. -1.
</event>
<event>
 5   0  0.2080828E-07  0.3293031E+04  0.7818609E-02  0.8164671E-01
        1   -1    0    0  501    0  0.00000000000E+00  0.00000000000E+00  0.27846700919E+04  0.27846700919E+04  0.50400001928E-02 0. -1.
       -1   -1    0    0    0  501  0.00000000000E+00  0.00000000000E+00 -0.97354891235E+03  0.97354891236E+03  0.50400001928E-02 0.  1.
    10030    2    1    2    0    0  0.00000000000E+00  0.00000000000E+00  0.18111211795E+04  0.37582190042E+04  0.32930305430E+04 0.  0.
        1    1    3    3  502    0  0.15292735692E+04  0.51032594882E+03  0.12873341629E+04  0.20630897873E+04  0.50400001928E-02 0.  1.
       -1    1    3    3    0  502 -0.15292735692E+04 -0.51032594882E+03  0.52378701662E+03  0.16951292170E+04  0.50400001928E-02 0. -1.
</event>
<event>
 5   0  0.2080770E-07  0.3299264E+04  0.7818609E-02  0.8163083E-01
       -1   -1    0    0    0  501  0.00000000000E+00  0.00000000000E+00  0.10925455298E+04  0.10925455298E+04  0.50400001928E-02 0. -1.
        1   -1    0    0  501    0  0.00000000000E+00  0.00000000000E+00 -0.24907758970E+04  0.24907758970E+04  0.50400001928E-02 0.  1.
    10030    2    1    2    0    0  0.00000000000E+00  0.00000000000E+00 -0.13982303672E+04  0.35833214267E+04  0.32992642040E+04 0.  0.
        4    1    3    3  502    0 -0.47008650621E+03  0.13451763215E+04  0.20359019519E+03  0.14394204528E+04  0.12699999809E+01 0. -1.
       -4    1    3    3    0  502  0.47008650621E+03 -0.13451763215E+04 -0.16018205624E+04  0.21439009740E+04  0.12699999809E+01 0.  1.
</event>
<event>
 5   0  0.2037333E-07  0.3298438E+04  0.7818609E-02  0.8163293E-01
        1   -1    0    0  501    0  0.00000000000E+00  0.00000000000E+00  0.23558014631E+04  0.23558014631E+04  0.50400001928E-02 0. -1.
       -1   -1    0    0    0  501  0.00000000000E+00  0.00000000000E+00 -0.11545641327E+04  0.11545641327E+04  0.50400001928E-02 0.  1.
    10030    2    1    2    0    0  0.00000000000E+00  0.00000000000E+00  0.12012373304E+04  0.35103655957E+04  0.32984383414E+04 0.  0.
        3    1    3    3  502    0 -0.13749011107E+04 -0.67768717707E+02  0.15672596735E+04  0.20859646588E+04  0.10100000352E+00 0. -1.
       -3    1    3    3    0  502  0.13749011107E+04  0.67768717707E+02 -0.36602234313E+03  0.14244009370E+04  0.10100000352E+00 0.  1.
</event>
<event>
 5   0  0.2080770E-07  0.3315854E+04  0.7818609E-02  0.8158873E-01
        1   -1    0    0  501    0  0.00000000000E+00  0.00000000000E+00  0.22714385438E+04  0.22714385438E+04  0.50400001928E-02 0.  1.
       -1   -1    0    0    0  501  0.00000000000E+00  0.00000000000E+00 -0.12101236678E+04  0.12101236678E+04  0.50400001928E-02 0. -1.
    10030    2    1    2    0    0  0.00000000000E+00  0.00000000000E+00  0.10613148760E+04  0.34815622117E+04  0.33158537615E+04 0.  0.
        4    1    3    3  502    0  0.13435574464E+04 -0.75659635766E+03 -0.10899624493E+03  0.15457899128E+04  0.12699999809E+01 0.  1.
       -4    1    3    3    0  502 -0.13435574464E+04  0.75659635766E+03  0.11703111209E+04  0.19357722988E+04  0.12699999809E+01 0. -1.
</event>
<event>
 5   0  0.6426079E-07  0.3488767E+04  0.7818609E-02  0.8116457E-01
       -2   -1    0    0    0  501  0.00000000000E+00  0.00000000000E+00  0.11954410849E+04  0.11954410849E+04  0.25500000920E-02 0. -1.
        2   -1    0    0  501    0  0.00000000000E+00  0.00000000000E+00 -0.25453982343E+04  0.25453982343E+04  0.25500000920E-02 0.  1.
    10030    2    1    2    0    0  0.00000000000E+00  0.00000000000E+00 -0.13499571494E+04  0.37408393193E+04  0.34887669036E+04 0.  0.
        4    1    3    3  502    0  0.15502037280E+04  0.79966209355E+03 -0.65700588713E+03  0.18639338537E+04  0.12699999809E+01 0. -1.
       -4    1    3    3    0  502 -0.15502037280E+04 -0.79966209355E+03 -0.69295126227E+03  0.18769054656E+04  0.12699999809E+01 0.  1.
</event>
<event>
 5   0  0.6424183E-07  0.3298252E+04  0.7818609E-02  0.8163340E-01
       -2   -1    0    0    0  501  0.00000000000E+00  0.00000000000E+00  0.13842800527E+04  0.13842800528E+04  0.25500000920E-02 0.  1.
        2   -1    0    0  501    0  0.00000000000E+00  0.00000000000E+00 -0.19646437823E+04  0.19646437823E+04  0.25500000920E-02 0. -1.
    10030    2    1    2    0    0  0.00000000000E+00  0.00000000000E+00 -0.58036372956E+03  0.33489238351E+04  0.32982523849E+04 0.  0.
        2    1    3    3  502    0  0.15195069657E+04  0.64058911261E+03 -0.27088011979E+03  0.16711169526E+04  0.25500000920E-02 0. -1.
       -2    1    3    3    0  502 -0.15195069657E+04 -0.64058911261E+03 -0.30948360977E+03  0.16778068824E+04  0.25500000920E-02 0.  1.
</event>
<event>
 5   0  0.6258718E-07  0.3300006E+04  0.7818609E-02  0.8162894E-01
       -2   -1    0    0    0  501  0.00000000000E+00  0.00000000000E+00  0.18921733707E+04  0.18921733707E+04  0.25500000920E-02 0.  1.
        2   -1    0    0  501    0  0.00000000000E+00  0.00000000000E+00 -0.14388273029E+04  0.14388273029E+04  0.25500000920E-02 0. -1.
    10030    2    1    2    0    0  0.00000000000E+00  0.00000000000E+00  0.45334606783E+03  0.33310006736E+04  0.33000064894E+04 0.  0.
        5    1    3    3  502    0 -0.86197337049E+02 -0.86310556502E+03  0.16434610672E+04  0.18583238594E+04  0.46999998093E+01 0.  1.
       -5    1    3    3    0  502  0.86197337049E+02  0.86310556502E+03 -0.11901149993E+04  0.14726768141E+04  0.46999998093E+01 0. -1.
</event>
<event>
 5   0  0.6351753E-07  0.3276890E+04  0.7818609E-02  0.8168801E-01
        2   -1    0    0  501    0  0.00000000000E+00  0.00000000000E+00  0.20709025063E+04  0.20709025063E+04  0.25500000920E-02 0. -1.
       -2   -1    0    0    0  501  0.00000000000E+00  0.00000000000E+00 -0.12962960009E+04  0.12962960009E+04  0.25500000920E-02 0.  1.
    10030    2    1    2    0    0  0.00000000000E+00  0.00000000000E+00  0.77460650539E+03  0.33671985071E+04  0.32768903778E+04 0.  0.
        3    1    3    3  502    0 -0.40926279091E+03  0.53634074276E+03 -0.11469444018E+04  0.13306535595E+04  0.10100000352E+00 0.  1.
       -3    1    3    3    0  502  0.40926279091E+03 -0.53634074276E+03  0.19215509072E+04  0.20365449476E+04  0.10100000352E+00 0. -1.
</event>
<event>
 5   0  0.6377741E-07  0.3302331E+04  0.7818609E-02  0.8162303E-01
        2   -1    0    0  501    0  0.00000000000E+00  0.00000000000E+00  0.18131193764E+04  0.18131193764E+04  0.25500000920E-02 0.  1.
       -2   -1    0    0    0  501  0.00000000000E+00  0.00000000000E+00 -0.15036778822E+04  0.15036778822E+04  0.25500000920E-02 0. -1.
    10030    2    1    2    0    0  0.00000000000E+00  0.00000000000E+00  0.30944149424E+03  0.33167972586E+04  0.33023309974E+04 0.  0.
        1    1    3    3  502    0 -0.78720509133E+03 -0.67452017016E+03  0.14455269436E+04  0.17788247413E+04  0.50400001928E-02 0.  1.
       -1    1    3    3    0  502  0.78720509133E+03  0.67452017016E+03 -0.11360854493E+04  0.15379725173E+04  0.50400001928E-02 0. -1.
</event>
<event>
 5   0  0.2037333E-07  0.3302987E+04  0.7818609E-02  0.8162136E-01
        1   -1    0    0  501    0  0.00000000000E+00  0.00000000000E+00  0.30545774189E+04  0.30545774189E+04  0.50400001928E-02 0. -1.
       -1   -1    0    0    0  501  0.00000000000E+00  0.00000000000E+00 -0.89289933685E+03  0.89289933686E+03  0.50400001928E-02 0.  1.
    10030    2    1    2    0    0  0.00000000000E+00  0.00000000000E+00  0.21616780820E+04  0.39474767557E+04  0.33029866192E+04 0.  0.
        3    1    3    3  502    0  0.69415559427E+03  0.79087212524E+03  0.26020295329E+04  0.28067576325E+04  0.10100000352E+00 0. -1.
       -3    1    3    3    0  502 -0.69415559427E+03 -0.79087212524E+03 -0.44035145088E+03  0.11407191232E+04  0.10100000352E+00 0.  1.
</event>
<event>
 5   0  0.2037333E-07  0.3291411E+04  0.7818609E-02  0.8165084E-01
        1   -1    0    0  501    0  0.00000000000E+00  0.00000000000E+00  0.18579021749E+04  0.18579021749E+04  0.50400001928E-02 0. -1.
       -1   -1    0    0    0  501  0.00000000000E+00  0.00000000000E+00 -0.14577447585E+04  0.14577447586E+04  0.50400001928E-02 0.  1.
    10030    2    1    2    0    0  0.00000000000E+00  0.00000000000E+00  0.40015741638E+03  0.33156469335E+04  0.32914113431E+04 0.  0.
        3    1    3    3  502    0 -0.45369711714E+02  0.15719728455E+04 -0.28845624779E+03  0.15988633634E+04  0.10100000352E+00 0.  1.
       -3    1    3    3    0  502  0.45369711714E+02 -0.15719728455E+04  0.68861366417E+03  0.17167835701E+04  0.10100000352E+00 0. -1.
</event>
<event>
 5   0  0.6258718E-07  0.3301559E+04  0.7818609E-02  0.8162499E-01
       -2   -1    0    0    0  501  0.00000000000E+00  0.00000000000E+00  0.14153517430E+04  0.14153517430E+04  0.25500000920E-02 0.  1.
        2   -1    0    0  501    0  0.00000000000E+00  0.00000000000E+00 -0.19253676161E+04  0.19253676161E+04  0.25500000920E-02 0. -1.
    10030    2    1    2    0    0  0.00000000000E+00  0.00000000000E+00 -0.51001587311E+03  0.33407193591E+04  0.33015586691E+04 0.  0.
        5    1    3    3  502    0 -0.69120849568E+03  0.14387753713E+04 -0.68096015249E+03  0.17353883060E+04  0.46999998093E+01 0. -1.
       -5    1    3    3    0  502  0.69120849568E+03 -0.14387753713E+04  0.17094427939E+03  0.16053310531E+04  0.46999998093E+01 0.  1.
</event>
<event>
 5   0  0.2080770E-07  0.3305269E+04  0.7818609E-02  0.8161556E-01
       -1   -1    0    0    0  501  0.00000000000E+00  0.00000000000E+00  0.97712710002E+03  0.97712710003E+03  0.50400001928E-02 0. -1.
        1   -1    0    0  501    0  0.00000000000E+00  0.00000000000E+00 -0.27951337922E+04  0.27951337922E+04  0.50400001928E-02 0.  1.
    10030    2    1    2    0    0  0.00000000000E+00  0.00000000000E+00 -0.18180066922E+04  0.37722608922E+04  0.33052691125E+04 0.  0.
        4    1    3    3  502    0 -0.92631983371E+03  0.11904774847E+04 -0.16795997383E+04  0.22575123409E+04  0.12699999809E+01 0.  1.
       -4    1    3    3    0  502  0.92631983371E+03 -0.11904774847E+04 -0.13840695391E+03  0.15147485513E+04  0.12699999809E+01 0. -1.
</event>
<event>
 5   0  0.6377741E-07  0.3320164E+04  0.7818609E-02  0.8157784E-01
        2   -1    0    0  501    0  0.00000000000E+00  0.00000000000E+00  0.21861353551E+04  0.21861353551E+04  0.25500000920E-02 0.  1.
       -2   -1    0    0    0  501  0.00000000000E+00  0.00000000000E+00 -0.12606138194E+04  0.12606138194E+04  0.25500000920E-02 0. -1.
    10030    2    1    2    0    0  0.00000000000E+00  0.00000000000E+00  0.92552153576E+03  0.34467491745E+04  0.33201641163E+04 0.  0.
        1    1    3    3  502    0 -0.55043860153E+03  0.13493815978E+04 -0.36257177410E+03  0.15017561859E+04  0.50400001928E-02 0. -1.
       -1    1    3    3    0  502  0.55043860153E+03 -0.13493815978E+04  0.12880933099E+04  0.19449929886E+04  0.50400001928E-02 0.  1.
</event>
<event>
 5   0  0.6351753E-07  0.3297974E+04  0.7818609E-02  0.8163411E-01
       -2   -1    0    0    0  501  0.00000000000E+00  0.00000000000E+00  0.15094115809E+04  0.15094115809E+04  0.25500000920E-02 0. -1.
        2   -1    0    0  501    0  0.00000000000E+00  0.00000000000E+00 -0.18014688784E+04  0.18014688784E+04  0.25500000920E-02 0.  1.
    10030    2    1    2    0    0  0.00000000000E+00  0.00000000000E+00 -0.29205729748E+03  0.33108804592E+04  0.32979739160E+04 0.  0.
        3    1    3    3  502    0  0.13097380169E+04 -0.10017026379E+04 -0.12762305717E+03  0.16538166472E+04  0.10100000352E+00 0.  1.
       -3    1    3    3    0  502 -0.13097380169E+04  0.10017026379E+04 -0.16443424031E+03  0.16570638120E+04  0.10100000352E+00 0. -1.
</event>
<event>
 5   0  0.2037333E-07  0.3325549E+04  0.7818609E-02  0.8156425E-01
        1   -1    0    0  501    0  0.00000000000E+00  0.00000000000E+00  0.18357130594E+04  0.18357130594E+04  0.50400001928E-02 0. -1.
       -1   -1    0    0    0  501  0.00000000000E+00  0.00000000000E+00 -0.15061278647E+04  0.15061278647E+04  0.50400001928E-02 0.  1.
    10030    2    1    2    0    0  0.00000000000E+00  0.00000000000E+00  0.32958519474E+03  0.33418409241E+04  0.33255487309E+04 0.  0.
        3    1    3    3  502    0 -0.26719724956E+03  0.78037095575E+03  0.16156265714E+04  0.18140072842E+04  0.10100000352E+00 0. -1.
       -3    1    3    3    0  502  0.26719724956E+03 -0.78037095575E+03 -0.12860413766E+04  0.15278336400E+04  0.10100000352E+00 0.  1.
</event>
<event>
 5   0  0.6351753E-07  0.3269219E+04  0.7818609E-02  0.8170772E-01
        2   -1    0    0  501    0  0.00000000000E+00  0.00000000000E+00  0.19249131814E+04  0.19249131814E+04  0.25500000920E-02 0.  1.
       -2   -1    0    0    0  501  0.00000000000E+00  0.00000000000E+00 -0.13880880420E+04  0.13880880420E+04  0.25500000920E-02 0. -1.
    10030    2    1    2    0    0  0.00000000000E+00  0.00000000000E+00  0.53682513939E+03  0.33130012233E+04  0.32692194597E+04 0.  0.
        3    1    3    3  502    0 -0.10720681814E+04  0.10656781639E+03  0.15142099482E+04  0.18583645128E+04  0.10100000352E+00 0.  1.
       -3    1    3    3    0  502  0.10720681814E+04 -0.10656781639E+03 -0.97738480878E+03  0.14546367106E+04  0.10100000352E+00 0. -1.
</event>
<event>
 5   0  0.6377741E-07  0.3290247E+04  0.7818609E-02  0.8165381E-01
       -2   -1    0    0    0  501  0.00000000000E+00  0.00000000000E+00  0.24701083859E+04  0.24701083859E+04  0.25500000920E-02 0. -1.
        2   -1    0    0  501    0  0.00000000000E+00  0.00000000000E+00 -0.10956731023E+04  0.10956731023E+04  0.25500000920E-02 0.  1.
    10030    2    1    2    0    0  0.00000000000E+00  0.00000000000E+00  0.13744352836E+04  0.35657814882E+04  0.32902469927E+04 0.  0.
        1    1    3    3  502    0 -0.10192870073E+04  0.12443747747E+04  0.10610959261E+04  0.19270026330E+04  0.50400001928E-02 0. -1.
       -1    1    3    3    0  502  0.10192870073E+04 -0.12443747747E+04  0.31333935747E+03  0.16387788552E+04  0.50400001928E-02 0.  1.
</event>
<event>
 5   0  0.2080770E-07  0.3301965E+04  0.7818609E-02  0.8162396E-01
        1   -1    0    0  501    0  0.00000000000E+00  0.00000000000E+00  0.22762920811E+04  0.22762920811E+04  0.50400001928E-02 0. -1.
       -1   -1    0    0    0  501  0.00000000000E+00  0.00000000000E+00 -0.11974486930E+04  0.11974486930E+04  0.50400001928E-02 0.  1.
    10030    2    1    2    0    0  0.00000000000E+00  0.00000000000E+00  0.10788433880E+04  0.34737407741E+04  0.33019648559E+04 0.  0.
        4    1    3    3  502    0  0.10218686242E+04  0.65953102989E+02 -0.82300858852E+03  0.13137389568E+04  0.12699999809E+01 0.  1.
       -4    1    3    3    0  502 -0.10218686242E+04 -0.65953102989E+02  0.19018519766E+04  0.21600018173E+04  0.12699999809E+01 0. -1.
</event>
<event>
 5   0  0.6426079E-07  0.3322573E+04  0.7818609E-02  0.8157175E-01
       -2   -1    0    0    0  501  0.00000000000E+00  0.00000000000E+00  0.14142551324E+04  0.14142551324E+04  0.25500000920E-02 0.  1.
        2   -1    0    0  501    0  0.00000000000E+00  0.00000000000E+00 -0.19514673247E+04  0.19514673247E+04  0.25500000920E-02 0. -1.
    10030    2    1    2    0    0  0.00000000000E+00  0.00000000000E+00 -0.53721219230E+03  0.33657224571E+04  0.33225729065E+04 0.  0.
        4    1    3    3  502    0  0.12735624260E+04  0.84320078854E+03  0.39327224979E+03  0.15772170105E+04  0.12699999809E+01 0.  1.
       -4    1    3    3    0  502 -0.12735624260E+04 -0.84320078854E+03 -0.93048444209E+03  0.17885054466E+04  0.12699999809E+01 0. -1.
</event>
<event>
 5   0  0.6424183E-07  0.3297662E+04  0.7818609E-02  0.8163491E-01
        2   -1    0    0  501    0  0.00000000000E+00  0.00000000000E+00  0.26828051585E+04  0.26828051585E+04  0.25500000920E-02 0. -1.
       -2   -1    0    0    0  501  0.00000000000E+00  0.00000000000E+00 -0.10133586380E+04  0.10133586380E+04  0.25500000920E-02 0.  1.
    10030    2    1    2    0    0  0.00000000000E+00  0.00000000000E+00  0.16694465206E+04  0.36961637965E+04  0.32976620697E+04 0.  0.
        2    1    3    3  502    0  0.12459809362E+04 -0.52528682609E+03 -0.22282651316E+03  0.13704183295E+04  0.25500000920E-02 0.  1.
       -2    1    3    3    0  502 -0.12459809362E+04  0.52528682609E+03  0.18922730337E+04  0.23257454670E+04  0.25500000920E-02 0. -1.
</event>
<event>
 5   0  0.2037333E-07  0.3286885E+04  0.7818609E-02  0.8166241E-01
        1   -1    0    0  501    0  0.00000000000E+00  0.00000000000E+00  0.15928063640E+04  0.15928063640E+04  0.50400001928E-02 0.  1.
       -1   -1    0    0    0  501  0.00000000000E+00  0.00000000000E+00 -0.16956882380E+04  0.16956882380E+04  0.50400001928E-02 0. -1.
    10030    2    1    2    0    0  0.00000000000E+00  0.00000000000E+00 -0.10288187399E+03  0.32884946020E+04  0.32868848577E+04 0.  0.
        3    1    3    3  502    0 -0.47702880358E+03 -0.66046473037E+03 -0.14794215805E+04  0.16889222488E+04  0.10100000352E+00 0. -1.
       -3    1    3    3    0  502  0.47702880358E+03  0.66046473037E+03  0.13765397065E+04  0.15995723532E+04  0.10100000352E+00 0.  1.
</event>
<event>
 5   0  0.2080770E-07  0.3292366E+04  0.7818609E-02  0.8164841E-01
        1   -1    0    0  501    0  0.00000000000E+00  0.00000000000E+00  0.19481615189E+04  0.19481615189E+04  0.50400001928E-02 0.  1.
       -1   -1    0    0    0  501  0.00000000000E+00  0.00000000000E+00 -0.13910131793E+04  0.13910131793E+04  0.50400001928E-02 0. -1.
    10030    2    1    2    0    0  0.00000000000E+00  0.00000000000E+00  0.55714833958E+03  0.33391746982E+04  0.32923659263E+04 0.  0.
        4    1    3    3  502    0  0.70797377459E+03  0.60160823610E+03 -0.10997011089E+04  0.14396192125E+04  0.12699999809E+01 0. -1.
       -4    1    3    3    0  502 -0.70797377459E+03 -0.60160823610E+03  0.16568494485E+04  0.18995554857E+04  0.12699999809E+01 0.  1.
</event>
<event>
 5   0  0.2087665E-07  0.3300442E+04  0.7818609E-02  0.8162783E-01
        1   -1    0    0  501    0  0.00000000000E+00  0.00000000000E+00  0.22464838810E+04  0.22464838810E+04  0.50400001928E-02 0.  1.
       -1   -1    0    0    0  501  0.00000000000E+00  0.00000000000E+00 -0.12122188510E+04  0.12122188510E+04  0.50400001928E-02 0. -1.
    10030    2    1    2    0    0  0.00000000000E+00  0.00000000000E+00  0.10342650299E+04  0.34587027320E+04  0.33004424607E+04 0.  0.
        5    1    3    3  502    0 -0.13045158379E+04  0.54691611124E+03  0.14077857741E+04  0.19956857668E+04  0.46999998093E+01 0.  1.
       -5    1    3    3    0  502  0.13045158379E+04 -0.54691611124E+03 -0.37352074416E+03  0.14630169652E+04  0.46999998093E+01 0. -1.
</event>
<event>
 5   0  0.2080770E-07  0.3301464E+04  0.7818609E-02  0.8162523E-01
        1   -1    0    0  501    0  0.00000000000E+00  0.00000000000E+00  0.14886167501E+04  0.14886167501E+04  0.50400001928E-02 0. -1.
       -1   -1    0    0    0  501  0.00000000000E+00  0.00000000000E+00 -0.18305026075E+04  0.18305026075E+04  0.50400001928E-02 0.  1.
    10030    2    1    2    0    0  0.00000000000E+00  0.00000000000E+00 -0.34188585736E+03  0.33191193576E+04  0.33014644282E+04 0.  0.
        4    1    3    3  502    0  0.44085487565E+03  0.68191042497E+03  0.12739484352E+04  0.15107286578E+04  0.12699999809E+01 0. -1.
       -4    1    3    3    0  502 -0.44085487565E+03 -0.68191042497E+03 -0.16158342926E+04  0.18083906998E+04  0.12699999809E+01 0.  1.
</event>
<event>
 5   0  0.2080828E-07  0.3301313E+04  0.7818609E-02  0.8162561E-01
       -1   -1    0    0    0  501  0.00000000000E+00  0.00000000000E+00  0.14462119407E+04  0.14462119407E+04  0.50400001928E-02 0.  1.
        1   -1    0    0  501    0  0.00000000000E+00  0.00000000000E+00 -0.18840020219E+04  0.18840020219E+04  0.50400001928E-02 0. -1.
    10030    2    1    2    0    0  0.00000000000E+00  0.00000000000E+00 -0.43779008116E+03  0.33302139626E+04  0.33013125998E+04 0.  0.
        1    1    3    3  502    0  0.12485993468E+04 -0.57483398030E+03  0.70301595530E+03  0.15439125192E+04  0.50400001928E-02 0.  1.
       -1    1    3    3    0  502 -0.12485993468E+04  0.57483398030E+03 -0.11408060365E+04  0.17863014433E+04  0.50400001928E-02 0. -1.
</event>
<event>
 5   0  0.6258718E-07  0.3290771E+04  0.7818609E-02  0.8165248E-01
       -2   -1    0    0    0  501  0.00000000000E+00  0.00000000000E+00  0.14258493645E+04  0.14258493645E+04  0.25500000920E-02 0. -1.
        2   -1    0    0  501    0  0.00000000000E+00  0.00000000000E+00 -0.18987238660E+04  0.18987238660E+04  0.25500000920E-02 0.  1.
    10030    2    1    2    0    0  0.00000000000E+00  0.00000000000E+00 -0.47287450144E+03  0.33245732305E+04  0.32907714704E+04 0.  0.
        5    1    3    3  502    0  0.12224784598E+04  0.22573056328E+03 -0.13254071506E+04  0.18171775028E+04  0.46999998093E+01 0.  1.
       -5    1    3    3    0  502 -0.12224784598E+04 -0.22573056328E+03  0.85253264915E+03  0.15073957277E+04  0.46999998093E+01 0. -1.
</event>
<event>
 5   0  0.2080770E-07  0.3316832E+04  0.7818609E-02  0.8158626E-01
        1   -1    0    0  501    0  0.00000000000E+00  0.00000000000E+00  0.23477417703E+04  0.23477417703E+04  0.50400001928E-02 0.  1.
       -1   -1    0    0    0  501  0.00000000000E+00  0.00000000000E+00 -0.11714843972E+04  0.11714843972E+04  0.50400001928E-02 0. -1.
    10030    2    1    2    0    0  0.00000000000E+00  0.00000000000E+00  0.11762573731E+04  0.35192261675E+04  0.33168315317E+04 0.  0.
        4    1    3    3  502    0 -0.84257266528E+02 -0.14540888378E+04 -0.25327299636E+03  0.14783850847E+04  0.12699999809E+01 0. -1.
       -4    1    3    3    0  502  0.84257266528E+02  0.14540888378E+04  0.14295303694E+04  0.20408410828E+04  0.12699999809E+01 0.  1.
</event>
<event>
 5   0  0.2057130E-07  0.3253368E+04  0.7818609E-02  0.8174863E-01
       -1   -1    0    0    0  501  0.00000000000E+00  0.00000000000E+00  0.10917491933E+04  0.10917491933E+04  0.50400001928E-02 0. -1.
        1   -1    0    0  501    0  0.00000000000E+00  0.00000000000E+00 -0.24237255567E+04  0.24237255567E+04  0.50400001928E-02 0.  1.
    10030    2    1    2    0    0  0.00000000000E+00  0.00000000000E+00 -0.13319763635E+04  0.35154747500E+04  0.32533677451E+04 0.  0.
        2    1    3    3  502    0  0.16168963028E+03 -0.90253741276E+03  0.78590783278E+03  0.12076292641E+04  0.25500000920E-02 0. -1.
       -2    1    3    3    0  502 -0.16168963028E+03  0.90253741276E+03 -0.21178841962E+04  0.23078454859E+04  0.25500000920E-02 0.  1.
</event>
<event>
 5   0  0.6351753E-07  0.3278136E+04  0.7818609E-02  0.8168481E-01
       -2   -1    0    0    0  501  0.00000000000E+00  0.00000000000E+00  0.17295094252E+04  0.17295094252E+04  0.25500000920E-02 0.  1.
        2   -1    0    0  501    0  0.00000000000E+00  0.00000000000E+00 -0.15533561810E+04  0.15533561810E+04  0.25500000920E-02 0. -1.
    10030    2    1    2    0    0  0.00000000000E+00  0.00000000000E+00  0.17615324420E+03  0.32828656063E+04  0.32781361508E+04 0.  0.
        3    1    3    3  502    0 -0.12257530553E+04 -0.94481718440E+03  0.62866472030E+03  0.16704398837E+04  0.10100000352E+00 0.  1.
       -3    1    3    3    0  502  0.12257530553E+04  0.94481718440E+03 -0.45251147611E+03  0.16124257225E+04  0.10100000352E+00 0. -1.
</event>
<event>
 5   0  0.6351753E-07  0.3297740E+04  0.7818609E-02  0.8163471E-01
        2   -1    0    0  501    0  0.00000000000E+00  0.00000000000E+00  0.14052948077E+04  0.14052948078E+04  0.25500000920E-02 0.  1.
       -2   -1    0    0    0  501  0.00000000000E+00  0.00000000000E+00 -0.19346636667E+04  0.19346636667E+04  0.25500000920E-02 0. -1.
    10030    2    1    2    0    0  0.00000000000E+00  0.00000000000E+00 -0.52936885898E+03  0.33399584745E+04  0.32977403206E+04 0.  0.
        3    1    3    3  502    0  0.53415937350E+03 -0.13798097893E+04  0.47234854287E+03  0.15531627239E+04  0.10100000352E+00 0.  1.
       -3    1    3    3    0  502 -0.53415937350E+03  0.13798097893E+04 -0.10017174019E+04  0.17867957506E+04  0.10100000352E+00 0. -1.
</event>
<event>
 5   0  0.2087665E-07  0.3295432E+04  0.7818609E-02  0.8164059E-01
        1   -1    0    0  501    0  0.00000000000E+00  0.00000000000E+00  0.14965421655E+04  0.14965421655E+04  0.50400001928E-02 0.  1.
       -1   -1    0    0    0  501  0.00000000000E+00  0.00000000000E+00 -0.18141608358E+04  0.18141608358E+04  0.50400001928E-02 0. -1.
    10030    2    1    2    0    0  0.00000000000E+00  0.00000000000E+00 -0.31761867025E+03  0.33107030013E+04  0.32954321026E+04 0.  0.
        5    1    3    3  502    0 -0.48805971939E+03  0.78790416981E+03  0.12098365215E+04  0.15240478238E+04  0.46999998093E+01 0.  1.
       -5    1    3    3    0  502  0.48805971939E+03 -0.78790416981E+03 -0.15274551917E+04  0.17866551775E+04  0.46999998093E+01 0. -1.
</event>
<event>
 5   0  0.6258718E-07  0.3294170E+04  0.7818609E-02  0.8164380E-01
       -2   -1    0    0    0  501  0.00000000000E+00  0.00000000000E+00  0.12512240690E+04  0.12512240690E+04  0.25500000920E-02 0. -1.
        2   -1    0    0  501    0  0.00000000000E+00  0.00000000000E+00 -0.21681878029E+04  0.21681878029E+04  0.25500000920E-02 0.  1.
    10030    2    1    2    0    0  0.00000000000E+00  0.00000000000E+00 -0.91696373392E+03  0.34194118719E+04  0.32941698591E+04 0.  0.
        5    1    3    3  502    0 -0.32866647636E+03 -0.46026397680E+03 -0.20642282977E+04  0.21403095889E+04  0.46999998093E+01 0.  1.
       -5    1    3    3    0  502  0.32866647636E+03  0.46026397680E+03  0.11472645638E+04  0.12791022830E+04  0.46999998093E+01 0. -1.
</event>
<event>
 5   0  0.6351753E-07  0.3301743E+04  0.7818609E-02  0.8162452E-01
        2   -1    0    0  501    0  0.00000000000E+00  0.00000000000E+00  0.19061962788E+04  0.19061962788E+04  0.25500000920E-02 0.  1.
       -2   -1    0    0    0  501  0.00000000000E+00  0.00000000000E+00 -0.14297460828E+04  0.14297460828E+04  0.25500000920E-02 0. -1.
    10030    2    1    2    0    0  0.00000000000E+00  0.00000000000E+00  0.47645019600E+03  0.33359423615E+04  0.33017429716E+04 0.  0.
        3    1    3    3  502    0 -0.27609957638E+03 -0.15952056608E+04  0.56478270079E+03  0.17146112054E+04  0.10100000352E+00 0. -1.
       -3    1    3    3    0  502  0.27609957638E+03  0.15952056608E+04 -0.88332504790E+02  0.16213311562E+04  0.10100000352E+00 0.  1.
</event>
<event>
 5   0  0.2037333E-07  0.3292723E+04  0.7818609E-02  0.8164749E-01
       -1   -1    0    0    0  501  0.00000000000E+00  0.00000000000E+00  0.11965871912E+04  0.11965871912E+04  0.50400001928E-02 0.  1.
        1   -1    0    0  501    0  0.00000000000E+00  0.00000000000E+00 -0.22651978661E+04  0.22651978661E+04  0.50400001928E-02 0. -1.
    10030    2    1    2    0    0  0.00000000000E+00  0.00000000000E+00 -0.10686106749E+04  0.34617850573E+04  0.32927233422E+04 0.  0.
        3    1    3    3  502    0  0.47670483344E+03 -0.71957914038E+02 -0.21893229962E+04  0.22417762225E+04  0.10100000352E+00 0. -1.
       -3    1    3    3    0  502 -0.47670483344E+03  0.71957914038E+02  0.11207123213E+04  0.12200088348E+04  0.10100000352E+00 0.  1.
</event>
<event>
 5   0  0.2037333E-07  0.3287444E+04  0.7818609E-02  0.8166098E-01
       -1   -1    0    0    0  501  0.00000000000E+00  0.00000000000E+00  0.22053837339E+04  0.22053837339E+04  0.50400001928E-02 0.  1.
        1   -1    0    0  501    0  0.00000000000E+00  0.00000000000E+00 -0.12251029232E+04  0.12251029232E+04  0.50400001928E-02 0. -1.
    10030    2    1    2    0    0  0.00000000000E+00  0.00000000000E+00  0.98028081076E+03  0.34304866571E+04  0.32874440279E+04 0.  0.
        3    1    3    3  502    0 -0.17363928231E+03  0.69095521734E+03 -0.10556145660E+04  0.12735351722E+04  0.10100000352E+00 0. -1.
       -3    1    3    3    0  502  0.17363928231E+03 -0.69095521734E+03  0.20358953768E+04  0.21569514849E+04  0.10100000352E+00 0.  1.
</event>
<event>
 5   0  0.2080770E-07  0.3300474E+04  0.7818609E-02  0.8162775E-01
       -1   -1    0    0    0  501  0.00000000000E+00  0.00000000000E+00  0.20768517381E+04  0.20768517381E+04  0.50400001928E-02 0. -1.
        1   -1    0    0  501    0  0.00000000000E+00  0.00000000000E+00 -0.13112547952E+04  0.13112547953E+04  0.50400001928E-02 0.  1.
    10030    2    1    2    0    0  0.00000000000E+00  0.00000000000E+00  0.76559694285E+03  0.33881065334E+04  0.33004737845E+04 0.  0.
        4    1    3    3  502    0  0.15689327448E+04 -0.10659811370E+03  0.89645093486E+03  0.18101212686E+04  0.12699999809E+01 0. -1.
       -4    1    3    3    0  502 -0.15689327448E+04  0.10659811370E+03 -0.13085399201E+03  0.15779852647E+04  0.12699999809E+01 0.  1.
</event>
<event>
 5   0  0.6351753E-07  0.3293323E+04  0.7818609E-02  0.8164596E-01
       -2   -1    0    0    0  501  0.00000000000E+00  0.00000000000E+00  0.15588656703E+04  0.15588656703E+04  0.25500000920E-02 0. -1.
        2   -1    0    0  501    0  0.00000000000E+00  0.00000000000E+00 -0.17394021814E+04  0.17394021814E+04  0.25500000920E-02 0.  1.
    10030    2    1    2    0    0  0.00000000000E+00  0.00000000000E+00 -0.18053651112E+03  0.32982678517E+04  0.32933231530E+04 0.  0.
        3    1    3    3  502    0  0.74577160371E+02  0.10616152190E+03  0.15537390715E+04  0.15591462837E+04  0.10100000352E+00 0. -1.
       -3    1    3    3    0  502 -0.74577160371E+02 -0.10616152190E+03 -0.17342755826E+04  0.17391215680E+04  0.10100000352E+00 0.  1.
</event>
<event>
 5   0  0.2057130E-07  0.3300553E+04  0.7818609E-02  0.8162755E-01
        1   -1    0    0  501    0  0.00000000000E+00  0.00000000000E+00  0.19915182420E+04  0.19915182420E+04  0.50400001928E-02 0. -1.
       -1   -1    0    0    0  501  0.00000000000E+00  0.00000000000E+00 -0.13675060590E+04  0.13675060590E+04  0.50400001928E-02 0.  1.
    10030    2    1    2    0    0  0.00000000000E+00  0.00000000000E+00  0.62401218307E+03  0.33590243010E+04  0.33005534460E+04 0.  0.
        2    1    3    3  502    0 -0.12233950903E+03  0.10983639769E+04  0.15592963825E+04  0.19112235844E+04  0.25500000920E-02 0. -1.
       -2    1    3    3    0  502  0.12233950903E+03 -0.10983639769E+04 -0.93528419945E+03  0.14478007166E+04  0.25500000920E-02 0.  1.
</event>
<event>
 5   0  0.6424183E-07  0.3281286E+04  0.7818609E-02  0.8167674E-01
        2   -1    0    0  501    0  0.00000000000E+00  0.00000000000E+00  0.19218759838E+04  0.19218759838E+04  0.25500000920E-02 0.  1.
       -2   -1    0    0    0  501  0.00000000000E+00  0.00000000000E+00 -0.14005634236E+04  0.14005634236E+04  0.25500000920E-02 0. -1.
    10030    2    1    2    0    0  0.00000000000E+00  0.00000000000E+00  0.52131256023E+03  0.33224394075E+04  0.32812858502E+04 0.  0.
        2    1    3    3  502    0 -0.10196622996E+04 -0.12432652436E+04  0.59076596077E+03  0.17130160803E+04  0.25500000920E-02 0.  1.
       -2    1    3    3    0  502  0.10196622996E+04  0.12432652436E+04 -0.69453400542E+02  0.16094233271E+04  0.25500000920E-02 0. -1.
</event>
<event>
 5   0  0.6351753E-07  0.3379001E+04  0.7818609E-02  0.8143079E-01
       -2   -1    0    0    0  501  0.00000000000E+00  0.00000000000E+00  0.16452125990E+04  0.16452125990E+04  0.25500000920E-02 0.  1.
        2   -1    0    0  501    0  0.00000000000E+00  0.00000000000E+00 -0.17349804503E+04  0.17349804503E+04  0.25500000920E-02 0. -1.
    10030    2    1    2    0    0  0.00000000000E+00  0.00000000000E+00 -0.89767851323E+02  0.33801930492E+04  0.33790008557E+04 0.  0.
        3    1    3    3  502    0 -0.32569021677E+03 -0.86866936212E+03  0.13676167799E+04  0.16525847164E+04  0.10100000352E+00 0.  1.
       -3    1    3    3    0  502  0.32569021677E+03  0.86866936212E+03 -0.14573846313E+04  0.17276083328E+04  0.10100000352E+00 0. -1.
</event>
<event>
 5   0  0.2080770E-07  0.3314742E+04  0.7818609E-02  0.8159154E-01
        1   -1    0    0  501    0  0.00000000000E+00  0.00000000000E+00  0.21542687499E+04  0.21542687499E+04  0.50400001928E-02 0. -1.
       -1   -1    0    0    0  501  0.00000000000E+00  0.00000000000E+00 -0.12750861707E+04  0.12750861707E+04  0.50400001928E-02 0.  1.
    10030    2    1    2    0    0  0.00000000000E+00  0.00000000000E+00  0.87918257919E+03  0.34293549206E+04  0.33147417944E+04 0.  0.
        4    1    3    3  502    0 -0.39113247467E+03  0.10971138124E+04 -0.78025913414E+03  0.14019448133E+04  0.12699999809E+01 0.  1.
       -4    1    3    3    0  502  0.39113247467E+03 -0.10971138124E+04  0.16594417133E+04  0.20274101073E+04  0.12699999809E+01 0. -1.
</event>
<event>
 5   0  0.2080828E-07  0.3297282E+04  0.7818609E-02  0.8163587E-01
       -1   -1    0    0    0  501  0.00000000000E+00  0.00000000000E+00  0.14348267614E+04  0.14348267614E+04  0.50400001928E-02 0.  1.
        1   -1    0    0  501    0  0.00000000000E+00  0.00000000000E+00 -0.18943171795E+04  0.18943171795E+04  0.50400001928E-02 0. -1.
    10030    2    1    2    0    0  0.00000000000E+00  0.00000000000E+00 -0.45949041809E+03  0.33291439410E+04  0.32972819011E+04 0.  0.
        1    1    3    3  502    0  0.92148449190E+02  0.68154211204E+03  0.12830745263E+04  0.14557716948E+04  0.50400001928E-02 0.  1.
       -1    1    3    3    0  502 -0.92148449190E+02 -0.68154211204E+03 -0.17425649444E+04  0.18733722462E+04  0.50400001928E-02 0. -1.
</event>
<event>
 5   0  0.6351753E-07  0.3285209E+04  0.7818609E-02  0.8166669E-01
       -2   -1    0    0    0  501  0.00000000000E+00  0.00000000000E+00  0.15723779565E+04  0.15723779565E+04  0.25500000920E-02 0.  1.
        2   -1    0    0  501    0  0.00000000000E+00  0.00000000000E+00 -0.17159676037E+04  0.17159676037E+04  0.25500000920E-02 0. -1.
    10030    2    1    2    0    0  0.00000000000E+00  0.00000000000E+00 -0.14358964719E+03  0.32883455603E+04  0.32852090553E+04 0.  0.
        3    1    3    3  502    0 -0.36553264661E+03 -0.15241735786E+04 -0.56361962467E+03  0.16656489141E+04  0.10100000352E+00 0. -1.
       -3    1    3    3    0  502  0.36553264661E+03  0.15241735786E+04  0.42002997747E+03  0.16226966462E+04  0.10100000352E+00 0.  1.
</event>
<event>
 5   0  0.6258718E-07  0.3304821E+04  0.7818609E-02  0.8161670E-01
        2   -1    0    0  501    0  0.00000000000E+00  0.00000000000E+00  0.16074093397E+04  0.16074093397E+04  0.25500000920E-02 0.  1.
       -2   -1    0    0    0  501  0.00000000000E+00  0.00000000000E+00 -0.16986712961E+04  0.16986712961E+04  0.25500000920E-02 0. -1.
    10030    2    1    2    0    0  0.00000000000E+00  0.00000000000E+00 -0.91261956453E+02  0.33060806358E+04  0.33048207857E+04 0.  0.
        5    1    3    3  502    0 -0.11918421304E+04 -0.72411421025E+02  0.10970421501E+04  0.16214976555E+04  0.46999998093E+01 0.  1.
       -5    1    3    3    0  502  0.11918421304E+04  0.72411421025E+02 -0.11883041066E+04  0.16845829803E+04  0.46999998093E+01 0. -1.
</event>
<event>
 5   0  0.2037333E-07  0.3302580E+04  0.7818609E-02  0.8162239E-01
        1   -1    0    0  501    0  0.00000000000E+00  0.00000000000E+00  0.21760039722E+04  0.21760039722E+04  0.50400001928E-02 0. -1.
       -1   -1    0    0    0  501  0.00000000000E+00  0.00000000000E+00 -0.12531040517E+04  0.12531040517E+04  0.50400001928E-02 0.  1.
    10030    2    1    2    0    0  0.00000000000E+00  0.00000000000E+00  0.92289992054E+03  0.34291080239E+04  0.33025804420E+04 0.  0.
        3    1    3    3  502    0  0.60101671276E+03 -0.56189593001E+03  0.19480176830E+04  0.21146444214E+04  0.10100000352E+00 0. -1.
       -3    1    3    3    0  502 -0.60101671276E+03  0.56189593001E+03 -0.10251177625E+04  0.13144636025E+04  0.10100000352E+00 0.  1.
</event>
<event>
 5   0  0.2080770E-07  0.3292004E+04  0.7818609E-02  0.8164933E-01
        1   -1    0    0  501    0  0.00000000000E+00  0.00000000000E+00  0.21343980883E+04  0.21343980883E+04  0.50400001928E-02 0.  1.
       -1   -1    0    0    0  501  0.00000000000E+00  0.00000000000E+00 -0.12693616840E+04  0.12693616840E+04  0.50400001928E-02 0. -1.
    10030    2    1    2    0    0  0.00000000000E+00  0.00000000000E+00  0.86503640431E+03  0.34037597723E+04  0.32920043449E+04 0.  0.
        4    1    3    3  502    0  0.11568551070E+04 -0.95361014295E+03  0.11350210656E+04  0.18804149743E+04  0.12699999809E+01 0.  1.
       -4    1    3    3    0  502 -0.11568551070E+04  0.95361014295E+03 -0.26998466130E+03  0.15233447980E+04  0.12699999809E+01 0. -1.
</event>
<event>
 5   0  0.2057130E-07  0.3301410E+04  0.7818609E-02  0.8162537E-01
       -1   -1    0    0    0  501  0.00000000000E+00  0.00000000000E+00  0.11863457168E+04  0.11863457168E+04  0.50400001928E-02 0.  1.
        1   -1    0    0  501    0  0.00000000000E+00  0.00000000000E+00 -0.22968236430E+04  0.22968236430E+04  0.50400001928E-02 0. -1.
    10030    2    1    2    0    0  0.00000000000E+00  0.00000000000E+00 -0.11104779262E+04  0.34831693597E+04  0.33014099358E+04 0.  0.
        2    1    3    3  502    0  0.13257671546E+03 -0.89343962338E+03 -0.20129784409E+04  0.22063302449E+04  0.25500000920E-02 0. -1.
       -2    1    3    3    0  502 -0.13257671546E+03  0.89343962338E+03  0.90250051469E+03  0.12768391148E+04  0.25500000920E-02 0.  1.
</event>
<event>
 5   0  0.6426079E-07  0.3243297E+04  0.7818609E-02  0.8177475E-01
       -2   -1    0    0    0  501  0.00000000000E+00  0.00000000000E+00  0.17152712077E+04  0.17152712077E+04  0.25500000920E-02 0.  1.
        2   -1    0    0  501    0  0.00000000000E+00  0.00000000000E+00 -0.15331363394E+04  0.15331363394E+04  0.25500000920E-02 0. -1.
    10030    2    1    2    0    0  0.00000000000E+00  0.00000000000E+00  0.18213486831E+03  0.32484075470E+04  0.32432974704E+04 0.  0.
        4    1    3    3  502    0  0.12248943873E+04  0.34336731416E+03 -0.91623861109E+03  0.15677251602E+04  0.12699999809E+01 0. -1.
       -4    1    3    3    0  502 -0.12248943873E+04 -0.34336731416E+03  0.10983734794E+04  0.16806823869E+04  0.12699999809E+01 0.  1.
</event>
<event>
 5   0  0.2087665E-07  0.3295905E+04  0.7818609E-02  0.8163938E-01
        1   -1    0    0  501    0  0.00000000000E+00  0.00000000000E+00  0.15490068056E+04  0.15490068056E+04  0.50400001928E-02 0.  1.
       -1   -1    0    0    0  501  0.00000000000E+00  0.00000000000E+00 -0.17532181911E+04  0.17532181912E+04  0.50400001928E-02 0. -1.
    10030    2    1    2    0    0  0.00000000000E+00  0.00000000000E+00 -0.20421138554E+03  0.33022249968E+04  0.32959046769E+04 0.  0.
        5    1    3    3  502    0 -0.19352264803E+03 -0.85963183781E+03 -0.14973661626E+04  0.17373961629E+04  0.46999998093E+01 0. -1.
       -5    1    3    3    0  502  0.19352264803E+03  0.85963183781E+03  0.12931547771E+04  0.15648288339E+04  0.46999998093E+01 0.  1.
</event>
<event>
 5   0  0.6258718E-07  0.3305455E+04  0.7818609E-02  0.8161509E-01
        2   -1    0    0  501    0  0.00000000000E+00  0.00000000000E+00  0.31251107687E+04  0.31251107687E+04  0.25500000920E-02 0.  1.
       -2   -1    0    0    0  501  0.00000000000E+00  0.00000000000E+00 -0.87405175706E+03  0.87405175706E+03  0.25500000920E-02 0. -1.
    10030    2    1    2    0    0  0.00000000000E+00  0.00000000000E+00  0.22510590116E+04  0.39991625257E+04  0.33054552233E+04 0.  0.
        5    1    3    3  502    0 -0.84670691162E+03 -0.12979250649E+04  0.18205079249E+04  0.23907725243E+04  0.46999998093E+01 0.  1.
       -5    1    3    3    0  502  0.84670691162E+03  0.12979250649E+04  0.43055108670E+03  0.16083900014E+04  0.46999998093E+01 0. -1.
</event>
<event>
 5   0  0.2057130E-07  0.3299173E+04  0.7818609E-02  0.8163106E-01
       -1   -1    0    0    0  501  0.00000000000E+00  0.00000000000E+00  0.14185206040E+04  0.14185206040E+04  0.50400001928E-02 0.  1.
        1   -1    0    0  501    0  0.00000000000E+00  0.00000000000E+00 -0.19182915351E+04  0.19182915351E+04  0.50400001928E-02 0. -1.
    10030    2    1    2    0    0  0.00000000000E+00  0.00000000000E+00 -0.49977093107E+03  0.33368121391E+04  0.32991732704E+04 0.  0.
        2    1    3    3  502    0  0.94524882214E+03 -0.10790836853E+04 -0.10735590809E+04  0.17917717588E+04  0.25500000920E-02 0. -1.
       -2    1    3    3    0  502 -0.94524882214E+03  0.10790836853E+04  0.57378814984E+03  0.15450403802E+04  0.25500000920E-02 0.  1.
</event>
<event>
 5   0  0.6377741E-07  0.3295874E+04  0.7818609E-02  0.8163946E-01
       -2   -1    0    0    0  501  0.00000000000E+00  0.00000000000E+00  0.14199640158E+04  0.14199640158E+04  0.25500000920E-02 0.  1.
        2   -1    0    0  501    0  0.00000000000E+00  0.00000000000E+00 -0.19125105582E+04  0.19125105582E+04  0.25500000920E-02 0. -1.
    10030    2    1    2    0    0  0.00000000000E+00  0.00000000000E+00 -0.49254654236E+03  0.33324745741E+04  0.32958738887E+04 0.  0.
        1    1    3    3  502    0  0.10862634534E+04  0.12180821982E+04 -0.47684875808E+03  0.17003168145E+04  0.50400001928E-02 0.  1.
       -1    1    3    3    0  502 -0.10862634534E+04 -0.12180821982E+04 -0.15697784284E+02  0.16321577596E+04  0.50400001928E-02 0. -1.
</event>
<event>
 5   0  0.2087665E-07  0.3310207E+04  0.7818609E-02  0.8160303E-01
        1   -1    0    0  501    0  0.00000000000E+00  0.00000000000E+00  0.12318519064E+04  0.12318519064E+04  0.50400001928E-02 0.  1.
       -1   -1    0    0    0  501  0.00000000000E+00  0.00000000000E+00 -0.22237796804E+04  0.22237796804E+04  0.50400001928E-02 0. -1.
    10030    2    1    2    0    0  0.00000000000E+00  0.00000000000E+00 -0.99192777396E+03  0.34556315868E+04  0.33102067843E+04 0.  0.
        5    1    3    3  502    0 -0.53644598345E+03  0.15248606686E+04 -0.86706791903E+03  0.18343399952E+04  0.46999998093E+01 0. -1.
       -5    1    3    3    0  502  0.53644598345E+03 -0.15248606686E+04 -0.12485985493E+03  0.16212915916E+04  0.46999998093E+01 0.  1.
</event>
<event>
 5   0  0.2057130E-07  0.3294679E+04  0.7818609E-02  0.8164251E-01
       -1   -1    0    0    0  501  0.00000000000E+00  0.00000000000E+00  0.10230331690E+04  0.10230331690E+04  0.50400001928E-02 0.  1.
        1   -1    0    0  501    0  0.00000000000E+00  0.00000000000E+00 -0.26526286668E+04  0.26526286668E+04  0.50400001928E-02 0. -1.
    10030    2    1    2    0    0  0.00000000000E+00  0.00000000000E+00 -0.16295954978E+04  0.36756618358E+04  0.32946788075E+04 0.  0.
        2    1    3    3  502    0 -0.62841811911E+03 -0.11450658467E+04  0.30509283777E+03  0.13413302223E+04  0.25500000920E-02 0.  1.
       -2    1    3    3    0  502  0.62841811911E+03  0.11450658467E+04 -0.19346883356E+04  0.23343316134E+04  0.25500000920E-02 0. -1.
</event>
<event>
 5   0  0.6424183E-07  0.3289673E+04  0.7818609E-02  0.8165528E-01
        2   -1    0    0  501    0  0.00000000000E+00  0.00000000000E+00  0.19578189040E+04  0.19578189040E+04  0.25500000920E-02 0.  1.
       -2   -1    0    0    0  501  0.00000000000E+00  0.00000000000E+00 -0.13818882122E+04  0.13818882122E+04  0.25500000920E-02 0. -1.
    10030    2    1    2    0    0  0.00000000000E+00  0.00000000000E+00  0.57593069183E+03  0.33397071162E+04  0.32896728500E+04 0.  0.
        2    1    3    3  502    0  0.62336433027E+03 -0.14824824015E+04 -0.62465364231E+02  0.16094219710E+04  0.25500000920E-02 0. -1.
       -2    1    3    3    0  502 -0.62336433027E+03  0.14824824015E+04  0.63839605606E+03  0.17302851452E+04  0.25500000920E-02 0.  1.
</event>
<event>
 5   0  0.6424183E-07  0.3293314E+04  0.7818609E-02  0.8164599E-01
        2   -1    0    0  501    0  0.00000000000E+00  0.00000000000E+00  0.23761430787E+04  0.23761430787E+04  0.25500000920E-02 0. -1.
       -2   -1    0    0    0  501  0.00000000000E+00  0.00000000000E+00 -0.11411260465E+04  0.11411260465E+04  0.25500000920E-02 0.  1.
    10030    2    1    2    0    0  0.00000000000E+00  0.00000000000E+00  0.12350170322E+04  0.35172691252E+04  0.32933136852E+04 0.  0.
        2    1    3    3  502    0 -0.51235570020E+03  0.83847300574E+03  0.20287012741E+04  0.22541460034E+04  0.25500000920E-02 0. -1.
       -2    1    3    3    0  502  0.51235570020E+03 -0.83847300574E+03 -0.79368424196E+03  0.12631231218E+04  0.25500000920E-02 0.  1.
</event>
<event>
 5   0  0.6426079E-07  0.3297227E+04  0.7818609E-02  0.8163601E-01
        2   -1    0    0  501    0  0.00000000000E+00  0.00000000000E+00  0.27393042132E+04  0.27393042132E+04  0.25500000920E-02 0.  1.
       -2   -1    0    0    0  501  0.00000000000E+00  0.00000000000E+00 -0.99219610096E+03  0.99219610097E+03  0.25500000920E-02 0. -1.
    10030    2    1    2    0    0  0.00000000000E+00  0.00000000000E+00  0.17471081122E+04  0.37315003141E+04  0.32972272956E+04 0.  0.
        4    1    3    3  502    0  0.55316000700E+03 -0.95511049174E+03  0.22594712092E+04  0.25146438720E+04  0.12699999809E+01 0.  1.
       -4    1    3    3    0  502 -0.55316000700E+03  0.95511049174E+03 -0.51236309699E+03  0.12168564422E+04  0.12699999809E+01 0. -1.
</event>
<event>
 5   0  0.6424183E-07  0.3291555E+04  0.7818609E-02  0.8165047E-01
       -2   -1    0    0    0  501  0.00000000000E+00  0.00000000000E+00  0.88767869661E+03  0.88767869661E+03  0.25500000920E-02 0. -1.
        2   -1    0    0  501    0  0.00000000000E+00  0.00000000000E+00 -0.30513111931E+04  0.30513111931E+04  0.25500000920E-02 0.  1.
    10030    2    1    2    0    0  0.00000000000E+00  0.00000000000E+00 -0.21636324965E+04  0.39389898897E+04  0.32915552208E+04 0.  0.
        2    1    3    3  502    0 -0.78092596082E+03  0.16481779094E+01 -0.28154709960E+04  0.29217674449E+04  0.25500000920E-02 0.  1.
       -2    1    3    3    0  502  0.78092596082E+03 -0.16481779094E+01  0.65183849951E+03  0.10172224448E+04  0.25500000920E-02 0. -1.
</event>
<event>
 5   0  0.6424183E-07  0.3304756E+04  0.7818609E-02  0.8161686E-01
       -2   -1    0    0    0  501  0.00000000000E+00  0.00000000000E+00  0.14685562338E+04  0.14685562338E+04  0.25500000920E-02 0. -1.
        2   -1    0    0  501    0  0.00000000000E+00  0.00000000000E+00 -0.18592090559E+04  0.18592090559E+04  0.25500000920E-02 0.  1.
    10030    2    1    2    0    0  0.00000000000E+00  0.00000000000E+00 -0.39065282206E+03  0.33277652897E+04  0.33047559965E+04 0.  0.
        2    1    3    3  502    0  0.11947023886E+04  0.73602973793E+03  0.68327329549E+03  0.15607421211E+04  0.25500000920E-02 0. -1.
       -2    1    3    3    0  502 -0.11947023886E+04 -0.73602973793E+03 -0.10739261176E+04  0.17670231686E+04  0.25500000920E-02 0.  1.
</event>
<event>
 5   0  0.6351753E-07  0.3323343E+04  0.7818609E-02  0.8156981E-01
        2   -1    0    0  501    0  0.00000000000E+00  0.00000000000E+00  0.16359846384E+04  0.16359846384E+04  0.25500000920E-02 0. -1.
       -2   -1    0    0    0  501  0.00000000000E+00  0.00000000000E+00 -0.16877620956E+04  0.16877620956E+04  0.25500000920E-02 0.  1.
    10030    2    1    2    0    0  0.00000000000E+00  0.00000000000E+00 -0.51777457240E+02  0.33237467340E+04  0.33233434139E+04 0.  0.
        3    1    3    3  502    0  0.77232582470E+03  0.86791744311E+03 -0.12140501551E+04  0.16803825924E+04  0.10100000352E+00 0.  1.
       -3    1    3    3    0  502 -0.77232582470E+03 -0.86791744311E+03  0.11622726978E+04  0.16433641416E+04  0.10100000352E+00 0. -1.
</event>
<event>
 5   0  0.2080770E-07  0.3289862E+04  0.7818609E-02  0.8165480E-01
       -1   -1    0    0    0  501  0.00000000000E+00  0.00000000000E+00  0.13915501655E+04  0.13915501655E+04  0.50400001928E-02 0. -1.
        1   -1    0    0  501    0  0.00000000000E+00  0.00000000000E+00 -0.19444492236E+04  0.19444492236E+04  0.50400001928E-02 0.  1.
    10030    2    1    2    0    0  0.00000000000E+00  0.00000000000E+00 -0.55289905804E+03  0.33359993891E+04  0.32898623916E+04 0.  0.
        4    1    3    3  502    0 -0.13394506886E+04  0.79386238999E+03 -0.81440945413E+03  0.17571596437E+04  0.12699999809E+01 0. -1.
       -4    1    3    3    0  502  0.13394506886E+04 -0.79386238999E+03  0.26151039609E+03  0.15788397454E+04  0.12699999809E+01 0.  1.
</event>
<event>
 5   0  0.2080828E-07  0.3278034E+04  0.7818609E-02  0.8168507E-01
       -1   -1    0    0    0  501  0.00000000000E+00  0.00000000000E+00  0.13446352286E+04  0.13446352286E+04  0.50400001928E-02 0.  1.
        1   -1    0    0  501    0  0.00000000000E+00  0.00000000000E+00 -0.19978480368E+04  0.19978480368E+04  0.50400001928E-02 0. -1.
    10030    2    1    2    0    0  0.00000000000E+00  0.00000000000E+00 -0.65321280823E+03  0.33424832653E+04  0.32780340764E+04 0.  0.
        1    1    3    3  502    0 -0.13018716128E+04 -0.22044378545E+03  0.66352147312E+03  0.14777435177E+04  0.50400001928E-02 0.  1.
       -1    1    3    3    0  502  0.13018716128E+04  0.22044378545E+03 -0.13167342814E+04  0.18647397477E+04  0.50400001928E-02 0. -1.
</event>
<event>
 5   0  0.2037333E-07  0.3298228E+04  0.7818609E-02  0.8163347E-01
       -1   -1    0    0    0  501  0.00000000000E+00  0.00000000000E+00  0.15145368185E+04  0.15145368185E+04  0.50400001928E-02 0.  1.
        1   -1    0    0  501    0  0.00000000000E+00  0.00000000000E+00 -0.17956489089E+04  0.17956489089E+04  0.50400001928E-02 0. -1.
    10030    2    1    2    0    0  0.00000000000E+00  0.00000000000E+00 -0.28111209044E+03  0.33101857274E+04  0.32982276366E+04 0.  0.
        3    1    3    3  502    0  0.17229583883E+03  0.12593531848E+04  0.91392930611E+03  0.15655424258E+04  0.10100000352E+00 0.  1.
       -3    1    3    3    0  502 -0.17229583883E+03 -0.12593531848E+04 -0.11950413966E+04  0.17446433016E+04  0.10100000352E+00 0. -1.
</event>
<event>
 5   0  0.2057130E-07  0.3255518E+04  0.7818609E-02  0.8174307E-01
       -1   -1    0    0    0  501  0.00000000000E+00  0.00000000000E+00  0.19271222168E+04  0.19271222168E+04  0.50400001928E-02 0.  1.
        1   -1    0    0  501    0  0.00000000000E+00  0.00000000000E+00 -0.13748991106E+04  0.13748991106E+04  0.50400001928E-02 0. -1.
    10030    2    1    2    0    0  0.00000000000E+00  0.00000000000E+00  0.55222310627E+03  0.33020213274E+04  0.32555175453E+04 0.  0.
        2    1    3    3  502    0  0.98364198868E+03  0.92789586007E+03  0.11951767304E+04  0.18047131922E+04  0.25500000920E-02 0.  1.
       -2    1    3    3    0  502 -0.98364198868E+03 -0.92789586007E+03 -0.64295362417E+03  0.14973081352E+04  0.25500000920E-02 0. -1.
</event>
<event>
 5   0  0.2037333E-07  0.3321883E+04  0.7818609E-02  0.8157349E-01
       -1   -1    0    0    0  501  0.00000000000E+00  0.00000000000E+00  0.10960939731E+04  0.10960939731E+04  0.50400001928E-02 0.  1.
        1   -1    0    0  501    0  0.00000000000E+00  0.00000000000E+00 -0.25168711823E+04  0.25168711823E+04  0.50400001928E-02 0. -1.
    10030    2    1    2    0    0  0.00000000000E+00  0.00000000000E+00 -0.14207772092E+04  0.36129651555E+04  0.33218834020E+04 0.  0.
        3    1    3    3  502    0 -0.37679908308E+03 -0.63906997810E+03 -0.23266525790E+04  0.24420688400E+04  0.10100000352E+00 0. -1.
       -3    1    3    3    0  502  0.37679908308E+03  0.63906997810E+03  0.90587536974E+03  0.11708963155E+04  0.10100000352E+00 0.  1.
</event>
<event>
 5   0  0.6426079E-07  0.3304532E+04  0.7818609E-02  0.8161743E-01
        2   -1    0    0  501    0  0.00000000000E+00  0.00000000000E+00  0.29368407118E+04  0.29368407118E+04  0.25500000920E-02 0.  1.
       -2   -1    0    0    0  501  0.00000000000E+00  0.00000000000E+00 -0.92956468165E+03  0.92956468165E+03  0.25500000920E-02 0. -1.
    10030    2    1    2    0    0  0.00000000000E+00  0.00000000000E+00  0.20072760302E+04  0.38664053935E+04  0.33045322824E+04 0.  0.
        4    1    3    3  502    0  0.93396034173E+03 -0.11878546177E+04  0.17856366329E+04  0.23391836846E+04  0.12699999809E+01 0.  1.
       -4    1    3    3    0  502 -0.93396034173E+03  0.11878546177E+04  0.22163939725E+03  0.15272217089E+04  0.12699999809E+01 0. -1.
</event>
<event>
 5   0  0.6426079E-07  0.3297207E+04  0.7818609E-02  0.8163606E-01
        2   -1    0    0  501    0  0.00000000000E+00  0.00000000000E+00  0.20917467300E+04  0.20917467300E+04  0.25500000920E-02 0. -1.
       -2   -1    0    0    0  501  0.00000000000E+00  0.00000000000E+00 -0.12993414607E+04  0.12993414607E+04  0.25500000920E-02 0.  1.
    10030    2    1    2    0    0  0.00000000000E+00  0.00000000000E+00  0.79240526931E+03  0.33910881908E+04  0.32972068492E+04 0.  0.
        4    1    3    3  502    0 -0.12037904550E+04 -0.73843486551E+03 -0.47860063306E+03  0.14911263156E+04  0.12699999809E+01 0.  1.
       -4    1    3    3    0  502  0.12037904550E+04  0.73843486551E+03  0.12710059024E+04  0.18999618751E+04  0.12699999809E+01 0. -1.
</event>
<event>
 5   0  0.6424183E-07  0.3313773E+04  0.7818609E-02  0.8159400E-01
       -2   -1    0    0    0  501  0.00000000000E+00  0.00000000000E+00  0.13407801874E+04  0.13407801874E+04  0.25500000920E-02 0.  1.
        2   -1    0    0  501    0  0.00000000000E+00  0.00000000000E+00 -0.20475190791E+04  0.20475190791E+04  0.25500000920E-02 0. -1.
    10030    2    1    2    0    0  0.00000000000E+00  0.00000000000E+00 -0.70673889168E+03  0.33882992664E+04  0.33137730849E+04 0.  0.
        2    1    3    3  502    0  0.15269782158E+04  0.60939763682E+03 -0.14321093754E+03  0.16503143107E+04  0.25500000920E-02 0.  1.
       -2    1    3    3    0  502 -0.15269782158E+04 -0.60939763682E+03 -0.56352795414E+03  0.17379849558E+04  0.25500000920E-02 0. -1.
</event>
<event>
 5   0  0.2080828E-07  0.3288152E+04  0.7818609E-02  0.8165917E-01
        1   -1    0    0  501    0  0.00000000000E+00  0.00000000000E+00  0.12414101247E+04  0.12414101247E+04  0.50400001928E-02 0.  1.
       -1   -1    0    0    0  501  0.00000000000E+00  0.00000000000E+00 -0.21773507635E+04  0.21773507635E+04  0.50400001928E-02 0. -1.
    10030    2    1    2    0    0  0.00000000000E+00  0.00000000000E+00 -0.93594063874E+03  0.34187608882E+04  0.32881516284E+04 0.  0.
        1    1    3    3  502    0 -0.14266840810E+04 -0.30251093361E+03  0.32115336410E+03  0.14933451762E+04  0.50400001928E-02 0.  1.
       -1    1    3    3    0  502  0.14266840810E+04  0.30251093361E+03 -0.12570940028E+04  0.19254157120E+04  0.50400001928E-02 0. -1.
</event>
<event>
 5   0  0.2037333E-07  0.3308047E+04  0.7818609E-02  0.8160851E-01
       -1   -1    0    0    0  501  0.00000000000E+00  0.00000000000E+00  0.18469166027E+04  0.18469166027E+04  0.50400001928E-02 0.  1.
        1   -1    0    0  501    0  0.00000000000E+00  0.00000000000E+00 -0.14812764943E+04  0.14812764943E+04  0.50400001928E-02 0. -1.
    10030    2    1    2    0    0  0.00000000000E+00  0.00000000000E+00  0.36564010839E+03  0.33281930971E+04  0.33080472491E+04 0.  0.
        3    1    3    3  502    0 -0.38226137732E+03  0.99676166376E+03 -0.10882568716E+04  0.15244541986E+04  0.10100000352E+00 0. -1.
       -3    1    3    3    0  502  0.38226137732E+03 -0.99676166376E+03  0.14538969800E+04  0.18037388984E+04  0.10100000352E+00 0.  1.
</event>
<event>
 5   0  0.2080770E-07  0.3298616E+04  0.7818609E-02  0.8163248E-01
       -1   -1    0    0    0  501  0.00000000000E+00  0.00000000000E+00  0.12350185580E+04  0.12350185580E+04  0.50400001928E-02 0. -1.
        1   -1    0    0  501    0  0.00000000000E+00  0.00000000000E+00 -0.22025710392E+04  0.22025710392E+04  0.50400001928E-02 0.  1.
    10030    2    1    2    0    0  0.00000000000E+00  0.00000000000E+00 -0.96755248126E+03  0.34375895972E+04  0.32986155330E+04 0.  0.
        4    1    3    3  502    0  0.12948546305E+03 -0.14378449295E+04 -0.13149043002E+04  0.19527261605E+04  0.12699999809E+01 0.  1.
       -4    1    3    3    0  502 -0.12948546305E+03  0.14378449295E+04  0.34735181896E+03  0.14848634366E+04  0.12699999809E+01 0. -1.
</event>
<event>
 5   0  0.2080770E-07  0.3309138E+04  0.7818609E-02  0.8160574E-01
       -1   -1    0    0    0  501  0.00000000000E+00  0.00000000000E+00  0.15428253480E+04  0.15428253480E+04  0.50400001928E-02 0.  1.
        1   -1    0    0  501    0  0.00000000000E+00  0.00000000000E+00 -0.17744064507E+04  0.17744064507E+04  0.50400001928E-02 0. -1.
    10030    2    1    2    0    0  0.00000000000E+00  0.00000000000E+00 -0.23158110276E+03  0.33172317987E+04  0.33091384074E+04 0.  0.
        4    1    3    3  502    0 -0.10232838671E+04 -0.65464929040E+03  0.10103099599E+04  0.15800010741E+04  0.12699999809E+01 0.  1.
       -4    1    3    3    0  502  0.10232838671E+04  0.65464929040E+03 -0.12418910627E+04  0.17372307246E+04  0.12699999809E+01 0. -1.
</event>
<event>
 5   0  0.6351753E-07  0.3303304E+04  0.7818609E-02  0.8162055E-01
       -2   -1    0    0    0  501  0.00000000000E+00  0.00000000000E+00  0.13453749348E+04  0.13453749348E+04  0.25500000920E-02 0.  1.
        2   -1    0    0  501    0  0.00000000000E+00  0.00000000000E+00 -0.20276535659E+04  0.20276535659E+04  0.25500000920E-02 0. -1.
    10030    2    1    2    0    0  0.00000000000E+00  0.00000000000E+00 -0.68227863111E+03  0.33730285007E+04  0.33033039727E+04 0.  0.
        3    1    3    3  502    0 -0.61385639972E+03  0.58168075643E+03 -0.17898105981E+04  0.19795439296E+04  0.10100000352E+00 0. -1.
       -3    1    3    3    0  502  0.61385639972E+03 -0.58168075643E+03  0.11075319670E+04  0.13934845711E+04  0.10100000352E+00 0.  1.
</event>
<event>
 5   0  0.6424183E-07  0.3079201E+04  0.7818609E-02  0.8221469E-01
       -2   -1    0    0    0  501  0.00000000000E+00  0.00000000000E+00  0.13317431840E+04  0.13317431840E+04  0.25500000920E-02 0.  1.
        2   -1    0    0  501    0  0.00000000000E+00  0.00000000000E+00 -0.17799002418E+04  0.17799002418E+04  0.25500000920E-02 0. -1.
    10030    2    1    2    0    0  0.00000000000E+00  0.00000000000E+00 -0.44815705776E+03  0.31116434258E+04  0.30792012050E+04 0.  0.
        2    1    3    3  502    0  0.95450207905E+03  0.35793426410E+03 -0.13900017759E+04  0.17237447878E+04  0.25500000920E-02 0. -1.
       -2    1    3    3    0  502 -0.95450207905E+03 -0.35793426410E+03  0.94184471814E+03  0.13878986380E+04  0.25500000920E-02 0.  1.
</event>
<event>
 5   0  0.6351753E-07  0.3301345E+04  0.7818609E-02  0.8162553E-01
        2   -1    0    0  501    0  0.00000000000E+00  0.00000000000E+00  0.17259093927E+04  0.17259093927E+04  0.25500000920E-02 0.  1.
       -2   -1    0    0    0  501  0.00000000000E+00  0.00000000000E+00 -0.15787151095E+04  0.15787151095E+04  0.25500000920E-02 0. -1.
    10030    2    1    2    0    0  0.00000000000E+00  0.00000000000E+00  0.14719428314E+03  0.33046245022E+04  0.33013447175E+04 0.  0.
        3    1    3    3  502    0 -0.77644757185E+03  0.67817767311E+03  0.13640339737E+04  0.17097907708E+04  0.10100000352E+00 0.  1.
       -3    1    3    3    0  502  0.77644757185E+03 -0.67817767311E+03 -0.12168396906E+04  0.15948337314E+04  0.10100000352E+00 0. -1.
</event>
<event>
 5   0  0.6258718E-07  0.3313455E+04  0.7818609E-02  0.8159480E-01
        2   -1    0    0  501    0  0.00000000000E+00  0.00000000000E+00  0.16699077351E+04  0.16699077351E+04  0.25500000920E-02 0.  1.
       -2   -1    0    0    0  501  0.00000000000E+00  0.00000000000E+00 -0.16436508227E+04  0.16436508227E+04  0.25500000920E-02 0. -1.
    10030    2    1    2    0    0  0.00000000000E+00  0.00000000000E+00  0.26256912421E+02  0.33135585578E+04  0.33134545252E+04 0.  0.
        5    1    3    3  502    0  0.71499561999E+03 -0.10312518225E+04  0.10948389287E+04  0.16653508423E+04  0.46999998093E+01 0.  1.
       -5    1    3    3    0  502 -0.71499561999E+03  0.10312518225E+04 -0.10685820162E+04  0.16482077155E+04  0.46999998093E+01 0. -1.
</event>
<event>
 5   0  0.2087665E-07  0.3308372E+04  0.7818609E-02  0.8160768E-01
        1   -1    0    0  501    0  0.00000000000E+00  0.00000000000E+00  0.19111975458E+04  0.19111975458E+04  0.50400001928E-02 0. -1.
       -1   -1    0    0    0  501  0.00000000000E+00  0.00000000000E+00 -0.14317364190E+04  0.14317364190E+04  0.50400001928E-02 0.  1.
    10030    2    1    2    0    0  0.00000000000E+00  0.00000000000E+00  0.47946112681E+03  0.33429339649E+04  0.33083718838E+04 0.  0.
        5    1    3    3  502    0 -0.11579753175E+04  0.11722012084E+04  0.92099708457E+02  0.16502929907E+04  0.46999998093E+01 0.  1.
       -5    1    3    3    0  502  0.11579753175E+04 -0.11722012084E+04  0.38736141835E+03  0.16926409741E+04  0.46999998093E+01 0. -1.
</event>
<event>
 5   0  0.2057130E-07  0.3297084E+04  0.7818609E-02  0.8163638E-01
        1   -1    0    0  501    0  0.00000000000E+00  0.00000000000E+00  0.20186730078E+04  0.20186730078E+04  0.50400001928E-02 0.  1.
       -1   -1    0    0    0  501  0.00000000000E+00  0.00000000000E+00 -0.13462758855E+04  0.13462758855E+04  0.50400001928E-02 0. -1.
    10030    2    1    2    0    0  0.00000000000E+00  0.00000000000E+00  0.67239712230E+03  0.33649488933E+04  0.32970840397E+04 0.  0.
        2    1    3    3  502    0 -0.96460630160E+02 -0.94320975349E+03  0.17125645861E+04  0.19575052373E+04  0.25500000920E-02 0.  1.
       -2    1    3    3    0  502  0.96460630160E+02  0.94320975349E+03 -0.10401674638E+04  0.14074436561E+04  0.25500000920E-02 0. -1.
</event>
<event>
 5   0  0.2087665E-07  0.3294057E+04  0.7818609E-02  0.8164409E-01
       -1   -1    0    0    0  501  0.00000000000E+00  0.00000000000E+00  0.12178793248E+04  0.12178793248E+04  0.50400001928E-02 0.  1.
        1   -1    0    0  501    0  0.00000000000E+00  0.00000000000E+00 -0.22273992582E+04  0.22273992582E+04  0.50400001928E-02 0. -1.
    10030    2    1    2    0    0  0.00000000000E+00  0.00000000000E+00 -0.10095199334E+04  0.34452785831E+04  0.32940573794E+04 0.  0.
        5    1    3    3  502    0  0.61058136551E+03 -0.69878397704E+03 -0.19279522375E+04  0.21396566478E+04  0.46999998093E+01 0. -1.
       -5    1    3    3    0  502 -0.61058136551E+03  0.69878397704E+03  0.91843230410E+03  0.13056219352E+04  0.46999998093E+01 0.  1.
</event>
<event>
 5   0  0.6424183E-07  0.3303963E+04  0.7818609E-02  0.8161888E-01
       -2   -1    0    0    0  501  0.00000000000E+00  0.00000000000E+00  0.19309543829E+04  0.19309543829E+04  0.25500000920E-02 0.  1.
        2   -1    0    0  501    0  0.00000000000E+00  0.00000000000E+00 -0.14133130020E+04  0.14133130020E+04  0.25500000920E-02 0. -1.
    10030    2    1    2    0    0  0.00000000000E+00  0.00000000000E+00  0.51764138092E+03  0.33442673850E+04  0.33039630359E+04 0.  0.
        2    1    3    3  502    0  0.55626791828E+03  0.12912830438E+04 -0.61905217096E+03  0.15362524163E+04  0.25500000920E-02 0. -1.
       -2    1    3    3    0  502 -0.55626791828E+03 -0.12912830438E+04  0.11366935519E+04  0.18080149687E+04  0.25500000920E-02 0.  1.
</event>
<event>
 5   0  0.6377741E-07  0.3282695E+04  0.7818609E-02  0.8167313E-01
        2   -1    0    0  501    0  0.00000000000E+00  0.00000000000E+00  0.20180977273E+04  0.20180977273E+04  0.25500000920E-02 0.  1.
       -2   -1    0    0    0  501  0.00000000000E+00  0.00000000000E+00 -0.13349309427E+04  0.13349309427E+04  0.25500000920E-02 0. -1.
    10030    2    1    2    0    0  0.00000000000E+00  0.00000000000E+00  0.68316678462E+03  0.33530286699E+04  0.32826946867E+04 0.  0.
        1    1    3    3  502    0  0.13873240962E+04  0.67271725671E+03 -0.23332997767E+03  0.15593779317E+04  0.50400001928E-02 0.  1.
       -1    1    3    3    0  502 -0.13873240962E+04 -0.67271725671E+03  0.91649676228E+03  0.17936507382E+04  0.50400001928E-02 0. -1.
</event>
<event>
 5   0  0.6377741E-07  0.3297202E+04  0.7818609E-02  0.8163608E-01
       -2   -1    0    0    0  501  0.00000000000E+00  0.00000000000E+00  0.29649349219E+04  0.29649349219E+04  0.25500000920E-02 0.  1.
        2   -1    0    0  501    0  0.00000000000E+00  0.00000000000E+00 -0.91667614762E+03  0.91667614762E+03  0.25500000920E-02 0. -1.
    10030    2    1    2    0    0  0.00000000000E+00  0.00000000000E+00  0.20482587743E+04  0.38816110696E+04  0.32972019181E+04 0.  0.
        1    1    3    3  502    0 -0.15878825501E+04  0.43003473500E+03  0.11508363683E+04  0.20076666090E+04  0.50400001928E-02 0.  1.
       -1    1    3    3    0  502  0.15878825501E+04 -0.43003473500E+03  0.89742240603E+03  0.18739444605E+04  0.50400001928E-02 0. -1.
</event>
<event>
 5   0  0.6351753E-07  0.3302883E+04  0.7818609E-02  0.8162162E-01
        2   -1    0    0  501    0  0.00000000000E+00  0.00000000000E+00  0.26268250078E+04  0.26268250078E+04  0.25500000920E-02 0.  1.
       -2   -1    0    0    0  501  0.00000000000E+00  0.00000000000E+00 -0.10382338331E+04  0.10382338331E+04  0.25500000920E-02 0. -1.
    10030    2    1    2    0    0  0.00000000000E+00  0.00000000000E+00  0.15885911747E+04  0.36650588409E+04  0.33028827389E+04 0.  0.
        3    1    3    3  502    0 -0.82055130159E+03 -0.71861335337E+03  0.21702444011E+04  0.24289237042E+04  0.10100000352E+00 0.  1.
       -3    1    3    3    0  502  0.82055130159E+03  0.71861335337E+03 -0.58165322637E+03  0.12361351367E+04  0.10100000352E+00 0. -1.
</event>
<event>
 5   0  0.2080770E-07  0.3291115E+04  0.7818609E-02  0.8165160E-01
        1   -1    0    0  501    0  0.00000000000E+00  0.00000000000E+00  0.15372759716E+04  0.15372759716E+04  0.50400001928E-02 0.  1.
       -1   -1    0    0    0  501  0.00000000000E+00  0.00000000000E+00 -0.17614663384E+04  0.17614663384E+04  0.50400001928E-02 0. -1.
    10030    2    1    2    0    0  0.00000000000E+00  0.00000000000E+00 -0.22419036683E+03  0.32987423100E+04  0.32911152377E+04 0.  0.
        4    1    3    3  502    0  0.79635877053E+03  0.11169860997E+04 -0.10230540126E+04  0.17112820819E+04  0.12699999809E+01 0. -1.
       -4    1    3    3    0  502 -0.79635877053E+03 -0.11169860997E+04  0.79886364576E+03  0.15874602281E+04  0.12699999809E+01 0.  1.
</event>
<event>
 5   0  0.6351753E-07  0.3305532E+04  0.7818609E-02  0.8161489E-01
        2   -1    0    0  501    0  0.00000000000E+00  0.00000000000E+00  0.16404588039E+04  0.16404588039E+04  0.25500000920E-02 0. -1.
       -2   -1    0    0    0  501  0.00000000000E+00  0.00000000000E+00 -0.16651659223E+04  0.16651659223E+04  0.25500000920E-02 0.  1.
    10030    2    1    2    0    0  0.00000000000E+00  0.00000000000E+00 -0.24707118470E+02  0.33056247262E+04  0.33055323912E+04 0.  0.
        3    1    3    3  502    0  0.51646980200E+03  0.94848820815E+03 -0.12634940779E+04  0.16621637201E+04  0.10100000352E+00 0.  1.
       -3    1    3    3    0  502 -0.51646980200E+03 -0.94848820815E+03  0.12387869595E+04  0.16434610061E+04  0.10100000352E+00 0. -1.
</event>
<event>
 5   0  0.2057130E-07  0.3307144E+04  0.7818609E-02  0.8161080E-01
        1   -1    0    0  501    0  0.00000000000E+00  0.00000000000E+00  0.17427644399E+04  0.17427644399E+04  0.50400001928E-02 0. -1.
       -1   -1    0    0    0  501  0.00000000000E+00  0.00000000000E+00 -0.15689444482E+04  0.15689444482E+04  0.50400001928E-02 0.  1.
    10030    2    1    2    0    0  0.00000000000E+00  0.00000000000E+00  0.17381999165E+03  0.33117088881E+04  0.33071441411E+04 0.  0.
        2    1    3    3  502    0  0.78294367722E+03 -0.11990637708E+04 -0.74099949224E+03  0.16124003770E+04  0.25500000920E-02 0.  1.
       -2    1    3    3    0  502 -0.78294367722E+03  0.11990637708E+04  0.91481948389E+03  0.16993085112E+04  0.25500000920E-02 0. -1.
</event>
<event>
 5   0  0.2057130E-07  0.3292842E+04  0.7818609E-02  0.8164719E-01
       -1   -1    0    0    0  501  0.00000000000E+00  0.00000000000E+00  0.22028761546E+04  0.22028761547E+04  0.50400001928E-02 0.  1.
        1   -1    0    0  501    0  0.00000000000E+00  0.00000000000E+00 -0.12305283261E+04  0.12305283261E+04  0.50400001928E-02 0. -1.
    10030    2    1    2    0    0  0.00000000000E+00  0.00000000000E+00  0.97234782857E+03  0.34334044807E+04  0.32928416343E+04 0.  0.
        2    1    3    3  502    0 -0.47930406685E+03  0.78262917970E+03 -0.93909268418E+03  0.13130635517E+04  0.25500000920E-02 0. -1.
       -2    1    3    3    0  502  0.47930406685E+03 -0.78262917970E+03  0.19114405127E+04  0.21203409290E+04  0.25500000920E-02 0.  1.
</event>
<event>
 5   0  0.6351753E-07  0.3287595E+04  0.7818609E-02  0.8166059E-01
        2   -1    0    0  501    0  0.00000000000E+00  0.00000000000E+00  0.15335783928E+04  0.15335783928E+04  0.25500000920E-02 0. -1.
       -2   -1    0    0    0  501  0.00000000000E+00  0.00000000000E+00 -0.17619377307E+04  0.17619377307E+04  0.25500000920E-02 0.  1.
    10030    2    1    2    0    0  0.00000000000E+00  0.00000000000E+00 -0.22835933793E+03  0.32955161235E+04  0.32875946424E+04 0.  0.
        3    1    3    3  502    0 -0.15148616092E+04  0.16968241069E+03 -0.73086262270E+03  0.16904904611E+04  0.10100000352E+00 0.  1.
       -3    1    3    3    0  502  0.15148616092E+04 -0.16968241069E+03  0.50250328477E+03  0.16050256624E+04  0.10100000352E+00 0. -1.
</event>
<event>
 5   0  0.2057130E-07  0.3299873E+04  0.7818609E-02  0.8162928E-01
        1   -1    0    0  501    0  0.00000000000E+00  0.00000000000E+00  0.15614942954E+04  0.15614942954E+04  0.50400001928E-02 0.  1.
       -1   -1    0    0    0  501  0.00000000000E+00  0.00000000000E+00 -0.17433879439E+04  0.17433879439E+04  0.50400001928E-02 0. -1.
    10030    2    1    2    0    0  0.00000000000E+00  0.00000000000E+00 -0.18189364845E+03  0.33048822393E+04  0.32998729242E+04 0.  0.
        2    1    3    3  502    0 -0.37249611741E+03 -0.33524449114E+03  0.14834280881E+04  0.15657908925E+04  0.25500000920E-02 0.  1.
       -2    1    3    3    0  502  0.37249611741E+03  0.33524449114E+03 -0.16653217366E+04  0.17390913468E+04  0.25500000920E-02 0. -1.
</event>
<event>
 5   0  0.2057130E-07  0.3310593E+04  0.7818609E-02  0.8160205E-01
       -1   -1    0    0    0  501  0.00000000000E+00  0.00000000000E+00  0.14502992792E+04  0.14502992793E+04  0.50400001928E-02 0.  1.
        1   -1    0    0  501    0  0.00000000000E+00  0.00000000000E+00 -0.18892691525E+04  0.18892691525E+04  0.50400001928E-02 0. -1.
    10030    2    1    2    0    0  0.00000000000E+00  0.00000000000E+00 -0.43896987320E+03  0.33395684317E+04  0.33105925090E+04 0.  0.
        2    1    3    3  502    0 -0.55072240974E+03  0.24876411246E+03  0.13350504122E+04  0.14654481770E+04  0.25500000920E-02 0.  1.
       -2    1    3    3    0  502  0.55072240974E+03 -0.24876411246E+03 -0.17740202854E+04  0.18741202548E+04  0.25500000920E-02 0. -1.
</event>
<event>
 5   0  0.1994250E-07  0.3300022E+04  0.7818609E-02  0.8162890E-01
       -3   -1    0    0    0  501  0.00000000000E+00  0.00000000000E+00  0.10633075704E+04  0.10633075752E+04  0.10100000352E+00 0. -1.
        3   -1    0    0  501    0  0.00000000000E+00  0.00000000000E+00 -0.25604408125E+04  0.25604408145E+04  0.10100000352E+00 0.  1.
    10030    2    1    2    0    0  0.00000000000E+00  0.00000000000E+00 -0.14971332422E+04  0.36237483897E+04  0.33000218858E+04 0.  0.
        4    1    3    3  502    0  0.92691572807E+02 -0.12409221042E+04 -0.19383981019E+04  0.23034470280E+04  0.12699999809E+01 0.  1.
       -4    1    3    3    0  502 -0.92691572807E+02  0.12409221042E+04  0.44126485974E+03  0.13203013617E+04  0.12699999809E+01 0. -1.
</event>
<event>
 5   0  0.6424183E-07  0.3299754E+04  0.7818609E-02  0.8162958E-01
       -2   -1    0    0    0  501  0.00000000000E+00  0.00000000000E+00  0.10178590500E+04  0.10178590500E+04  0.25500000920E-02 0.  1.
        2   -1    0    0  501    0  0.00000000000E+00  0.00000000000E+00 -0.26743330544E+04  0.26743330544E+04  0.25500000920E-02 0. -1.
    10030    2    1    2    0    0  0.00000000000E+00  0.00000000000E+00 -0.16564740044E+04  0.36921921043E+04  0.32997539921E+04 0.  0.
        2    1    3    3  502    0 -0.97617860759E+03 -0.28111754517E+03 -0.22829066218E+04  0.24987225520E+04  0.25500000920E-02 0. -1.
       -2    1    3    3    0  502  0.97617860759E+03  0.28111754517E+03  0.62643261743E+03  0.11934695523E+04  0.25500000920E-02 0.  1.
</event>
<event>
 5   0  0.6424183E-07  0.3311222E+04  0.7818609E-02  0.8160046E-01
        2   -1    0    0  501    0  0.00000000000E+00  0.00000000000E+00  0.19267742056E+04  0.19267742056E+04  0.25500000920E-02 0.  1.
       -2   -1    0    0    0  501  0.00000000000E+00  0.00000000000E+00 -0.14226100364E+04  0.14226100365E+04  0.25500000920E-02 0. -1.
    10030    2    1    2    0    0  0.00000000000E+00  0.00000000000E+00  0.50416416913E+03  0.33493842420E+04  0.33112223259E+04 0.  0.
        2    1    3    3  502    0 -0.84804468979E+03 -0.73487391153E+03  0.14834154726E+04  0.18600378830E+04  0.25500000920E-02 0.  1.
       -2    1    3    3    0  502  0.84804468979E+03  0.73487391153E+03 -0.97925130351E+03  0.14893463590E+04  0.25500000920E-02 0. -1.
</event>
<event>
 5   0  0.2037333E-07  0.3308851E+04  0.7818609E-02  0.8160647E-01
       -1   -1    0    0    0  501  0.00000000000E+00  0.00000000000E+00  0.12477881224E+04  0.12477881224E+04  0.50400001928E-02 0. -1.
        1   -1    0    0  501    0  0.00000000000E+00  0.00000000000E+00 -0.21935811508E+04  0.21935811508E+04  0.50400001928E-02 0.  1.
    10030    2    1    2    0    0  0.00000000000E+00  0.00000000000E+00 -0.94579302839E+03  0.34413692732E+04  0.33088514657E+04 0.  0.
        3    1    3    3  502    0 -0.49258700661E+03 -0.54670597860E+03 -0.20139940710E+04  0.21442251548E+04  0.10100000352E+00 0.  1.
       -3    1    3    3    0  502  0.49258700661E+03  0.54670597860E+03  0.10682010427E+04  0.12971441184E+04  0.10100000352E+00 0. -1.
</event>
<event>
 5   0  0.6426079E-07  0.3275852E+04  0.7818609E-02  0.8169067E-01
        2   -1    0    0  501    0  0.00000000000E+00  0.00000000000E+00  0.15839512725E+04  0.15839512725E+04  0.25500000920E-02 0. -1.
       -2   -1    0    0    0  501  0.00000000000E+00  0.00000000000E+00 -0.16937403892E+04  0.16937403892E+04  0.25500000920E-02 0.  1.
    10030    2    1    2    0    0  0.00000000000E+00  0.00000000000E+00 -0.10978911671E+03  0.32776916617E+04  0.32758524050E+04 0.  0.
        4    1    3    3  502    0 -0.24035938587E+03 -0.80686115318E+03 -0.14606756021E+04  0.16859336826E+04  0.12699999809E+01 0.  1.
       -4    1    3    3    0  502  0.24035938587E+03  0.80686115318E+03  0.13508864853E+04  0.15917579791E+04  0.12699999809E+01 0. -1.
</event>
<event>
 5   0  0.2080828E-07  0.3296800E+04  0.7818609E-02  0.8163710E-01
        1   -1    0    0  501    0  0.00000000000E+00  0.00000000000E+00  0.22187132345E+04  0.22187132345E+04  0.50400001928E-02 0.  1.
       -1   -1    0    0    0  501  0.00000000000E+00  0.00000000000E+00 -0.12246841773E+04  0.12246841774E+04  0.50400001928E-02 0. -1.
    10030    2    1    2    0    0  0.00000000000E+00  0.00000000000E+00  0.99402905711E+03  0.34433974118E+04  0.32968002623E+04 0.  0.
        1    1    3    3  502    0 -0.88842245221E+03  0.21416927631E+03 -0.93587019265E+03  0.13080580836E+04  0.50400001928E-02 0. -1.
       -1    1    3    3    0  502  0.88842245221E+03 -0.21416927631E+03  0.19298992498E+04  0.21353393282E+04  0.50400001928E-02 0.  1.
</event>
<event>
 5   0  0.6424183E-07  0.3305123E+04  0.7818609E-02  0.8161593E-01
       -2   -1    0    0    0  501  0.00000000000E+00  0.00000000000E+00  0.16941332485E+04  0.16941332485E+04  0.25500000920E-02 0. -1.
        2   -1    0    0  501    0  0.00000000000E+00  0.00000000000E+00 -0.16120101167E+04  0.16120101167E+04  0.25500000920E-02 0.  1.
    10030    2    1    2    0    0  0.00000000000E+00  0.00000000000E+00  0.82123131830E+02  0.33061433652E+04  0.33051232567E+04 0.  0.
        2    1    3    3  502    0  0.18475298868E+03 -0.56014305919E+03 -0.15031331400E+04  0.16147145724E+04  0.25500000920E-02 0.  1.
       -2    1    3    3    0  502 -0.18475298868E+03  0.56014305919E+03  0.15852562719E+04  0.16914287928E+04  0.25500000920E-02 0. -1.
</event>
<event>
 5   0  0.2087665E-07  0.3302140E+04  0.7818609E-02  0.8162351E-01
       -1   -1    0    0    0  501  0.00000000000E+00  0.00000000000E+00  0.13570209751E+04  0.13570209751E+04  0.50400001928E-02 0. -1.
        1   -1    0    0  501    0  0.00000000000E+00  0.00000000000E+00 -0.20088360392E+04  0.20088360392E+04  0.50400001928E-02 0.  1.
    10030    2    1    2    0    0  0.00000000000E+00  0.00000000000E+00 -0.65181506413E+03  0.33658570143E+04  0.33021403003E+04 0.  0.
        5    1    3    3  502    0 -0.12795558602E+04 -0.10116764319E+04 -0.65521600913E+02  0.16325034678E+04  0.46999998093E+01 0.  1.
       -5    1    3    3    0  502  0.12795558602E+04  0.10116764319E+04 -0.58629346322E+03  0.17333535465E+04  0.46999998093E+01 0. -1.
</event>
<event>
 5   0  0.6377741E-07  0.3322172E+04  0.7818609E-02  0.8157277E-01
       -2   -1    0    0    0  501  0.00000000000E+00  0.00000000000E+00  0.16396003489E+04  0.16396003489E+04  0.25500000920E-02 0.  1.
        2   -1    0    0  501    0  0.00000000000E+00  0.00000000000E+00 -0.16828528616E+04  0.16828528616E+04  0.25500000920E-02 0. -1.
    10030    2    1    2    0    0  0.00000000000E+00  0.00000000000E+00 -0.43252512753E+02  0.33224532105E+04  0.33221716627E+04 0.  0.
        1    1    3    3  502    0 -0.50319425761E+02 -0.35232706680E+03 -0.16442740792E+04  0.16823506336E+04  0.50400001928E-02 0. -1.
       -1    1    3    3    0  502  0.50319425761E+02  0.35232706680E+03  0.16010215665E+04  0.16401025770E+04  0.50400001928E-02 0.  1.
</event>
<event>
 5   0  0.2057130E-07  0.3286962E+04  0.7818609E-02  0.8166221E-01
        1   -1    0    0  501    0  0.00000000000E+00  0.00000000000E+00  0.21222636067E+04  0.21222636067E+04  0.50400001928E-02 0.  1.
       -1   -1    0    0    0  501  0.00000000000E+00  0.00000000000E+00 -0.12727114889E+04  0.12727114889E+04  0.50400001928E-02 0. -1.
    10030    2    1    2    0    0  0.00000000000E+00  0.00000000000E+00  0.84955211787E+03  0.33949750956E+04  0.32869616820E+04 0.  0.
        2    1    3    3  502    0  0.14223199435E+04 -0.17040734377E+03  0.12568523720E+04  0.19057047435E+04  0.25500000920E-02 0.  1.
       -2    1    3    3    0  502 -0.14223199435E+04  0.17040734377E+03 -0.40730025414E+03  0.14892703521E+04  0.25500000920E-02 0. -1.
</event>
<event>
 5   0  0.2037333E-07  0.3286677E+04  0.7818609E-02  0.8166294E-01
        1   -1    0    0  501    0  0.00000000000E+00  0.00000000000E+00  0.15115552927E+04  0.15115552927E+04  0.50400001928E-02 0. -1.
       -1   -1    0    0    0  501  0.00000000000E+00  0.00000000000E+00 -0.17866109443E+04  0.17866109443E+04  0.50400001928E-02 0.  1.
    10030    2    1    2    0    0  0.00000000000E+00  0.00000000000E+00 -0.27505565157E+03  0.32981662370E+04  0.32866768803E+04 0.  0.
        3    1    3    3  502    0  0.10289702962E+04 -0.79242181564E+03 -0.11479483828E+04  0.17333486966E+04  0.10100000352E+00 0.  1.
       -3    1    3    3    0  502 -0.10289702962E+04  0.79242181564E+03  0.87289273123E+03  0.15648175404E+04  0.10100000352E+00 0. -1.
</event>
<event>
 5   0  0.2080770E-07  0.3302253E+04  0.7818609E-02  0.8162322E-01
        1   -1    0    0  501    0  0.00000000000E+00  0.00000000000E+00  0.17024244192E+04  0.17024244192E+04  0.50400001928E-02 0.  1.
       -1   -1    0    0    0  501  0.00000000000E+00  0.00000000000E+00 -0.16013744926E+04  0.16013744926E+04  0.50400001928E-02 0. -1.
    10030    2    1    2    0    0  0.00000000000E+00  0.00000000000E+00  0.10104992663E+03  0.33037989118E+04  0.33022531948E+04 0.  0.
        4    1    3    3  502    0  0.14092756838E+04  0.88396871278E+02 -0.80564746105E+03  0.16257125835E+04  0.12699999809E+01 0. -1.
       -4    1    3    3    0  502 -0.14092756838E+04 -0.88396871278E+02  0.90669738768E+03  0.16780863284E+04  0.12699999809E+01 0.  1.
</event>
<event>
 5   0  0.2080770E-07  0.3329934E+04  0.7818609E-02  0.8155320E-01
       -1   -1    0    0    0  501  0.00000000000E+00  0.00000000000E+00  0.15655433718E+04  0.15655433718E+04  0.50400001928E-02 0. -1.
        1   -1    0    0  501    0  0.00000000000E+00  0.00000000000E+00 -0.17707050589E+04  0.17707050589E+04  0.50400001928E-02 0.  1.
    10030    2    1    2    0    0  0.00000000000E+00  0.00000000000E+00 -0.20516168712E+03  0.33362484307E+04  0.33299342747E+04 0.  0.
        4    1    3    3  502    0  0.66511714730E+03  0.12742733176E+04  0.73922699902E+03  0.16163574717E+04  0.12699999809E+01 0. -1.
       -4    1    3    3    0  502 -0.66511714730E+03 -0.12742733176E+04 -0.94438868614E+03  0.17198909590E+04  0.12699999809E+01 0.  1.
</event>
<event>
 5   0  0.6424183E-07  0.3268428E+04  0.7818609E-02  0.8170976E-01
        2   -1    0    0  501    0  0.00000000000E+00  0.00000000000E+00  0.20145790131E+04  0.20145790131E+04  0.25500000920E-02 0.  1.
       -2   -1    0    0    0  501  0.00000000000E+00  0.00000000000E+00 -0.13256639113E+04  0.13256639113E+04  0.25500000920E-02 0. -1.
    10030    2    1    2    0    0  0.00000000000E+00  0.00000000000E+00  0.68891510182E+03  0.33402429243E+04  0.32684275693E+04 0.  0.
        2    1    3    3  502    0  0.70974965646E+03 -0.38571881695E+02 -0.11594131315E+04  0.13599526368E+04  0.25500000920E-02 0. -1.
       -2    1    3    3    0  502 -0.70974965646E+03  0.38571881695E+02  0.18483282333E+04  0.19802902875E+04  0.25500000920E-02 0.  1.
</event>
<event>
 5   0  0.6424183E-07  0.3299976E+04  0.7818609E-02  0.8162902E-01
       -2   -1    0    0    0  501  0.00000000000E+00  0.00000000000E+00  0.16040253262E+04  0.16040253262E+04  0.25500000920E-02 0.  1.
        2   -1    0    0  501    0  0.00000000000E+00  0.00000000000E+00 -0.16972674699E+04  0.16972674699E+04  0.25500000920E-02 0. -1.
    10030    2    1    2    0    0  0.00000000000E+00  0.00000000000E+00 -0.93242143686E+02  0.33012927962E+04  0.32999757618E+04 0.  0.
        2    1    3    3  502    0  0.16387715145E+04  0.19157803848E+03 -0.32985315181E+02  0.16502612680E+04  0.25500000920E-02 0.  1.
       -2    1    3    3    0  502 -0.16387715145E+04 -0.19157803848E+03 -0.60256828506E+02  0.16510315282E+04  0.25500000920E-02 0. -1.
</event>
<event>
 5   0  0.6426079E-07  0.3305386E+04  0.7818609E-02  0.8161526E-01
       -2   -1    0    0    0  501  0.00000000000E+00  0.00000000000E+00  0.10776984855E+04  0.10776984855E+04  0.25500000920E-02 0. -1.
        2   -1    0    0  501    0  0.00000000000E+00  0.00000000000E+00 -0.25344697727E+04  0.25344697727E+04  0.25500000920E-02 0.  1.
    10030    2    1    2    0    0  0.00000000000E+00  0.00000000000E+00 -0.14567712872E+04  0.36121682582E+04  0.33053860505E+04 0.  0.
        4    1    3    3  502    0  0.15609648653E+04 -0.53717560254E+03 -0.81459800637E+03  0.18408531891E+04  0.12699999809E+01 0. -1.
       -4    1    3    3    0  502 -0.15609648653E+04  0.53717560254E+03 -0.64217328081E+03  0.17713150692E+04  0.12699999809E+01 0.  1.
</event>
<event>
 5   0  0.6258718E-07  0.3268821E+04  0.7818609E-02  0.8170875E-01
        2   -1    0    0  501    0  0.00000000000E+00  0.00000000000E+00  0.19786199616E+04  0.19786199616E+04  0.25500000920E-02 0.  1.
       -2   -1    0    0    0  501  0.00000000000E+00  0.00000000000E+00 -0.13500811765E+04  0.13500811765E+04  0.25500000920E-02 0. -1.
    10030    2    1    2    0    0  0.00000000000E+00  0.00000000000E+00  0.62853878514E+03  0.33287011381E+04  0.32688209285E+04 0.  0.
        5    1    3    3  502    0  0.71777090740E+03  0.13112789014E+04 -0.35861350059E+03  0.15372941051E+04  0.46999998093E+01 0. -1.
       -5    1    3    3    0  502 -0.71777090740E+03 -0.13112789014E+04  0.98715228573E+03  0.17914070330E+04  0.46999998093E+01 0.  1.
</event>
<event>
 5   0  0.6424183E-07  0.3303381E+04  0.7818609E-02  0.8162036E-01
        2   -1    0    0  501    0  0.00000000000E+00  0.00000000000E+00  0.17557905162E+04  0.17557905162E+04  0.25500000920E-02 0.  1.
       -2   -1    0    0    0  501  0.00000000000E+00  0.00000000000E+00 -0.15537622577E+04  0.15537622577E+04  0.25500000920E-02 0. -1.
    10030    2    1    2    0    0  0.00000000000E+00  0.00000000000E+00  0.20202825848E+03  0.33095527739E+04  0.33033807147E+04 0.  0.
        2    1    3    3  502    0 -0.33866296874E+03 -0.91340436707E+03  0.14373281630E+04  0.17363503081E+04  0.25500000920E-02 0.  1.
       -2    1    3    3    0  502  0.33866296874E+03  0.91340436707E+03 -0.12352999046E+04  0.15732024658E+04  0.25500000920E-02 0. -1.
</event>
<event>
 5   0  0.6377741E-07  0.3298411E+04  0.7818609E-02  0.8163300E-01
       -2   -1    0    0    0  501  0.00000000000E+00  0.00000000000E+00  0.13338473879E+04  0.13338473879E+04  0.25500000920E-02 0. -1.
        2   -1    0    0  501    0  0.00000000000E+00  0.00000000000E+00 -0.20391228408E+04  0.20391228408E+04  0.25500000920E-02 0.  1.
    10030    2    1    2    0    0  0.00000000000E+00  0.00000000000E+00 -0.70527545293E+03  0.33729702287E+04  0.32984109355E+04 0.  0.
        1    1    3    3  502    0 -0.79433697022E+02 -0.26444700861E+03  0.13100421323E+04  0.13388249777E+04  0.50400001928E-02 0. -1.
       -1    1    3    3    0  502  0.79433697022E+02  0.26444700861E+03 -0.20153175852E+04  0.20341452510E+04  0.50400001928E-02 0.  1.
</event>
<event>
 5   0  0.6426079E-07  0.3307372E+04  0.7818609E-02  0.8161022E-01
       -2   -1    0    0    0  501  0.00000000000E+00  0.00000000000E+00  0.16869059073E+04  0.16869059073E+04  0.25500000920E-02 0.  1.
        2   -1    0    0  501    0  0.00000000000E+00  0.00000000000E+00 -0.16211204159E+04  0.16211204159E+04  0.25500000920E-02 0. -1.
    10030    2    1    2    0    0  0.00000000000E+00  0.00000000000E+00  0.65785491337E+02  0.33080263232E+04  0.33073721327E+04 0.  0.
        4    1    3    3  502    0 -0.73994167597E+02 -0.10370254209E+04  0.13191405541E+04  0.16795922942E+04  0.12699999809E+01 0.  1.
       -4    1    3    3    0  502  0.73994167597E+02  0.10370254209E+04 -0.12533550628E+04  0.16284340290E+04  0.12699999809E+01 0. -1.
</event>
<event>
 5   0  0.6426079E-07  0.3304085E+04  0.7818609E-02  0.8161857E-01
        2   -1    0    0  501    0  0.00000000000E+00  0.00000000000E+00  0.16507279348E+04  0.16507279348E+04  0.25500000920E-02 0. -1.
       -2   -1    0    0    0  501  0.00000000000E+00  0.00000000000E+00 -0.16533582276E+04  0.16533582276E+04  0.25500000920E-02 0.  1.
    10030    2    1    2    0    0  0.00000000000E+00  0.00000000000E+00 -0.26302927604E+01  0.33040861624E+04  0.33040851155E+04 0.  0.
        4    1    3    3  502    0 -0.14103388038E+04  0.78396989611E+03 -0.35568605340E+03  0.16523251862E+04  0.12699999809E+01 0. -1.
       -4    1    3    3    0  502  0.14103388038E+04 -0.78396989611E+03  0.35305576064E+03  0.16517609762E+04  0.12699999809E+01 0.  1.
</event>
<event>
 5   0  0.6258718E-07  0.3309416E+04  0.7818609E-02  0.8160504E-01
       -2   -1    0    0    0  501  0.00000000000E+00  0.00000000000E+00  0.10705980571E+04  0.10705980571E+04  0.25500000920E-02 0.  1.
        2   -1    0    0  501    0  0.00000000000E+00  0.00000000000E+00 -0.25575032474E+04  0.25575032474E+04  0.25500000920E-02 0. -1.
    10030    2    1    2    0    0  0.00000000000E+00  0.00000000000E+00 -0.14869051903E+04  0.36281013045E+04  0.33094156630E+04 0.  0.
        5    1    3    3  502    0 -0.14485261326E+04  0.23704800329E+03 -0.15809659831E+04  0.21572888639E+04  0.46999998093E+01 0. -1.
       -5    1    3    3    0  502  0.14485261326E+04 -0.23704800329E+03  0.94060792741E+02  0.14708124406E+04  0.46999998093E+01 0.  1.
</event>
<event>
 5   0  0.2080770E-07  0.3300556E+04  0.7818609E-02  0.8162754E-01
       -1   -1    0    0    0  501  0.00000000000E+00  0.00000000000E+00  0.13797090740E+04  0.13797090740E+04  0.50400001928E-02 0.  1.
        1   -1    0    0  501    0  0.00000000000E+00  0.00000000000E+00 -0.19739067434E+04  0.19739067434E+04  0.50400001928E-02 0. -1.
    10030    2    1    2    0    0  0.00000000000E+00  0.00000000000E+00 -0.59419766945E+03  0.33536158174E+04  0.33005557381E+04 0.  0.
        4    1    3    3  502    0  0.47532701111E+03  0.17695636866E+03  0.12985502983E+04  0.13940888831E+04  0.12699999809E+01 0.  1.
       -4    1    3    3    0  502 -0.47532701111E+03 -0.17695636866E+03 -0.18927479677E+04  0.19595269343E+04  0.12699999809E+01 0. -1.
</event>
<event>
 5   0  0.6258718E-07  0.3299375E+04  0.7818609E-02  0.8163054E-01
        2   -1    0    0  501    0  0.00000000000E+00  0.00000000000E+00  0.15548224796E+04  0.15548224796E+04  0.25500000920E-02 0. -1.
       -2   -1    0    0    0  501  0.00000000000E+00  0.00000000000E+00 -0.17503409299E+04  0.17503409299E+04  0.25500000920E-02 0.  1.
    10030    2    1    2    0    0  0.00000000000E+00  0.00000000000E+00 -0.19551845036E+03  0.33051634095E+04  0.32993753498E+04 0.  0.
        5    1    3    3  502    0 -0.52263717315E+03  0.13375575393E+04  0.71559959176E+03  0.16044670926E+04  0.46999998093E+01 0. -1.
       -5    1    3    3    0  502  0.52263717315E+03 -0.13375575393E+04 -0.91111804212E+03  0.17006963169E+04  0.46999998093E+01 0.  1.
</event>
<event>
 5   0  0.6351753E-07  0.3301429E+04  0.7818609E-02  0.8162532E-01
       -2   -1    0    0    0  501  0.00000000000E+00  0.00000000000E+00  0.15037420493E+04  0.15037420493E+04  0.25500000920E-02 0.  1.
        2   -1    0    0  501    0  0.00000000000E+00  0.00000000000E+00 -0.18120516674E+04  0.18120516674E+04  0.25500000920E-02 0. -1.
    10030    2    1    2    0    0  0.00000000000E+00  0.00000000000E+00 -0.30830961815E+03  0.33157937167E+04  0.33014289560E+04 0.  0.
        3    1    3    3  502    0 -0.84356594693E+03  0.10910307931E+04 -0.10652438349E+04  0.17426118719E+04  0.10100000352E+00 0. -1.
       -3    1    3    3    0  502  0.84356594693E+03 -0.10910307931E+04  0.75693421673E+03  0.15731818448E+04  0.10100000352E+00 0.  1.
</event>
<event>
 5   0  0.2057130E-07  0.3295078E+04  0.7818609E-02  0.8164149E-01
        1   -1    0    0  501    0  0.00000000000E+00  0.00000000000E+00  0.17036810667E+04  0.17036810667E+04  0.50400001928E-02 0.  1.
       -1   -1    0    0    0  501  0.00000000000E+00  0.00000000000E+00 -0.15932472304E+04  0.15932472304E+04  0.50400001928E-02 0. -1.
    10030    2    1    2    0    0  0.00000000000E+00  0.00000000000E+00  0.11043383634E+03  0.32969282971E+04  0.32950782333E+04 0.  0.
        2    1    3    3  502    0  0.14947603922E+03  0.39915483383E+02 -0.15859627888E+04  0.15934912299E+04  0.25500000920E-02 0. -1.
       -2    1    3    3    0  502 -0.14947603922E+03 -0.39915483383E+02  0.16963966252E+04  0.17034370672E+04  0.25500000920E-02 0.  1.
</event>
<event>
 5   0  0.2080828E-07  0.3297837E+04  0.7818609E-02  0.8163446E-01
       -1   -1    0    0    0  501  0.00000000000E+00  0.00000000000E+00  0.12424766398E+04  0.12424766398E+04  0.50400001928E-02 0.  1.
        1   -1    0    0  501    0  0.00000000000E+00  0.00000000000E+00 -0.21883170215E+04  0.21883170215E+04  0.50400001928E-02 0. -1.
    10030    2    1    2    0    0  0.00000000000E+00  0.00000000000E+00 -0.94584038173E+03  0.34307936612E+04  0.32978373396E+04 0.  0.
        1    1    3    3  502    0 -0.75779883771E+03 -0.11949249289E+04 -0.13537112215E+04  0.19582233620E+04  0.50400001928E-02 0. -1.
       -1    1    3    3    0  502  0.75779883771E+03  0.11949249289E+04  0.40787083977E+03  0.14725702992E+04  0.50400001928E-02 0.  1.
</event>
<event>
 5   0  0.2087665E-07  0.3302082E+04  0.7818609E-02  0.8162366E-01
        1   -1    0    0  501    0  0.00000000000E+00  0.00000000000E+00  0.17702060106E+04  0.17702060106E+04  0.50400001928E-02 0.  1.
       -1   -1    0    0    0  501  0.00000000000E+00  0.00000000000E+00 -0.15398974087E+04  0.15398974087E+04  0.50400001928E-02 0. -1.
    10030    2    1    2    0    0  0.00000000000E+00  0.00000000000E+00  0.23030860185E+03  0.33101034193E+04  0.33020815548E+04 0.  0.
        5    1    3    3  502    0 -0.12203972594E+04  0.65122432977E+03  0.10187046244E+04  0.17179184499E+04  0.46999998093E+01 0.  1.
       -5    1    3    3    0  502  0.12203972594E+04 -0.65122432977E+03 -0.78839602259E+03  0.15921849695E+04  0.46999998093E+01 0. -1.
</event>
<event>
 5   0  0.2087665E-07  0.3301501E+04  0.7818609E-02  0.8162514E-01
       -1   -1    0    0    0  501  0.00000000000E+00  0.00000000000E+00  0.24292631894E+04  0.24292631894E+04  0.50400001928E-02 0.  1.
        1   -1    0    0  501    0  0.00000000000E+00  0.00000000000E+00 -0.11217297595E+04  0.11217297595E+04  0.50400001928E-02 0. -1.
    10030    2    1    2    0    0  0.00000000000E+00  0.00000000000E+00  0.13075334299E+04  0.35509929489E+04  0.33015007576E+04 0.  0.
        5    1    3    3  502    0  0.12931409184E+04 -0.82670665142E+01 -0.44976581294E+03  0.13691578272E+04  0.46999998093E+01 0. -1.
       -5    1    3    3    0  502 -0.12931409184E+04  0.82670665142E+01  0.17572992428E+04  0.21818351217E+04  0.46999998093E+01 0.  1.
</event>
<event>
 5   0  0.6377741E-07  0.3314660E+04  0.7818609E-02  0.8159175E-01
       -2   -1    0    0    0  501  0.00000000000E+00  0.00000000000E+00  0.11158900916E+04  0.11158900916E+04  0.25500000920E-02 0.  1.
        2   -1    0    0  501    0  0.00000000000E+00  0.00000000000E+00 -0.24614812503E+04  0.24614812503E+04  0.25500000920E-02 0. -1.
    10030    2    1    2    0    0  0.00000000000E+00  0.00000000000E+00 -0.13455911587E+04  0.35773713419E+04  0.33146598847E+04 0.  0.
        1    1    3    3  502    0  0.16089505559E+04  0.82877819273E+02 -0.10923920980E+04  0.19465125533E+04  0.50400001928E-02 0.  1.
       -1    1    3    3    0  502 -0.16089505559E+04 -0.82877819273E+02 -0.25319906071E+03  0.16308587887E+04  0.50400001928E-02 0. -1.
</event>
<event>
 5   0  0.6377741E-07  0.3301748E+04  0.7818609E-02  0.8162451E-01
        2   -1    0    0  501    0  0.00000000000E+00  0.00000000000E+00  0.18158153670E+04  0.18158153670E+04  0.25500000920E-02 0.  1.
       -2   -1    0    0    0  501  0.00000000000E+00  0.00000000000E+00 -0.15009156087E+04  0.15009156087E+04  0.25500000920E-02 0. -1.
    10030    2    1    2    0    0  0.00000000000E+00  0.00000000000E+00  0.31489975831E+03  0.33167309757E+04  0.33017484016E+04 0.  0.
        1    1    3    3  502    0  0.92078064922E+02 -0.13604352553E+04 -0.77743061735E+03  0.15696053066E+04  0.50400001928E-02 0. -1.
       -1    1    3    3    0  502 -0.92078064922E+02  0.13604352553E+04  0.10923303757E+04  0.17471256691E+04  0.50400001928E-02 0.  1.
</event>
<event>
 5   0  0.2080828E-07  0.3300292E+04  0.7818609E-02  0.8162821E-01
        1   -1    0    0  501    0  0.00000000000E+00  0.00000000000E+00  0.32389616942E+04  0.32389616942E+04  0.50400001928E-02 0. -1.
       -1   -1    0    0    0  501  0.00000000000E+00  0.00000000000E+00 -0.84069592125E+03  0.84069592126E+03  0.50400001928E-02 0.  1.
    10030    2    1    2    0    0  0.00000000000E+00  0.00000000000E+00  0.23982657730E+04  0.40796576155E+04  0.33002920389E+04 0.  0.
        1    1    3    3  502    0 -0.55077931294E+03  0.12919079087E+04  0.22700973074E+04  0.26694054921E+04  0.50400001928E-02 0. -1.
       -1    1    3    3    0  502  0.55077931294E+03 -0.12919079087E+04  0.12816846557E+03  0.14102521234E+04  0.50400001928E-02 0.  1.
</event>
<event>
 5   0  0.6424183E-07  0.3266317E+04  0.7818609E-02  0.8171519E-01
       -2   -1    0    0    0  501  0.00000000000E+00  0.00000000000E+00  0.15665814903E+04  0.15665814903E+04  0.25500000920E-02 0.  1.
        2   -1    0    0  501    0  0.00000000000E+00  0.00000000000E+00 -0.17025650624E+04  0.17025650624E+04  0.25500000920E-02 0. -1.
    10030    2    1    2    0    0  0.00000000000E+00  0.00000000000E+00 -0.13598357214E+03  0.32691465527E+04  0.32663171388E+04 0.  0.
        2    1    3    3  502    0 -0.21698570749E+03  0.95322876696E+03  0.12413765426E+04  0.15801087304E+04  0.25500000920E-02 0.  1.
       -2    1    3    3    0  502  0.21698570749E+03 -0.95322876696E+03 -0.13773601147E+04  0.16890378223E+04  0.25500000920E-02 0. -1.
</event>
<event>
 5   0  0.6258718E-07  0.3328959E+04  0.7818609E-02  0.8155566E-01
        2   -1    0    0  501    0  0.00000000000E+00  0.00000000000E+00  0.16490025047E+04  0.16490025048E+04  0.25500000920E-02 0.  1.
       -2   -1    0    0    0  501  0.00000000000E+00  0.00000000000E+00 -0.16801013054E+04  0.16801013054E+04  0.25500000920E-02 0. -1.
    10030    2    1    2    0    0  0.00000000000E+00  0.00000000000E+00 -0.31098800674E+02  0.33291038102E+04  0.33289585524E+04 0.  0.
        5    1    3    3  502    0  0.20945760020E+03 -0.36797890332E+03  0.15942376499E+04  0.16495140903E+04  0.46999998093E+01 0.  1.
       -5    1    3    3    0  502 -0.20945760020E+03  0.36797890332E+03 -0.16253364506E+04  0.16795897199E+04  0.46999998093E+01 0. -1.
</event>
<event>
 5   0  0.6258718E-07  0.3312828E+04  0.7818609E-02  0.8159639E-01
        2   -1    0    0  501    0  0.00000000000E+00  0.00000000000E+00  0.20394248981E+04  0.20394248981E+04  0.25500000920E-02 0. -1.
       -2   -1    0    0    0  501  0.00000000000E+00  0.00000000000E+00 -0.13453340210E+04  0.13453340210E+04  0.25500000920E-02 0.  1.
    10030    2    1    2    0    0  0.00000000000E+00  0.00000000000E+00  0.69409087716E+03  0.33847589191E+04  0.33128282169E+04 0.  0.
        5    1    3    3  502    0 -0.16223140061E+04  0.22870568239E+03  0.59621893006E+03  0.17434758748E+04  0.46999998093E+01 0. -1.
       -5    1    3    3    0  502  0.16223140061E+04 -0.22870568239E+03  0.97871947103E+02  0.16412830443E+04  0.46999998093E+01 0.  1.
</event>
<event>
 5   0  0.2080828E-07  0.3290889E+04  0.7818609E-02  0.8165217E-01
       -1   -1    0    0    0  501  0.00000000000E+00  0.00000000000E+00  0.16349384530E+04  0.16349384530E+04  0.50400001928E-02 0. -1.
        1   -1    0    0  501    0  0.00000000000E+00  0.00000000000E+00 -0.16560182919E+04  0.16560182919E+04  0.50400001928E-02 0.  1.
    10030    2    1    2    0    0  0.00000000000E+00  0.00000000000E+00 -0.21079838942E+02  0.32909567449E+04  0.32908892319E+04 0.  0.
        1    1    3    3  502    0 -0.68019708763E+03 -0.31924719906E+03  0.14533552464E+04  0.16361015630E+04  0.50400001928E-02 0. -1.
       -1    1    3    3    0  502  0.68019708763E+03  0.31924719906E+03 -0.14744350853E+04  0.16548551819E+04  0.50400001928E-02 0.  1.
</event>
<event>
 5   0  0.2080770E-07  0.3303915E+04  0.7818609E-02  0.8161900E-01
        1   -1    0    0  501    0  0.00000000000E+00  0.00000000000E+00  0.17544649465E+04  0.17544649465E+04  0.50400001928E-02 0.  1.
       -1   -1    0    0    0  501  0.00000000000E+00  0.00000000000E+00 -0.15554391817E+04  0.15554391817E+04  0.50400001928E-02 0. -1.
    10030    2    1    2    0    0  0.00000000000E+00  0.00000000000E+00  0.19902576484E+03  0.33099041282E+04  0.33039149630E+04 0.  0.
        4    1    3    3  502    0  0.89401935921E+03  0.13880499925E+04  0.44563553144E+02  0.16516479405E+04  0.12699999809E+01 0. -1.
       -4    1    3    3    0  502 -0.89401935921E+03 -0.13880499925E+04  0.15446221170E+03  0.16582561877E+04  0.12699999809E+01 0.  1.
</event>
<event>
 5   0  0.6351753E-07  0.3321638E+04  0.7818609E-02  0.8157411E-01
        2   -1    0    0  501    0  0.00000000000E+00  0.00000000000E+00  0.20597314624E+04  0.20597314624E+04  0.25500000920E-02 0.  1.
       -2   -1    0    0    0  501  0.00000000000E+00  0.00000000000E+00 -0.13391649247E+04  0.13391649247E+04  0.25500000920E-02 0. -1.
    10030    2    1    2    0    0  0.00000000000E+00  0.00000000000E+00  0.72056653763E+03  0.33988963871E+04  0.33216382276E+04 0.  0.
        3    1    3    3  502    0  0.59506760971E+03 -0.11306495531E+04 -0.72545498042E+03  0.14692715238E+04  0.10100000352E+00 0. -1.
       -3    1    3    3    0  502 -0.59506760971E+03  0.11306495531E+04  0.14460215181E+04  0.19296248632E+04  0.10100000352E+00 0.  1.
</event>
<event>
 5   0  0.6377741E-07  0.3330118E+04  0.7818609E-02  0.8155274E-01
        2   -1    0    0  501    0  0.00000000000E+00  0.00000000000E+00  0.23304735778E+04  0.23304735778E+04  0.25500000920E-02 0.  1.
       -2   -1    0    0    0  501  0.00000000000E+00  0.00000000000E+00 -0.11896388428E+04  0.11896388428E+04  0.25500000920E-02 0. -1.
    10030    2    1    2    0    0  0.00000000000E+00  0.00000000000E+00  0.11408347351E+04  0.35201124206E+04  0.33301182503E+04 0.  0.
        1    1    3    3  502    0  0.27611255969E+03 -0.15358559005E+04  0.11843555121E+04  0.19590276853E+04  0.50400001928E-02 0. -1.
       -1    1    3    3    0  502 -0.27611255969E+03  0.15358559005E+04 -0.43520777057E+02  0.15610847353E+04  0.50400001928E-02 0.  1.
</event>
<event>
 5   0  0.6258718E-07  0.3341679E+04  0.7818609E-02  0.8152370E-01
        2   -1    0    0  501    0  0.00000000000E+00  0.00000000000E+00  0.24598286346E+04  0.24598286346E+04  0.25500000920E-02 0.  1.
       -2   -1    0    0    0  501  0.00000000000E+00  0.00000000000E+00 -0.11349183047E+04  0.11349183047E+04  0.25500000920E-02 0. -1.
    10030    2    1    2    0    0  0.00000000000E+00  0.00000000000E+00  0.13249103300E+04  0.35947469393E+04  0.33416789456E+04 0.  0.
        5    1    3    3  502    0  0.66260662878E+03  0.46160029298E+03  0.22359518896E+04  0.23773147283E+04  0.46999998093E+01 0.  1.
       -5    1    3    3    0  502 -0.66260662878E+03 -0.46160029298E+03 -0.91104155963E+03  0.12174322110E+04  0.46999998093E+01 0. -1.
</event>
<event>
 5   0  0.2057130E-07  0.3279503E+04  0.7818609E-02  0.8168131E-01
        1   -1    0    0  501    0  0.00000000000E+00  0.00000000000E+00  0.19698857080E+04  0.19698857080E+04  0.50400001928E-02 0.  1.
       -1   -1    0    0    0  501  0.00000000000E+00  0.00000000000E+00 -0.13649442817E+04  0.13649442817E+04  0.50400001928E-02 0. -1.
    10030    2    1    2    0    0  0.00000000000E+00  0.00000000000E+00  0.60494142629E+03  0.33348299898E+04  0.32795025433E+04 0.  0.
        2    1    3    3  502    0 -0.85328331724E+03 -0.48772154396E+03 -0.10322352994E+04  0.14252980170E+04  0.25500000920E-02 0. -1.
       -2    1    3    3    0  502  0.85328331724E+03  0.48772154396E+03  0.16371767257E+04  0.19095319728E+04  0.25500000920E-02 0.  1.
</event>
<event>
 5   0  0.6351753E-07  0.3301401E+04  0.7818609E-02  0.8162539E-01
        2   -1    0    0  501    0  0.00000000000E+00  0.00000000000E+00  0.16429418403E+04  0.16429418403E+04  0.25500000920E-02 0.  1.
       -2   -1    0    0    0  501  0.00000000000E+00  0.00000000000E+00 -0.16584955036E+04  0.16584955036E+04  0.25500000920E-02 0. -1.
    10030    2    1    2    0    0  0.00000000000E+00  0.00000000000E+00 -0.15553663306E+02  0.33014373439E+04  0.33014007056E+04 0.  0.
        3    1    3    3  502    0  0.89561129898E+02  0.48182441753E+03 -0.15840670421E+04  0.16581448578E+04  0.10100000352E+00 0. -1.
       -3    1    3    3    0  502 -0.89561129898E+02 -0.48182441753E+03  0.15685133788E+04  0.16432924861E+04  0.10100000352E+00 0.  1.
</event>
<event>
 5   0  0.6426079E-07  0.3328506E+04  0.7818609E-02  0.8155680E-01
        2   -1    0    0  501    0  0.00000000000E+00  0.00000000000E+00  0.17881922081E+04  0.17881922081E+04  0.25500000920E-02 0. -1.
       -2   -1    0    0    0  501  0.00000000000E+00  0.00000000000E+00 -0.15489042208E+04  0.15489042208E+04  0.25500000920E-02 0.  1.
    10030    2    1    2    0    0  0.00000000000E+00  0.00000000000E+00  0.23928798731E+03  0.33370964289E+04  0.33285062468E+04 0.  0.
        4    1    3    3  502    0  0.30561421340E+03  0.16228891445E+04  0.32649568711E+03  0.16833806074E+04  0.12699999809E+01 0. -1.
       -4    1    3    3    0  502 -0.30561421340E+03 -0.16228891445E+04 -0.87207699803E+02  0.16537158215E+04  0.12699999809E+01 0.  1.
</event>
<event>
 5   0  0.1994250E-07  0.3300011E+04  0.7818609E-02  0.8162893E-01
        3   -1    0    0  501    0  0.00000000000E+00  0.00000000000E+00  0.28889526273E+04  0.28889526291E+04  0.10100000352E+00 0.  1.
       -3   -1    0    0    0  501  0.00000000000E+00  0.00000000000E+00 -0.94238935956E+03  0.94238936498E+03  0.10100000352E+00 0. -1.
    10030    2    1    2    0    0  0.00000000000E+00  0.00000000000E+00  0.19465632677E+04  0.38313419940E+04  0.33000110485E+04 0.  0.
        5    1    3    3  502    0  0.11627608718E+04 -0.42881236709E+03 -0.29142061974E+03  0.12731225231E+04  0.46999998093E+01 0. -1.
       -5    1    3    3    0  502 -0.11627608718E+04  0.42881236709E+03  0.22379838875E+04  0.25582194710E+04  0.46999998093E+01 0.  1.
</event>
<event>
 5   0  0.6351753E-07  0.3293881E+04  0.7818609E-02  0.8164454E-01
       -2   -1    0    0    0  501  0.00000000000E+00  0.00000000000E+00  0.15409031843E+04  0.15409031843E+04  0.25500000920E-02 0.  1.
        2   -1    0    0  501    0  0.00000000000E+00  0.00000000000E+00 -0.17602744221E+04  0.17602744221E+04  0.25500000920E-02 0. -1.
    10030    2    1    2    0    0  0.00000000000E+00  0.00000000000E+00 -0.21937123775E+03  0.33011776064E+04  0.32938806671E+04 0.  0.
        3    1    3    3  502    0 -0.23090084221E+03  0.99169839161E+03 -0.14070151203E+04  0.17367994869E+04  0.10100000352E+00 0. -1.
       -3    1    3    3    0  502  0.23090084221E+03 -0.99169839161E+03  0.11876438825E+04  0.15643781195E+04  0.10100000352E+00 0.  1.
</event>
<event>
 5   0  0.6426079E-07  0.3307867E+04  0.7818609E-02  0.8160897E-01
        2   -1    0    0  501    0  0.00000000000E+00  0.00000000000E+00  0.17649481264E+04  0.17649481264E+04  0.25500000920E-02 0. -1.
       -2   -1    0    0    0  501  0.00000000000E+00  0.00000000000E+00 -0.15499013003E+04  0.15499013003E+04  0.25500000920E-02 0.  1.
    10030    2    1    2    0    0  0.00000000000E+00  0.00000000000E+00  0.21504682611E+03  0.33148494267E+04  0.33078666213E+04 0.  0.
        4    1    3    3  502    0  0.75878596823E+03  0.12408524890E+04  0.89660084853E+03  0.17086151526E+04  0.12699999809E+01 0. -1.
       -4    1    3    3    0  502 -0.75878596823E+03 -0.12408524890E+04 -0.68155402242E+03  0.16062342741E+04  0.12699999809E+01 0.  1.
</event>
<event>
 5   0  0.6377741E-07  0.3313752E+04  0.7818609E-02  0.8159405E-01
        2   -1    0    0  501    0  0.00000000000E+00  0.00000000000E+00  0.21551783699E+04  0.21551783699E+04  0.25500000920E-02 0.  1.
       -2   -1    0    0    0  501  0.00000000000E+00  0.00000000000E+00 -0.12737870118E+04  0.12737870118E+04  0.25500000920E-02 0. -1.
    10030    2    1    2    0    0  0.00000000000E+00  0.00000000000E+00  0.88139135810E+03  0.34289653817E+04  0.33137520823E+04 0.  0.
        1    1    3    3  502    0 -0.12293882719E+04  0.10598504735E+04  0.78476143211E+03  0.18029223651E+04  0.50400001928E-02 0.  1.
       -1    1    3    3    0  502  0.12293882719E+04 -0.10598504735E+04  0.96629925986E+02  0.16260430166E+04  0.50400001928E-02 0. -1.
</event>
<event>
 5   0  0.2080770E-07  0.3293374E+04  0.7818609E-02  0.8164583E-01
        1   -1    0    0  501    0  0.00000000000E+00  0.00000000000E+00  0.26228481808E+04  0.26228481808E+04  0.50400001928E-02 0.  1.
       -1   -1    0    0    0  501  0.00000000000E+00  0.00000000000E+00 -0.10338295366E+04  0.10338295366E+04  0.50400001928E-02 0. -1.
    10030    2    1    2    0    0  0.00000000000E+00  0.00000000000E+00  0.15890186442E+04  0.36566777174E+04  0.32933739049E+04 0.  0.
        4    1    3    3  502    0  0.13428185697E+04  0.63526462910E+03  0.15834208605E+04  0.21711623833E+04  0.12699999809E+01 0.  1.
       -4    1    3    3    0  502 -0.13428185697E+04 -0.63526462910E+03  0.55977836367E+01  0.14855153342E+04  0.12699999809E+01 0. -1.
</event>
<event>
 5   0  0.6351753E-07  0.3301611E+04  0.7818609E-02  0.8162485E-01
        2   -1    0    0  501    0  0.00000000000E+00  0.00000000000E+00  0.22809177268E+04  0.22809177268E+04  0.25500000920E-02 0.  1.
       -2   -1    0    0    0  501  0.00000000000E+00  0.00000000000E+00 -0.11947644999E+04  0.11947644999E+04  0.25500000920E-02 0. -1.
    10030    2    1    2    0    0  0.00000000000E+00  0.00000000000E+00  0.10861532270E+04  0.34756822267E+04  0.33016114412E+04 0.  0.
        3    1    3    3  502    0 -0.14333165008E+04 -0.74536015636E+02 -0.31552705279E+03  0.14695268424E+04  0.10100000352E+00 0. -1.
       -3    1    3    3    0  502  0.14333165008E+04  0.74536015636E+02  0.14016802798E+04  0.20061553843E+04  0.10100000352E+00 0.  1.
</event>
<event>
 5   0  0.6258718E-07  0.3267038E+04  0.7818609E-02  0.8171334E-01
        2   -1    0    0  501    0  0.00000000000E+00  0.00000000000E+00  0.24521266606E+04  0.24521266606E+04  0.25500000920E-02 0.  1.
       -2   -1    0    0    0  501  0.00000000000E+00  0.00000000000E+00 -0.10881918370E+04  0.10881918370E+04  0.25500000920E-02 0. -1.
    10030    2    1    2    0    0  0.00000000000E+00  0.00000000000E+00  0.13639348236E+04  0.35403184975E+04  0.32670379338E+04 0.  0.
        5    1    3    3  502    0  0.10779927579E+04  0.35296541198E+03  0.19557534226E+04  0.22608950679E+04  0.46999998093E+01 0.  1.
       -5    1    3    3    0  502 -0.10779927579E+04 -0.35296541198E+03 -0.59181859903E+03  0.12794234296E+04  0.46999998093E+01 0. -1.
</event>
<event>
 5   0  0.2037333E-07  0.3302146E+04  0.7818609E-02  0.8162350E-01
       -1   -1    0    0    0  501  0.00000000000E+00  0.00000000000E+00  0.17615257546E+04  0.17615257546E+04  0.50400001928E-02 0.  1.
        1   -1    0    0  501    0  0.00000000000E+00  0.00000000000E+00 -0.15475455453E+04  0.15475455453E+04  0.50400001928E-02 0. -1.
    10030    2    1    2    0    0  0.00000000000E+00  0.00000000000E+00  0.21398020931E+03  0.33090712998E+04  0.33021455658E+04 0.  0.
        3    1    3    3  502    0 -0.13776623189E+03 -0.13579474200E+04  0.10379383179E+04  0.17147351668E+04  0.10100000352E+00 0. -1.
       -3    1    3    3    0  502  0.13776623189E+03  0.13579474200E+04 -0.82395810858E+03  0.15943361331E+04  0.10100000352E+00 0.  1.
</event>
<event>
 5   0  0.2080770E-07  0.3296533E+04  0.7818609E-02  0.8163778E-01
       -1   -1    0    0    0  501  0.00000000000E+00  0.00000000000E+00  0.12505206628E+04  0.12505206628E+04  0.50400001928E-02 0. -1.
        1   -1    0    0  501    0  0.00000000000E+00  0.00000000000E+00 -0.21725210207E+04  0.21725210207E+04  0.50400001928E-02 0.  1.
    10030    2    1    2    0    0  0.00000000000E+00  0.00000000000E+00 -0.92200035788E+03  0.34230416834E+04  0.32965329828E+04 0.  0.
        4    1    3    3  502    0  0.25245138601E+03  0.21111571259E+03 -0.21380596243E+04  0.21632388025E+04  0.12699999809E+01 0.  1.
       -4    1    3    3    0  502 -0.25245138601E+03 -0.21111571259E+03  0.12160592665E+04  0.12598028810E+04  0.12699999809E+01 0. -1.
</event>
<event>
 5   0  0.6426079E-07  0.3434529E+04  0.7818609E-02  0.8129484E-01
       -2   -1    0    0    0  501  0.00000000000E+00  0.00000000000E+00  0.16520819882E+04  0.16520819882E+04  0.25500000920E-02 0. -1.
        2   -1    0    0  501    0  0.00000000000E+00  0.00000000000E+00 -0.17850182637E+04  0.17850182637E+04  0.25500000920E-02 0.  1.
    10030    2    1    2    0    0  0.00000000000E+00  0.00000000000E+00 -0.13293627543E+03  0.34371002519E+04  0.34345285103E+04 0.  0.
        4    1    3    3  502    0 -0.36368335937E+03  0.59682649192E+03  0.15033132737E+04  0.16578358963E+04  0.12699999809E+01 0. -1.
       -4    1    3    3    0  502  0.36368335937E+03 -0.59682649192E+03 -0.16362495491E+04  0.17792643556E+04  0.12699999809E+01 0.  1.
</event>
<event>
 5   0  0.2037333E-07  0.3305415E+04  0.7818609E-02  0.8161519E-01
       -1   -1    0    0    0  501  0.00000000000E+00  0.00000000000E+00  0.20352898439E+04  0.20352898439E+04  0.50400001928E-02 0. -1.
        1   -1    0    0  501    0  0.00000000000E+00  0.00000000000E+00 -0.13420407920E+04  0.13420407920E+04  0.50400001928E-02 0.  1.
    10030    2    1    2    0    0  0.00000000000E+00  0.00000000000E+00  0.69324905191E+03  0.33773306359E+04  0.33054149477E+04 0.  0.
        3    1    3    3  502    0 -0.57308467477E+03  0.15227569412E+04  0.50090952618E+02  0.16277972417E+04  0.10100000352E+00 0.  1.
       -3    1    3    3    0  502  0.57308467477E+03 -0.15227569412E+04  0.64315809929E+03  0.17495333942E+04  0.10100000352E+00 0. -1.
</event>
<event>
 5   0  0.6258718E-07  0.3291676E+04  0.7818609E-02  0.8165017E-01
        2   -1    0    0  501    0  0.00000000000E+00  0.00000000000E+00  0.21876496250E+04  0.21876496250E+04  0.25500000920E-02 0.  1.
       -2   -1    0    0    0  501  0.00000000000E+00  0.00000000000E+00 -0.12382156424E+04  0.12382156424E+04  0.25500000920E-02 0. -1.
    10030    2    1    2    0    0  0.00000000000E+00  0.00000000000E+00  0.94943398261E+03  0.34258652674E+04  0.32916755525E+04 0.  0.
        5    1    3    3  502    0  0.97038898759E+03 -0.83752353310E+03 -0.59967428977E+03  0.14151790698E+04  0.46999998093E+01 0. -1.
       -5    1    3    3    0  502 -0.97038898759E+03  0.83752353310E+03  0.15491082724E+04  0.20106861976E+04  0.46999998093E+01 0.  1.
</event>
<event>
 5   0  0.6424183E-07  0.3304921E+04  0.7818609E-02  0.8161644E-01
        2   -1    0    0  501    0  0.00000000000E+00  0.00000000000E+00  0.18185091115E+04  0.18185091115E+04  0.25500000920E-02 0. -1.
       -2   -1    0    0    0  501  0.00000000000E+00  0.00000000000E+00 -0.15015737788E+04  0.15015737788E+04  0.25500000920E-02 0.  1.
    10030    2    1    2    0    0  0.00000000000E+00  0.00000000000E+00  0.31693533277E+03  0.33200828903E+04  0.33049209360E+04 0.  0.
        2    1    3    3  502    0 -0.12359065188E+04 -0.76114655072E+03  0.95191173356E+03  0.17357836684E+04  0.25500000920E-02 0. -1.
       -2    1    3    3    0  502  0.12359065188E+04  0.76114655072E+03 -0.63497640079E+03  0.15842992219E+04  0.25500000920E-02 0.  1.
</event>
<event>
 5   0  0.6258718E-07  0.3295160E+04  0.7818609E-02  0.8164128E-01
        2   -1    0    0  501    0  0.00000000000E+00  0.00000000000E+00  0.28207140767E+04  0.28207140767E+04  0.25500000920E-02 0. -1.
       -2   -1    0    0    0  501  0.00000000000E+00  0.00000000000E+00 -0.96235189468E+03  0.96235189469E+03  0.25500000920E-02 0.  1.
    10030    2    1    2    0    0  0.00000000000E+00  0.00000000000E+00  0.18583621820E+04  0.37830659714E+04  0.32951598056E+04 0.  0.
        5    1    3    3  502    0  0.97100229740E+03  0.12263401285E+04  0.33512755874E+03  0.15997150193E+04  0.46999998093E+01 0.  1.
       -5    1    3    3    0  502 -0.97100229740E+03 -0.12263401285E+04  0.15232346233E+04  0.21833509521E+04  0.46999998093E+01 0. -1.
</event>
<event>
 5   0  0.2087665E-07  0.3289663E+04  0.7818609E-02  0.8165531E-01
        1   -1    0    0  501    0  0.00000000000E+00  0.00000000000E+00  0.24109822305E+04  0.24109822305E+04  0.50400001928E-02 0.  1.
       -1   -1    0    0    0  501  0.00000000000E+00  0.00000000000E+00 -0.11221447586E+04  0.11221447586E+04  0.50400001928E-02 0. -1.
    10030    2    1    2    0    0  0.00000000000E+00  0.00000000000E+00  0.12888374719E+04  0.35331269892E+04  0.32896632491E+04 0.  0.
        5    1    3    3  502    0  0.20626082118E+02 -0.32568504505E+03 -0.10870194855E+04  0.11349579885E+04  0.46999998093E+01 0. -1.
       -5    1    3    3    0  502 -0.20626082118E+02  0.32568504505E+03  0.23758569574E+04  0.23981690007E+04  0.46999998093E+01 0.  1.
</event>
<event>
 5   0  0.2080770E-07  0.3278310E+04  0.7818609E-02  0.8168436E-01
       -1   -1    0    0    0  501  0.00000000000E+00  0.00000000000E+00  0.18118944732E+04  0.18118944732E+04  0.50400001928E-02 0. -1.
        1   -1    0    0  501    0  0.00000000000E+00  0.00000000000E+00 -0.14828838105E+04  0.14828838105E+04  0.50400001928E-02 0.  1.
    10030    2    1    2    0    0  0.00000000000E+00  0.00000000000E+00  0.32901066262E+03  0.32947782837E+04  0.32783099186E+04 0.  0.
        4    1    3    3  502    0 -0.50465915039E+03  0.33250685202E+03  0.16958344733E+04  0.18003049293E+04  0.12699999809E+01 0. -1.
       -4    1    3    3    0  502  0.50465915039E+03 -0.33250685202E+03 -0.13668238107E+04  0.14944733544E+04  0.12699999809E+01 0.  1.
</event>
<event>
 5   0  0.6351753E-07  0.3265454E+04  0.7818609E-02  0.8171742E-01
        2   -1    0    0  501    0  0.00000000000E+00  0.00000000000E+00  0.22382360804E+04  0.22382360804E+04  0.25500000920E-02 0. -1.
       -2   -1    0    0    0  501  0.00000000000E+00  0.00000000000E+00 -0.11910259019E+04  0.11910259019E+04  0.25500000920E-02 0.  1.
    10030    2    1    2    0    0  0.00000000000E+00  0.00000000000E+00  0.10472101786E+04  0.34292619823E+04  0.32654538100E+04 0.  0.
        3    1    3    3  502    0 -0.31668665511E+03 -0.94215013388E+03 -0.83669572266E+03  0.12992294081E+04  0.10100000352E+00 0.  1.
       -3    1    3    3    0  502  0.31668665511E+03  0.94215013388E+03  0.18839059012E+04  0.21300325742E+04  0.10100000352E+00 0. -1.
</event>
<event>
 5   0  0.2057130E-07  0.3296434E+04  0.7818609E-02  0.8163803E-01
        1   -1    0    0  501    0  0.00000000000E+00  0.00000000000E+00  0.18172753560E+04  0.18172753560E+04  0.50400001928E-02 0. -1.
       -1   -1    0    0    0  501  0.00000000000E+00  0.00000000000E+00 -0.14948854814E+04  0.14948854814E+04  0.50400001928E-02 0.  1.
    10030    2    1    2    0    0  0.00000000000E+00  0.00000000000E+00  0.32238987455E+03  0.33121608374E+04  0.32964335549E+04 0.  0.
        2    1    3    3  502    0 -0.66329011173E+03 -0.29657541548E+03  0.16476814874E+04  0.18007679010E+04  0.25500000920E-02 0. -1.
       -2    1    3    3    0  502  0.66329011173E+03  0.29657541548E+03 -0.13252916128E+04  0.15113929365E+04  0.25500000920E-02 0.  1.
</event>
<event>
 5   0  0.6426079E-07  0.3305196E+04  0.7818609E-02  0.8161574E-01
       -2   -1    0    0    0  501  0.00000000000E+00  0.00000000000E+00  0.15418822214E+04  0.15418822214E+04  0.25500000920E-02 0.  1.
        2   -1    0    0  501    0  0.00000000000E+00  0.00000000000E+00 -0.17712640010E+04  0.17712640010E+04  0.25500000920E-02 0. -1.
    10030    2    1    2    0    0  0.00000000000E+00  0.00000000000E+00 -0.22938177958E+03  0.33131462223E+04  0.33051961954E+04 0.  0.
        4    1    3    3  502    0  0.33063954982E+03  0.12000929568E+04  0.97490719665E+03  0.15811360700E+04  0.12699999809E+01 0.  1.
       -4    1    3    3    0  502 -0.33063954982E+03 -0.12000929568E+04 -0.12042889762E+04  0.17320101524E+04  0.12699999809E+01 0. -1.
</event>
<event>
 5   0  0.2080770E-07  0.3293733E+04  0.7818609E-02  0.8164492E-01
        1   -1    0    0  501    0  0.00000000000E+00  0.00000000000E+00  0.17652746655E+04  0.17652746655E+04  0.50400001928E-02 0.  1.
       -1   -1    0    0    0  501  0.00000000000E+00  0.00000000000E+00 -0.15364010711E+04  0.15364010711E+04  0.50400001928E-02 0. -1.
    10030    2    1    2    0    0  0.00000000000E+00  0.00000000000E+00  0.22887359433E+03  0.33016757366E+04  0.32937333753E+04 0.  0.
        4    1    3    3  502    0 -0.11440949932E+04  0.52985913173E+03 -0.94758206698E+03  0.15772182599E+04  0.12699999809E+01 0. -1.
       -4    1    3    3    0  502  0.11440949932E+04 -0.52985913173E+03  0.11764556613E+04  0.17244574767E+04  0.12699999809E+01 0.  1.
</event>
<event>
 5   0  0.2080828E-07  0.3310933E+04  0.7818609E-02  0.8160119E-01
       -1   -1    0    0    0  501  0.00000000000E+00  0.00000000000E+00  0.22983758976E+04  0.22983758976E+04  0.50400001928E-02 0. -1.
        1   -1    0    0  501    0  0.00000000000E+00  0.00000000000E+00 -0.11923937510E+04  0.11923937510E+04  0.50400001928E-02 0.  1.
    10030    2    1    2    0    0  0.00000000000E+00  0.00000000000E+00  0.11059821466E+04  0.34907696486E+04  0.33109328340E+04 0.  0.
        1    1    3    3  502    0 -0.10944119762E+02  0.13737604112E+03 -0.11863355401E+04  0.11943131767E+04  0.50400001928E-02 0.  1.
       -1    1    3    3    0  502  0.10944119762E+02 -0.13737604112E+03  0.22923176867E+04  0.22964564718E+04  0.50400001928E-02 0. -1.
</event>
<event>
 5   0  0.2087665E-07  0.3371639E+04  0.7818609E-02  0.8144902E-01
        1   -1    0    0  501    0  0.00000000000E+00  0.00000000000E+00  0.28234462141E+04  0.28234462141E+04  0.50400001928E-02 0. -1.
       -1   -1    0    0    0  501  0.00000000000E+00  0.00000000000E+00 -0.10065669059E+04  0.10065669059E+04  0.50400001928E-02 0.  1.
    10030    2    1    2    0    0  0.00000000000E+00  0.00000000000E+00  0.18168793082E+04  0.38300131200E+04  0.33716390790E+04 0.  0.
        5    1    3    3  502    0 -0.37168452830E+03  0.12425937951E+04 -0.31489808282E+03  0.13346803440E+04  0.46999998093E+01 0.  1.
       -5    1    3    3    0  502  0.37168452830E+03 -0.12425937951E+04  0.21317773910E+04  0.24953327760E+04  0.46999998093E+01 0. -1.
</event>
<event>
 5   0  0.2037333E-07  0.3300806E+04  0.7818609E-02  0.8162690E-01
       -1   -1    0    0    0  501  0.00000000000E+00  0.00000000000E+00  0.27312530555E+04  0.27312530555E+04  0.50400001928E-02 0.  1.
        1   -1    0    0  501    0  0.00000000000E+00  0.00000000000E+00 -0.99728228060E+03  0.99728228061E+03  0.50400001928E-02 0. -1.
    10030    2    1    2    0    0  0.00000000000E+00  0.00000000000E+00  0.17339707749E+04  0.37285353361E+04  0.33008061295E+04 0.  0.
        3    1    3    3  502    0 -0.10795062666E+04 -0.11721305148E+03 -0.53695418221E+03  0.12113597661E+04  0.10100000352E+00 0. -1.
       -3    1    3    3    0  502  0.10795062666E+04  0.11721305148E+03  0.22709249571E+04  0.25171755699E+04  0.10100000352E+00 0.  1.
</event>
<event>
 5   0  0.6424183E-07  0.3342761E+04  0.7818609E-02  0.8152099E-01
       -2   -1    0    0    0  501  0.00000000000E+00  0.00000000000E+00  0.20315552747E+04  0.20315552747E+04  0.25500000920E-02 0.  1.
        2   -1    0    0  501    0  0.00000000000E+00  0.00000000000E+00 -0.13750609294E+04  0.13750609294E+04  0.25500000920E-02 0. -1.
    10030    2    1    2    0    0  0.00000000000E+00  0.00000000000E+00  0.65649434527E+03  0.34066162040E+04  0.33427607058E+04 0.  0.
        2    1    3    3  502    0  0.11795907369E+04 -0.10763620512E+04  0.83115414357E+03  0.18002240922E+04  0.25500000920E-02 0.  1.
       -2    1    3    3    0  502 -0.11795907369E+04  0.10763620512E+04 -0.17465979830E+03  0.16063921118E+04  0.25500000920E-02 0. -1.
</event>
<event>
 5   0  0.2080770E-07  0.3303855E+04  0.7818609E-02  0.8161915E-01
       -1   -1    0    0    0  501  0.00000000000E+00  0.00000000000E+00  0.17562274132E+04  0.17562274132E+04  0.50400001928E-02 0.  1.
        1   -1    0    0  501    0  0.00000000000E+00  0.00000000000E+00 -0.15538221722E+04  0.15538221722E+04  0.50400001928E-02 0. -1.
    10030    2    1    2    0    0  0.00000000000E+00  0.00000000000E+00  0.20240524093E+03  0.33100495854E+04  0.33038553807E+04 0.  0.
        4    1    3    3  502    0 -0.13811397208E+04  0.41214027353E+03 -0.70743944778E+03  0.16055773786E+04  0.12699999809E+01 0.  1.
       -4    1    3    3    0  502  0.13811397208E+04 -0.41214027353E+03  0.90984468871E+03  0.17044722068E+04  0.12699999809E+01 0. -1.
</event>
<event>
 5   0  0.6258718E-07  0.3306742E+04  0.7818609E-02  0.8161182E-01
        2   -1    0    0  501    0  0.00000000000E+00  0.00000000000E+00  0.21300875661E+04  0.21300875661E+04  0.25500000920E-02 0.  1.
       -2   -1    0    0    0  501  0.00000000000E+00  0.00000000000E+00 -0.12833440644E+04  0.12833440644E+04  0.25500000920E-02 0. -1.
    10030    2    1    2    0    0  0.00000000000E+00  0.00000000000E+00  0.84674350172E+03  0.34134316306E+04  0.33067417406E+04 0.  0.
        5    1    3    3  502    0  0.12722030026E+04 -0.10463926660E+04  0.27675004135E+03  0.16703445054E+04  0.46999998093E+01 0. -1.
       -5    1    3    3    0  502 -0.12722030026E+04  0.10463926660E+04  0.56999346037E+03  0.17430871252E+04  0.46999998093E+01 0.  1.
</event>
<event>
 5   0  0.6426079E-07  0.3294699E+04  0.7818609E-02  0.8164245E-01
       -2   -1    0    0    0  501  0.00000000000E+00  0.00000000000E+00  0.11124438323E+04  0.11124438323E+04  0.25500000920E-02 0.  1.
        2   -1    0    0  501    0  0.00000000000E+00  0.00000000000E+00 -0.24394585725E+04  0.24394585725E+04  0.25500000920E-02 0. -1.
    10030    2    1    2    0    0  0.00000000000E+00  0.00000000000E+00 -0.13270147402E+04  0.35519024048E+04  0.32946991627E+04 0.  0.
        4    1    3    3  502    0  0.11858369819E+04 -0.86695697989E+03  0.14030997902E+03  0.14756396090E+04  0.12699999809E+01 0.  1.
       -4    1    3    3    0  502 -0.11858369819E+04  0.86695697989E+03 -0.14673247192E+04  0.20762627958E+04  0.12699999809E+01 0. -1.
</event>
<event>
 5   0  0.2037333E-07  0.3315075E+04  0.7818609E-02  0.8159070E-01
       -1   -1    0    0    0  501  0.00000000000E+00  0.00000000000E+00  0.10403559943E+04  0.10403559943E+04  0.50400001928E-02 0. -1.
        1   -1    0    0  501    0  0.00000000000E+00  0.00000000000E+00 -0.26408568561E+04  0.26408568561E+04  0.50400001928E-02 0.  1.
    10030    2    1    2    0    0  0.00000000000E+00  0.00000000000E+00 -0.16005008618E+04  0.36812128504E+04  0.33150754202E+04 0.  0.
        3    1    3    3  502    0 -0.73807063197E+03  0.14777671166E+04 -0.64764045210E+03  0.17742553576E+04  0.10100000352E+00 0.  1.
       -3    1    3    3    0  502  0.73807063197E+03 -0.14777671166E+04 -0.95286040968E+03  0.19069574928E+04  0.10100000352E+00 0. -1.
</event>
<event>
 5   0  0.6258718E-07  0.3300984E+04  0.7818609E-02  0.8162645E-01
       -2   -1    0    0    0  501  0.00000000000E+00  0.00000000000E+00  0.13644562928E+04  0.13644562928E+04  0.25500000920E-02 0. -1.
        2   -1    0    0  501    0  0.00000000000E+00  0.00000000000E+00 -0.19964900207E+04  0.19964900207E+04  0.25500000920E-02 0.  1.
    10030    2    1    2    0    0  0.00000000000E+00  0.00000000000E+00 -0.63203372794E+03  0.33609463135E+04  0.33009837153E+04 0.  0.
        5    1    3    3  502    0  0.10133698676E+04  0.66488125408E+03 -0.14566870134E+04  0.18949788167E+04  0.46999998093E+01 0.  1.
       -5    1    3    3    0  502 -0.10133698676E+04 -0.66488125408E+03  0.82465328543E+03  0.14659674968E+04  0.46999998093E+01 0. -1.
</event>
<event>
 5   0  0.6377741E-07  0.3295585E+04  0.7818609E-02  0.8164020E-01
        2   -1    0    0  501    0  0.00000000000E+00  0.00000000000E+00  0.18665304386E+04  0.18665304386E+04  0.25500000920E-02 0.  1.
       -2   -1    0    0    0  501  0.00000000000E+00  0.00000000000E+00 -0.14546886651E+04  0.14546886651E+04  0.25500000920E-02 0. -1.
    10030    2    1    2    0    0  0.00000000000E+00  0.00000000000E+00  0.41184177350E+03  0.33212191038E+04  0.32955853333E+04 0.  0.
        1    1    3    3  502    0 -0.64073704516E+03  0.76011082348E+03  0.15302611952E+04  0.18248319787E+04  0.50400001928E-02 0.  1.
       -1    1    3    3    0  502  0.64073704516E+03 -0.76011082348E+03 -0.11184194217E+04  0.14963871250E+04  0.50400001928E-02 0. -1.
</event>
<event>
 5   0  0.6351753E-07  0.3303614E+04  0.7818609E-02  0.8161976E-01
        2   -1    0    0  501    0  0.00000000000E+00  0.00000000000E+00  0.19451831952E+04  0.19451831952E+04  0.25500000920E-02 0. -1.
       -2   -1    0    0    0  501  0.00000000000E+00  0.00000000000E+00 -0.14026781125E+04  0.14026781125E+04  0.25500000920E-02 0.  1.
    10030    2    1    2    0    0  0.00000000000E+00  0.00000000000E+00  0.54250508269E+03  0.33478613078E+04  0.33036137140E+04 0.  0.
        3    1    3    3  502    0  0.20356547313E+03 -0.26651182303E+03 -0.13678153294E+04  0.14083274616E+04  0.10100000352E+00 0.  1.
       -3    1    3    3    0  502 -0.20356547313E+03  0.26651182303E+03  0.19103204120E+04  0.19395338462E+04  0.10100000352E+00 0. -1.
</event>
<event>
 5   0  0.2080828E-07  0.3293662E+04  0.7818609E-02  0.8164510E-01
        1   -1    0    0  501    0  0.00000000000E+00  0.00000000000E+00  0.14539378627E+04  0.14539378628E+04  0.50400001928E-02 0. -1.
       -1   -1    0    0    0  501  0.00000000000E+00  0.00000000000E+00 -0.18653154185E+04  0.18653154185E+04  0.50400001928E-02 0.  1.
    10030    2    1    2    0    0  0.00000000000E+00  0.00000000000E+00 -0.41137755574E+03  0.33192532812E+04  0.32936622249E+04 0.  0.
        1    1    3    3  502    0  0.15828624724E+04 -0.44823887526E+03 -0.28164692776E+03  0.16690406489E+04  0.50400001928E-02 0. -1.
       -1    1    3    3    0  502 -0.15828624724E+04  0.44823887526E+03 -0.12973062799E+03  0.16502126323E+04  0.50400001928E-02 0.  1.
</event>
<event>
 5   0  0.2057130E-07  0.3291528E+04  0.7818609E-02  0.8165054E-01
        1   -1    0    0  501    0  0.00000000000E+00  0.00000000000E+00  0.20848885124E+04  0.20848885124E+04  0.50400001928E-02 0.  1.
       -1   -1    0    0    0  501  0.00000000000E+00  0.00000000000E+00 -0.12991291796E+04  0.12991291796E+04  0.50400001928E-02 0. -1.
    10030    2    1    2    0    0  0.00000000000E+00  0.00000000000E+00  0.78575933277E+03  0.33840176920E+04  0.32915282181E+04 0.  0.
        2    1    3    3  502    0  0.68765270283E+02  0.15921092702E+04 -0.29766560827E+02  0.15938715880E+04  0.25500000920E-02 0.  1.
       -2    1    3    3    0  502 -0.68765270283E+02 -0.15921092702E+04  0.81552589359E+03  0.17901461041E+04  0.25500000920E-02 0. -1.
</event>
<event>
 5   0  0.6377741E-07  0.3285651E+04  0.7818609E-02  0.8166556E-01
        2   -1    0    0  501    0  0.00000000000E+00  0.00000000000E+00  0.30734008175E+04  0.30734008175E+04  0.25500000920E-02 0.  1.
       -2   -1    0    0    0  501  0.00000000000E+00  0.00000000000E+00 -0.87814001336E+03  0.87814001336E+03  0.25500000920E-02 0. -1.
    10030    2    1    2    0    0  0.00000000000E+00  0.00000000000E+00  0.21952608041E+04  0.39515408308E+04  0.32856513722E+04 0.  0.
        1    1    3    3  502    0 -0.19612057244E+03 -0.29619382661E+03 -0.83139551321E+03  0.90410871098E+03  0.50400001928E-02 0. -1.
       -1    1    3    3    0  502  0.19612057244E+03  0.29619382661E+03  0.30266563173E+04  0.30474321198E+04  0.50400001928E-02 0.  1.
</event>
<event>
 5   0  0.6351753E-07  0.3293595E+04  0.7818609E-02  0.8164527E-01
       -2   -1    0    0    0  501  0.00000000000E+00  0.00000000000E+00  0.13118631306E+04  0.13118631306E+04  0.25500000920E-02 0.  1.
        2   -1    0    0  501    0  0.00000000000E+00  0.00000000000E+00 -0.20672445743E+04  0.20672445743E+04  0.25500000920E-02 0. -1.
    10030    2    1    2    0    0  0.00000000000E+00  0.00000000000E+00 -0.75538144373E+03  0.33791077049E+04  0.32935949593E+04 0.  0.
        3    1    3    3  502    0 -0.12756503082E+04 -0.10016502762E+04 -0.85057370524E+02  0.16241372328E+04  0.10100000352E+00 0.  1.
       -3    1    3    3    0  502  0.12756503082E+04  0.10016502762E+04 -0.67032407320E+03  0.17549704721E+04  0.10100000352E+00 0. -1.
</event>
<event>
 5   0  0.2087665E-07  0.3300123E+04  0.7818609E-02  0.8162864E-01
        1   -1    0    0  501    0  0.00000000000E+00  0.00000000000E+00  0.17011850047E+04  0.17011850047E+04  0.50400001928E-02 0.  1.
       -1   -1    0    0    0  501  0.00000000000E+00  0.00000000000E+00 -0.16004738677E+04  0.16004738678E+04  0.50400001928E-02 0. -1.
    10030    2    1    2    0    0  0.00000000000E+00  0.00000000000E+00  0.10071113693E+03  0.33016588724E+04  0.33001225094E+04 0.  0.
        5    1    3    3  502    0 -0.10896898269E+04 -0.63672004125E+03 -0.10130803537E+04  0.16183912453E+04  0.46999998093E+01 0. -1.
       -5    1    3    3    0  502  0.10896898269E+04  0.63672004125E+03  0.11137914907E+04  0.16832676271E+04  0.46999998093E+01 0.  1.
</event>
<event>
 5   0  0.6351753E-07  0.3289101E+04  0.7818609E-02  0.8165674E-01
        2   -1    0    0  501    0  0.00000000000E+00  0.00000000000E+00  0.24032749621E+04  0.24032749621E+04  0.25500000920E-02 0. -1.
       -2   -1    0    0    0  501  0.00000000000E+00  0.00000000000E+00 -0.11253583967E+04  0.11253583967E+04  0.25500000920E-02 0.  1.
    10030    2    1    2    0    0  0.00000000000E+00  0.00000000000E+00  0.12779165655E+04  0.35286333588E+04  0.32891005811E+04 0.  0.
        3    1    3    3  502    0  0.15880438600E+04 -0.10872193658E+02  0.10973252705E+04  0.19303171411E+04  0.10100000352E+00 0. -1.
       -3    1    3    3    0  502 -0.15880438600E+04  0.10872193658E+02  0.18059129501E+03  0.15983162177E+04  0.10100000352E+00 0.  1.
</event>
<event>
 5   0  0.2080770E-07  0.3274663E+04  0.7818609E-02  0.8169372E-01
        1   -1    0    0  501    0  0.00000000000E+00  0.00000000000E+00  0.19825007063E+04  0.19825007063E+04  0.50400001928E-02 0.  1.
       -1   -1    0    0    0  501  0.00000000000E+00  0.00000000000E+00 -0.13522590833E+04  0.13522590833E+04  0.50400001928E-02 0. -1.
    10030    2    1    2    0    0  0.00000000000E+00  0.00000000000E+00  0.63024162305E+03  0.33347597896E+04  0.32746630897E+04 0.  0.
        4    1    3    3  502    0 -0.14963104969E+03 -0.47652441455E+03 -0.12727862004E+04  0.13672787914E+04  0.12699999809E+01 0. -1.
       -4    1    3    3    0  502  0.14963104969E+03  0.47652441455E+03  0.19030278234E+04  0.19674809982E+04  0.12699999809E+01 0.  1.
</event>
<event>
 5   0  0.2080770E-07  0.3292983E+04  0.7818609E-02  0.8164683E-01
        1   -1    0    0  501    0  0.00000000000E+00  0.00000000000E+00  0.14667228863E+04  0.14667228863E+04  0.50400001928E-02 0. -1.
       -1   -1    0    0    0  501  0.00000000000E+00  0.00000000000E+00 -0.18482935256E+04  0.18482935256E+04  0.50400001928E-02 0.  1.
    10030    2    1    2    0    0  0.00000000000E+00  0.00000000000E+00 -0.38157063926E+03  0.33150164119E+04  0.32929830941E+04 0.  0.
        4    1    3    3  502    0  0.11431574636E+04 -0.11772625349E+04 -0.32650854357E+03  0.16731304506E+04  0.12699999809E+01 0.  1.
       -4    1    3    3    0  502 -0.11431574636E+04  0.11772625349E+04 -0.55062095690E+02  0.16418859613E+04  0.12699999809E+01 0. -1.
</event>
<event>
 5   0  0.6351753E-07  0.3305817E+04  0.7818609E-02  0.8161417E-01
        2   -1    0    0  501    0  0.00000000000E+00  0.00000000000E+00  0.14120050792E+04  0.14120050792E+04  0.25500000920E-02 0. -1.
       -2   -1    0    0    0  501  0.00000000000E+00  0.00000000000E+00 -0.19349121746E+04  0.19349121746E+04  0.25500000920E-02 0.  1.
    10030    2    1    2    0    0  0.00000000000E+00  0.00000000000E+00 -0.52290709537E+03  0.33469172537E+04  0.33058165819E+04 0.  0.
        3    1    3    3  502    0  0.11056300706E+04 -0.55116589341E+03  0.85033605906E+03  0.14997576866E+04  0.10100000352E+00 0. -1.
       -3    1    3    3    0  502 -0.11056300706E+04  0.55116589341E+03 -0.13732431544E+04  0.18471595671E+04  0.10100000352E+00 0.  1.
</event>
<event>
 5   0  0.2087665E-07  0.3304244E+04  0.7818609E-02  0.8161816E-01
       -1   -1    0    0    0  501  0.00000000000E+00  0.00000000000E+00  0.12422443954E+04  0.12422443954E+04  0.50400001928E-02 0.  1.
        1   -1    0    0  501    0  0.00000000000E+00  0.00000000000E+00 -0.21972390726E+04  0.21972390726E+04  0.50400001928E-02 0. -1.
    10030    2    1    2    0    0  0.00000000000E+00  0.00000000000E+00 -0.95499467715E+03  0.34394834680E+04  0.33042444966E+04 0.  0.
        5    1    3    3  502    0 -0.12385182094E+04  0.49696907841E+03 -0.14913108658E+04  0.20012335717E+04  0.46999998093E+01 0. -1.
       -5    1    3    3    0  502  0.12385182094E+04 -0.49696907841E+03  0.53631618866E+03  0.14382498963E+04  0.46999998093E+01 0.  1.
</event>
<event>
 5   0  0.2080828E-07  0.3246820E+04  0.7818609E-02  0.8176560E-01
       -1   -1    0    0    0  501  0.00000000000E+00  0.00000000000E+00  0.13906883218E+04  0.13906883218E+04  0.50400001928E-02 0. -1.
        1   -1    0    0  501    0  0.00000000000E+00  0.00000000000E+00 -0.18950764798E+04  0.18950764798E+04  0.50400001928E-02 0.  1.
    10030    2    1    2    0    0  0.00000000000E+00  0.00000000000E+00 -0.50438815794E+03  0.32857648016E+04  0.32468204320E+04 0.  0.
        1    1    3    3  502    0  0.43286757925E+03  0.44900803455E+03 -0.17689975169E+04  0.18757224664E+04  0.50400001928E-02 0.  1.
       -1    1    3    3    0  502 -0.43286757925E+03 -0.44900803455E+03  0.12646093590E+04  0.14100423352E+04  0.50400001928E-02 0. -1.
</event>
<event>
 5   0  0.2080770E-07  0.3288679E+04  0.7818609E-02  0.8165782E-01
       -1   -1    0    0    0  501  0.00000000000E+00  0.00000000000E+00  0.12936819454E+04  0.12936819454E+04  0.50400001928E-02 0.  1.
        1   -1    0    0  501    0  0.00000000000E+00  0.00000000000E+00 -0.20900441184E+04  0.20900441184E+04  0.50400001928E-02 0. -1.
    10030    2    1    2    0    0  0.00000000000E+00  0.00000000000E+00 -0.79636217303E+03  0.33837260638E+04  0.32886789695E+04 0.  0.
        4    1    3    3  502    0  0.17003709126E+03  0.13970657814E+04  0.47677550035E+03  0.14859414190E+04  0.12699999809E+01 0.  1.
       -4    1    3    3    0  502 -0.17003709126E+03 -0.13970657814E+04 -0.12731376734E+04  0.18977846448E+04  0.12699999809E+01 0. -1.
</event>
<event>
 5   0  0.6424183E-07  0.3305322E+04  0.7818609E-02  0.8161543E-01
        2   -1    0    0  501    0  0.00000000000E+00  0.00000000000E+00  0.22155387827E+04  0.22155387827E+04  0.25500000920E-02 0. -1.
       -2   -1    0    0    0  501  0.00000000000E+00  0.00000000000E+00 -0.12327872877E+04  0.12327872877E+04  0.25500000920E-02 0.  1.
    10030    2    1    2    0    0  0.00000000000E+00  0.00000000000E+00  0.98275149500E+03  0.34483260704E+04  0.33053217978E+04 0.  0.
        2    1    3    3  502    0  0.11047326766E+04 -0.27412356243E+03 -0.75867586726E+03  0.13679060954E+04  0.25500000920E-02 0.  1.
       -2    1    3    3    0  502 -0.11047326766E+04  0.27412356243E+03  0.17414273623E+04  0.20804199750E+04  0.25500000920E-02 0. -1.
</event>
<event>
 5   0  0.6424183E-07  0.3276929E+04  0.7818609E-02  0.8168791E-01
       -2   -1    0    0    0  501  0.00000000000E+00  0.00000000000E+00  0.13475317159E+04  0.13475317159E+04  0.25500000920E-02 0.  1.
        2   -1    0    0  501    0  0.00000000000E+00  0.00000000000E+00 -0.19922094213E+04  0.19922094213E+04  0.25500000920E-02 0. -1.
    10030    2    1    2    0    0  0.00000000000E+00  0.00000000000E+00 -0.64467770537E+03  0.33397411372E+04  0.32769286717E+04 0.  0.
        2    1    3    3  502    0 -0.11513804524E+03 -0.37567387625E+03  0.12988041788E+04  0.13569377014E+04  0.25500000920E-02 0.  1.
       -2    1    3    3    0  502  0.11513804524E+03  0.37567387625E+03 -0.19434818841E+04  0.19828034357E+04  0.25500000920E-02 0. -1.
</event>
<event>
 5   0  0.6424183E-07  0.3260192E+04  0.7818609E-02  0.8173099E-01
        2   -1    0    0  501    0  0.00000000000E+00  0.00000000000E+00  0.18726925014E+04  0.18726925014E+04  0.25500000920E-02 0. -1.
       -2   -1    0    0    0  501  0.00000000000E+00  0.00000000000E+00 -0.14189260748E+04  0.14189260748E+04  0.25500000920E-02 0.  1.
    10030    2    1    2    0    0  0.00000000000E+00  0.00000000000E+00  0.45376642665E+03  0.32916185762E+04  0.32601915406E+04 0.  0.
        2    1    3    3  502    0  0.93173571669E+03  0.48693729999E+01  0.15773331378E+04  0.18319757051E+04  0.25500000920E-02 0. -1.
       -2    1    3    3    0  502 -0.93173571669E+03 -0.48693729999E+01 -0.11235667112E+04  0.14596428711E+04  0.25500000920E-02 0.  1.
</event>
<event>
 5   0  0.2057130E-07  0.3302339E+04  0.7818609E-02  0.8162301E-01
        1   -1    0    0  501    0  0.00000000000E+00  0.00000000000E+00  0.18843820237E+04  0.18843820237E+04  0.50400001928E-02 0. -1.
       -1   -1    0    0    0  501  0.00000000000E+00  0.00000000000E+00 -0.14468194635E+04  0.14468194635E+04  0.50400001928E-02 0.  1.
    10030    2    1    2    0    0  0.00000000000E+00  0.00000000000E+00  0.43756256024E+03  0.33312014872E+04  0.33023389218E+04 0.  0.
        2    1    3    3  502    0  0.50546735489E+03  0.45695965518E+03  0.17359381057E+04  0.18648835031E+04  0.25500000920E-02 0. -1.
       -2    1    3    3    0  502 -0.50546735489E+03 -0.45695965518E+03 -0.12983755455E+04  0.14663179841E+04  0.25500000920E-02 0.  1.
</event>
<event>
 5   0  0.2080770E-07  0.3295811E+04  0.7818609E-02  0.8163962E-01
       -1   -1    0    0    0  501  0.00000000000E+00  0.00000000000E+00  0.19180523465E+04  0.19180523465E+04  0.50400001928E-02 0. -1.
        1   -1    0    0  501    0  0.00000000000E+00  0.00000000000E+00 -0.14158076470E+04  0.14158076470E+04  0.50400001928E-02 0.  1.
    10030    2    1    2    0    0  0.00000000000E+00  0.00000000000E+00  0.50224469946E+03  0.33338599935E+04  0.32958113899E+04 0.  0.
        4    1    3    3  502    0 -0.16382194829E+04 -0.17799639915E+03  0.23890925846E+03  0.16650900993E+04  0.12699999809E+01 0. -1.
       -4    1    3    3    0  502  0.16382194829E+04  0.17799639915E+03  0.26333544101E+03  0.16687698941E+04  0.12699999809E+01 0.  1.
</event>
<event>
 5   0  0.2037333E-07  0.3297991E+04  0.7818609E-02  0.8163407E-01
       -1   -1    0    0    0  501  0.00000000000E+00  0.00000000000E+00  0.14705190287E+04  0.14705190287E+04  0.50400001928E-02 0. -1.
        1   -1    0    0  501    0  0.00000000000E+00  0.00000000000E+00 -0.18491336195E+04  0.18491336195E+04  0.50400001928E-02 0.  1.
    10030    2    1    2    0    0  0.00000000000E+00  0.00000000000E+00 -0.37861459081E+03  0.33196526483E+04  0.32979910092E+04 0.  0.
        3    1    3    3  502    0  0.32576365828E+03  0.11704210371E+04 -0.13116099078E+04  0.17878277114E+04  0.10100000352E+00 0.  1.
       -3    1    3    3    0  502 -0.32576365828E+03 -0.11704210371E+04  0.93299531704E+03  0.15318249368E+04  0.10100000352E+00 0. -1.
</event>
<event>
 5   0  0.6258718E-07  0.3289574E+04  0.7818609E-02  0.8165553E-01
       -2   -1    0    0    0  501  0.00000000000E+00  0.00000000000E+00  0.11077136990E+04  0.11077136990E+04  0.25500000920E-02 0. -1.
        2   -1    0    0  501    0  0.00000000000E+00  0.00000000000E+00 -0.24422589844E+04  0.24422589844E+04  0.25500000920E-02 0.  1.
    10030    2    1    2    0    0  0.00000000000E+00  0.00000000000E+00 -0.13345452854E+04  0.35499726835E+04  0.32895736706E+04 0.  0.
        5    1    3    3  502    0  0.10683072052E+04  0.93742572392E+03 -0.15606013730E+04  0.21108164316E+04  0.46999998093E+01 0.  1.
       -5    1    3    3    0  502 -0.10683072052E+04 -0.93742572392E+03  0.22605608762E+03  0.14391562518E+04  0.46999998093E+01 0. -1.
</event>
<event>
 5   0  0.2080770E-07  0.3257084E+04  0.7818609E-02  0.8173902E-01
        1   -1    0    0  501    0  0.00000000000E+00  0.00000000000E+00  0.15783011068E+04  0.15783011068E+04  0.50400001928E-02 0.  1.
       -1   -1    0    0    0  501  0.00000000000E+00  0.00000000000E+00 -0.16803823666E+04  0.16803823666E+04  0.50400001928E-02 0. -1.
    10030    2    1    2    0    0  0.00000000000E+00  0.00000000000E+00 -0.10208125982E+03  0.32586834734E+04  0.32570841862E+04 0.  0.
        4    1    3    3  502    0 -0.33914535866E+03  0.13241720080E+04  0.83466048357E+03  0.16015963339E+04  0.12699999809E+01 0.  1.
       -4    1    3    3    0  502  0.33914535866E+03 -0.13241720080E+04 -0.93674174339E+03  0.16570871395E+04  0.12699999809E+01 0. -1.
</event>
<event>
 5   0  0.6258718E-07  0.3316735E+04  0.7818609E-02  0.8158650E-01
       -2   -1    0    0    0  501  0.00000000000E+00  0.00000000000E+00  0.19218879268E+04  0.19218879268E+04  0.25500000920E-02 0. -1.
        2   -1    0    0  501    0  0.00000000000E+00  0.00000000000E+00 -0.14309794453E+04  0.14309794453E+04  0.25500000920E-02 0.  1.
    10030    2    1    2    0    0  0.00000000000E+00  0.00000000000E+00  0.49090848150E+03  0.33528673721E+04  0.33167346107E+04 0.  0.
        5    1    3    3  502    0 -0.72187945385E+03  0.30722094462E+03 -0.12315119524E+04  0.14601843834E+04  0.46999998093E+01 0.  1.
       -5    1    3    3    0  502  0.72187945385E+03 -0.30722094462E+03  0.17224204339E+04  0.18926829887E+04  0.46999998093E+01 0. -1.
</event>
<event>
 5   0  0.2080770E-07  0.3242187E+04  0.7818609E-02  0.8177764E-01
       -1   -1    0    0    0  501  0.00000000000E+00  0.00000000000E+00  0.14643765972E+04  0.14643765973E+04  0.50400001928E-02 0.  1.
        1   -1    0    0  501    0  0.00000000000E+00  0.00000000000E+00 -0.17945825030E+04  0.17945825030E+04  0.50400001928E-02 0. -1.
    10030    2    1    2    0    0  0.00000000000E+00  0.00000000000E+00 -0.33020590572E+03  0.32589591002E+04  0.32421872982E+04 0.  0.
        4    1    3    3  502    0 -0.10914597697E+04  0.11464608902E+04  0.18640017014E+03  0.15938643725E+04  0.12699999809E+01 0.  1.
       -4    1    3    3    0  502  0.10914597697E+04 -0.11464608902E+04 -0.51660607586E+03  0.16650947277E+04  0.12699999809E+01 0. -1.
</event>
<event>
 5   0  0.1994250E-07  0.3301929E+04  0.7818609E-02  0.8162405E-01
        3   -1    0    0  501    0  0.00000000000E+00  0.00000000000E+00  0.14764570451E+04  0.14764570485E+04  0.10100000352E+00 0. -1.
       -3   -1    0    0    0  501  0.00000000000E+00  0.00000000000E+00 -0.18460975833E+04  0.18460975861E+04  0.10100000352E+00 0.  1.
    10030    2    1    2    0    0  0.00000000000E+00  0.00000000000E+00 -0.36964053826E+03  0.33225546347E+04  0.33019290078E+04 0.  0.
        1    1    3    3  502    0  0.14222190321E+04 -0.78054800939E+03 -0.49287245826E+03  0.16955487107E+04  0.50400001928E-02 0. -1.
       -1    1    3    3    0  502 -0.14222190321E+04  0.78054800939E+03  0.12323192000E+03  0.16270059239E+04  0.50400001928E-02 0.  1.
</event>
<event>
 5   0  0.2037333E-07  0.3286354E+04  0.7818609E-02  0.8166376E-01
        1   -1    0    0  501    0  0.00000000000E+00  0.00000000000E+00  0.17364123491E+04  0.17364123491E+04  0.50400001928E-02 0.  1.
       -1   -1    0    0    0  501  0.00000000000E+00  0.00000000000E+00 -0.15549480542E+04  0.15549480542E+04  0.50400001928E-02 0. -1.
    10030    2    1    2    0    0  0.00000000000E+00  0.00000000000E+00  0.18146429491E+03  0.32913604033E+04  0.32863542132E+04 0.  0.
        3    1    3    3  502    0 -0.12949148801E+04 -0.10044875692E+04  0.21020833871E+03  0.16522673450E+04  0.10100000352E+00 0. -1.
       -3    1    3    3    0  502  0.12949148801E+04  0.10044875692E+04 -0.28744043809E+02  0.16390930583E+04  0.10100000352E+00 0.  1.
</event>
<event>
 5   0  0.2037333E-07  0.3161158E+04  0.7818609E-02  0.8199151E-01
        1   -1    0    0  501    0  0.00000000000E+00  0.00000000000E+00  0.15800452118E+04  0.15800452118E+04  0.50400001928E-02 0.  1.
       -1   -1    0    0    0  501  0.00000000000E+00  0.00000000000E+00 -0.15811125397E+04  0.15811125397E+04  0.50400001928E-02 0. -1.
    10030    2    1    2    0    0  0.00000000000E+00  0.00000000000E+00 -0.10673279305E+01  0.31611577515E+04  0.31611575713E+04 0.  0.
        3    1    3    3  502    0 -0.10928828410E+04 -0.10759877212E+04  0.38167939687E+03  0.15804498260E+04  0.10100000352E+00 0. -1.
       -3    1    3    3    0  502  0.10928828410E+04  0.10759877212E+04 -0.38274672480E+03  0.15807079255E+04  0.10100000352E+00 0.  1.
</event>
<event>
 5   0  0.6426079E-07  0.3289702E+04  0.7818609E-02  0.8165521E-01
        2   -1    0    0  501    0  0.00000000000E+00  0.00000000000E+00  0.21854778098E+04  0.21854778098E+04  0.25500000920E-02 0. -1.
       -2   -1    0    0    0  501  0.00000000000E+00  0.00000000000E+00 -0.12379602874E+04  0.12379602874E+04  0.25500000920E-02 0.  1.
    10030    2    1    2    0    0  0.00000000000E+00  0.00000000000E+00  0.94751752238E+03  0.34234380972E+04  0.32897019546E+04 0.  0.
        4    1    3    3  502    0  0.36990144522E+03  0.15981905556E+04  0.34847782997E+03  0.16770445856E+04  0.12699999809E+01 0. -1.
       -4    1    3    3    0  502 -0.36990144522E+03 -0.15981905556E+04  0.59903969240E+03  0.17463935116E+04  0.12699999809E+01 0.  1.
</event>
<event>
 5   0  0.6424183E-07  0.3249642E+04  0.7818609E-02  0.8175829E-01
       -2   -1    0    0    0  501  0.00000000000E+00  0.00000000000E+00  0.13679033143E+04  0.13679033143E+04  0.25500000920E-02 0. -1.
        2   -1    0    0  501    0  0.00000000000E+00  0.00000000000E+00 -0.19299921850E+04  0.19299921850E+04  0.25500000920E-02 0.  1.
    10030    2    1    2    0    0  0.00000000000E+00  0.00000000000E+00 -0.56208887070E+03  0.32978954992E+04  0.32496416456E+04 0.  0.
        2    1    3    3  502    0 -0.12483955133E+04 -0.56452099094E+03  0.60534780651E+03  0.14978722488E+04  0.25500000920E-02 0. -1.
       -2    1    3    3    0  502  0.12483955133E+04  0.56452099094E+03 -0.11674366772E+04  0.18000232504E+04  0.25500000920E-02 0.  1.
</event>
<event>
 5   0  0.2037333E-07  0.3307001E+04  0.7818609E-02  0.8161116E-01
       -1   -1    0    0    0  501  0.00000000000E+00  0.00000000000E+00  0.15594214487E+04  0.15594214487E+04  0.50400001928E-02 0.  1.
        1   -1    0    0  501    0  0.00000000000E+00  0.00000000000E+00 -0.17532550985E+04  0.17532550985E+04  0.50400001928E-02 0. -1.
    10030    2    1    2    0    0  0.00000000000E+00  0.00000000000E+00 -0.19383364982E+03  0.33126765473E+04  0.33070008199E+04 0.  0.
        3    1    3    3  502    0  0.35821520777E+03 -0.15967734894E+04  0.14025922285E+03  0.16424604626E+04  0.10100000352E+00 0.  1.
       -3    1    3    3    0  502 -0.35821520777E+03  0.15967734894E+04 -0.33409287267E+03  0.16702160846E+04  0.10100000352E+00 0. -1.
</event>
<event>
 5   0  0.6351753E-07  0.3424075E+04  0.7818609E-02  0.8132023E-01
       -2   -1    0    0    0  501  0.00000000000E+00  0.00000000000E+00  0.16427027904E+04  0.16427027904E+04  0.25500000920E-02 0. -1.
        2   -1    0    0  501    0  0.00000000000E+00  0.00000000000E+00 -0.17842987446E+04  0.17842987446E+04  0.25500000920E-02 0.  1.
    10030    2    1    2    0    0  0.00000000000E+00  0.00000000000E+00 -0.14159595412E+03  0.34270015350E+04  0.34240750732E+04 0.  0.
        3    1    3    3  502    0 -0.13328549974E+04  0.20175056773E+03  0.98550291582E+03  0.16698568032E+04  0.10100000352E+00 0. -1.
       -3    1    3    3    0  502  0.13328549974E+04 -0.20175056773E+03 -0.11270988699E+04  0.17571447318E+04  0.10100000352E+00 0.  1.
</event>
<event>
 5   0  0.2080828E-07  0.3308489E+04  0.7818609E-02  0.8160739E-01
        1   -1    0    0  501    0  0.00000000000E+00  0.00000000000E+00  0.12020724652E+04  0.12020724653E+04  0.50400001928E-02 0.  1.
       -1   -1    0    0    0  501  0.00000000000E+00  0.00000000000E+00 -0.22765058487E+04  0.22765058487E+04  0.50400001928E-02 0. -1.
    10030    2    1    2    0    0  0.00000000000E+00  0.00000000000E+00 -0.10744333834E+04  0.34785783140E+04  0.33084890798E+04 0.  0.
        1    1    3    3  502    0  0.67048028685E+03 -0.51679046094E+03 -0.20315172562E+04  0.22008358771E+04  0.50400001928E-02 0. -1.
       -1    1    3    3    0  502 -0.67048028685E+03  0.51679046094E+03  0.95708387273E+03  0.12777424369E+04  0.50400001928E-02 0.  1.
</event>
<event>
 5   0  0.2080770E-07  0.3204743E+04  0.7818609E-02  0.8187566E-01
       -1   -1    0    0    0  501  0.00000000000E+00  0.00000000000E+00  0.15458739179E+04  0.15458739179E+04  0.50400001928E-02 0. -1.
        1   -1    0    0  501    0  0.00000000000E+00  0.00000000000E+00 -0.16609338523E+04  0.16609338524E+04  0.50400001928E-02 0.  1.
    10030    2    1    2    0    0  0.00000000000E+00  0.00000000000E+00 -0.11505993447E+03  0.32068077702E+04  0.32047429361E+04 0.  0.
        4    1    3    3  502    0  0.12705469943E+04  0.86491258666E+03 -0.51084421529E+03  0.16196687539E+04  0.12699999809E+01 0.  1.
       -4    1    3    3    0  502 -0.12705469943E+04 -0.86491258666E+03  0.39578428082E+03  0.15871390163E+04  0.12699999809E+01 0. -1.
</event>
<event>
 5   0  0.2087665E-07  0.3293002E+04  0.7818609E-02  0.8164678E-01
        1   -1    0    0  501    0  0.00000000000E+00  0.00000000000E+00  0.13283242652E+04  0.13283242652E+04  0.50400001928E-02 0. -1.
       -1   -1    0    0    0  501  0.00000000000E+00  0.00000000000E+00 -0.20408910130E+04  0.20408910130E+04  0.50400001928E-02 0.  1.
    10030    2    1    2    0    0  0.00000000000E+00  0.00000000000E+00 -0.71256674773E+03  0.33692152782E+04  0.32930017037E+04 0.  0.
        5    1    3    3  502    0 -0.12634488589E+04 -0.10455970248E+04 -0.20672641401E+03  0.16529773312E+04  0.46999998093E+01 0.  1.
       -5    1    3    3    0  502  0.12634488589E+04  0.10455970248E+04 -0.50584033372E+03  0.17162379469E+04  0.46999998093E+01 0. -1.
</event>
<event>
 5   0  0.6351753E-07  0.3308359E+04  0.7818609E-02  0.8160772E-01
       -2   -1    0    0    0  501  0.00000000000E+00  0.00000000000E+00  0.11594331455E+04  0.11594331455E+04  0.25500000920E-02 0.  1.
        2   -1    0    0  501    0  0.00000000000E+00  0.00000000000E+00 -0.23600412947E+04  0.23600412947E+04  0.25500000920E-02 0. -1.
    10030    2    1    2    0    0  0.00000000000E+00  0.00000000000E+00 -0.12006081492E+04  0.35194744402E+04  0.33083591714E+04 0.  0.
        3    1    3    3  502    0  0.13631461086E+04  0.87804835158E+03 -0.25203924346E+03  0.16409326652E+04  0.10100000352E+00 0.  1.
       -3    1    3    3    0  502 -0.13631461086E+04 -0.87804835158E+03 -0.94856890574E+03  0.18785417750E+04  0.10100000352E+00 0. -1.
</event>
<event>
 5   0  0.2080828E-07  0.3307855E+04  0.7818609E-02  0.8160900E-01
        1   -1    0    0  501    0  0.00000000000E+00  0.00000000000E+00  0.13212799565E+04  0.13212799565E+04  0.50400001928E-02 0. -1.
       -1   -1    0    0    0  501  0.00000000000E+00  0.00000000000E+00 -0.20703224807E+04  0.20703224808E+04  0.50400001928E-02 0.  1.
    10030    2    1    2    0    0  0.00000000000E+00  0.00000000000E+00 -0.74904252421E+03  0.33916024373E+04  0.33078546506E+04 0.  0.
        1    1    3    3  502    0  0.11566794026E+04  0.11359832110E+04 -0.38957892636E+02  0.16216913435E+04  0.50400001928E-02 0. -1.
       -1    1    3    3    0  502 -0.11566794026E+04 -0.11359832110E+04 -0.71008463157E+03  0.17699110938E+04  0.50400001928E-02 0.  1.
</event>
<event>
 5   0  0.6377741E-07  0.3288704E+04  0.7818609E-02  0.8165776E-01
       -2   -1    0    0    0  501  0.00000000000E+00  0.00000000000E+00  0.13583116337E+04  0.13583116337E+04  0.25500000920E-02 0.  1.
        2   -1    0    0  501    0  0.00000000000E+00  0.00000000000E+00 -0.19906282631E+04  0.19906282631E+04  0.25500000920E-02 0. -1.
    10030    2    1    2    0    0  0.00000000000E+00  0.00000000000E+00 -0.63231662943E+03  0.33489398968E+04  0.32887040172E+04 0.  0.
        1    1    3    3  502    0  0.10635878511E+04 -0.11087835353E+04  0.28046839632E+03  0.15618202734E+04  0.50400001928E-02 0. -1.
       -1    1    3    3    0  502 -0.10635878511E+04  0.11087835353E+04 -0.91278502574E+03  0.17871196234E+04  0.50400001928E-02 0.  1.
</event>
<event>
 5   0  0.2080828E-07  0.3313464E+04  0.7818609E-02  0.8159478E-01
       -1   -1    0    0    0  501  0.00000000000E+00  0.00000000000E+00  0.11659358152E+04  0.11659358152E+04  0.50400001928E-02 0.  1.
        1   -1    0    0  501    0  0.00000000000E+00  0.00000000000E+00 -0.23541267650E+04  0.23541267651E+04  0.50400001928E-02 0. -1.
    10030    2    1    2    0    0  0.00000000000E+00  0.00000000000E+00 -0.11881909498E+04  0.35200625803E+04  0.33134638727E+04 0.  0.
        1    1    3    3  502    0 -0.10881444890E+04 -0.12241248529E+04 -0.85908903953E+03  0.18494794031E+04  0.50400001928E-02 0.  1.
       -1    1    3    3    0  502  0.10881444890E+04  0.12241248529E+04 -0.32910191028E+03  0.16705831772E+04  0.50400001928E-02 0. -1.
</event>
<event>
 5   0  0.2087665E-07  0.3305033E+04  0.7818609E-02  0.8161616E-01
       -1   -1    0    0    0  501  0.00000000000E+00  0.00000000000E+00  0.15412332831E+04  0.15412332831E+04  0.50400001928E-02 0.  1.
        1   -1    0    0  501    0  0.00000000000E+00  0.00000000000E+00 -0.17718348999E+04  0.17718348999E+04  0.50400001928E-02 0. -1.
    10030    2    1    2    0    0  0.00000000000E+00  0.00000000000E+00 -0.23060161672E+03  0.33130681830E+04  0.33050330830E+04 0.  0.
        5    1    3    3  502    0  0.12055497333E+04  0.19507370475E+03 -0.12312840334E+04  0.17342105901E+04  0.46999998093E+01 0. -1.
       -5    1    3    3    0  502 -0.12055497333E+04 -0.19507370475E+03  0.10006824167E+04  0.15788575930E+04  0.46999998093E+01 0.  1.
</event>
<event>
 5   0  0.2057130E-07  0.3300566E+04  0.7818609E-02  0.8162752E-01
        1   -1    0    0  501    0  0.00000000000E+00  0.00000000000E+00  0.14872119151E+04  0.14872119151E+04  0.50400001928E-02 0.  1.
       -1   -1    0    0    0  501  0.00000000000E+00  0.00000000000E+00 -0.18312341131E+04  0.18312341131E+04  0.50400001928E-02 0. -1.
    10030    2    1    2    0    0  0.00000000000E+00  0.00000000000E+00 -0.34402219807E+03  0.33184460282E+04  0.33005655227E+04 0.  0.
        2    1    3    3  502    0 -0.13144729268E+04  0.61917391898E+03 -0.95869337787E+03  0.17407781048E+04  0.25500000920E-02 0. -1.
       -2    1    3    3    0  502  0.13144729268E+04 -0.61917391898E+03  0.61467117981E+03  0.15776679234E+04  0.25500000920E-02 0.  1.
</event>
<event>
 5   0  0.2080770E-07  0.3286430E+04  0.7818609E-02  0.8166357E-01
       -1   -1    0    0    0  501  0.00000000000E+00  0.00000000000E+00  0.12200601323E+04  0.12200601323E+04  0.50400001928E-02 0. -1.
        1   -1    0    0  501    0  0.00000000000E+00  0.00000000000E+00 -0.22131330811E+04  0.22131330811E+04  0.50400001928E-02 0.  1.
    10030    2    1    2    0    0  0.00000000000E+00  0.00000000000E+00 -0.99307294886E+03  0.34331932134E+04  0.32864299413E+04 0.  0.
        4    1    3    3  502    0 -0.11552434606E+04 -0.66293644065E+03 -0.15018430102E+04  0.20073879091E+04  0.12699999809E+01 0.  1.
       -4    1    3    3    0  502  0.11552434606E+04  0.66293644065E+03  0.50877006134E+03  0.14258053043E+04  0.12699999809E+01 0. -1.
</event>
<event>
 5   0  0.2087665E-07  0.3286387E+04  0.7818609E-02  0.8166368E-01
       -1   -1    0    0    0  501  0.00000000000E+00  0.00000000000E+00  0.13166159124E+04  0.13166159124E+04  0.50400001928E-02 0. -1.
        1   -1    0    0  501    0  0.00000000000E+00  0.00000000000E+00 -0.20507768037E+04  0.20507768037E+04  0.50400001928E-02 0.  1.
    10030    2    1    2    0    0  0.00000000000E+00  0.00000000000E+00 -0.73416089129E+03  0.33673927161E+04  0.32863873007E+04 0.  0.
        5    1    3    3  502    0  0.97182371539E+03  0.10456332773E+04 -0.12009412278E+04  0.18654951640E+04  0.46999998093E+01 0.  1.
       -5    1    3    3    0  502 -0.97182371539E+03 -0.10456332773E+04  0.46678033650E+03  0.15018975521E+04  0.46999998093E+01 0. -1.
</event>
<event>
 5   0  0.6424183E-07  0.3341731E+04  0.7818609E-02  0.8152357E-01
        2   -1    0    0  501    0  0.00000000000E+00  0.00000000000E+00  0.19090344984E+04  0.19090344984E+04  0.25500000920E-02 0. -1.
       -2   -1    0    0    0  501  0.00000000000E+00  0.00000000000E+00 -0.14624106132E+04  0.14624106132E+04  0.25500000920E-02 0.  1.
    10030    2    1    2    0    0  0.00000000000E+00  0.00000000000E+00  0.44662388519E+03  0.33714451116E+04  0.33417314742E+04 0.  0.
        2    1    3    3  502    0  0.69858304667E+03  0.12504331728E+04 -0.64468145296E+03  0.15707372691E+04  0.25500000920E-02 0.  1.
       -2    1    3    3    0  502 -0.69858304667E+03 -0.12504331728E+04  0.10913053381E+04  0.18007078424E+04  0.25500000920E-02 0. -1.
</event>
<event>
 5   0  0.2080828E-07  0.3295168E+04  0.7818609E-02  0.8164126E-01
        1   -1    0    0  501    0  0.00000000000E+00  0.00000000000E+00  0.20709392533E+04  0.20709392533E+04  0.50400001928E-02 0.  1.
       -1   -1    0    0    0  501  0.00000000000E+00  0.00000000000E+00 -0.13107740164E+04  0.13107740164E+04  0.50400001928E-02 0. -1.
    10030    2    1    2    0    0  0.00000000000E+00  0.00000000000E+00  0.76016523695E+03  0.33817132697E+04  0.32951681976E+04 0.  0.
        1    1    3    3  502    0 -0.11501859882E+04  0.20281027029E+03 -0.81253778599E+03  0.14227710522E+04  0.50400001928E-02 0. -1.
       -1    1    3    3    0  502  0.11501859882E+04 -0.20281027029E+03  0.15727030229E+04  0.19589422175E+04  0.50400001928E-02 0.  1.
</event>
<event>
 5   0  0.2080828E-07  0.3292403E+04  0.7818609E-02  0.8164831E-01
       -1   -1    0    0    0  501  0.00000000000E+00  0.00000000000E+00  0.11286472131E+04  0.11286472131E+04  0.50400001928E-02 0.  1.
        1   -1    0    0  501    0  0.00000000000E+00  0.00000000000E+00 -0.24010861375E+04  0.24010861375E+04  0.50400001928E-02 0. -1.
    10030    2    1    2    0    0  0.00000000000E+00  0.00000000000E+00 -0.12724389244E+04  0.35297333506E+04  0.32924028779E+04 0.  0.
        1    1    3    3  502    0  0.29458659327E+03  0.47051062325E+03  0.10252751739E+04  0.11659119562E+04  0.50400001928E-02 0.  1.
       -1    1    3    3    0  502 -0.29458659327E+03 -0.47051062325E+03 -0.22977140982E+04  0.23638213944E+04  0.50400001928E-02 0. -1.
</event>
<event>
 5   0  0.2037333E-07  0.3282714E+04  0.7818609E-02  0.8167308E-01
        1   -1    0    0  501    0  0.00000000000E+00  0.00000000000E+00  0.16919043835E+04  0.16919043835E+04  0.50400001928E-02 0. -1.
       -1   -1    0    0    0  501  0.00000000000E+00  0.00000000000E+00 -0.15923200837E+04  0.15923200837E+04  0.50400001928E-02 0.  1.
    10030    2    1    2    0    0  0.00000000000E+00  0.00000000000E+00  0.99584299819E+02  0.32842244671E+04  0.32827143217E+04 0.  0.
        3    1    3    3  502    0 -0.95312924126E+03 -0.13120936068E+03  0.13802091757E+04  0.16824531571E+04  0.10100000352E+00 0. -1.
       -3    1    3    3    0  502  0.95312924126E+03  0.13120936068E+03 -0.12806248759E+04  0.16017713101E+04  0.10100000352E+00 0.  1.
</event>
<event>
 5   0  0.6426079E-07  0.3310756E+04  0.7818609E-02  0.8160164E-01
        2   -1    0    0  501    0  0.00000000000E+00  0.00000000000E+00  0.12240888460E+04  0.12240888460E+04  0.25500000920E-02 0.  1.
       -2   -1    0    0    0  501  0.00000000000E+00  0.00000000000E+00 -0.22386252955E+04  0.22386252955E+04  0.25500000920E-02 0. -1.
    10030    2    1    2    0    0  0.00000000000E+00  0.00000000000E+00 -0.10145364495E+04  0.34627141415E+04  0.33107559587E+04 0.  0.
        4    1    3    3  502    0  0.10061654983E+04 -0.12507831344E+04 -0.84426154581E+02  0.16074690814E+04  0.12699999809E+01 0. -1.
       -4    1    3    3    0  502 -0.10061654983E+04  0.12507831344E+04 -0.93011029496E+03  0.18552450601E+04  0.12699999809E+01 0.  1.
</event>
<event>
 5   0  0.2037333E-07  0.3324259E+04  0.7818609E-02  0.8156750E-01
        1   -1    0    0  501    0  0.00000000000E+00  0.00000000000E+00  0.19182678968E+04  0.19182678968E+04  0.50400001928E-02 0. -1.
       -1   -1    0    0    0  501  0.00000000000E+00  0.00000000000E+00 -0.14401918522E+04  0.14401918522E+04  0.50400001928E-02 0.  1.
    10030    2    1    2    0    0  0.00000000000E+00  0.00000000000E+00  0.47807604465E+03  0.33584597490E+04  0.33242585912E+04 0.  0.
        3    1    3    3  502    0 -0.11549395872E+04  0.19676318408E+03  0.14301815271E+04  0.18487889039E+04  0.10100000352E+00 0. -1.
       -3    1    3    3    0  502  0.11549395872E+04 -0.19676318408E+03 -0.95210548243E+03  0.15096708451E+04  0.10100000352E+00 0.  1.
</event>
<event>
 5   0  0.6426079E-07  0.3286722E+04  0.7818609E-02  0.8166282E-01
        2   -1    0    0  501    0  0.00000000000E+00  0.00000000000E+00  0.24030439780E+04  0.24030439780E+04  0.25500000920E-02 0. -1.
       -2   -1    0    0    0  501  0.00000000000E+00  0.00000000000E+00 -0.11238390124E+04  0.11238390124E+04  0.25500000920E-02 0.  1.
    10030    2    1    2    0    0  0.00000000000E+00  0.00000000000E+00  0.12792049655E+04  0.35268829904E+04  0.32867215100E+04 0.  0.
        4    1    3    3  502    0  0.77058101037E+03  0.97694227425E+02 -0.91442169336E+03  0.11997949416E+04  0.12699999809E+01 0.  1.
       -4    1    3    3    0  502 -0.77058101037E+03 -0.97694227425E+02  0.21936266589E+04  0.23270880489E+04  0.12699999809E+01 0. -1.
</event>
<event>
 5   0  0.6351753E-07  0.3294815E+04  0.7818609E-02  0.8164216E-01
        2   -1    0    0  501    0  0.00000000000E+00  0.00000000000E+00  0.14314942832E+04  0.14314942832E+04  0.25500000920E-02 0. -1.
       -2   -1    0    0    0  501  0.00000000000E+00  0.00000000000E+00 -0.18958870472E+04  0.18958870472E+04  0.25500000920E-02 0.  1.
    10030    2    1    2    0    0  0.00000000000E+00  0.00000000000E+00 -0.46439276405E+03  0.33273813304E+04  0.32948149992E+04 0.  0.
        3    1    3    3  502    0  0.15024222799E+04  0.50833688987E+03 -0.68187540402E+03  0.17264510354E+04  0.10100000352E+00 0. -1.
       -3    1    3    3    0  502 -0.15024222799E+04 -0.50833688987E+03  0.21748263997E+03  0.16009302951E+04  0.10100000352E+00 0.  1.
</event>
<event>
 5   0  0.6377741E-07  0.3314681E+04  0.7818609E-02  0.8159170E-01
        2   -1    0    0  501    0  0.00000000000E+00  0.00000000000E+00  0.20739495836E+04  0.20739495836E+04  0.25500000920E-02 0.  1.
       -2   -1    0    0    0  501  0.00000000000E+00  0.00000000000E+00 -0.13244188974E+04  0.13244188974E+04  0.25500000920E-02 0. -1.
    10030    2    1    2    0    0  0.00000000000E+00  0.00000000000E+00  0.74953068612E+03  0.33983684810E+04  0.33146812944E+04 0.  0.
        1    1    3    3  502    0  0.11509097358E+02  0.29329126990E+02  0.20736425221E+04  0.20738818593E+04  0.50400001928E-02 0.  1.
       -1    1    3    3    0  502 -0.11509097358E+02 -0.29329126990E+02 -0.13241118359E+04  0.13244866217E+04  0.50400001928E-02 0. -1.
</event>
<event>
 5   0  0.6426079E-07  0.3283062E+04  0.7818609E-02  0.8167219E-01
       -2   -1    0    0    0  501  0.00000000000E+00  0.00000000000E+00  0.16385450464E+04  0.16385450464E+04  0.25500000920E-02 0. -1.
        2   -1    0    0  501    0  0.00000000000E+00  0.00000000000E+00 -0.16445223697E+04  0.16445223697E+04  0.25500000920E-02 0.  1.
    10030    2    1    2    0    0  0.00000000000E+00  0.00000000000E+00 -0.59773232676E+01  0.32830674162E+04  0.32830619748E+04 0.  0.
        4    1    3    3  502    0  0.79960119851E+03  0.13980308920E+03 -0.14297760099E+04  0.16441313913E+04  0.12699999809E+01 0.  1.
       -4    1    3    3    0  502 -0.79960119851E+03 -0.13980308920E+03  0.14237986867E+04  0.16389360248E+04  0.12699999809E+01 0. -1.
</event>
<event>
 5   0  0.2037333E-07  0.3294702E+04  0.7818609E-02  0.8164245E-01
        1   -1    0    0  501    0  0.00000000000E+00  0.00000000000E+00  0.16489311357E+04  0.16489311357E+04  0.50400001928E-02 0. -1.
       -1   -1    0    0    0  501  0.00000000000E+00  0.00000000000E+00 -0.16457722594E+04  0.16457722595E+04  0.50400001928E-02 0.  1.
    10030    2    1    2    0    0  0.00000000000E+00  0.00000000000E+00  0.31588762699E+01  0.32947033952E+04  0.32947018808E+04 0.  0.
        3    1    3    3  502    0  0.13176889261E+03 -0.37781583473E+03 -0.15964379623E+04  0.16458195599E+04  0.10100000352E+00 0.  1.
       -3    1    3    3    0  502 -0.13176889261E+03  0.37781583473E+03  0.15995968386E+04  0.16488838353E+04  0.10100000352E+00 0. -1.
</event>
<event>
 5   0  0.6351753E-07  0.3295685E+04  0.7818609E-02  0.8163994E-01
        2   -1    0    0  501    0  0.00000000000E+00  0.00000000000E+00  0.19788551056E+04  0.19788551056E+04  0.25500000920E-02 0. -1.
       -2   -1    0    0    0  501  0.00000000000E+00  0.00000000000E+00 -0.13721996432E+04  0.13721996432E+04  0.25500000920E-02 0.  1.
    10030    2    1    2    0    0  0.00000000000E+00  0.00000000000E+00  0.60665546237E+03  0.33510547488E+04  0.32956846147E+04 0.  0.
        3    1    3    3  502    0  0.34021590563E+03 -0.59991311051E+03 -0.12183925978E+04  0.14000439762E+04  0.10100000352E+00 0.  1.
       -3    1    3    3    0  502 -0.34021590563E+03  0.59991311051E+03  0.18250480602E+04  0.19510107726E+04  0.10100000352E+00 0. -1.
</event>
<event>
 5   0  0.2037333E-07  0.3304241E+04  0.7818609E-02  0.8161817E-01
        1   -1    0    0  501    0  0.00000000000E+00  0.00000000000E+00  0.14658688081E+04  0.14658688081E+04  0.50400001928E-02 0.  1.
       -1   -1    0    0    0  501  0.00000000000E+00  0.00000000000E+00 -0.18620375588E+04  0.18620375588E+04  0.50400001928E-02 0. -1.
    10030    2    1    2    0    0  0.00000000000E+00  0.00000000000E+00 -0.39616875076E+03  0.33279063669E+04  0.33042413816E+04 0.  0.
        3    1    3    3  502    0  0.33618355444E+03  0.16155771948E+04 -0.11755100563E+03  0.16543661335E+04  0.10100000352E+00 0. -1.
       -3    1    3    3    0  502 -0.33618355444E+03 -0.16155771948E+04 -0.27861774514E+03  0.16735402334E+04  0.10100000352E+00 0.  1.
</event>
<event>
 5   0  0.6426079E-07  0.3291733E+04  0.7818609E-02  0.8165002E-01
        2   -1    0    0  501    0  0.00000000000E+00  0.00000000000E+00  0.18023411105E+04  0.18023411105E+04  0.25500000920E-02 0. -1.
       -2   -1    0    0    0  501  0.00000000000E+00  0.00000000000E+00 -0.15029761735E+04  0.15029761735E+04  0.25500000920E-02 0.  1.
    10030    2    1    2    0    0  0.00000000000E+00  0.00000000000E+00  0.29936493701E+03  0.33053172840E+04  0.32917325198E+04 0.  0.
        4    1    3    3  502    0  0.12193207148E+04 -0.10941659092E+04 -0.88681579636E+01  0.16382985990E+04  0.12699999809E+01 0. -1.
       -4    1    3    3    0  502 -0.12193207148E+04  0.10941659092E+04  0.30823309497E+03  0.16670186850E+04  0.12699999809E+01 0.  1.
</event>
<event>
 5   0  0.6424183E-07  0.3325295E+04  0.7818609E-02  0.8156489E-01
       -2   -1    0    0    0  501  0.00000000000E+00  0.00000000000E+00  0.13777712841E+04  0.13777712841E+04  0.25500000920E-02 0. -1.
        2   -1    0    0  501    0  0.00000000000E+00  0.00000000000E+00 -0.20064260281E+04  0.20064260281E+04  0.25500000920E-02 0.  1.
    10030    2    1    2    0    0  0.00000000000E+00  0.00000000000E+00 -0.62865474408E+03  0.33841973122E+04  0.33252946727E+04 0.  0.
        2    1    3    3  502    0  0.69000309794E+03  0.14599767574E+04 -0.71726964466E+03  0.17669499570E+04  0.25500000920E-02 0.  1.
       -2    1    3    3    0  502 -0.69000309794E+03 -0.14599767574E+04  0.88614900586E+02  0.16172473552E+04  0.25500000920E-02 0. -1.
</event>
<event>
 5   0  0.6377741E-07  0.3313230E+04  0.7818609E-02  0.8159537E-01
       -2   -1    0    0    0  501  0.00000000000E+00  0.00000000000E+00  0.21385347744E+04  0.21385347744E+04  0.25500000920E-02 0. -1.
        2   -1    0    0  501    0  0.00000000000E+00  0.00000000000E+00 -0.12832959544E+04  0.12832959544E+04  0.25500000920E-02 0.  1.
    10030    2    1    2    0    0  0.00000000000E+00  0.00000000000E+00  0.85523881996E+03  0.34218307288E+04  0.33132298589E+04 0.  0.
        1    1    3    3  502    0 -0.94112219449E+03  0.75618624503E+03 -0.74395526240E+03  0.14180966309E+04  0.50400001928E-02 0.  1.
       -1    1    3    3    0  502  0.94112219449E+03 -0.75618624503E+03  0.15991940824E+04  0.20037340979E+04  0.50400001928E-02 0. -1.
</event>
<event>
 5   0  0.6351753E-07  0.3282503E+04  0.7818609E-02  0.8167362E-01
       -2   -1    0    0    0  501  0.00000000000E+00  0.00000000000E+00  0.20254560181E+04  0.20254560181E+04  0.25500000920E-02 0. -1.
        2   -1    0    0  501    0  0.00000000000E+00  0.00000000000E+00 -0.13299257552E+04  0.13299257552E+04  0.25500000920E-02 0.  1.
    10030    2    1    2    0    0  0.00000000000E+00  0.00000000000E+00  0.69553026294E+03  0.33553817733E+04  0.32825027796E+04 0.  0.
        3    1    3    3  502    0 -0.12323392332E+04 -0.10783056754E+04  0.46114666688E+03  0.17011935145E+04  0.10100000352E+00 0. -1.
       -3    1    3    3    0  502  0.12323392332E+04  0.10783056754E+04  0.23438359606E+03  0.16541882588E+04  0.10100000352E+00 0.  1.
</event>
<event>
 5   0  0.6424183E-07  0.3290520E+04  0.7818609E-02  0.8165312E-01
       -2   -1    0    0    0  501  0.00000000000E+00  0.00000000000E+00  0.11726356558E+04  0.11726356558E+04  0.25500000920E-02 0.  1.
        2   -1    0    0  501    0  0.00000000000E+00  0.00000000000E+00 -0.23083732865E+04  0.23083732865E+04  0.25500000920E-02 0. -1.
    10030    2    1    2    0    0  0.00000000000E+00  0.00000000000E+00 -0.11357376307E+04  0.34810089424E+04  0.32905202159E+04 0.  0.
        2    1    3    3  502    0 -0.12728758528E+04 -0.10209000954E+04 -0.34488002066E+03  0.16677506318E+04  0.25500000920E-02 0.  1.
       -2    1    3    3    0  502  0.12728758528E+04  0.10209000954E+04 -0.79085761003E+03  0.18132583105E+04  0.25500000920E-02 0. -1.
</event>
<event>
 5   0  0.2080770E-07  0.3299673E+04  0.7818609E-02  0.8162979E-01
        1   -1    0    0  501    0  0.00000000000E+00  0.00000000000E+00  0.24494680205E+04  0.24494680205E+04  0.50400001928E-02 0. -1.
       -1   -1    0    0    0  501  0.00000000000E+00  0.00000000000E+00 -0.11112453227E+04  0.11112453227E+04  0.50400001928E-02 0.  1.
    10030    2    1    2    0    0  0.00000000000E+00  0.00000000000E+00  0.13382226978E+04  0.35607133433E+04  0.32996726389E+04 0.  0.
        4    1    3    3  502    0  0.17644851026E+03 -0.46471002092E+03  0.23667382388E+04  0.24183756913E+04  0.12699999809E+01 0. -1.
       -4    1    3    3    0  502 -0.17644851026E+03  0.46471002092E+03 -0.10285155409E+04  0.11423376520E+04  0.12699999809E+01 0.  1.
</event>
<event>
 5   0  0.2057130E-07  0.3354175E+04  0.7818609E-02  0.8149246E-01
        1   -1    0    0  501    0  0.00000000000E+00  0.00000000000E+00  0.23539063202E+04  0.23539063202E+04  0.50400001928E-02 0. -1.
       -1   -1    0    0    0  501  0.00000000000E+00  0.00000000000E+00 -0.11948747411E+04  0.11948747411E+04  0.50400001928E-02 0.  1.
    10030    2    1    2    0    0  0.00000000000E+00  0.00000000000E+00  0.11590315790E+04  0.35487810613E+04  0.33541754307E+04 0.  0.
        2    1    3    3  502    0 -0.42002005118E+03 -0.16223885877E+04  0.51208725514E+03  0.17523683773E+04  0.25500000920E-02 0.  1.
       -2    1    3    3    0  502  0.42002005118E+03  0.16223885877E+04  0.64694432388E+03  0.17964126840E+04  0.25500000920E-02 0. -1.
</event>
<event>
 5   0  0.2080770E-07  0.3304312E+04  0.7818609E-02  0.8161799E-01
       -1   -1    0    0    0  501  0.00000000000E+00  0.00000000000E+00  0.91530793635E+03  0.91530793637E+03  0.50400001928E-02 0.  1.
        1   -1    0    0  501    0  0.00000000000E+00  0.00000000000E+00 -0.29821876754E+04  0.29821876754E+04  0.50400001928E-02 0. -1.
    10030    2    1    2    0    0  0.00000000000E+00  0.00000000000E+00 -0.20668797391E+04  0.38974956118E+04  0.33043123624E+04 0.  0.
        4    1    3    3  502    0 -0.15466365524E+04  0.14786492943E+03 -0.16961460755E+04  0.23001873370E+04  0.12699999809E+01 0. -1.
       -4    1    3    3    0  502  0.15466365524E+04 -0.14786492943E+03 -0.37073366354E+03  0.15973082748E+04  0.12699999809E+01 0.  1.
</event>
<event>
 5   0  0.2087665E-07  0.3301982E+04  0.7818609E-02  0.8162391E-01
        1   -1    0    0  501    0  0.00000000000E+00  0.00000000000E+00  0.26850545697E+04  0.26850545697E+04  0.50400001928E-02 0.  1.
       -1   -1    0    0    0  501  0.00000000000E+00  0.00000000000E+00 -0.10151641874E+04  0.10151641874E+04  0.50400001928E-02 0. -1.
    10030    2    1    2    0    0  0.00000000000E+00  0.00000000000E+00  0.16698903823E+04  0.37002187571E+04  0.33019819748E+04 0.  0.
        5    1    3    3  502    0  0.55427863705E+03  0.64202517502E+02 -0.90629036711E+03  0.10642984028E+04  0.46999998093E+01 0. -1.
       -5    1    3    3    0  502 -0.55427863705E+03 -0.64202517502E+02  0.25761807494E+04  0.26359203543E+04  0.46999998093E+01 0.  1.
</event>
<event>
 5   0  0.2087665E-07  0.3296985E+04  0.7818609E-02  0.8163663E-01
       -1   -1    0    0    0  501  0.00000000000E+00  0.00000000000E+00  0.16016173872E+04  0.16016173873E+04  0.50400001928E-02 0.  1.
        1   -1    0    0  501    0  0.00000000000E+00  0.00000000000E+00 -0.16967395880E+04  0.16967395880E+04  0.50400001928E-02 0. -1.
    10030    2    1    2    0    0  0.00000000000E+00  0.00000000000E+00 -0.95122200776E+02  0.32983569753E+04  0.32969850627E+04 0.  0.
        5    1    3    3  502    0  0.21508065192E+02 -0.86621650900E+03 -0.14505397107E+04  0.16896393638E+04  0.46999998093E+01 0. -1.
       -5    1    3    3    0  502 -0.21508065192E+02  0.86621650900E+03  0.13554175099E+04  0.16087176115E+04  0.46999998093E+01 0.  1.
</event>
<event>
 5   0  0.6351753E-07  0.3291314E+04  0.7818609E-02  0.8165109E-01
        2   -1    0    0  501    0  0.00000000000E+00  0.00000000000E+00  0.20639829190E+04  0.20639829190E+04  0.25500000920E-02 0. -1.
       -2   -1    0    0    0  501  0.00000000000E+00  0.00000000000E+00 -0.13121173396E+04  0.13121173396E+04  0.25500000920E-02 0.  1.
    10030    2    1    2    0    0  0.00000000000E+00  0.00000000000E+00  0.75186557940E+03  0.33761002586E+04  0.32913144953E+04 0.  0.
        3    1    3    3  502    0 -0.54444997038E+03  0.13397102843E+04  0.11816206810E+04  0.18674787442E+04  0.10100000352E+00 0. -1.
       -3    1    3    3    0  502  0.54444997038E+03 -0.13397102843E+04 -0.42975510161E+03  0.15086215144E+04  0.10100000352E+00 0.  1.
</event>
<event>
 5   0  0.6351753E-07  0.3307597E+04  0.7818609E-02  0.8160965E-01
       -2   -1    0    0    0  501  0.00000000000E+00  0.00000000000E+00  0.12401981992E+04  0.12401981992E+04  0.25500000920E-02 0.  1.
        2   -1    0    0  501    0  0.00000000000E+00  0.00000000000E+00 -0.22053321574E+04  0.22053321574E+04  0.25500000920E-02 0. -1.
    10030    2    1    2    0    0  0.00000000000E+00  0.00000000000E+00 -0.96513395816E+03  0.34455303566E+04  0.33075966926E+04 0.  0.
        3    1    3    3  502    0 -0.59773567967E+03 -0.15336047208E+04 -0.64994609856E+03  0.17696500568E+04  0.10100000352E+00 0. -1.
       -3    1    3    3    0  502  0.59773567967E+03  0.15336047208E+04 -0.31518785960E+03  0.16758802998E+04  0.10100000352E+00 0.  1.
</event>
<event>
 5   0  0.1994250E-07  0.3270768E+04  0.7818609E-02  0.8170373E-01
       -3   -1    0    0    0  501  0.00000000000E+00  0.00000000000E+00  0.24938195537E+04  0.24938195557E+04  0.10100000352E+00 0. -1.
        3   -1    0    0  501    0  0.00000000000E+00  0.00000000000E+00 -0.10724438088E+04  0.10724438136E+04  0.10100000352E+00 0.  1.
    10030    2    1    2    0    0  0.00000000000E+00  0.00000000000E+00  0.14213757449E+04  0.35662633694E+04  0.32707683213E+04 0.  0.
        4    1    3    3  502    0 -0.65545502625E+03 -0.41280434618E+03 -0.85972997612E+03  0.11572233857E+04  0.12699999809E+01 0.  1.
       -4    1    3    3    0  502  0.65545502625E+03  0.41280434618E+03  0.22811057210E+04  0.24090399837E+04  0.12699999809E+01 0. -1.
</event>
<event>
 5   0  0.6377741E-07  0.3298811E+04  0.7818609E-02  0.8163198E-01
        2   -1    0    0  501    0  0.00000000000E+00  0.00000000000E+00  0.22531100484E+04  0.22531100484E+04  0.25500000920E-02 0.  1.
       -2   -1    0    0    0  501  0.00000000000E+00  0.00000000000E+00 -0.12074590889E+04  0.12074590889E+04  0.25500000920E-02 0. -1.
    10030    2    1    2    0    0  0.00000000000E+00  0.00000000000E+00  0.10456509595E+04  0.34605691373E+04  0.32988108198E+04 0.  0.
        1    1    3    3  502    0  0.13623901514E+04  0.88899432534E+03  0.80842594646E+03  0.18165820504E+04  0.50400001928E-02 0.  1.
       -1    1    3    3    0  502 -0.13623901514E+04 -0.88899432534E+03  0.23722501305E+03  0.16439870869E+04  0.50400001928E-02 0. -1.
</event>
<event>
 5   0  0.2057130E-07  0.3313857E+04  0.7818609E-02  0.8159378E-01
       -1   -1    0    0    0  501  0.00000000000E+00  0.00000000000E+00  0.15643834867E+04  0.15643834867E+04  0.50400001928E-02 0. -1.
        1   -1    0    0  501    0  0.00000000000E+00  0.00000000000E+00 -0.17549484779E+04  0.17549484779E+04  0.50400001928E-02 0.  1.
    10030    2    1    2    0    0  0.00000000000E+00  0.00000000000E+00 -0.19056499126E+03  0.33193319646E+04  0.33138572201E+04 0.  0.
        2    1    3    3  502    0 -0.10213731047E+04  0.12881615038E+04 -0.30262529766E+03  0.16715696664E+04  0.25500000920E-02 0.  1.
       -2    1    3    3    0  502  0.10213731047E+04 -0.12881615038E+04  0.11206030640E+03  0.16477622982E+04  0.25500000920E-02 0. -1.
</event>
<event>
 5   0  0.6351753E-07  0.3308718E+04  0.7818609E-02  0.8160681E-01
        2   -1    0    0  501    0  0.00000000000E+00  0.00000000000E+00  0.18673431384E+04  0.18673431384E+04  0.25500000920E-02 0.  1.
       -2   -1    0    0    0  501  0.00000000000E+00  0.00000000000E+00 -0.14656673607E+04  0.14656673607E+04  0.25500000920E-02 0. -1.
    10030    2    1    2    0    0  0.00000000000E+00  0.00000000000E+00  0.40167577776E+03  0.33330104991E+04  0.33087181138E+04 0.  0.
        3    1    3    3  502    0 -0.57958463915E+03  0.83096269564E+03  0.15182957739E+04  0.18252779029E+04  0.10100000352E+00 0.  1.
       -3    1    3    3    0  502  0.57958463915E+03 -0.83096269564E+03 -0.11166199962E+04  0.15077325962E+04  0.10100000352E+00 0. -1.
</event>
<event>
 5   0  0.6426079E-07  0.3344993E+04  0.7818609E-02  0.8151540E-01
       -2   -1    0    0    0  501  0.00000000000E+00  0.00000000000E+00  0.18014310968E+04  0.18014310968E+04  0.25500000920E-02 0. -1.
        2   -1    0    0  501    0  0.00000000000E+00  0.00000000000E+00 -0.15527897681E+04  0.15527897681E+04  0.25500000920E-02 0.  1.
    10030    2    1    2    0    0  0.00000000000E+00  0.00000000000E+00  0.24864132864E+03  0.33542208649E+04  0.33449925412E+04 0.  0.
        4    1    3    3  502    0  0.57430175573E+03  0.13193685940E+04  0.97913136388E+03  0.17404757494E+04  0.12699999809E+01 0.  1.
       -4    1    3    3    0  502 -0.57430175573E+03 -0.13193685940E+04 -0.73049003524E+03  0.16137451156E+04  0.12699999809E+01 0. -1.
</event>
<event>
 5   0  0.6258718E-07  0.3300005E+04  0.7818609E-02  0.8162894E-01
       -2   -1    0    0    0  501  0.00000000000E+00  0.00000000000E+00  0.95925457556E+03  0.95925457556E+03  0.25500000920E-02 0.  1.
        2   -1    0    0  501    0  0.00000000000E+00  0.00000000000E+00 -0.28381497296E+04  0.28381497296E+04  0.25500000920E-02 0. -1.
    10030    2    1    2    0    0  0.00000000000E+00  0.00000000000E+00 -0.18788951540E+04  0.37974043052E+04  0.33000049177E+04 0.  0.
        5    1    3    3  502    0  0.31727530896E+03  0.24015174972E+03  0.90320698214E+03  0.98698603189E+03  0.46999998093E+01 0.  1.
       -5    1    3    3    0  502 -0.31727530896E+03 -0.24015174972E+03 -0.27821021362E+04  0.28104182733E+04  0.46999998093E+01 0. -1.
</event>
<event>
 5   0  0.2080828E-07  0.3298300E+04  0.7818609E-02  0.8163328E-01
        1   -1    0    0  501    0  0.00000000000E+00  0.00000000000E+00  0.13135450077E+04  0.13135450077E+04  0.50400001928E-02 0.  1.
       -1   -1    0    0    0  501  0.00000000000E+00  0.00000000000E+00 -0.20705000515E+04  0.20705000515E+04  0.50400001928E-02 0. -1.
    10030    2    1    2    0    0  0.00000000000E+00  0.00000000000E+00 -0.75695504380E+03  0.33840450591E+04  0.32982995655E+04 0.  0.
        1    1    3    3  502    0 -0.10791547689E+04  0.89825015404E+03  0.50903447976E+03  0.14935007385E+04  0.50400001928E-02 0.  1.
       -1    1    3    3    0  502  0.10791547689E+04 -0.89825015404E+03 -0.12659895236E+04  0.18905443206E+04  0.50400001928E-02 0. -1.
</event>
<event>
 5   0  0.2037333E-07  0.3295690E+04  0.7818609E-02  0.8163993E-01
        1   -1    0    0  501    0  0.00000000000E+00  0.00000000000E+00  0.20940988438E+04  0.20940988438E+04  0.50400001928E-02 0.  1.
       -1   -1    0    0    0  501  0.00000000000E+00  0.00000000000E+00 -0.12966882288E+04  0.12966882288E+04  0.50400001928E-02 0. -1.
    10030    2    1    2    0    0  0.00000000000E+00  0.00000000000E+00  0.79741061496E+03  0.33907870726E+04  0.32956901072E+04 0.  0.
        3    1    3    3  502    0 -0.14008544177E+04 -0.45749004007E+03 -0.35993348213E+03  0.15169846269E+04  0.10100000352E+00 0. -1.
       -3    1    3    3    0  502  0.14008544177E+04  0.45749004007E+03  0.11573440971E+04  0.18738024457E+04  0.10100000352E+00 0.  1.
</event>
<event>
 5   0  0.2080770E-07  0.3312850E+04  0.7818609E-02  0.8159633E-01
        1   -1    0    0  501    0  0.00000000000E+00  0.00000000000E+00  0.15490644819E+04  0.15490644819E+04  0.50400001928E-02 0. -1.
       -1   -1    0    0    0  501  0.00000000000E+00  0.00000000000E+00 -0.17712261432E+04  0.17712261432E+04  0.50400001928E-02 0.  1.
    10030    2    1    2    0    0  0.00000000000E+00  0.00000000000E+00 -0.22216166126E+03  0.33202906251E+04  0.33128498353E+04 0.  0.
        4    1    3    3  502    0  0.14739499269E+04 -0.24817083309E+03 -0.82656429681E+03  0.17080185301E+04  0.12699999809E+01 0.  1.
       -4    1    3    3    0  502 -0.14739499269E+04  0.24817083309E+03  0.60440263555E+03  0.16122720950E+04  0.12699999809E+01 0. -1.
</event>
<event>
 5   0  0.2087665E-07  0.3304753E+04  0.7818609E-02  0.8161687E-01
       -1   -1    0    0    0  501  0.00000000000E+00  0.00000000000E+00  0.22288219376E+04  0.22288219376E+04  0.50400001928E-02 0. -1.
        1   -1    0    0  501    0  0.00000000000E+00  0.00000000000E+00 -0.12250181833E+04  0.12250181833E+04  0.50400001928E-02 0.  1.
    10030    2    1    2    0    0  0.00000000000E+00  0.00000000000E+00  0.10038037543E+04  0.34538401210E+04  0.33047525783E+04 0.  0.
        5    1    3    3  502    0 -0.35462019333E+03 -0.15713906347E+04  0.11747453511E+03  0.16151923616E+04  0.46999998093E+01 0.  1.
       -5    1    3    3    0  502  0.35462019333E+03  0.15713906347E+04  0.88632921917E+03  0.18386477594E+04  0.46999998093E+01 0. -1.
</event>
<event>
 5   0  0.6351753E-07  0.3301871E+04  0.7818609E-02  0.8162420E-01
       -2   -1    0    0    0  501  0.00000000000E+00  0.00000000000E+00  0.14559225423E+04  0.14559225423E+04  0.25500000920E-02 0.  1.
        2   -1    0    0  501    0  0.00000000000E+00  0.00000000000E+00 -0.18720689483E+04  0.18720689483E+04  0.25500000920E-02 0. -1.
    10030    2    1    2    0    0  0.00000000000E+00  0.00000000000E+00 -0.41614640600E+03  0.33279914905E+04  0.33018706107E+04 0.  0.
        3    1    3    3  502    0 -0.11981313980E+04  0.61619240873E+02 -0.13511844452E+04  0.18069353040E+04  0.10100000352E+00 0. -1.
       -3    1    3    3    0  502  0.11981313980E+04 -0.61619240873E+02  0.93503803923E+03  0.15210561865E+04  0.10100000352E+00 0.  1.
</event>
<event>
 5   0  0.2057130E-07  0.3290814E+04  0.7818609E-02  0.8165237E-01
       -1   -1    0    0    0  501  0.00000000000E+00  0.00000000000E+00  0.18449142112E+04  0.18449142112E+04  0.50400001928E-02 0.  1.
        1   -1    0    0  501    0  0.00000000000E+00  0.00000000000E+00 -0.14674743479E+04  0.14674743479E+04  0.50400001928E-02 0. -1.
    10030    2    1    2    0    0  0.00000000000E+00  0.00000000000E+00  0.37743986323E+03  0.33123885591E+04  0.32908140507E+04 0.  0.
        2    1    3    3  502    0  0.47677184354E+03 -0.99070866401E+03  0.14208979039E+04  0.17965984251E+04  0.25500000920E-02 0.  1.
       -2    1    3    3    0  502 -0.47677184354E+03  0.99070866401E+03 -0.10434580407E+04  0.15157901340E+04  0.25500000920E-02 0. -1.
</event>
<event>
 5   0  0.2080770E-07  0.3348218E+04  0.7818609E-02  0.8150734E-01
        1   -1    0    0  501    0  0.00000000000E+00  0.00000000000E+00  0.15488911699E+04  0.15488911699E+04  0.50400001928E-02 0. -1.
       -1   -1    0    0    0  501  0.00000000000E+00  0.00000000000E+00 -0.18094500683E+04  0.18094500683E+04  0.50400001928E-02 0.  1.
    10030    2    1    2    0    0  0.00000000000E+00  0.00000000000E+00 -0.26055889848E+03  0.33583412382E+04  0.33482181728E+04 0.  0.
        4    1    3    3  502    0 -0.11087647999E+03 -0.10339497819E+04 -0.14462270142E+04  0.17812691921E+04  0.12699999809E+01 0.  1.
       -4    1    3    3    0  502  0.11087647999E+03  0.10339497819E+04  0.11856681157E+04  0.15770720461E+04  0.12699999809E+01 0. -1.
</event>
<event>
 5   0  0.2037333E-07  0.3316662E+04  0.7818609E-02  0.8158669E-01
       -1   -1    0    0    0  501  0.00000000000E+00  0.00000000000E+00  0.17509623116E+04  0.17509623116E+04  0.50400001928E-02 0.  1.
        1   -1    0    0  501    0  0.00000000000E+00  0.00000000000E+00 -0.15706005829E+04  0.15706005829E+04  0.50400001928E-02 0. -1.
    10030    2    1    2    0    0  0.00000000000E+00  0.00000000000E+00  0.18036172875E+03  0.33215628945E+04  0.33166624352E+04 0.  0.
        3    1    3    3  502    0  0.68510115276E+03 -0.11885493245E+03 -0.14175575498E+04  0.15789108594E+04  0.10100000352E+00 0. -1.
       -3    1    3    3    0  502 -0.68510115276E+03  0.11885493245E+03  0.15979192786E+04  0.17426520351E+04  0.10100000352E+00 0.  1.
</event>
<event>
 5   0  0.2080770E-07  0.3303017E+04  0.7818609E-02  0.8162128E-01
       -1   -1    0    0    0  501  0.00000000000E+00  0.00000000000E+00  0.17935245149E+04  0.17935245149E+04  0.50400001928E-02 0.  1.
        1   -1    0    0  501    0  0.00000000000E+00  0.00000000000E+00 -0.15207380095E+04  0.15207380095E+04  0.50400001928E-02 0. -1.
    10030    2    1    2    0    0  0.00000000000E+00  0.00000000000E+00  0.27278650539E+03  0.33142625244E+04  0.33030173483E+04 0.  0.
        4    1    3    3  502    0 -0.90267175421E+02 -0.10929895207E+04 -0.11026000771E+04  0.15551536252E+04  0.12699999809E+01 0. -1.
       -4    1    3    3    0  502  0.90267175421E+02  0.10929895207E+04  0.13753865824E+04  0.17591088992E+04  0.12699999809E+01 0.  1.
</event>
<event>
 5   0  0.6424183E-07  0.3293735E+04  0.7818609E-02  0.8164491E-01
       -2   -1    0    0    0  501  0.00000000000E+00  0.00000000000E+00  0.17741904093E+04  0.17741904093E+04  0.25500000920E-02 0. -1.
        2   -1    0    0  501    0  0.00000000000E+00  0.00000000000E+00 -0.15286817933E+04  0.15286817933E+04  0.25500000920E-02 0.  1.
    10030    2    1    2    0    0  0.00000000000E+00  0.00000000000E+00  0.24550861595E+03  0.33028722026E+04  0.32937350085E+04 0.  0.
        2    1    3    3  502    0 -0.15434947663E+04 -0.47851471290E+03 -0.19564842640E+03  0.16277686356E+04  0.25500000920E-02 0.  1.
       -2    1    3    3    0  502  0.15434947663E+04  0.47851471290E+03  0.44115704235E+03  0.16751035670E+04  0.25500000920E-02 0. -1.
</event>
<event>
 5   0  0.6258718E-07  0.3305120E+04  0.7818609E-02  0.8161594E-01
       -2   -1    0    0    0  501  0.00000000000E+00  0.00000000000E+00  0.15685484846E+04  0.15685484846E+04  0.25500000920E-02 0.  1.
        2   -1    0    0  501    0  0.00000000000E+00  0.00000000000E+00 -0.17410713417E+04  0.17410713417E+04  0.25500000920E-02 0. -1.
    10030    2    1    2    0    0  0.00000000000E+00  0.00000000000E+00 -0.17252285705E+03  0.33096198263E+04  0.33051201580E+04 0.  0.
        5    1    3    3  502    0  0.37981904761E+02  0.58141031865E+03  0.14622759885E+04  0.15740882250E+04  0.46999998093E+01 0.  1.
       -5    1    3    3    0  502 -0.37981904761E+02 -0.58141031865E+03 -0.16347988455E+04  0.17355316013E+04  0.46999998093E+01 0. -1.
</event>
<event>
 5   0  0.6351753E-07  0.3300778E+04  0.7818609E-02  0.8162698E-01
       -2   -1    0    0    0  501  0.00000000000E+00  0.00000000000E+00  0.12326368891E+04  0.12326368891E+04  0.25500000920E-02 0.  1.
        2   -1    0    0  501    0  0.00000000000E+00  0.00000000000E+00 -0.22097207133E+04  0.22097207133E+04  0.25500000920E-02 0. -1.
    10030    2    1    2    0    0  0.00000000000E+00  0.00000000000E+00 -0.97708382417E+03  0.34423576024E+04  0.33007776453E+04 0.  0.
        3    1    3    3  502    0 -0.81956875278E+03 -0.79292173866E+02  0.10031242135E+04  0.12977821032E+04  0.10100000352E+00 0.  1.
       -3    1    3    3    0  502  0.81956875278E+03  0.79292173866E+02 -0.19802080377E+04  0.21445754993E+04  0.10100000352E+00 0. -1.
</event>
<event>
 5   0  0.6258718E-07  0.3295421E+04  0.7818609E-02  0.8164061E-01
       -2   -1    0    0    0  501  0.00000000000E+00  0.00000000000E+00  0.25272996162E+04  0.25272996162E+04  0.25500000920E-02 0. -1.
        2   -1    0    0  501    0  0.00000000000E+00  0.00000000000E+00 -0.10742494845E+04  0.10742494845E+04  0.25500000920E-02 0.  1.
    10030    2    1    2    0    0  0.00000000000E+00  0.00000000000E+00  0.14530501317E+04  0.36015491008E+04  0.32954212538E+04 0.  0.
        5    1    3    3  502    0 -0.35582512467E+03  0.14030594257E+04  0.15868915776E+04  0.21478906491E+04  0.46999998093E+01 0. -1.
       -5    1    3    3    0  502  0.35582512467E+03 -0.14030594257E+04 -0.13384144592E+03  0.14536584516E+04  0.46999998093E+01 0.  1.
</event>
<event>
 5   0  0.2080770E-07  0.3302044E+04  0.7818609E-02  0.8162375E-01
        1   -1    0    0  501    0  0.00000000000E+00  0.00000000000E+00  0.24586977848E+04  0.24586977848E+04  0.50400001928E-02 0.  1.
       -1   -1    0    0    0  501  0.00000000000E+00  0.00000000000E+00 -0.11086658732E+04  0.11086658732E+04  0.50400001928E-02 0. -1.
    10030    2    1    2    0    0  0.00000000000E+00  0.00000000000E+00  0.13500319116E+04  0.35673636580E+04  0.33020444131E+04 0.  0.
        4    1    3    3  502    0 -0.46526228700E+03 -0.58373389864E+03  0.22659788586E+04  0.23857652987E+04  0.12699999809E+01 0.  1.
       -4    1    3    3    0  502  0.46526228700E+03  0.58373389864E+03 -0.91594694697E+03  0.11815983593E+04  0.12699999809E+01 0. -1.
</event>
<event>
 5   0  0.2087665E-07  0.3302971E+04  0.7818609E-02  0.8162140E-01
       -1   -1    0    0    0  501  0.00000000000E+00  0.00000000000E+00  0.98225470139E+03  0.98225470140E+03  0.50400001928E-02 0.  1.
        1   -1    0    0  501    0  0.00000000000E+00  0.00000000000E+00 -0.27766777784E+04  0.27766777784E+04  0.50400001928E-02 0. -1.
    10030    2    1    2    0    0  0.00000000000E+00  0.00000000000E+00 -0.17944230770E+04  0.37589324798E+04  0.33029712697E+04 0.  0.
        5    1    3    3  502    0  0.18253866470E+02  0.10792478159E+04 -0.23196657125E+04  0.25585113171E+04  0.46999998093E+01 0. -1.
       -5    1    3    3    0  502 -0.18253866470E+02 -0.10792478159E+04  0.52524263550E+03  0.12004211627E+04  0.46999998093E+01 0.  1.
</event>
<event>
 5   0  0.2037333E-07  0.3296313E+04  0.7818609E-02  0.8163834E-01
        1   -1    0    0  501    0  0.00000000000E+00  0.00000000000E+00  0.21981964592E+04  0.21981964592E+04  0.50400001928E-02 0.  1.
       -1   -1    0    0    0  501  0.00000000000E+00  0.00000000000E+00 -0.12357494318E+04  0.12357494318E+04  0.50400001928E-02 0. -1.
    10030    2    1    2    0    0  0.00000000000E+00  0.00000000000E+00  0.96244702735E+03  0.34339458910E+04  0.32963131074E+04 0.  0.
        3    1    3    3  502    0 -0.15948636446E+04  0.72416538515E+02  0.54758293393E+02  0.15974456738E+04  0.10100000352E+00 0.  1.
       -3    1    3    3    0  502  0.15948636446E+04 -0.72416538515E+02  0.90768873396E+03  0.18365002172E+04  0.10100000352E+00 0. -1.
</event>
<event>
 5   0  0.2087665E-07  0.3301842E+04  0.7818609E-02  0.8162427E-01
       -1   -1    0    0    0  501  0.00000000000E+00  0.00000000000E+00  0.11148048030E+04  0.11148048030E+04  0.50400001928E-02 0.  1.
        1   -1    0    0  501    0  0.00000000000E+00  0.00000000000E+00 -0.24448582743E+04  0.24448582743E+04  0.50400001928E-02 0. -1.
    10030    2    1    2    0    0  0.00000000000E+00  0.00000000000E+00 -0.13300534714E+04  0.35596630773E+04  0.33018417569E+04 0.  0.
        5    1    3    3  502    0  0.75235186202E+03  0.26912302968E+02 -0.22490254531E+04  0.23716861460E+04  0.46999998093E+01 0. -1.
       -5    1    3    3    0  502 -0.75235186202E+03 -0.26912302968E+02  0.91897198170E+03  0.11879769314E+04  0.46999998093E+01 0.  1.
</event>
<event>
 5   0  0.6424183E-07  0.3311759E+04  0.7818609E-02  0.8159910E-01
       -2   -1    0    0    0  501  0.00000000000E+00  0.00000000000E+00  0.15677330792E+04  0.15677330792E+04  0.25500000920E-02 0. -1.
        2   -1    0    0  501    0  0.00000000000E+00  0.00000000000E+00 -0.17489821911E+04  0.17489821911E+04  0.25500000920E-02 0.  1.
    10030    2    1    2    0    0  0.00000000000E+00  0.00000000000E+00 -0.18124911190E+03  0.33167152703E+04  0.33117591917E+04 0.  0.
        2    1    3    3  502    0 -0.59341181965E+03 -0.10708661969E+04  0.10259633170E+04  0.15973392649E+04  0.25500000920E-02 0. -1.
       -2    1    3    3    0  502  0.59341181965E+03  0.10708661969E+04 -0.12072124289E+04  0.17193760054E+04  0.25500000920E-02 0.  1.
</event>
<event>
 5   0  0.6351753E-07  0.3302840E+04  0.7818609E-02  0.8162173E-01
       -2   -1    0    0    0  501  0.00000000000E+00  0.00000000000E+00  0.25568503638E+04  0.25568503638E+04  0.25500000920E-02 0. -1.
        2   -1    0    0  501    0  0.00000000000E+00  0.00000000000E+00 -0.10666202939E+04  0.10666202939E+04  0.25500000920E-02 0.  1.
    10030    2    1    2    0    0  0.00000000000E+00  0.00000000000E+00  0.14902300699E+04  0.36234706577E+04  0.33028402846E+04 0.  0.
        3    1    3    3  502    0  0.34818708764E+03  0.11455859294E+04  0.19928864002E+04  0.23249080808E+04  0.10100000352E+00 0. -1.
       -3    1    3    3    0  502 -0.34818708764E+03 -0.11455859294E+04 -0.50265633028E+03  0.12985625769E+04  0.10100000352E+00 0.  1.
</event>
<event>
 5   0  0.6351753E-07  0.3316825E+04  0.7818609E-02  0.8158627E-01
        2   -1    0    0  501    0  0.00000000000E+00  0.00000000000E+00  0.20231892032E+04  0.20231892032E+04  0.25500000920E-02 0. -1.
       -2   -1    0    0    0  501  0.00000000000E+00  0.00000000000E+00 -0.13594044926E+04  0.13594044926E+04  0.25500000920E-02 0.  1.
    10030    2    1    2    0    0  0.00000000000E+00  0.00000000000E+00  0.66378471065E+03  0.33825936958E+04  0.33168252847E+04 0.  0.
        3    1    3    3  502    0  0.77200222200E+03 -0.35389276055E+03 -0.11208195526E+04  0.14062233096E+04  0.10100000352E+00 0.  1.
       -3    1    3    3    0  502 -0.77200222200E+03  0.35389276055E+03  0.17846042633E+04  0.19763703862E+04  0.10100000352E+00 0. -1.
</event>
<event>
 5   0  0.2057130E-07  0.3266212E+04  0.7818609E-02  0.8171546E-01
       -1   -1    0    0    0  501  0.00000000000E+00  0.00000000000E+00  0.17387381275E+04  0.17387381275E+04  0.50400001928E-02 0. -1.
        1   -1    0    0  501    0  0.00000000000E+00  0.00000000000E+00 -0.15338914614E+04  0.15338914614E+04  0.50400001928E-02 0.  1.
    10030    2    1    2    0    0  0.00000000000E+00  0.00000000000E+00  0.20484666605E+03  0.32726295889E+04  0.32662122205E+04 0.  0.
        2    1    3    3  502    0 -0.80536261723E+03 -0.13902825477E+04  0.39547201094E+03  0.16546578556E+04  0.25500000920E-02 0. -1.
       -2    1    3    3    0  502  0.80536261723E+03  0.13902825477E+04 -0.19062534489E+03  0.16179717333E+04  0.25500000920E-02 0.  1.
</event>
<event>
 5   0  0.6426079E-07  0.3328279E+04  0.7818609E-02  0.8155737E-01
       -2   -1    0    0    0  501  0.00000000000E+00  0.00000000000E+00  0.11438136875E+04  0.11438136875E+04  0.25500000920E-02 0. -1.
        2   -1    0    0  501    0  0.00000000000E+00  0.00000000000E+00 -0.24211642829E+04  0.24211642829E+04  0.25500000920E-02 0.  1.
    10030    2    1    2    0    0  0.00000000000E+00  0.00000000000E+00 -0.12773505953E+04  0.35649779704E+04  0.33282793432E+04 0.  0.
        4    1    3    3  502    0  0.86803780302E+02  0.62546299702E+03  0.10105048090E+04  0.11915789688E+04  0.12699999809E+01 0. -1.
       -4    1    3    3    0  502 -0.86803780302E+02 -0.62546299702E+03 -0.22878554043E+04  0.23733990016E+04  0.12699999809E+01 0.  1.
</event>
<event>
 5   0  0.6351753E-07  0.3314119E+04  0.7818609E-02  0.8159312E-01
        2   -1    0    0  501    0  0.00000000000E+00  0.00000000000E+00  0.14169482069E+04  0.14169482069E+04  0.25500000920E-02 0. -1.
       -2   -1    0    0    0  501  0.00000000000E+00  0.00000000000E+00 -0.19378594574E+04  0.19378594574E+04  0.25500000920E-02 0.  1.
    10030    2    1    2    0    0  0.00000000000E+00  0.00000000000E+00 -0.52091125050E+03  0.33548076642E+04  0.33141191791E+04 0.  0.
        3    1    3    3  502    0  0.11255870364E+04  0.59032046157E+03 -0.13367221052E+04  0.18445190214E+04  0.10100000352E+00 0.  1.
       -3    1    3    3    0  502 -0.11255870364E+04 -0.59032046157E+03  0.81581085466E+03  0.15102886428E+04  0.10100000352E+00 0. -1.
</event>
<event>
 5   0  0.6351753E-07  0.3315286E+04  0.7818609E-02  0.8159017E-01
        2   -1    0    0  501    0  0.00000000000E+00  0.00000000000E+00  0.19615797391E+04  0.19615797391E+04  0.25500000920E-02 0. -1.
       -2   -1    0    0    0  501  0.00000000000E+00  0.00000000000E+00 -0.14008001087E+04  0.14008001087E+04  0.25500000920E-02 0.  1.
    10030    2    1    2    0    0  0.00000000000E+00  0.00000000000E+00  0.56077963035E+03  0.33623798478E+04  0.33152864804E+04 0.  0.
        3    1    3    3  502    0 -0.26411131056E+03  0.12063026321E+04 -0.84114853964E+03  0.14941391169E+04  0.10100000352E+00 0.  1.
       -3    1    3    3    0  502  0.26411131056E+03 -0.12063026321E+04  0.14019281700E+04  0.18682407309E+04  0.10100000352E+00 0. -1.
</event>
<event>
 5   0  0.6351753E-07  0.3275695E+04  0.7818609E-02  0.8169108E-01
       -2   -1    0    0    0  501  0.00000000000E+00  0.00000000000E+00  0.13002180385E+04  0.13002180385E+04  0.25500000920E-02 0. -1.
        2   -1    0    0  501    0  0.00000000000E+00  0.00000000000E+00 -0.20631494086E+04  0.20631494086E+04  0.25500000920E-02 0.  1.
    10030    2    1    2    0    0  0.00000000000E+00  0.00000000000E+00 -0.76293137002E+03  0.33633674471E+04  0.32756947826E+04 0.  0.
        3    1    3    3  502    0  0.12423152644E+04  0.28827588470E+03 -0.14366349860E+04  0.19210336528E+04  0.10100000352E+00 0.  1.
       -3    1    3    3    0  502 -0.12423152644E+04 -0.28827588470E+03  0.67370361602E+03  0.14423337943E+04  0.10100000352E+00 0. -1.
</event>
<event>
 5   0  0.6258718E-07  0.3284239E+04  0.7818609E-02  0.8166917E-01
        2   -1    0    0  501    0  0.00000000000E+00  0.00000000000E+00  0.21263952552E+04  0.21263952552E+04  0.25500000920E-02 0.  1.
       -2   -1    0    0    0  501  0.00000000000E+00  0.00000000000E+00 -0.12681350802E+04  0.12681350802E+04  0.25500000920E-02 0. -1.
    10030    2    1    2    0    0  0.00000000000E+00  0.00000000000E+00  0.85826017497E+03  0.33945303354E+04  0.32842389789E+04 0.  0.
        5    1    3    3  502    0 -0.79096377498E+02  0.84154089571E+03  0.18842751859E+04  0.20651785352E+04  0.46999998093E+01 0.  1.
       -5    1    3    3    0  502  0.79096377498E+02 -0.84154089571E+03 -0.10260150109E+04  0.13293518002E+04  0.46999998093E+01 0. -1.
</event>
<event>
 5   0  0.2037333E-07  0.3303205E+04  0.7818609E-02  0.8162080E-01
       -1   -1    0    0    0  501  0.00000000000E+00  0.00000000000E+00  0.10347113157E+04  0.10347113157E+04  0.50400001928E-02 0.  1.
        1   -1    0    0  501    0  0.00000000000E+00  0.00000000000E+00 -0.26362821582E+04  0.26362821582E+04  0.50400001928E-02 0. -1.
    10030    2    1    2    0    0  0.00000000000E+00  0.00000000000E+00 -0.16015708425E+04  0.36709934740E+04  0.33032050984E+04 0.  0.
        3    1    3    3  502    0 -0.23801809803E+03 -0.18219722971E+03 -0.26058000946E+04  0.26229835282E+04  0.10100000352E+00 0. -1.
       -3    1    3    3    0  502  0.23801809803E+03  0.18219722971E+03  0.10042292521E+04  0.10480099458E+04  0.10100000352E+00 0.  1.
</event>
<event>
 5   0  0.2057130E-07  0.3383095E+04  0.7818609E-02  0.8142068E-01
        1   -1    0    0  501    0  0.00000000000E+00  0.00000000000E+00  0.18620103368E+04  0.18620103368E+04  0.50400001928E-02 0.  1.
       -1   -1    0    0    0  501  0.00000000000E+00  0.00000000000E+00 -0.15366906026E+04  0.15366906027E+04  0.50400001928E-02 0. -1.
    10030    2    1    2    0    0  0.00000000000E+00  0.00000000000E+00  0.32531973411E+03  0.33987009394E+04  0.33830954976E+04 0.  0.
        2    1    3    3  502    0  0.11205301801E+04  0.35227005279E+03  0.13855058408E+04  0.18163998760E+04  0.25500000920E-02 0.  1.
       -2    1    3    3    0  502 -0.11205301801E+04 -0.35227005279E+03 -0.10601861067E+04  0.15823010634E+04  0.25500000920E-02 0. -1.
</event>
<event>
 5   0  0.2080770E-07  0.3301300E+04  0.7818609E-02  0.8162565E-01
        1   -1    0    0  501    0  0.00000000000E+00  0.00000000000E+00  0.14649512523E+04  0.14649512523E+04  0.50400001928E-02 0. -1.
       -1   -1    0    0    0  501  0.00000000000E+00  0.00000000000E+00 -0.18598882488E+04  0.18598882488E+04  0.50400001928E-02 0.  1.
    10030    2    1    2    0    0  0.00000000000E+00  0.00000000000E+00 -0.39493699650E+03  0.33248395011E+04  0.33013001192E+04 0.  0.
        4    1    3    3  502    0  0.49824293437E+03 -0.13375905531E+04  0.63744771236E+03  0.15632452489E+04  0.12699999809E+01 0. -1.
       -4    1    3    3    0  502 -0.49824293437E+03  0.13375905531E+04 -0.10323847089E+04  0.17615942522E+04  0.12699999809E+01 0.  1.
</event>
<event>
 5   0  0.6351753E-07  0.3194706E+04  0.7818609E-02  0.8190217E-01
        2   -1    0    0  501    0  0.00000000000E+00  0.00000000000E+00  0.15352432009E+04  0.15352432009E+04  0.25500000920E-02 0. -1.
       -2   -1    0    0    0  501  0.00000000000E+00  0.00000000000E+00 -0.16619756537E+04  0.16619756537E+04  0.25500000920E-02 0.  1.
    10030    2    1    2    0    0  0.00000000000E+00  0.00000000000E+00 -0.12673245276E+03  0.31972188545E+04  0.31947061350E+04 0.  0.
        3    1    3    3  502    0 -0.96341910990E+03  0.12672221270E+04  0.69057578961E+02  0.15933603673E+04  0.10100000352E+00 0. -1.
       -3    1    3    3    0  502  0.96341910990E+03 -0.12672221270E+04 -0.19579003173E+03  0.16038584873E+04  0.10100000352E+00 0.  1.
</event>
<event>
 5   0  0.6351753E-07  0.3296292E+04  0.7818609E-02  0.8163839E-01
       -2   -1    0    0    0  501  0.00000000000E+00  0.00000000000E+00  0.13519672803E+04  0.13519672803E+04  0.25500000920E-02 0.  1.
        2   -1    0    0  501    0  0.00000000000E+00  0.00000000000E+00 -0.20092096400E+04  0.20092096400E+04  0.25500000920E-02 0. -1.
    10030    2    1    2    0    0  0.00000000000E+00  0.00000000000E+00 -0.65724235969E+03  0.33611769204E+04  0.32962922763E+04 0.  0.
        3    1    3    3  502    0  0.99427862775E+03 -0.11486353217E+04 -0.98028836777E+03  0.18080150404E+04  0.10100000352E+00 0. -1.
       -3    1    3    3    0  502 -0.99427862775E+03  0.11486353217E+04  0.32304600808E+03  0.15531618800E+04  0.10100000352E+00 0.  1.
</event>
<event>
 5   0  0.6377741E-07  0.3282144E+04  0.7818609E-02  0.8167454E-01
        2   -1    0    0  501    0  0.00000000000E+00  0.00000000000E+00  0.17984043587E+04  0.17984043587E+04  0.25500000920E-02 0. -1.
       -2   -1    0    0    0  501  0.00000000000E+00  0.00000000000E+00 -0.14975041594E+04  0.14975041594E+04  0.25500000920E-02 0.  1.
    10030    2    1    2    0    0  0.00000000000E+00  0.00000000000E+00  0.30090019933E+03  0.32959085181E+04  0.32821444255E+04 0.  0.
        1    1    3    3  502    0  0.30882534024E+03  0.10904705304E+04  0.13422798523E+04  0.17567624399E+04  0.50400001928E-02 0. -1.
       -1    1    3    3    0  502 -0.30882534024E+03 -0.10904705304E+04 -0.10413796529E+04  0.15391460782E+04  0.50400001928E-02 0.  1.
</event>
<event>
 5   0  0.2080828E-07  0.3302528E+04  0.7818609E-02  0.8162252E-01
        1   -1    0    0  501    0  0.00000000000E+00  0.00000000000E+00  0.12235193195E+04  0.12235193195E+04  0.50400001928E-02 0.  1.
       -1   -1    0    0    0  501  0.00000000000E+00  0.00000000000E+00 -0.22285487281E+04  0.22285487281E+04  0.50400001928E-02 0. -1.
    10030    2    1    2    0    0  0.00000000000E+00  0.00000000000E+00 -0.10050294086E+04  0.34520680476E+04  0.33025277733E+04 0.  0.
        1    1    3    3  502    0  0.69542277699E+03  0.42636644949E+03  0.99820795791E+03  0.12891160984E+04  0.50400001928E-02 0.  1.
       -1    1    3    3    0  502 -0.69542277699E+03 -0.42636644949E+03 -0.20032373665E+04  0.21629519492E+04  0.50400001928E-02 0. -1.
</event>
<event>
 5   0  0.6424183E-07  0.3297817E+04  0.7818609E-02  0.8163451E-01
        2   -1    0    0  501    0  0.00000000000E+00  0.00000000000E+00  0.21804133943E+04  0.21804133944E+04  0.25500000920E-02 0.  1.
       -2   -1    0    0    0  501  0.00000000000E+00  0.00000000000E+00 -0.12469647960E+04  0.12469647960E+04  0.25500000920E-02 0. -1.
    10030    2    1    2    0    0  0.00000000000E+00  0.00000000000E+00  0.93344859836E+03  0.34273781903E+04  0.32978166980E+04 0.  0.
        2    1    3    3  502    0 -0.16195328964E+04 -0.22656289920E+03  0.68640803225E+03  0.17735200976E+04  0.25500000920E-02 0.  1.
       -2    1    3    3    0  502  0.16195328964E+04  0.22656289920E+03  0.24704056612E+03  0.16538580928E+04  0.25500000920E-02 0. -1.
</event>
<event>
 5   0  0.6351753E-07  0.3297844E+04  0.7818609E-02  0.8163444E-01
       -2   -1    0    0    0  501  0.00000000000E+00  0.00000000000E+00  0.16450403027E+04  0.16450403027E+04  0.25500000920E-02 0.  1.
        2   -1    0    0  501    0  0.00000000000E+00  0.00000000000E+00 -0.16528130330E+04  0.16528130330E+04  0.25500000920E-02 0. -1.
    10030    2    1    2    0    0  0.00000000000E+00  0.00000000000E+00 -0.77727303435E+01  0.32978533357E+04  0.32978441759E+04 0.  0.
        3    1    3    3  502    0 -0.14389812338E+04  0.45376076430E+03  0.66123067490E+03  0.16473590495E+04  0.10100000352E+00 0.  1.
       -3    1    3    3    0  502  0.14389812338E+04 -0.45376076430E+03 -0.66900340524E+03  0.16504942862E+04  0.10100000352E+00 0. -1.
</event>
<event>
 5   0  0.2080828E-07  0.3289752E+04  0.7818609E-02  0.8165508E-01
       -1   -1    0    0    0  501  0.00000000000E+00  0.00000000000E+00  0.15375852297E+04  0.15375852297E+04  0.50400001928E-02 0.  1.
        1   -1    0    0  501    0  0.00000000000E+00  0.00000000000E+00 -0.17596531808E+04  0.17596531808E+04  0.50400001928E-02 0. -1.
    10030    2    1    2    0    0  0.00000000000E+00  0.00000000000E+00 -0.22206795113E+03  0.32972384104E+04  0.32897518083E+04 0.  0.
        1    1    3    3  502    0 -0.37543572568E+03  0.54003952249E+03 -0.16221194901E+04  0.17503903308E+04  0.50400001928E-02 0. -1.
       -1    1    3    3    0  502  0.37543572568E+03 -0.54003952249E+03  0.14000515389E+04  0.15468480797E+04  0.50400001928E-02 0.  1.
</event>
<event>
 5   0  0.6426079E-07  0.3291172E+04  0.7818609E-02  0.8165145E-01
        2   -1    0    0  501    0  0.00000000000E+00  0.00000000000E+00  0.13635172973E+04  0.13635172973E+04  0.25500000920E-02 0.  1.
       -2   -1    0    0    0  501  0.00000000000E+00  0.00000000000E+00 -0.19860052914E+04  0.19860052914E+04  0.25500000920E-02 0. -1.
    10030    2    1    2    0    0  0.00000000000E+00  0.00000000000E+00 -0.62248799413E+03  0.33495225888E+04  0.32911715649E+04 0.  0.
        4    1    3    3  502    0  0.38889078451E+03 -0.74475510379E+03 -0.17512700968E+04  0.19423812117E+04  0.12699999809E+01 0. -1.
       -4    1    3    3    0  502 -0.38889078451E+03  0.74475510379E+03  0.11287821026E+04  0.14071413771E+04  0.12699999809E+01 0.  1.
</event>
<event>
 5   0  0.1994250E-07  0.3297242E+04  0.7818609E-02  0.8163597E-01
       -3   -1    0    0    0  501  0.00000000000E+00  0.00000000000E+00  0.15761422605E+04  0.15761422638E+04  0.10100000352E+00 0. -1.
        3   -1    0    0  501    0  0.00000000000E+00  0.00000000000E+00 -0.17244327145E+04  0.17244327175E+04  0.10100000352E+00 0.  1.
    10030    2    1    2    0    0  0.00000000000E+00  0.00000000000E+00 -0.14829045397E+03  0.33005749812E+04  0.32972420518E+04 0.  0.
        3    1    3    3  502    0  0.33881806356E+03  0.11135964808E+04  0.10945350056E+04  0.15977802386E+04  0.10100000352E+00 0. -1.
       -3    1    3    3    0  502 -0.33881806356E+03 -0.11135964808E+04 -0.12428254596E+04  0.17027947426E+04  0.10100000352E+00 0.  1.
</event>
<event>
 5   0  0.6258718E-07  0.3275776E+04  0.7818609E-02  0.8169087E-01
        2   -1    0    0  501    0  0.00000000000E+00  0.00000000000E+00  0.20194648250E+04  0.20194648250E+04  0.25500000920E-02 0.  1.
       -2   -1    0    0    0  501  0.00000000000E+00  0.00000000000E+00 -0.13284097632E+04  0.13284097632E+04  0.25500000920E-02 0. -1.
    10030    2    1    2    0    0  0.00000000000E+00  0.00000000000E+00  0.69105506179E+03  0.33478745883E+04  0.32757758105E+04 0.  0.
        5    1    3    3  502    0  0.73336656635E+03  0.11677692707E+04  0.12488032009E+04  0.18603878936E+04  0.46999998093E+01 0.  1.
       -5    1    3    3    0  502 -0.73336656635E+03 -0.11677692707E+04 -0.55774813908E+03  0.14874866947E+04  0.46999998093E+01 0. -1.
</event>
<event>
 5   0  0.6426079E-07  0.3299736E+04  0.7818609E-02  0.8162963E-01
       -2   -1    0    0    0  501  0.00000000000E+00  0.00000000000E+00  0.14916463396E+04  0.14916463396E+04  0.25500000920E-02 0. -1.
        2   -1    0    0  501    0  0.00000000000E+00  0.00000000000E+00 -0.18248723067E+04  0.18248723067E+04  0.25500000920E-02 0.  1.
    10030    2    1    2    0    0  0.00000000000E+00  0.00000000000E+00 -0.33322596710E+03  0.33165186462E+04  0.32997358054E+04 0.  0.
        4    1    3    3  502    0 -0.12765744602E+04 -0.61962800131E+03  0.67938136339E+03  0.15732583584E+04  0.12699999809E+01 0. -1.
       -4    1    3    3    0  502  0.12765744602E+04  0.61962800131E+03 -0.10126073305E+04  0.17432602878E+04  0.12699999809E+01 0.  1.
</event>
<event>
 5   0  0.6351753E-07  0.3301129E+04  0.7818609E-02  0.8162608E-01
        2   -1    0    0  501    0  0.00000000000E+00  0.00000000000E+00  0.10701525736E+04  0.10701525736E+04  0.25500000920E-02 0.  1.
       -2   -1    0    0    0  501  0.00000000000E+00  0.00000000000E+00 -0.25457710439E+04  0.25457710439E+04  0.25500000920E-02 0. -1.
    10030    2    1    2    0    0  0.00000000000E+00  0.00000000000E+00 -0.14756184703E+04  0.36159236176E+04  0.33011291611E+04 0.  0.
        3    1    3    3  502    0  0.98984019937E+03  0.11820756272E+04 -0.92311457830E+02  0.15445412990E+04  0.10100000352E+00 0. -1.
       -3    1    3    3    0  502 -0.98984019937E+03 -0.11820756272E+04 -0.13833070125E+04  0.20713823186E+04  0.10100000352E+00 0.  1.
</event>
<event>
 5   0  0.6258718E-07  0.3296457E+04  0.7818609E-02  0.8163797E-01
        2   -1    0    0  501    0  0.00000000000E+00  0.00000000000E+00  0.20609262603E+04  0.20609262603E+04  0.25500000920E-02 0.  1.
       -2   -1    0    0    0  501  0.00000000000E+00  0.00000000000E+00 -0.13181730783E+04  0.13181730783E+04  0.25500000920E-02 0. -1.
    10030    2    1    2    0    0  0.00000000000E+00  0.00000000000E+00  0.74275318191E+03  0.33790993386E+04  0.32964571969E+04 0.  0.
        5    1    3    3  502    0 -0.63106537069E+01 -0.56454335811E+03 -0.12159555868E+04  0.13406413042E+04  0.46999998093E+01 0. -1.
       -5    1    3    3    0  502  0.63106537069E+01  0.56454335811E+03  0.19587087687E+04  0.20384580344E+04  0.46999998093E+01 0.  1.
</event>
<event>
 5   0  0.6426079E-07  0.3292365E+04  0.7818609E-02  0.8164841E-01
       -2   -1    0    0    0  501  0.00000000000E+00  0.00000000000E+00  0.11994514086E+04  0.11994514086E+04  0.25500000920E-02 0. -1.
        2   -1    0    0  501    0  0.00000000000E+00  0.00000000000E+00 -0.22592973286E+04  0.22592973286E+04  0.25500000920E-02 0.  1.
    10030    2    1    2    0    0  0.00000000000E+00  0.00000000000E+00 -0.10598459200E+04  0.34587487371E+04  0.32923653279E+04 0.  0.
        4    1    3    3  502    0 -0.34052777757E+03 -0.15964136599E+04 -0.75381291242E+03  0.17979797720E+04  0.12699999809E+01 0.  1.
       -4    1    3    3    0  502  0.34052777757E+03  0.15964136599E+04 -0.30603300760E+03  0.16607689651E+04  0.12699999809E+01 0. -1.
</event>
<event>
 5   0  0.6351753E-07  0.3306232E+04  0.7818609E-02  0.8161312E-01
        2   -1    0    0  501    0  0.00000000000E+00  0.00000000000E+00  0.23298490539E+04  0.23298490539E+04  0.25500000920E-02 0.  1.
       -2   -1    0    0    0  501  0.00000000000E+00  0.00000000000E+00 -0.11729480178E+04  0.11729480178E+04  0.25500000920E-02 0. -1.
    10030    2    1    2    0    0  0.00000000000E+00  0.00000000000E+00  0.11569010361E+04  0.35027970717E+04  0.33062315887E+04 0.  0.
        3    1    3    3  502    0 -0.49144406939E+03  0.12446772315E+04 -0.44984846584E+03  0.14117727638E+04  0.10100000352E+00 0. -1.
       -3    1    3    3    0  502  0.49144406939E+03 -0.12446772315E+04  0.16067495019E+04  0.20910243079E+04  0.10100000352E+00 0.  1.
</event>
<event>
 5   0  0.2087665E-07  0.3306161E+04  0.7818609E-02  0.8161329E-01
        1   -1    0    0  501    0  0.00000000000E+00  0.00000000000E+00  0.16783306829E+04  0.16783306829E+04  0.50400001928E-02 0. -1.
       -1   -1    0    0    0  501  0.00000000000E+00  0.00000000000E+00 -0.16282101914E+04  0.16282101914E+04  0.50400001928E-02 0.  1.
    10030    2    1    2    0    0  0.00000000000E+00  0.00000000000E+00  0.50120491538E+02  0.33065408743E+04  0.33061609897E+04 0.  0.
        5    1    3    3  502    0  0.34179472494E+03  0.86078594325E+03 -0.13443585497E+04  0.16325128098E+04  0.46999998093E+01 0.  1.
       -5    1    3    3    0  502 -0.34179472494E+03 -0.86078594325E+03  0.13944790413E+04  0.16740280645E+04  0.46999998093E+01 0. -1.
</event>
<event>
 5   0  0.6377741E-07  0.3302156E+04  0.7818609E-02  0.8162347E-01
       -2   -1    0    0    0  501  0.00000000000E+00  0.00000000000E+00  0.10058118858E+04  0.10058118858E+04  0.25500000920E-02 0. -1.
        2   -1    0    0  501    0  0.00000000000E+00  0.00000000000E+00 -0.27103064539E+04  0.27103064539E+04  0.25500000920E-02 0.  1.
    10030    2    1    2    0    0  0.00000000000E+00  0.00000000000E+00 -0.17044945681E+04  0.37161183397E+04  0.33021559295E+04 0.  0.
        1    1    3    3  502    0  0.11296610369E+02 -0.13301302846E+04  0.24847123307E+03  0.13531859226E+04  0.50400001928E-02 0. -1.
       -1    1    3    3    0  502 -0.11296610369E+02  0.13301302846E+04 -0.19529658011E+04  0.23629324171E+04  0.50400001928E-02 0.  1.
</event>
<event>
 5   0  0.2037333E-07  0.3290594E+04  0.7818609E-02  0.8165293E-01
        1   -1    0    0  501    0  0.00000000000E+00  0.00000000000E+00  0.11989302896E+04  0.11989302896E+04  0.50400001928E-02 0. -1.
       -1   -1    0    0    0  501  0.00000000000E+00  0.00000000000E+00 -0.22578475165E+04  0.22578475165E+04  0.50400001928E-02 0.  1.
    10030    2    1    2    0    0  0.00000000000E+00  0.00000000000E+00 -0.10589172269E+04  0.34567778062E+04  0.32905937318E+04 0.  0.
        3    1    3    3  502    0  0.27215412780E+03 -0.12972020393E+04  0.49455301200E+03  0.14147026868E+04  0.10100000352E+00 0. -1.
       -3    1    3    3    0  502 -0.27215412780E+03  0.12972020393E+04 -0.15534702389E+04  0.20420751194E+04  0.10100000352E+00 0.  1.
</event>
<event>
 5   0  0.6426079E-07  0.3298557E+04  0.7818609E-02  0.8163263E-01
       -2   -1    0    0    0  501  0.00000000000E+00  0.00000000000E+00  0.21168820560E+04  0.21168820560E+04  0.25500000920E-02 0. -1.
        2   -1    0    0  501    0  0.00000000000E+00  0.00000000000E+00 -0.12849647276E+04  0.12849647276E+04  0.25500000920E-02 0.  1.
    10030    2    1    2    0    0  0.00000000000E+00  0.00000000000E+00  0.83191732840E+03  0.34018467835E+04  0.32985565172E+04 0.  0.
        4    1    3    3  502    0 -0.95900932618E+03  0.12870158206E+04  0.80732634639E+03  0.17966318634E+04  0.12699999809E+01 0. -1.
       -4    1    3    3    0  502  0.95900932618E+03 -0.12870158206E+04  0.24590982012E+02  0.16052149201E+04  0.12699999809E+01 0.  1.
</event>
<event>
 5   0  0.6377741E-07  0.3257000E+04  0.7818609E-02  0.8173924E-01
       -2   -1    0    0    0  501  0.00000000000E+00  0.00000000000E+00  0.10582477110E+04  0.10582477110E+04  0.25500000920E-02 0. -1.
        2   -1    0    0  501    0  0.00000000000E+00  0.00000000000E+00 -0.25060412684E+04  0.25060412684E+04  0.25500000920E-02 0.  1.
    10030    2    1    2    0    0  0.00000000000E+00  0.00000000000E+00 -0.14477935574E+04  0.35642889793E+04  0.32570001141E+04 0.  0.
        1    1    3    3  502    0 -0.64536764170E+03  0.53916345369E+03  0.80224321145E+03  0.11622352572E+04  0.50400001928E-02 0. -1.
       -1    1    3    3    0  502  0.64536764170E+03 -0.53916345369E+03 -0.22500367689E+04  0.24020537221E+04  0.50400001928E-02 0.  1.
</event>
<event>
 5   0  0.6426079E-07  0.3254933E+04  0.7818609E-02  0.8174458E-01
       -2   -1    0    0    0  501  0.00000000000E+00  0.00000000000E+00  0.10514037757E+04  0.10514037757E+04  0.25500000920E-02 0. -1.
        2   -1    0    0  501    0  0.00000000000E+00  0.00000000000E+00 -0.25191535435E+04  0.25191535435E+04  0.25500000920E-02 0.  1.
    10030    2    1    2    0    0  0.00000000000E+00  0.00000000000E+00 -0.14677497678E+04  0.35705573192E+04  0.32549332080E+04 0.  0.
        4    1    3    3  502    0  0.12082261304E+04 -0.10897994627E+04 -0.69630981006E+03  0.17698367766E+04  0.12699999809E+01 0. -1.
       -4    1    3    3    0  502 -0.12082261304E+04  0.10897994627E+04 -0.77143995779E+03  0.18007205426E+04  0.12699999809E+01 0.  1.
</event>
<event>
 5   0  0.6377741E-07  0.3235809E+04  0.7818609E-02  0.8179424E-01
        2   -1    0    0  501    0  0.00000000000E+00  0.00000000000E+00  0.25936740949E+04  0.25936740949E+04  0.25500000920E-02 0. -1.
       -2   -1    0    0    0  501  0.00000000000E+00  0.00000000000E+00 -0.10092301860E+04  0.10092301860E+04  0.25500000920E-02 0.  1.
    10030    2    1    2    0    0  0.00000000000E+00  0.00000000000E+00  0.15844439089E+04  0.36029042809E+04  0.32358085167E+04 0.  0.
        1    1    3    3  502    0 -0.46635637387E+03 -0.14080912859E+04  0.15115858834E+04  0.21178057559E+04  0.50400001928E-02 0. -1.
       -1    1    3    3    0  502  0.46635637387E+03  0.14080912859E+04  0.72858025450E+02  0.14850985249E+04  0.50400001928E-02 0.  1.
</event>
<event>
 5   0  0.2080828E-07  0.3299217E+04  0.7818609E-02  0.8163095E-01
       -1   -1    0    0    0  501  0.00000000000E+00  0.00000000000E+00  0.11747997123E+04  0.11747997123E+04  0.50400001928E-02 0. -1.
        1   -1    0    0  501    0  0.00000000000E+00  0.00000000000E+00 -0.23163164286E+04  0.23163164286E+04  0.50400001928E-02 0.  1.
    10030    2    1    2    0    0  0.00000000000E+00  0.00000000000E+00 -0.11415167164E+04  0.34911161409E+04  0.32992168003E+04 0.  0.
        1    1    3    3  502    0  0.27920979201E+03  0.67753601510E+03 -0.21346228457E+04  0.22569067001E+04  0.50400001928E-02 0.  1.
       -1    1    3    3    0  502 -0.27920979201E+03 -0.67753601510E+03  0.99310612928E+03  0.12342094408E+04  0.50400001928E-02 0. -1.
</event>
<event>
 5   0  0.2087665E-07  0.3301948E+04  0.7818609E-02  0.8162400E-01
       -1   -1    0    0    0  501  0.00000000000E+00  0.00000000000E+00  0.14619499614E+04  0.14619499614E+04  0.50400001928E-02 0.  1.
        1   -1    0    0  501    0  0.00000000000E+00  0.00000000000E+00 -0.18644385454E+04  0.18644385454E+04  0.50400001928E-02 0. -1.
    10030    2    1    2    0    0  0.00000000000E+00  0.00000000000E+00 -0.40248858403E+03  0.33263885068E+04  0.33019484305E+04 0.  0.
        5    1    3    3  502    0  0.12386145655E+04 -0.77663220529E+03  0.57148610981E+03  0.15696949028E+04  0.46999998093E+01 0.  1.
       -5    1    3    3    0  502 -0.12386145655E+04  0.77663220529E+03 -0.97397469384E+03  0.17566936040E+04  0.46999998093E+01 0. -1.
</event>
<event>
 5   0  0.6426079E-07  0.3453843E+04  0.7818609E-02  0.8124816E-01
        2   -1    0    0  501    0  0.00000000000E+00  0.00000000000E+00  0.20317275716E+04  0.20317275716E+04  0.25500000920E-02 0. -1.
       -2   -1    0    0    0  501  0.00000000000E+00  0.00000000000E+00 -0.14678435632E+04  0.14678435632E+04  0.25500000920E-02 0.  1.
    10030    2    1    2    0    0  0.00000000000E+00  0.00000000000E+00  0.56388400840E+03  0.34995711347E+04  0.34538432147E+04 0.  0.
        4    1    3    3  502    0  0.14654962149E+04  0.84821659522E+03  0.62570674726E+03  0.18051761949E+04  0.12699999809E+01 0.  1.
       -4    1    3    3    0  502 -0.14654962149E+04 -0.84821659522E+03 -0.61822738857E+02  0.16943949398E+04  0.12699999809E+01 0. -1.
</event>
<event>
 5   0  0.6377741E-07  0.3300833E+04  0.7818609E-02  0.8162683E-01
        2   -1    0    0  501    0  0.00000000000E+00  0.00000000000E+00  0.14644255596E+04  0.14644255596E+04  0.25500000920E-02 0.  1.
       -2   -1    0    0    0  501  0.00000000000E+00  0.00000000000E+00 -0.18600298592E+04  0.18600298592E+04  0.25500000920E-02 0. -1.
    10030    2    1    2    0    0  0.00000000000E+00  0.00000000000E+00 -0.39560429957E+03  0.33244554187E+04  0.33008333901E+04 0.  0.
        1    1    3    3  502    0 -0.12443762473E+04 -0.84051534922E+03  0.49188819496E+03  0.15801557814E+04  0.50400001928E-02 0.  1.
       -1    1    3    3    0  502  0.12443762473E+04  0.84051534922E+03 -0.88749249454E+03  0.17442996374E+04  0.50400001928E-02 0. -1.
</event>
<event>
 5   0  0.6424183E-07  0.3317766E+04  0.7818609E-02  0.8158389E-01
       -2   -1    0    0    0  501  0.00000000000E+00  0.00000000000E+00  0.16796775197E+04  0.16796775197E+04  0.25500000920E-02 0. -1.
        2   -1    0    0  501    0  0.00000000000E+00  0.00000000000E+00 -0.16383459528E+04  0.16383459528E+04  0.25500000920E-02 0.  1.
    10030    2    1    2    0    0  0.00000000000E+00  0.00000000000E+00  0.41331566931E+02  0.33180234725E+04  0.33177660354E+04 0.  0.
        2    1    3    3  502    0  0.11572038198E+04 -0.40608792678E+03  0.11378311435E+04  0.16729279111E+04  0.25500000920E-02 0. -1.
       -2    1    3    3    0  502 -0.11572038198E+04  0.40608792678E+03 -0.10964995765E+04  0.16450955614E+04  0.25500000920E-02 0.  1.
</event>
<event>
 5   0  0.6258718E-07  0.3299900E+04  0.7818609E-02  0.8162921E-01
       -2   -1    0    0    0  501  0.00000000000E+00  0.00000000000E+00  0.19569226796E+04  0.19569226796E+04  0.25500000920E-02 0.  1.
        2   -1    0    0  501    0  0.00000000000E+00  0.00000000000E+00 -0.13911308953E+04  0.13911308953E+04  0.25500000920E-02 0. -1.
    10030    2    1    2    0    0  0.00000000000E+00  0.00000000000E+00  0.56579178423E+03  0.33480535749E+04  0.32999003617E+04 0.  0.
        5    1    3    3  502    0 -0.67713451043E+03  0.98627522643E+03 -0.86993440287E+03  0.14792085461E+04  0.46999998093E+01 0. -1.
       -5    1    3    3    0  502  0.67713451043E+03 -0.98627522643E+03  0.14357261871E+04  0.18688450288E+04  0.46999998093E+01 0.  1.
</event>
<event>
 5   0  0.6424183E-07  0.3301572E+04  0.7818609E-02  0.8162496E-01
        2   -1    0    0  501    0  0.00000000000E+00  0.00000000000E+00  0.22521487165E+04  0.22521487165E+04  0.25500000920E-02 0. -1.
       -2   -1    0    0    0  501  0.00000000000E+00  0.00000000000E+00 -0.12099973449E+04  0.12099973449E+04  0.25500000920E-02 0.  1.
    10030    2    1    2    0    0  0.00000000000E+00  0.00000000000E+00  0.10421513716E+04  0.34621460614E+04  0.33015717271E+04 0.  0.
        2    1    3    3  502    0  0.10953645990E+04 -0.18024966661E+03  0.18022924548E+04  0.21167360817E+04  0.25500000920E-02 0. -1.
       -2    1    3    3    0  502 -0.10953645990E+04  0.18024966661E+03 -0.76014108326E+03  0.13454099797E+04  0.25500000920E-02 0.  1.
</event>
<event>
 5   0  0.2037333E-07  0.3294473E+04  0.7818609E-02  0.8164303E-01
       -1   -1    0    0    0  501  0.00000000000E+00  0.00000000000E+00  0.22452296911E+04  0.22452296911E+04  0.50400001928E-02 0.  1.
        1   -1    0    0  501    0  0.00000000000E+00  0.00000000000E+00 -0.12085124513E+04  0.12085124513E+04  0.50400001928E-02 0. -1.
    10030    2    1    2    0    0  0.00000000000E+00  0.00000000000E+00  0.10367172399E+04  0.34537421424E+04  0.32944729701E+04 0.  0.
        3    1    3    3  502    0 -0.66845009464E+03 -0.90311113641E+03  0.17811470662E+04  0.21059250071E+04  0.10100000352E+00 0.  1.
       -3    1    3    3    0  502  0.66845009464E+03  0.90311113641E+03 -0.74442982634E+03  0.13478171353E+04  0.10100000352E+00 0. -1.
</event>
<event>
 5   0  0.6377741E-07  0.3307412E+04  0.7818609E-02  0.8161012E-01
       -2   -1    0    0    0  501  0.00000000000E+00  0.00000000000E+00  0.13327152047E+04  0.13327152047E+04  0.25500000920E-02 0. -1.
        2   -1    0    0  501    0  0.00000000000E+00  0.00000000000E+00 -0.20520089180E+04  0.20520089180E+04  0.25500000920E-02 0.  1.
    10030    2    1    2    0    0  0.00000000000E+00  0.00000000000E+00 -0.71929371325E+03  0.33847241227E+04  0.33074119703E+04 0.  0.
        1    1    3    3  502    0 -0.15247757457E+04 -0.11660624180E+03 -0.10038089655E+04  0.18292540911E+04  0.50400001928E-02 0.  1.
       -1    1    3    3    0  502  0.15247757457E+04  0.11660624180E+03  0.28451525230E+03  0.15554700316E+04  0.50400001928E-02 0. -1.
</event>
<event>
 5   0  0.2080770E-07  0.3286493E+04  0.7818609E-02  0.8166341E-01
        1   -1    0    0  501    0  0.00000000000E+00  0.00000000000E+00  0.84375656008E+03  0.84375656009E+03  0.50400001928E-02 0.  1.
       -1   -1    0    0    0  501  0.00000000000E+00  0.00000000000E+00 -0.32002826579E+04  0.32002826579E+04  0.50400001928E-02 0. -1.
    10030    2    1    2    0    0  0.00000000000E+00  0.00000000000E+00 -0.23565260978E+04  0.40440392180E+04  0.32864932598E+04 0.  0.
        4    1    3    3  502    0  0.22986822598E+03 -0.13194740992E+04 -0.67580771946E+01  0.13393649930E+04  0.12699999809E+01 0.  1.
       -4    1    3    3    0  502 -0.22986822598E+03  0.13194740992E+04 -0.23497680206E+04  0.27046742250E+04  0.12699999809E+01 0. -1.
</event>
<event>
 5   0  0.2080770E-07  0.3298928E+04  0.7818609E-02  0.8163168E-01
        1   -1    0    0  501    0  0.00000000000E+00  0.00000000000E+00  0.19381410449E+04  0.19381410450E+04  0.50400001928E-02 0.  1.
       -1   -1    0    0    0  501  0.00000000000E+00  0.00000000000E+00 -0.14037838468E+04  0.14037838468E+04  0.50400001928E-02 0. -1.
    10030    2    1    2    0    0  0.00000000000E+00  0.00000000000E+00  0.53435719815E+03  0.33419248918E+04  0.32989277602E+04 0.  0.
        4    1    3    3  502    0  0.11242212243E+04 -0.88389719070E+03  0.10998293423E+04  0.18040991658E+04  0.12699999809E+01 0.  1.
       -4    1    3    3    0  502 -0.11242212243E+04  0.88389719070E+03 -0.56547214411E+03  0.15378257260E+04  0.12699999809E+01 0. -1.
</event>
<event>
 5   0  0.6351753E-07  0.3307202E+04  0.7818609E-02  0.8161065E-01
        2   -1    0    0  501    0  0.00000000000E+00  0.00000000000E+00  0.17675123298E+04  0.17675123298E+04  0.25500000920E-02 0.  1.
       -2   -1    0    0    0  501  0.00000000000E+00  0.00000000000E+00 -0.15470310325E+04  0.15470310325E+04  0.25500000920E-02 0. -1.
    10030    2    1    2    0    0  0.00000000000E+00  0.00000000000E+00  0.22048129721E+03  0.33145433623E+04  0.33072020952E+04 0.  0.
        3    1    3    3  502    0  0.23584209366E+02  0.15320117405E+04 -0.51305644563E+03  0.16158103585E+04  0.10100000352E+00 0. -1.
       -3    1    3    3    0  502 -0.23584209366E+02 -0.15320117405E+04  0.73353774284E+03  0.16987330038E+04  0.10100000352E+00 0.  1.
</event>
<event>
 5   0  0.6258718E-07  0.3293085E+04  0.7818609E-02  0.8164657E-01
       -2   -1    0    0    0  501  0.00000000000E+00  0.00000000000E+00  0.15102749078E+04  0.15102749078E+04  0.25500000920E-02 0. -1.
        2   -1    0    0  501    0  0.00000000000E+00  0.00000000000E+00 -0.17951055113E+04  0.17951055113E+04  0.25500000920E-02 0.  1.
    10030    2    1    2    0    0  0.00000000000E+00  0.00000000000E+00 -0.28483060351E+03  0.33053804190E+04  0.32930853681E+04 0.  0.
        5    1    3    3  502    0 -0.46854892519E+03  0.72269628430E+03 -0.15509553066E+04  0.17740666470E+04  0.46999998093E+01 0.  1.
       -5    1    3    3    0  502  0.46854892519E+03 -0.72269628430E+03  0.12661247031E+04  0.15313137721E+04  0.46999998093E+01 0. -1.
</event>
<event>
 5   0  0.6258718E-07  0.3305300E+04  0.7818609E-02  0.8161548E-01
       -2   -1    0    0    0  501  0.00000000000E+00  0.00000000000E+00  0.29720569276E+04  0.29720569276E+04  0.25500000920E-02 0. -1.
        2   -1    0    0  501    0  0.00000000000E+00  0.00000000000E+00 -0.91897702280E+03  0.91897702280E+03  0.25500000920E-02 0.  1.
    10030    2    1    2    0    0  0.00000000000E+00  0.00000000000E+00  0.20530799048E+04  0.38910339504E+04  0.33053000027E+04 0.  0.
        5    1    3    3  502    0 -0.89692700738E+03  0.23651656313E+03  0.26367005173E+04  0.27951081999E+04  0.46999998093E+01 0. -1.
       -5    1    3    3    0  502  0.89692700738E+03 -0.23651656313E+03 -0.58362061253E+03  0.10959257505E+04  0.46999998093E+01 0.  1.
</event>
<event>
 5   0  0.6377741E-07  0.3297998E+04  0.7818609E-02  0.8163405E-01
        2   -1    0    0  501    0  0.00000000000E+00  0.00000000000E+00  0.16936328254E+04  0.16936328254E+04  0.25500000920E-02 0. -1.
       -2   -1    0    0    0  501  0.00000000000E+00  0.00000000000E+00 -0.16055412684E+04  0.16055412684E+04  0.25500000920E-02 0.  1.
    10030    2    1    2    0    0  0.00000000000E+00  0.00000000000E+00  0.88091557032E+02  0.32991740939E+04  0.32979978137E+04 0.  0.
        1    1    3    3  502    0  0.50409372892E+03  0.13427982196E+04  0.85795740933E+03  0.16713193778E+04  0.50400001928E-02 0. -1.
       -1    1    3    3    0  502 -0.50409372892E+03 -0.13427982196E+04 -0.76986585229E+03  0.16278547161E+04  0.50400001928E-02 0.  1.
</event>
<event>
 5   0  0.2080828E-07  0.3289284E+04  0.7818609E-02  0.8165628E-01
       -1   -1    0    0    0  501  0.00000000000E+00  0.00000000000E+00  0.17012600013E+04  0.17012600013E+04  0.50400001928E-02 0. -1.
        1   -1    0    0  501    0  0.00000000000E+00  0.00000000000E+00 -0.15899079586E+04  0.15899079586E+04  0.50400001928E-02 0.  1.
    10030    2    1    2    0    0  0.00000000000E+00  0.00000000000E+00  0.11135204271E+03  0.32911679600E+04  0.32892837006E+04 0.  0.
        1    1    3    3  502    0  0.90250610038E+03  0.73675033770E+03  0.12171719509E+04  0.16848815625E+04  0.50400001928E-02 0. -1.
       -1    1    3    3    0  502 -0.90250610038E+03 -0.73675033770E+03 -0.11058199082E+04  0.16062863975E+04  0.50400001928E-02 0.  1.
</event>
<event>
 5   0  0.1994250E-07  0.3263811E+04  0.7818609E-02  0.8172165E-01
        3   -1    0    0  501    0  0.00000000000E+00  0.00000000000E+00  0.18345026307E+04  0.18345026334E+04  0.10100000352E+00 0. -1.
       -3   -1    0    0    0  501  0.00000000000E+00  0.00000000000E+00 -0.14516826287E+04  0.14516826323E+04  0.10100000352E+00 0.  1.
    10030    2    1    2    0    0  0.00000000000E+00  0.00000000000E+00  0.38282000191E+03  0.32861852657E+04  0.32638110311E+04 0.  0.
        3    1    3    3  502    0  0.81960407977E+03  0.16634161599E+03  0.16023354914E+04  0.18074566158E+04  0.10100000352E+00 0. -1.
       -3    1    3    3    0  502 -0.81960407977E+03 -0.16634161599E+03 -0.12195154895E+04  0.14787286499E+04  0.10100000352E+00 0.  1.
</event>
<event>
 5   0  0.6258718E-07  0.3302522E+04  0.7818609E-02  0.8162254E-01
        2   -1    0    0  501    0  0.00000000000E+00  0.00000000000E+00  0.19612164105E+04  0.19612164105E+04  0.25500000920E-02 0. -1.
       -2   -1    0    0    0  501  0.00000000000E+00  0.00000000000E+00 -0.13902914538E+04  0.13902914538E+04  0.25500000920E-02 0.  1.
    10030    2    1    2    0    0  0.00000000000E+00  0.00000000000E+00  0.57092495666E+03  0.33515078643E+04  0.33025217120E+04 0.  0.
        5    1    3    3  502    0  0.85787515503E+03  0.81840464296E+03  0.14518161261E+04  0.18744407420E+04  0.46999998093E+01 0. -1.
       -5    1    3    3    0  502 -0.85787515503E+03 -0.81840464296E+03 -0.88089116945E+03  0.14770671223E+04  0.46999998093E+01 0.  1.
</event>
<event>
 5   0  0.6424183E-07  0.3307613E+04  0.7818609E-02  0.8160961E-01
       -2   -1    0    0    0  501  0.00000000000E+00  0.00000000000E+00  0.11401716772E+04  0.11401716772E+04  0.25500000920E-02 0. -1.
        2   -1    0    0  501    0  0.00000000000E+00  0.00000000000E+00 -0.23988278188E+04  0.23988278188E+04  0.25500000920E-02 0.  1.
    10030    2    1    2    0    0  0.00000000000E+00  0.00000000000E+00 -0.12586561415E+04  0.35389994960E+04  0.33076127570E+04 0.  0.
        2    1    3    3  502    0 -0.12250378212E+04 -0.61527468881E+03 -0.16191354735E+04  0.21215278191E+04  0.25500000920E-02 0.  1.
       -2    1    3    3    0  502  0.12250378212E+04  0.61527468881E+03  0.36047933193E+03  0.14174716769E+04  0.25500000920E-02 0. -1.
</event>
<event>
 5   0  0.6351753E-07  0.3310959E+04  0.7818609E-02  0.8160113E-01
        2   -1    0    0  501    0  0.00000000000E+00  0.00000000000E+00  0.14958994461E+04  0.14958994461E+04  0.25500000920E-02 0. -1.
       -2   -1    0    0    0  501  0.00000000000E+00  0.00000000000E+00 -0.18320830617E+04  0.18320830617E+04  0.25500000920E-02 0.  1.
    10030    2    1    2    0    0  0.00000000000E+00  0.00000000000E+00 -0.33618361568E+03  0.33279825078E+04  0.33109587960E+04 0.  0.
        3    1    3    3  502    0 -0.16469782284E+04 -0.28952750791E+02 -0.33397514070E+03  0.16807483307E+04  0.10100000352E+00 0. -1.
       -3    1    3    3    0  502  0.16469782284E+04  0.28952750791E+02 -0.22084749749E+01  0.16472341771E+04  0.10100000352E+00 0.  1.
</event>
<event>
 5   0  0.2080828E-07  0.3297594E+04  0.7818609E-02  0.8163508E-01
        1   -1    0    0  501    0  0.00000000000E+00  0.00000000000E+00  0.12892441744E+04  0.12892441744E+04  0.50400001928E-02 0.  1.
       -1   -1    0    0    0  501  0.00000000000E+00  0.00000000000E+00 -0.21086241958E+04  0.21086241958E+04  0.50400001928E-02 0. -1.
    10030    2    1    2    0    0  0.00000000000E+00  0.00000000000E+00 -0.81938002133E+03  0.33978683702E+04  0.32975939474E+04 0.  0.
        1    1    3    3  502    0  0.15517261530E+04 -0.36550789302E+03  0.23916535701E+02  0.15943720001E+04  0.50400001928E-02 0.  1.
       -1    1    3    3    0  502 -0.15517261530E+04  0.36550789302E+03 -0.84329655703E+03  0.18034963701E+04  0.50400001928E-02 0. -1.
</event>
<event>
 5   0  0.6351753E-07  0.3326291E+04  0.7818609E-02  0.8156238E-01
       -2   -1    0    0    0  501  0.00000000000E+00  0.00000000000E+00  0.11368312929E+04  0.11368312929E+04  0.25500000920E-02 0. -1.
        2   -1    0    0  501    0  0.00000000000E+00  0.00000000000E+00 -0.24331253852E+04  0.24331253852E+04  0.25500000920E-02 0.  1.
    10030    2    1    2    0    0  0.00000000000E+00  0.00000000000E+00 -0.12962940922E+04  0.35699566781E+04  0.33262910742E+04 0.  0.
        3    1    3    3  502    0  0.90375922647E+03 -0.28930243784E+03 -0.21140634959E+04  0.23172701859E+04  0.10100000352E+00 0.  1.
       -3    1    3    3    0  502 -0.90375922647E+03  0.28930243784E+03  0.81776940362E+03  0.12526864922E+04  0.10100000352E+00 0. -1.
</event>
<event>
 5   0  0.1994250E-07  0.3281077E+04  0.7818609E-02  0.8167727E-01
       -4   -1    0    0    0  501  0.00000000000E+00  0.00000000000E+00  0.18100761174E+04  0.18100765629E+04  0.12699999809E+01 0. -1.
        4   -1    0    0  501    0  0.00000000000E+00  0.00000000000E+00 -0.14868795245E+04  0.14868800669E+04  0.12699999809E+01 0.  1.
    10030    2    1    2    0    0  0.00000000000E+00  0.00000000000E+00  0.32319659284E+03  0.32969566298E+04  0.32810771069E+04 0.  0.
        3    1    3    3  502    0 -0.48604032792E+03 -0.13575036076E+04  0.94789131684E+03  0.17255576501E+04  0.10100000352E+00 0. -1.
       -3    1    3    3    0  502  0.48604032792E+03  0.13575036076E+04 -0.62469472400E+03  0.15713989797E+04  0.10100000352E+00 0.  1.
</event>
<event>
 5   0  0.2080828E-07  0.3302914E+04  0.7818609E-02  0.8162154E-01
        1   -1    0    0  501    0  0.00000000000E+00  0.00000000000E+00  0.19487394720E+04  0.19487394720E+04  0.50400001928E-02 0. -1.
       -1   -1    0    0    0  501  0.00000000000E+00  0.00000000000E+00 -0.13995255405E+04  0.13995255405E+04  0.50400001928E-02 0.  1.
    10030    2    1    2    0    0  0.00000000000E+00  0.00000000000E+00  0.54921393146E+03  0.33482650125E+04  0.33029142665E+04 0.  0.
        1    1    3    3  502    0 -0.73347428998E+03 -0.14022200069E+04 -0.20421862355E+03  0.15955910278E+04  0.50400001928E-02 0.  1.
       -1    1    3    3    0  502  0.73347428998E+03  0.14022200069E+04  0.75343255501E+03  0.17526739847E+04  0.50400001928E-02 0. -1.
</event>
<event>
 5   0  0.2057130E-07  0.3292595E+04  0.7818609E-02  0.8164782E-01
       -1   -1    0    0    0  501  0.00000000000E+00  0.00000000000E+00  0.13847712189E+04  0.13847712189E+04  0.50400001928E-02 0. -1.
        1   -1    0    0  501    0  0.00000000000E+00  0.00000000000E+00 -0.19572147880E+04  0.19572147880E+04  0.50400001928E-02 0.  1.
    10030    2    1    2    0    0  0.00000000000E+00  0.00000000000E+00 -0.57244356915E+03  0.33419860069E+04  0.32925945439E+04 0.  0.
        2    1    3    3  502    0  0.28252782328E+03  0.13052473526E+04 -0.12633687195E+04  0.18383669774E+04  0.25500000920E-02 0.  1.
       -2    1    3    3    0  502 -0.28252782328E+03 -0.13052473526E+04  0.69092515032E+03  0.15036190294E+04  0.25500000920E-02 0. -1.
</event>
<event>
 5   0  0.6426079E-07  0.3269366E+04  0.7818609E-02  0.8170734E-01
        2   -1    0    0  501    0  0.00000000000E+00  0.00000000000E+00  0.21350115211E+04  0.21350115211E+04  0.25500000920E-02 0.  1.
       -2   -1    0    0    0  501  0.00000000000E+00  0.00000000000E+00 -0.12516041364E+04  0.12516041365E+04  0.25500000920E-02 0. -1.
    10030    2    1    2    0    0  0.00000000000E+00  0.00000000000E+00  0.88340738466E+03  0.33866156576E+04  0.32693664531E+04 0.  0.
        4    1    3    3  502    0 -0.34393811070E+03  0.11332701457E+04 -0.72546752178E+03  0.13888482225E+04  0.12699999809E+01 0. -1.
       -4    1    3    3    0  502  0.34393811070E+03 -0.11332701457E+04  0.16088749064E+04  0.19977674351E+04  0.12699999809E+01 0.  1.
</event>
<event>
 5   0  0.6426079E-07  0.3303991E+04  0.7818609E-02  0.8161881E-01
       -2   -1    0    0    0  501  0.00000000000E+00  0.00000000000E+00  0.13490716852E+04  0.13490716852E+04  0.25500000920E-02 0. -1.
        2   -1    0    0  501    0  0.00000000000E+00  0.00000000000E+00 -0.20229382485E+04  0.20229382485E+04  0.25500000920E-02 0.  1.
    10030    2    1    2    0    0  0.00000000000E+00  0.00000000000E+00 -0.67386656324E+03  0.33720099337E+04  0.33039907457E+04 0.  0.
        4    1    3    3  502    0  0.48857936165E+03 -0.56554370642E+03  0.11666714446E+04  0.13855227710E+04  0.12699999809E+01 0. -1.
       -4    1    3    3    0  502 -0.48857936165E+03  0.56554370642E+03 -0.18405380078E+04  0.19864871627E+04  0.12699999809E+01 0.  1.
</event>
<event>
 5   0  0.6424183E-07  0.3305317E+04  0.7818609E-02  0.8161544E-01
       -2   -1    0    0    0  501  0.00000000000E+00  0.00000000000E+00  0.13800782545E+04  0.13800782545E+04  0.25500000920E-02 0.  1.
        2   -1    0    0  501    0  0.00000000000E+00  0.00000000000E+00 -0.19790764286E+04  0.19790764286E+04  0.25500000920E-02 0. -1.
    10030    2    1    2    0    0  0.00000000000E+00  0.00000000000E+00 -0.59899817411E+03  0.33591546831E+04  0.33053171365E+04 0.  0.
        2    1    3    3  502    0 -0.13593531774E+03 -0.14225895213E+04  0.54410639936E+03  0.15291471906E+04  0.25500000920E-02 0.  1.
       -2    1    3    3    0  502  0.13593531774E+03  0.14225895213E+04 -0.11431045735E+04  0.18300074925E+04  0.25500000920E-02 0. -1.
</event>
<event>
 5   0  0.6377741E-07  0.3309449E+04  0.7818609E-02  0.8160495E-01
        2   -1    0    0  501    0  0.00000000000E+00  0.00000000000E+00  0.22296513218E+04  0.22296513218E+04  0.25500000920E-02 0.  1.
       -2   -1    0    0    0  501  0.00000000000E+00  0.00000000000E+00 -0.12280452638E+04  0.12280452638E+04  0.25500000920E-02 0. -1.
    10030    2    1    2    0    0  0.00000000000E+00  0.00000000000E+00  0.10016060580E+04  0.34576965857E+04  0.33094487431E+04 0.  0.
        1    1    3    3  502    0  0.12474126285E+04 -0.10095545209E+04  0.92245807518E+03  0.18509909500E+04  0.50400001928E-02 0.  1.
       -1    1    3    3    0  502 -0.12474126285E+04  0.10095545209E+04  0.79147982787E+02  0.16067056357E+04  0.50400001928E-02 0. -1.
</event>
<event>
 5   0  0.6426079E-07  0.3289948E+04  0.7818609E-02  0.8165458E-01
       -2   -1    0    0    0  501  0.00000000000E+00  0.00000000000E+00  0.17171353352E+04  0.17171353352E+04  0.25500000920E-02 0.  1.
        2   -1    0    0  501    0  0.00000000000E+00  0.00000000000E+00 -0.15758453125E+04  0.15758453125E+04  0.25500000920E-02 0. -1.
    10030    2    1    2    0    0  0.00000000000E+00  0.00000000000E+00  0.14129002264E+03  0.32929806477E+04  0.32899481266E+04 0.  0.
        4    1    3    3  502    0 -0.51123017388E+03 -0.67035488103E+03  0.14844646499E+04  0.17071522682E+04  0.12699999809E+01 0.  1.
       -4    1    3    3    0  502  0.51123017388E+03  0.67035488103E+03 -0.13431746272E+04  0.15858283795E+04  0.12699999809E+01 0. -1.
</event>
<event>
 5   0  0.6258718E-07  0.3302729E+04  0.7818609E-02  0.8162201E-01
        2   -1    0    0  501    0  0.00000000000E+00  0.00000000000E+00  0.21456324227E+04  0.21456324227E+04  0.25500000920E-02 0.  1.
       -2   -1    0    0    0  501  0.00000000000E+00  0.00000000000E+00 -0.12709560616E+04  0.12709560616E+04  0.25500000920E-02 0. -1.
    10030    2    1    2    0    0  0.00000000000E+00  0.00000000000E+00  0.87467636104E+03  0.34165884843E+04  0.33027288921E+04 0.  0.
        5    1    3    3  502    0 -0.10653522504E+04  0.41677379322E+03 -0.79464509971E+03  0.13928958097E+04  0.46999998093E+01 0. -1.
       -5    1    3    3    0  502  0.10653522504E+04 -0.41677379322E+03  0.16693214607E+04  0.20236926746E+04  0.46999998093E+01 0.  1.
</event>
<event>
 5   0  0.2037333E-07  0.3303283E+04  0.7818609E-02  0.8162061E-01
       -1   -1    0    0    0  501  0.00000000000E+00  0.00000000000E+00  0.16560156808E+04  0.16560156808E+04  0.50400001928E-02 0.  1.
        1   -1    0    0  501    0  0.00000000000E+00  0.00000000000E+00 -0.16472788583E+04  0.16472788584E+04  0.50400001928E-02 0. -1.
    10030    2    1    2    0    0  0.00000000000E+00  0.00000000000E+00  0.87368224284E+01  0.33032945391E+04  0.33032829852E+04 0.  0.
        3    1    3    3  502    0 -0.68542917511E+03  0.58614853356E+03 -0.13793041459E+04  0.16479876197E+04  0.10100000352E+00 0. -1.
       -3    1    3    3    0  502  0.68542917511E+03 -0.58614853356E+03  0.13880409684E+04  0.16553069194E+04  0.10100000352E+00 0.  1.
</event>
<event>
 5   0  0.2037333E-07  0.3286569E+04  0.7818609E-02  0.8166321E-01
       -1   -1    0    0    0  501  0.00000000000E+00  0.00000000000E+00  0.15190500518E+04  0.15190500518E+04  0.50400001928E-02 0.  1.
        1   -1    0    0  501    0  0.00000000000E+00  0.00000000000E+00 -0.17776795782E+04  0.17776795782E+04  0.50400001928E-02 0. -1.
    10030    2    1    2    0    0  0.00000000000E+00  0.00000000000E+00 -0.25862952640E+03  0.32967296301E+04  0.32865691871E+04 0.  0.
        3    1    3    3  502    0 -0.53229466759E+03  0.15493504780E+04 -0.25839720029E+03  0.16584913748E+04  0.10100000352E+00 0.  1.
       -3    1    3    3    0  502  0.53229466759E+03 -0.15493504780E+04 -0.23232610980E+00  0.16382382553E+04  0.10100000352E+00 0. -1.
</event>
<event>
 5   0  0.2080770E-07  0.3292019E+04  0.7818609E-02  0.8164929E-01
        1   -1    0    0  501    0  0.00000000000E+00  0.00000000000E+00  0.22146507779E+04  0.22146507779E+04  0.50400001928E-02 0.  1.
       -1   -1    0    0    0  501  0.00000000000E+00  0.00000000000E+00 -0.12233745790E+04  0.12233745791E+04  0.50400001928E-02 0. -1.
    10030    2    1    2    0    0  0.00000000000E+00  0.00000000000E+00  0.99127619885E+03  0.34380253570E+04  0.32920191149E+04 0.  0.
        4    1    3    3  502    0  0.46403632527E+03  0.12273322133E+04 -0.54225601500E+03  0.14197595824E+04  0.12699999809E+01 0. -1.
       -4    1    3    3    0  502 -0.46403632527E+03 -0.12273322133E+04  0.15335322138E+04  0.20182657746E+04  0.12699999809E+01 0.  1.
</event>
<event>
 5   0  0.2080828E-07  0.3310450E+04  0.7818609E-02  0.8160241E-01
       -1   -1    0    0    0  501  0.00000000000E+00  0.00000000000E+00  0.12895566081E+04  0.12895566081E+04  0.50400001928E-02 0. -1.
        1   -1    0    0  501    0  0.00000000000E+00  0.00000000000E+00 -0.21245831964E+04  0.21245831964E+04  0.50400001928E-02 0.  1.
    10030    2    1    2    0    0  0.00000000000E+00  0.00000000000E+00 -0.83502658830E+03  0.34141398044E+04  0.33104503019E+04 0.  0.
        1    1    3    3  502    0 -0.28852345131E+03 -0.90845751874E+03 -0.18131282381E+04  0.20484078825E+04  0.50400001928E-02 0.  1.
       -1    1    3    3    0  502  0.28852345131E+03  0.90845751874E+03  0.97810164978E+03  0.13657319220E+04  0.50400001928E-02 0. -1.
</event>
<event>
 5   0  0.6377741E-07  0.3305184E+04  0.7818609E-02  0.8161578E-01
       -2   -1    0    0    0  501  0.00000000000E+00  0.00000000000E+00  0.11019253913E+04  0.11019253913E+04  0.25500000920E-02 0.  1.
        2   -1    0    0  501    0  0.00000000000E+00  0.00000000000E+00 -0.24784432615E+04  0.24784432615E+04  0.25500000920E-02 0. -1.
    10030    2    1    2    0    0  0.00000000000E+00  0.00000000000E+00 -0.13765178702E+04  0.35803686528E+04  0.33051835415E+04 0.  0.
        1    1    3    3  502    0  0.39757124718E+03 -0.42532538225E+03  0.98715211217E+03  0.11460514255E+04  0.50400001928E-02 0.  1.
       -1    1    3    3    0  502 -0.39757124718E+03  0.42532538225E+03 -0.23636699824E+04  0.24343172273E+04  0.50400001928E-02 0. -1.
</event>
<event>
 5   0  0.6426079E-07  0.3294663E+04  0.7818609E-02  0.8164255E-01
        2   -1    0    0  501    0  0.00000000000E+00  0.00000000000E+00  0.11877923074E+04  0.11877923074E+04  0.25500000920E-02 0.  1.
       -2   -1    0    0    0  501  0.00000000000E+00  0.00000000000E+00 -0.22846599741E+04  0.22846599741E+04  0.25500000920E-02 0. -1.
    10030    2    1    2    0    0  0.00000000000E+00  0.00000000000E+00 -0.10968676666E+04  0.34724522815E+04  0.32946632862E+04 0.  0.
        4    1    3    3  502    0 -0.10761890636E+04 -0.11651711067E+04 -0.10172912803E+04  0.18843274053E+04  0.12699999809E+01 0. -1.
       -4    1    3    3    0  502  0.10761890636E+04  0.11651711067E+04 -0.79576386306E+02  0.15881248762E+04  0.12699999809E+01 0.  1.
</event>
<event>
 5   0  0.6424183E-07  0.3330251E+04  0.7818609E-02  0.8155240E-01
       -2   -1    0    0    0  501  0.00000000000E+00  0.00000000000E+00  0.19005139395E+04  0.19005139395E+04  0.25500000920E-02 0. -1.
        2   -1    0    0  501    0  0.00000000000E+00  0.00000000000E+00 -0.14588909567E+04  0.14588909567E+04  0.25500000920E-02 0.  1.
    10030    2    1    2    0    0  0.00000000000E+00  0.00000000000E+00  0.44162298273E+03  0.33594048962E+04  0.33302508010E+04 0.  0.
        2    1    3    3  502    0  0.47942980149E+03  0.61985014452E+03 -0.12612595701E+04  0.14848713209E+04  0.25500000920E-02 0.  1.
       -2    1    3    3    0  502 -0.47942980149E+03 -0.61985014452E+03  0.17028825529E+04  0.18745335753E+04  0.25500000920E-02 0. -1.
</event>
<event>
 5   0  0.1994250E-07  0.3278080E+04  0.7818609E-02  0.8168495E-01
        3   -1    0    0  501    0  0.00000000000E+00  0.00000000000E+00  0.15917741530E+04  0.15917741562E+04  0.10100000352E+00 0. -1.
       -3   -1    0    0    0  501  0.00000000000E+00  0.00000000000E+00 -0.16877094812E+04  0.16877094842E+04  0.10100000352E+00 0.  1.
    10030    2    1    2    0    0  0.00000000000E+00  0.00000000000E+00 -0.95935328165E+02  0.32794836404E+04  0.32780801334E+04 0.  0.
        2    1    3    3  502    0 -0.15741261401E+04 -0.38046104385E+03  0.20478378987E+03  0.16323480362E+04  0.25500000920E-02 0. -1.
       -2    1    3    3    0  502  0.15741261401E+04  0.38046104385E+03 -0.30071911803E+03  0.16471356042E+04  0.25500000920E-02 0.  1.
</event>
<event>
 5   0  0.2037333E-07  0.3295127E+04  0.7818609E-02  0.8164136E-01
       -1   -1    0    0    0  501  0.00000000000E+00  0.00000000000E+00  0.20785166375E+04  0.20785166375E+04  0.50400001928E-02 0.  1.
        1   -1    0    0  501    0  0.00000000000E+00  0.00000000000E+00 -0.13059631688E+04  0.13059631688E+04  0.50400001928E-02 0. -1.
    10030    2    1    2    0    0  0.00000000000E+00  0.00000000000E+00  0.77255346874E+03  0.33844798063E+04  0.32951274175E+04 0.  0.
        3    1    3    3  502    0 -0.79754311424E+03 -0.13479329946E+04 -0.13892821499E+03  0.15723547425E+04  0.10100000352E+00 0. -1.
       -3    1    3    3    0  502  0.79754311424E+03  0.13479329946E+04  0.91148168373E+03  0.18121250638E+04  0.10100000352E+00 0.  1.
</event>
<event>
 5   0  0.6377741E-07  0.3320992E+04  0.7818609E-02  0.8157574E-01
       -2   -1    0    0    0  501  0.00000000000E+00  0.00000000000E+00  0.11564733667E+04  0.11564733667E+04  0.25500000920E-02 0. -1.
        2   -1    0    0  501    0  0.00000000000E+00  0.00000000000E+00 -0.23841853031E+04  0.23841853031E+04  0.25500000920E-02 0.  1.
    10030    2    1    2    0    0  0.00000000000E+00  0.00000000000E+00 -0.12277119364E+04  0.35406586699E+04  0.33209919027E+04 0.  0.
        1    1    3    3  502    0 -0.11079588747E+04  0.11730548841E+04 -0.10317197385E+04  0.19152222451E+04  0.50400001928E-02 0. -1.
       -1    1    3    3    0  502  0.11079588747E+04 -0.11730548841E+04 -0.19599219789E+03  0.16254364248E+04  0.50400001928E-02 0.  1.
</event>
<event>
 5   0  0.2080770E-07  0.3295761E+04  0.7818609E-02  0.8163975E-01
        1   -1    0    0  501    0  0.00000000000E+00  0.00000000000E+00  0.21532659096E+04  0.21532659096E+04  0.50400001928E-02 0. -1.
       -1   -1    0    0    0  501  0.00000000000E+00  0.00000000000E+00 -0.12611124009E+04  0.12611124009E+04  0.50400001928E-02 0.  1.
    10030    2    1    2    0    0  0.00000000000E+00  0.00000000000E+00  0.89215350867E+03  0.34143783105E+04  0.32957611207E+04 0.  0.
        4    1    3    3  502    0 -0.10965918193E+02  0.66808888448E+03 -0.11144726998E+04  0.12994283437E+04  0.12699999809E+01 0.  1.
       -4    1    3    3    0  502  0.10965918193E+02 -0.66808888448E+03  0.20066262085E+04  0.21149499669E+04  0.12699999809E+01 0. -1.
</event>
<event>
 5   0  0.2037333E-07  0.3292004E+04  0.7818609E-02  0.8164933E-01
        1   -1    0    0  501    0  0.00000000000E+00  0.00000000000E+00  0.19002347683E+04  0.19002347683E+04  0.50400001928E-02 0. -1.
       -1   -1    0    0    0  501  0.00000000000E+00  0.00000000000E+00 -0.14257833351E+04  0.14257833351E+04  0.50400001928E-02 0.  1.
    10030    2    1    2    0    0  0.00000000000E+00  0.00000000000E+00  0.47445143315E+03  0.33260181034E+04  0.32920042925E+04 0.  0.
        3    1    3    3  502    0  0.11651599148E+04 -0.11308827469E+04  0.50988375149E+03  0.17019033065E+04  0.10100000352E+00 0.  1.
       -3    1    3    3    0  502 -0.11651599148E+04  0.11308827469E+04 -0.35432318347E+02  0.16241147970E+04  0.10100000352E+00 0. -1.
</event>
<event>
 5   0  0.2080828E-07  0.3301482E+04  0.7818609E-02  0.8162518E-01
       -1   -1    0    0    0  501  0.00000000000E+00  0.00000000000E+00  0.17596351348E+04  0.17596351348E+04  0.50400001928E-02 0.  1.
        1   -1    0    0  501    0  0.00000000000E+00  0.00000000000E+00 -0.15485855415E+04  0.15485855415E+04  0.50400001928E-02 0. -1.
    10030    2    1    2    0    0  0.00000000000E+00  0.00000000000E+00  0.21104959331E+03  0.33082206764E+04  0.33014818056E+04 0.  0.
        1    1    3    3  502    0 -0.14079685997E+04 -0.98301116753E+02  0.96337202238E+03  0.17088371312E+04  0.50400001928E-02 0.  1.
       -1    1    3    3    0  502  0.14079685997E+04  0.98301116753E+02 -0.75232242906E+03  0.15993835452E+04  0.50400001928E-02 0. -1.
</event>
<event>
 5   0  0.1994250E-07  0.3317739E+04  0.7818609E-02  0.8158396E-01
       -3   -1    0    0    0  501  0.00000000000E+00  0.00000000000E+00  0.21538481318E+04  0.21538481342E+04  0.10100000352E+00 0.  1.
        3   -1    0    0  501    0  0.00000000000E+00  0.00000000000E+00 -0.12776422438E+04  0.12776422478E+04  0.10100000352E+00 0. -1.
    10030    2    1    2    0    0  0.00000000000E+00  0.00000000000E+00  0.87620588802E+03  0.34314903820E+04  0.33177386099E+04 0.  0.
        2    1    3    3  502    0 -0.11498085497E+04  0.11898457794E+04  0.56072010942E+03  0.17470545844E+04  0.25500000920E-02 0.  1.
       -2    1    3    3    0  502  0.11498085497E+04 -0.11898457794E+04  0.31548577860E+03  0.16844357976E+04  0.25500000920E-02 0. -1.
</event>
<event>
 5   0  0.2037333E-07  0.3289166E+04  0.7818609E-02  0.8165658E-01
       -1   -1    0    0    0  501  0.00000000000E+00  0.00000000000E+00  0.10891639521E+04  0.10891639521E+04  0.50400001928E-02 0.  1.
        1   -1    0    0  501    0  0.00000000000E+00  0.00000000000E+00 -0.24832377502E+04  0.24832377502E+04  0.50400001928E-02 0. -1.
    10030    2    1    2    0    0  0.00000000000E+00  0.00000000000E+00 -0.13940737980E+04  0.35724017023E+04  0.32891658773E+04 0.  0.
        3    1    3    3  502    0  0.10804641420E+04  0.71603434627E+03  0.40232339814E+03  0.13571927181E+04  0.10100000352E+00 0.  1.
       -3    1    3    3    0  502 -0.10804641420E+04 -0.71603434627E+03 -0.17963971962E+04  0.22152089842E+04  0.10100000352E+00 0. -1.
</event>
<event>
 5   0  0.6426079E-07  0.3307253E+04  0.7818609E-02  0.8161052E-01
       -2   -1    0    0    0  501  0.00000000000E+00  0.00000000000E+00  0.19499597146E+04  0.19499597146E+04  0.25500000920E-02 0.  1.
        2   -1    0    0  501    0  0.00000000000E+00  0.00000000000E+00 -0.14023264990E+04  0.14023264990E+04  0.25500000920E-02 0. -1.
    10030    2    1    2    0    0  0.00000000000E+00  0.00000000000E+00  0.54763321564E+03  0.33522862136E+04  0.33072527449E+04 0.  0.
        4    1    3    3  502    0  0.15842707839E+04  0.39507258759E+03  0.85620367541E+01  0.16328108242E+04  0.12699999809E+01 0. -1.
       -4    1    3    3    0  502 -0.15842707839E+04 -0.39507258759E+03  0.53907117888E+03  0.17194753894E+04  0.12699999809E+01 0.  1.
</event>
<event>
 5   0  0.6377741E-07  0.3303376E+04  0.7818609E-02  0.8162037E-01
        2   -1    0    0  501    0  0.00000000000E+00  0.00000000000E+00  0.20840997963E+04  0.20840997963E+04  0.25500000920E-02 0.  1.
       -2   -1    0    0    0  501  0.00000000000E+00  0.00000000000E+00 -0.13089932455E+04  0.13089932455E+04  0.25500000920E-02 0. -1.
    10030    2    1    2    0    0  0.00000000000E+00  0.00000000000E+00  0.77510655074E+03  0.33930930418E+04  0.33033755804E+04 0.  0.
        1    1    3    3  502    0 -0.78521350467E+03 -0.11234875924E+04  0.13341506435E+04  0.19127839809E+04  0.50400001928E-02 0.  1.
       -1    1    3    3    0  502  0.78521350467E+03  0.11234875924E+04 -0.55904409272E+03  0.14803090609E+04  0.50400001928E-02 0. -1.
</event>
<event>
 5   0  0.2080770E-07  0.3300263E+04  0.7818609E-02  0.8162828E-01
       -1   -1    0    0    0  501  0.00000000000E+00  0.00000000000E+00  0.28487135287E+04  0.28487135287E+04  0.50400001928E-02 0.  1.
        1   -1    0    0  501    0  0.00000000000E+00  0.00000000000E+00 -0.95584684441E+03  0.95584684442E+03  0.50400001928E-02 0. -1.
    10030    2    1    2    0    0  0.00000000000E+00  0.00000000000E+00  0.18928666843E+04  0.38045603731E+04  0.33002629211E+04 0.  0.
        4    1    3    3  502    0 -0.99080005078E+03 -0.91354376608E+03 -0.15126806375E+03  0.13561454912E+04  0.12699999809E+01 0. -1.
       -4    1    3    3    0  502  0.99080005078E+03  0.91354376608E+03  0.20441347480E+04  0.24484148819E+04  0.12699999809E+01 0.  1.
</event>
<event>
 5   0  0.6258718E-07  0.3308125E+04  0.7818609E-02  0.8160831E-01
        2   -1    0    0  501    0  0.00000000000E+00  0.00000000000E+00  0.17958885416E+04  0.17958885416E+04  0.25500000920E-02 0.  1.
       -2   -1    0    0    0  501  0.00000000000E+00  0.00000000000E+00 -0.15234364467E+04  0.15234364467E+04  0.25500000920E-02 0. -1.
    10030    2    1    2    0    0  0.00000000000E+00  0.00000000000E+00  0.27245209491E+03  0.33193249884E+04  0.33081245796E+04 0.  0.
        5    1    3    3  502    0  0.30754117341E+01  0.46737145334E+03  0.17282468146E+04  0.17903364700E+04  0.46999998093E+01 0.  1.
       -5    1    3    3    0  502 -0.30754117341E+01 -0.46737145334E+03 -0.14557947197E+04  0.15289885184E+04  0.46999998093E+01 0. -1.
</event>
<event>
 5   0  0.2080770E-07  0.3364414E+04  0.7818609E-02  0.8146696E-01
       -1   -1    0    0    0  501  0.00000000000E+00  0.00000000000E+00  0.14074054811E+04  0.14074054811E+04  0.50400001928E-02 0.  1.
        1   -1    0    0  501    0  0.00000000000E+00  0.00000000000E+00 -0.20106650955E+04  0.20106650955E+04  0.50400001928E-02 0. -1.
    10030    2    1    2    0    0  0.00000000000E+00  0.00000000000E+00 -0.60325961435E+03  0.34180705766E+04  0.33644144074E+04 0.  0.
        4    1    3    3  502    0 -0.56607818136E+03 -0.13599111127E+04  0.52374082306E+03  0.15633645782E+04  0.12699999809E+01 0.  1.
       -4    1    3    3    0  502  0.56607818136E+03  0.13599111127E+04 -0.11270004374E+04  0.18547059984E+04  0.12699999809E+01 0. -1.
</event>
<event>
 5   0  0.2080828E-07  0.3300667E+04  0.7818609E-02  0.8162726E-01
       -1   -1    0    0    0  501  0.00000000000E+00  0.00000000000E+00  0.10850582562E+04  0.10850582562E+04  0.50400001928E-02 0. -1.
        1   -1    0    0  501    0  0.00000000000E+00  0.00000000000E+00 -0.25100958794E+04  0.25100958794E+04  0.50400001928E-02 0.  1.
    10030    2    1    2    0    0  0.00000000000E+00  0.00000000000E+00 -0.14250376232E+04  0.35951541356E+04  0.33006667556E+04 0.  0.
        1    1    3    3  502    0 -0.17450036708E+03  0.12613661057E+04 -0.18559957395E+04  0.22508254077E+04  0.50400001928E-02 0.  1.
       -1    1    3    3    0  502  0.17450036708E+03 -0.12613661057E+04  0.43095811628E+03  0.13443287280E+04  0.50400001928E-02 0. -1.
</event>
<event>
 5   0  0.2037333E-07  0.3300152E+04  0.7818609E-02  0.8162857E-01
        1   -1    0    0  501    0  0.00000000000E+00  0.00000000000E+00  0.13714520622E+04  0.13714520623E+04  0.50400001928E-02 0. -1.
       -1   -1    0    0    0  501  0.00000000000E+00  0.00000000000E+00 -0.19853050331E+04  0.19853050331E+04  0.50400001928E-02 0.  1.
    10030    2    1    2    0    0  0.00000000000E+00  0.00000000000E+00 -0.61385297087E+03  0.33567570954E+04  0.33001519249E+04 0.  0.
        3    1    3    3  502    0  0.31572694941E+03 -0.14974525927E+04  0.32066793425E+03  0.15636098325E+04  0.10100000352E+00 0. -1.
       -3    1    3    3    0  502 -0.31572694941E+03  0.14974525927E+04 -0.93452090511E+03  0.17931472629E+04  0.10100000352E+00 0.  1.
</event>
<event>
 5   0  0.2037333E-07  0.3344566E+04  0.7818609E-02  0.8151647E-01
       -1   -1    0    0    0  501  0.00000000000E+00  0.00000000000E+00  0.13557842523E+04  0.13557842523E+04  0.50400001928E-02 0.  1.
        1   -1    0    0  501    0  0.00000000000E+00  0.00000000000E+00 -0.20626667655E+04  0.20626667655E+04  0.50400001928E-02 0. -1.
    10030    2    1    2    0    0  0.00000000000E+00  0.00000000000E+00 -0.70688251322E+03  0.34184510178E+04  0.33445664104E+04 0.  0.
        3    1    3    3  502    0  0.38313898443E+03 -0.16147192118E+04 -0.56394607438E+03  0.17527546319E+04  0.10100000352E+00 0. -1.
       -3    1    3    3    0  502 -0.38313898443E+03  0.16147192118E+04 -0.14293643883E+03  0.16656963860E+04  0.10100000352E+00 0.  1.
</event>
<event>
 5   0  0.6258718E-07  0.3297120E+04  0.7818609E-02  0.8163629E-01
        2   -1    0    0  501    0  0.00000000000E+00  0.00000000000E+00  0.14398650430E+04  0.14398650430E+04  0.25500000920E-02 0.  1.
       -2   -1    0    0    0  501  0.00000000000E+00  0.00000000000E+00 -0.18875029166E+04  0.18875029166E+04  0.25500000920E-02 0. -1.
    10030    2    1    2    0    0  0.00000000000E+00  0.00000000000E+00 -0.44763787363E+03  0.33273679597E+04  0.32971196328E+04 0.  0.
        5    1    3    3  502    0  0.18345877388E+03  0.10022819726E+03 -0.18740654403E+04  0.18856951444E+04  0.46999998093E+01 0. -1.
       -5    1    3    3    0  502 -0.18345877388E+03 -0.10022819726E+03  0.14264275667E+04  0.14416728152E+04  0.46999998093E+01 0.  1.
</event>
<event>
 5   0  0.6377741E-07  0.3303667E+04  0.7818609E-02  0.8161963E-01
        2   -1    0    0  501    0  0.00000000000E+00  0.00000000000E+00  0.24312682428E+04  0.24312682428E+04  0.25500000920E-02 0. -1.
       -2   -1    0    0    0  501  0.00000000000E+00  0.00000000000E+00 -0.11222761203E+04  0.11222761203E+04  0.25500000920E-02 0.  1.
    10030    2    1    2    0    0  0.00000000000E+00  0.00000000000E+00  0.13089921225E+04  0.35535443631E+04  0.33036672295E+04 0.  0.
        1    1    3    3  502    0  0.57690004199E+03  0.86981495026E+03 -0.72263876854E+03  0.12694874934E+04  0.50400001928E-02 0.  1.
       -1    1    3    3    0  502 -0.57690004199E+03 -0.86981495026E+03  0.20316308911E+04  0.22840568696E+04  0.50400001928E-02 0. -1.
</event>
<event>
 5   0  0.2080770E-07  0.3299124E+04  0.7818609E-02  0.8163118E-01
       -1   -1    0    0    0  501  0.00000000000E+00  0.00000000000E+00  0.12591410430E+04  0.12591410430E+04  0.50400001928E-02 0.  1.
        1   -1    0    0  501    0  0.00000000000E+00  0.00000000000E+00 -0.21610408877E+04  0.21610408877E+04  0.50400001928E-02 0. -1.
    10030    2    1    2    0    0  0.00000000000E+00  0.00000000000E+00 -0.90189984472E+03  0.34201819308E+04  0.32991242944E+04 0.  0.
        4    1    3    3  502    0 -0.12395471121E+04 -0.10640839346E+04 -0.21386186117E+03  0.16475709913E+04  0.12699999809E+01 0.  1.
       -4    1    3    3    0  502  0.12395471121E+04  0.10640839346E+04 -0.68803798355E+03  0.17726109394E+04  0.12699999809E+01 0. -1.
</event>
<event>
 5   0  0.2037333E-07  0.3295335E+04  0.7818609E-02  0.8164083E-01
       -1   -1    0    0    0  501  0.00000000000E+00  0.00000000000E+00  0.15162200111E+04  0.15162200111E+04  0.50400001928E-02 0.  1.
        1   -1    0    0  501    0  0.00000000000E+00  0.00000000000E+00 -0.17905105472E+04  0.17905105473E+04  0.50400001928E-02 0. -1.
    10030    2    1    2    0    0  0.00000000000E+00  0.00000000000E+00 -0.27429053614E+03  0.33067305584E+04  0.32953348369E+04 0.  0.
        3    1    3    3  502    0  0.16311545973E+04  0.10002810570E+03  0.73669249038E+02  0.16358783912E+04  0.10100000352E+00 0.  1.
       -3    1    3    3    0  502 -0.16311545973E+04 -0.10002810570E+03 -0.34795978517E+03  0.16708521672E+04  0.10100000352E+00 0. -1.
</event>
<event>
 5   0  0.6258718E-07  0.3304004E+04  0.7818609E-02  0.8161877E-01
        2   -1    0    0  501    0  0.00000000000E+00  0.00000000000E+00  0.20245905181E+04  0.20245905181E+04  0.25500000920E-02 0. -1.
       -2   -1    0    0    0  501  0.00000000000E+00  0.00000000000E+00 -0.13479817809E+04  0.13479817809E+04  0.25500000920E-02 0.  1.
    10030    2    1    2    0    0  0.00000000000E+00  0.00000000000E+00  0.67660873715E+03  0.33725722990E+04  0.33040043173E+04 0.  0.
        5    1    3    3  502    0 -0.54110992028E+03 -0.32808881288E+03  0.18959636804E+04  0.19987852767E+04  0.46999998093E+01 0. -1.
       -5    1    3    3    0  502  0.54110992028E+03  0.32808881288E+03 -0.12193549432E+04  0.13737870223E+04  0.46999998093E+01 0.  1.
</event>
<event>
 5   0  0.2087665E-07  0.3089608E+04  0.7818609E-02  0.8218596E-01
       -1   -1    0    0    0  501  0.00000000000E+00  0.00000000000E+00  0.21765637997E+04  0.21765637997E+04  0.50400001928E-02 0. -1.
        1   -1    0    0  501    0  0.00000000000E+00  0.00000000000E+00 -0.10964163266E+04  0.10964163266E+04  0.50400001928E-02 0.  1.
    10030    2    1    2    0    0  0.00000000000E+00  0.00000000000E+00  0.10801474731E+04  0.32729801264E+04  0.30896084451E+04 0.  0.
        5    1    3    3  502    0 -0.10102115349E+03  0.13510579883E+03  0.21667690707E+04  0.21733313475E+04  0.46999998093E+01 0. -1.
       -5    1    3    3    0  502  0.10102115349E+03 -0.13510579883E+03 -0.10866215976E+04  0.10996487788E+04  0.46999998093E+01 0.  1.
</event>
<event>
 5   0  0.2037333E-07  0.3298545E+04  0.7818609E-02  0.8163266E-01
       -1   -1    0    0    0  501  0.00000000000E+00  0.00000000000E+00  0.16503281867E+04  0.16503281867E+04  0.50400001928E-02 0. -1.
        1   -1    0    0  501    0  0.00000000000E+00  0.00000000000E+00 -0.16482179765E+04  0.16482179765E+04  0.50400001928E-02 0.  1.
    10030    2    1    2    0    0  0.00000000000E+00  0.00000000000E+00  0.21102101718E+01  0.32985461631E+04  0.32985454882E+04 0.  0.
        3    1    3    3  502    0  0.33636916483E+03 -0.75935073866E+03 -0.14238461707E+04  0.16483615160E+04  0.10100000352E+00 0.  1.
       -3    1    3    3    0  502 -0.33636916483E+03  0.75935073866E+03  0.14259563809E+04  0.16501846472E+04  0.10100000352E+00 0. -1.
</event>
<event>
 5   0  0.6426079E-07  0.3255348E+04  0.7818609E-02  0.8174351E-01
        2   -1    0    0  501    0  0.00000000000E+00  0.00000000000E+00  0.24367323425E+04  0.24367323425E+04  0.25500000920E-02 0. -1.
       -2   -1    0    0    0  501  0.00000000000E+00  0.00000000000E+00 -0.10872436906E+04  0.10872436906E+04  0.25500000920E-02 0.  1.
    10030    2    1    2    0    0  0.00000000000E+00  0.00000000000E+00  0.13494886520E+04  0.35239760331E+04  0.32553475176E+04 0.  0.
        4    1    3    3  502    0 -0.33254727750E+03 -0.10938136720E+04  0.19289277740E+04  0.22422711725E+04  0.12699999809E+01 0. -1.
       -4    1    3    3    0  502  0.33254727750E+03  0.10938136720E+04 -0.57943912201E+03  0.12817048606E+04  0.12699999809E+01 0.  1.
</event>
<event>
 5   0  0.6424183E-07  0.3300455E+04  0.7818609E-02  0.8162780E-01
       -2   -1    0    0    0  501  0.00000000000E+00  0.00000000000E+00  0.22035404964E+04  0.22035404964E+04  0.25500000920E-02 0.  1.
        2   -1    0    0  501    0  0.00000000000E+00  0.00000000000E+00 -0.12358527055E+04  0.12358527055E+04  0.25500000920E-02 0. -1.
    10030    2    1    2    0    0  0.00000000000E+00  0.00000000000E+00  0.96768779096E+03  0.34393932019E+04  0.33004554135E+04 0.  0.
        2    1    3    3  502    0  0.12770070670E+04 -0.65592090275E+03  0.13319031980E+04  0.19583016644E+04  0.25500000920E-02 0.  1.
       -2    1    3    3    0  502 -0.12770070670E+04  0.65592090275E+03 -0.36421540700E+03  0.14810915376E+04  0.25500000920E-02 0. -1.
</event>
<event>
 5   0  0.2057130E-07  0.3269384E+04  0.7818609E-02  0.8170730E-01
       -1   -1    0    0    0  501  0.00000000000E+00  0.00000000000E+00  0.14100630542E+04  0.14100630542E+04  0.50400001928E-02 0. -1.
        1   -1    0    0  501    0  0.00000000000E+00  0.00000000000E+00 -0.18951057018E+04  0.18951057018E+04  0.50400001928E-02 0.  1.
    10030    2    1    2    0    0  0.00000000000E+00  0.00000000000E+00 -0.48504264766E+03  0.33051687560E+04  0.32693843665E+04 0.  0.
        2    1    3    3  502    0 -0.10070550052E+04  0.10815938899E+04  0.46384910226E+03  0.15489225662E+04  0.25500000920E-02 0. -1.
       -2    1    3    3    0  502  0.10070550052E+04 -0.10815938899E+04 -0.94889174992E+03  0.17562461899E+04  0.25500000920E-02 0.  1.
</event>
<event>
 5   0  0.6424183E-07  0.3288586E+04  0.7818609E-02  0.8165806E-01
       -2   -1    0    0    0  501  0.00000000000E+00  0.00000000000E+00  0.11670605172E+04  0.11670605172E+04  0.25500000920E-02 0. -1.
        2   -1    0    0  501    0  0.00000000000E+00  0.00000000000E+00 -0.23166739100E+04  0.23166739100E+04  0.25500000920E-02 0.  1.
    10030    2    1    2    0    0  0.00000000000E+00  0.00000000000E+00 -0.11496133928E+04  0.34837344273E+04  0.32885855024E+04 0.  0.
        2    1    3    3  502    0 -0.96893828703E+03 -0.64524626837E+03  0.65535928465E+03  0.13359191379E+04  0.25500000920E-02 0. -1.
       -2    1    3    3    0  502  0.96893828703E+03  0.64524626837E+03 -0.18049726775E+04  0.21478152894E+04  0.25500000920E-02 0.  1.
</event>
<event>
 5   0  0.2057130E-07  0.3294079E+04  0.7818609E-02  0.8164404E-01
        1   -1    0    0  501    0  0.00000000000E+00  0.00000000000E+00  0.14751000248E+04  0.14751000248E+04  0.50400001928E-02 0.  1.
       -1   -1    0    0    0  501  0.00000000000E+00  0.00000000000E+00 -0.18390204617E+04  0.18390204617E+04  0.50400001928E-02 0. -1.
    10030    2    1    2    0    0  0.00000000000E+00  0.00000000000E+00 -0.36392043692E+03  0.33141204865E+04  0.32940790085E+04 0.  0.
        2    1    3    3  502    0  0.31909200318E+03 -0.21751001592E+03 -0.17928289813E+04  0.18339482189E+04  0.25500000920E-02 0. -1.
       -2    1    3    3    0  502 -0.31909200318E+03  0.21751001592E+03  0.14289085444E+04  0.14801722676E+04  0.25500000920E-02 0.  1.
</event>
<event>
 5   0  0.2037333E-07  0.3315728E+04  0.7818609E-02  0.8158905E-01
       -1   -1    0    0    0  501  0.00000000000E+00  0.00000000000E+00  0.26744251496E+04  0.26744251496E+04  0.50400001928E-02 0.  1.
        1   -1    0    0  501    0  0.00000000000E+00  0.00000000000E+00 -0.10277024405E+04  0.10277024405E+04  0.50400001928E-02 0. -1.
    10030    2    1    2    0    0  0.00000000000E+00  0.00000000000E+00  0.16467227091E+04  0.37021275902E+04  0.33157281272E+04 0.  0.
        3    1    3    3  502    0  0.11818687264E+04  0.17935332669E+03  0.21059353271E+04  0.24215583648E+04  0.10100000352E+00 0.  1.
       -3    1    3    3    0  502 -0.11818687264E+04 -0.17935332669E+03 -0.45921261799E+03  0.12805692253E+04  0.10100000352E+00 0. -1.
</event>
<event>
 5   0  0.6424183E-07  0.3316472E+04  0.7818609E-02  0.8158717E-01
       -2   -1    0    0    0  501  0.00000000000E+00  0.00000000000E+00  0.17929761175E+04  0.17929761175E+04  0.25500000920E-02 0. -1.
        2   -1    0    0  501    0  0.00000000000E+00  0.00000000000E+00 -0.15336213168E+04  0.15336213168E+04  0.25500000920E-02 0.  1.
    10030    2    1    2    0    0  0.00000000000E+00  0.00000000000E+00  0.25935480070E+03  0.33265974344E+04  0.33164718569E+04 0.  0.
        2    1    3    3  502    0 -0.16121892589E+04  0.32201930490E+03  0.34689284358E+03  0.16802336993E+04  0.25500000920E-02 0. -1.
       -2    1    3    3    0  502  0.16121892589E+04 -0.32201930490E+03 -0.87538042883E+02  0.16463637351E+04  0.25500000920E-02 0.  1.
</event>
<event>
 5   0  0.6426079E-07  0.3291250E+04  0.7818609E-02  0.8165125E-01
       -2   -1    0    0    0  501  0.00000000000E+00  0.00000000000E+00  0.12362099862E+04  0.12362099862E+04  0.25500000920E-02 0. -1.
        2   -1    0    0  501    0  0.00000000000E+00  0.00000000000E+00 -0.21906321339E+04  0.21906321339E+04  0.25500000920E-02 0.  1.
    10030    2    1    2    0    0  0.00000000000E+00  0.00000000000E+00 -0.95442214770E+03  0.34268421200E+04  0.32912498051E+04 0.  0.
        4    1    3    3  502    0 -0.87427755378E+03  0.13876736672E+04 -0.33720864310E+03  0.16744284785E+04  0.12699999809E+01 0. -1.
       -4    1    3    3    0  502  0.87427755378E+03 -0.13876736672E+04 -0.61721350460E+03  0.17524136415E+04  0.12699999809E+01 0.  1.
</event>
<event>
 5   0  0.6377741E-07  0.3294158E+04  0.7818609E-02  0.8164383E-01
       -2   -1    0    0    0  501  0.00000000000E+00  0.00000000000E+00  0.10262837877E+04  0.10262837877E+04  0.25500000920E-02 0. -1.
        2   -1    0    0  501    0  0.00000000000E+00  0.00000000000E+00 -0.26433913191E+04  0.26433913191E+04  0.25500000920E-02 0.  1.
    10030    2    1    2    0    0  0.00000000000E+00  0.00000000000E+00 -0.16171075314E+04  0.36696751068E+04  0.32941582569E+04 0.  0.
        1    1    3    3  502    0  0.79971737088E+02 -0.16384714331E+04 -0.64375202823E+03  0.17622147399E+04  0.50400001928E-02 0. -1.
       -1    1    3    3    0  502 -0.79971737088E+02  0.16384714331E+04 -0.97335550312E+03  0.19074603669E+04  0.50400001928E-02 0.  1.
</event>
<event>
 5   0  0.6377741E-07  0.3330749E+04  0.7818609E-02  0.8155115E-01
        2   -1    0    0  501    0  0.00000000000E+00  0.00000000000E+00  0.19065225476E+04  0.19065225476E+04  0.25500000920E-02 0. -1.
       -2   -1    0    0    0  501  0.00000000000E+00  0.00000000000E+00 -0.14547280466E+04  0.14547280466E+04  0.25500000920E-02 0.  1.
    10030    2    1    2    0    0  0.00000000000E+00  0.00000000000E+00  0.45179450101E+03  0.33612505942E+04  0.33307487576E+04 0.  0.
        1    1    3    3  502    0  0.11832673412E+03 -0.91703583327E+03  0.16236865686E+04  0.18685058225E+04  0.50400001928E-02 0. -1.
       -1    1    3    3    0  502 -0.11832673412E+03  0.91703583327E+03 -0.11718920676E+04  0.14927447718E+04  0.50400001928E-02 0.  1.
</event>
<event>
 5   0  0.2057130E-07  0.3293548E+04  0.7818609E-02  0.8164539E-01
       -1   -1    0    0    0  501  0.00000000000E+00  0.00000000000E+00  0.14204821569E+04  0.14204821570E+04  0.50400001928E-02 0.  1.
        1   -1    0    0  501    0  0.00000000000E+00  0.00000000000E+00 -0.19091155789E+04  0.19091155789E+04  0.50400001928E-02 0. -1.
    10030    2    1    2    0    0  0.00000000000E+00  0.00000000000E+00 -0.48863342197E+03  0.33295977359E+04  0.32935480051E+04 0.  0.
        2    1    3    3  502    0  0.83698936572E+03  0.13292622956E+04  0.25543731915E+03  0.15914577195E+04  0.25500000920E-02 0.  1.
       -2    1    3    3    0  502 -0.83698936572E+03 -0.13292622956E+04 -0.74407074111E+03  0.17381400164E+04  0.25500000920E-02 0. -1.
</event>
<event>
 5   0  0.2057130E-07  0.3296325E+04  0.7818609E-02  0.8163831E-01
        1   -1    0    0  501    0  0.00000000000E+00  0.00000000000E+00  0.17242308282E+04  0.17242308282E+04  0.50400001928E-02 0.  1.
       -1   -1    0    0    0  501  0.00000000000E+00  0.00000000000E+00 -0.15754500928E+04  0.15754500928E+04  0.50400001928E-02 0. -1.
    10030    2    1    2    0    0  0.00000000000E+00  0.00000000000E+00  0.14878073535E+03  0.32996809210E+04  0.32963249951E+04 0.  0.
        2    1    3    3  502    0 -0.75396838964E+03  0.84628718507E+03  0.12721741898E+04  0.17038478516E+04  0.25500000920E-02 0.  1.
       -2    1    3    3    0  502  0.75396838964E+03 -0.84628718507E+03 -0.11233934544E+04  0.15958330695E+04  0.25500000920E-02 0. -1.
</event>
<event>
 5   0  0.6377741E-07  0.3298984E+04  0.7818609E-02  0.8163154E-01
        2   -1    0    0  501    0  0.00000000000E+00  0.00000000000E+00  0.15099820554E+04  0.15099820554E+04  0.25500000920E-02 0. -1.
       -2   -1    0    0    0  501  0.00000000000E+00  0.00000000000E+00 -0.18018913797E+04  0.18018913797E+04  0.25500000920E-02 0.  1.
    10030    2    1    2    0    0  0.00000000000E+00  0.00000000000E+00 -0.29190932438E+03  0.33118734351E+04  0.32989838733E+04 0.  0.
        1    1    3    3  502    0  0.53467526628E+03  0.11122783297E+04 -0.12446634500E+04  0.17527771754E+04  0.50400001928E-02 0.  1.
       -1    1    3    3    0  502 -0.53467526628E+03 -0.11122783297E+04  0.95275412561E+03  0.15590962597E+04  0.50400001928E-02 0. -1.
</event>
<event>
 5   0  0.6258718E-07  0.3317295E+04  0.7818609E-02  0.8158509E-01
        2   -1    0    0  501    0  0.00000000000E+00  0.00000000000E+00  0.13754070077E+04  0.13754070077E+04  0.25500000920E-02 0.  1.
       -2   -1    0    0    0  501  0.00000000000E+00  0.00000000000E+00 -0.20002159723E+04  0.20002159723E+04  0.25500000920E-02 0. -1.
    10030    2    1    2    0    0  0.00000000000E+00  0.00000000000E+00 -0.62480896464E+03  0.33756229800E+04  0.33172947202E+04 0.  0.
        5    1    3    3  502    0 -0.10132549543E+04  0.97773992042E+03  0.57960911337E+03  0.15227047543E+04  0.46999998093E+01 0.  1.
       -5    1    3    3    0  502  0.10132549543E+04 -0.97773992042E+03 -0.12044180780E+04  0.18529182257E+04  0.46999998093E+01 0. -1.
</event>
<event>
 5   0  0.6426079E-07  0.3236996E+04  0.7818609E-02  0.8179114E-01
        2   -1    0    0  501    0  0.00000000000E+00  0.00000000000E+00  0.25132280397E+04  0.25132280397E+04  0.25500000920E-02 0. -1.
       -2   -1    0    0    0  501  0.00000000000E+00  0.00000000000E+00 -0.10422990615E+04  0.10422990615E+04  0.25500000920E-02 0.  1.
    10030    2    1    2    0    0  0.00000000000E+00  0.00000000000E+00  0.14709289782E+04  0.35555271012E+04  0.32369956609E+04 0.  0.
        4    1    3    3  502    0  0.50444070248E+02 -0.13581903965E+04  0.17007529231E+04  0.21771053892E+04  0.12699999809E+01 0.  1.
       -4    1    3    3    0  502 -0.50444070248E+02  0.13581903965E+04 -0.22982394490E+03  0.13784217120E+04  0.12699999809E+01 0. -1.
</event>
<event>
 5   0  0.2080828E-07  0.3295348E+04  0.7818609E-02  0.8164080E-01
       -1   -1    0    0    0  501  0.00000000000E+00  0.00000000000E+00  0.19684911236E+04  0.19684911236E+04  0.50400001928E-02 0. -1.
        1   -1    0    0  501    0  0.00000000000E+00  0.00000000000E+00 -0.13791425835E+04  0.13791425835E+04  0.50400001928E-02 0.  1.
    10030    2    1    2    0    0  0.00000000000E+00  0.00000000000E+00  0.58934854006E+03  0.33476337071E+04  0.32953481964E+04 0.  0.
        1    1    3    3  502    0  0.13926773742E+04 -0.29285150299E+03 -0.54887279671E+03  0.15253109907E+04  0.50400001928E-02 0.  1.
       -1    1    3    3    0  502 -0.13926773742E+04  0.29285150299E+03  0.11382213368E+04  0.18223227164E+04  0.50400001928E-02 0. -1.
</event>
<event>
 5   0  0.6351753E-07  0.3297469E+04  0.7818609E-02  0.8163540E-01
        2   -1    0    0  501    0  0.00000000000E+00  0.00000000000E+00  0.17056965080E+04  0.17056965080E+04  0.25500000920E-02 0. -1.
       -2   -1    0    0    0  501  0.00000000000E+00  0.00000000000E+00 -0.15936751276E+04  0.15936751277E+04  0.25500000920E-02 0.  1.
    10030    2    1    2    0    0  0.00000000000E+00  0.00000000000E+00  0.11202138033E+03  0.32993716356E+04  0.32974693934E+04 0.  0.
        3    1    3    3  502    0 -0.15888564773E+04 -0.44018459199E+03  0.46069698722E+02  0.16493482979E+04  0.10100000352E+00 0. -1.
       -3    1    3    3    0  502  0.15888564773E+04  0.44018459199E+03  0.65951681608E+02  0.16500233377E+04  0.10100000352E+00 0.  1.
</event>
<event>
 5   0  0.6377741E-07  0.3299954E+04  0.7818609E-02  0.8162907E-01
       -2   -1    0    0    0  501  0.00000000000E+00  0.00000000000E+00  0.16921264384E+04  0.16921264384E+04  0.25500000920E-02 0.  1.
        2   -1    0    0  501    0  0.00000000000E+00  0.00000000000E+00 -0.16088774060E+04  0.16088774060E+04  0.25500000920E-02 0. -1.
    10030    2    1    2    0    0  0.00000000000E+00  0.00000000000E+00  0.83249032403E+02  0.33010038444E+04  0.32999539359E+04 0.  0.
        1    1    3    3  502    0 -0.26160898903E+03  0.14452880743E+04  0.79361306071E+03  0.16694665528E+04  0.50400001928E-02 0. -1.
       -1    1    3    3    0  502  0.26160898903E+03 -0.14452880743E+04 -0.71036402830E+03  0.16315372915E+04  0.50400001928E-02 0.  1.
</event>
<event>
 5   0  0.2080770E-07  0.3277677E+04  0.7818609E-02  0.8168599E-01
        1   -1    0    0  501    0  0.00000000000E+00  0.00000000000E+00  0.18747409693E+04  0.18747409693E+04  0.50400001928E-02 0. -1.
       -1   -1    0    0    0  501  0.00000000000E+00  0.00000000000E+00 -0.14326205540E+04  0.14326205540E+04  0.50400001928E-02 0.  1.
    10030    2    1    2    0    0  0.00000000000E+00  0.00000000000E+00  0.44212041527E+03  0.33073615233E+04  0.32776774985E+04 0.  0.
        4    1    3    3  502    0  0.13080071111E+04 -0.96587000466E+03  0.14256895372E+02  0.16260357747E+04  0.12699999809E+01 0. -1.
       -4    1    3    3    0  502 -0.13080071111E+04  0.96587000466E+03  0.42786351989E+03  0.16813257487E+04  0.12699999809E+01 0.  1.
</event>
<event>
 5   0  0.6351753E-07  0.3334656E+04  0.7818609E-02  0.8154133E-01
       -2   -1    0    0    0  501  0.00000000000E+00  0.00000000000E+00  0.15347825977E+04  0.15347825977E+04  0.25500000920E-02 0. -1.
        2   -1    0    0  501    0  0.00000000000E+00  0.00000000000E+00 -0.18113200625E+04  0.18113200625E+04  0.25500000920E-02 0.  1.
    10030    2    1    2    0    0  0.00000000000E+00  0.00000000000E+00 -0.27653746481E+03  0.33461026602E+04  0.33346559107E+04 0.  0.
        3    1    3    3  502    0  0.12095256213E+04  0.78880871389E+03  0.69814586360E+03  0.16039261431E+04  0.10100000352E+00 0. -1.
       -3    1    3    3    0  502 -0.12095256213E+04 -0.78880871389E+03 -0.97468332841E+03  0.17421765170E+04  0.10100000352E+00 0.  1.
</event>
<event>
 5   0  0.6377741E-07  0.3308592E+04  0.7818609E-02  0.8160713E-01
        2   -1    0    0  501    0  0.00000000000E+00  0.00000000000E+00  0.15851682587E+04  0.15851682587E+04  0.25500000920E-02 0.  1.
       -2   -1    0    0    0  501  0.00000000000E+00  0.00000000000E+00 -0.17264380009E+04  0.17264380009E+04  0.25500000920E-02 0. -1.
    10030    2    1    2    0    0  0.00000000000E+00  0.00000000000E+00 -0.14126974216E+03  0.33116062596E+04  0.33085916760E+04 0.  0.
        1    1    3    3  502    0  0.12078244025E+04  0.20987422247E+03  0.10411461800E+04  0.16083756852E+04  0.50400001928E-02 0.  1.
       -1    1    3    3    0  502 -0.12078244025E+04 -0.20987422247E+03 -0.11824159221E+04  0.17032305744E+04  0.50400001928E-02 0. -1.
</event>
<event>
 5   0  0.2057130E-07  0.3302117E+04  0.7818609E-02  0.8162357E-01
       -1   -1    0    0    0  501  0.00000000000E+00  0.00000000000E+00  0.28310980627E+04  0.28310980627E+04  0.50400001928E-02 0.  1.
        1   -1    0    0  501    0  0.00000000000E+00  0.00000000000E+00 -0.96287537371E+03  0.96287537372E+03  0.50400001928E-02 0. -1.
    10030    2    1    2    0    0  0.00000000000E+00  0.00000000000E+00  0.18682226890E+04  0.37939734365E+04  0.33021172633E+04 0.  0.
        2    1    3    3  502    0  0.65500646031E+03 -0.10670247519E+04  0.21707268577E+04  0.25059190679E+04  0.25500000920E-02 0.  1.
       -2    1    3    3    0  502 -0.65500646031E+03  0.10670247519E+04 -0.30250416865E+03  0.12880543686E+04  0.25500000920E-02 0. -1.
</event>
<event>
 5   0  0.6258718E-07  0.3295635E+04  0.7818609E-02  0.8164007E-01
       -2   -1    0    0    0  501  0.00000000000E+00  0.00000000000E+00  0.18151193176E+04  0.18151193176E+04  0.25500000920E-02 0. -1.
        2   -1    0    0  501    0  0.00000000000E+00  0.00000000000E+00 -0.14959362362E+04  0.14959362362E+04  0.25500000920E-02 0.  1.
    10030    2    1    2    0    0  0.00000000000E+00  0.00000000000E+00  0.31918308134E+03  0.33110555538E+04  0.32956351499E+04 0.  0.
        5    1    3    3  502    0  0.10484970293E+04 -0.36314835612E+03  0.13835107949E+04  0.17735126046E+04  0.46999998093E+01 0. -1.
       -5    1    3    3    0  502 -0.10484970293E+04  0.36314835612E+03 -0.10643277136E+04  0.15375429493E+04  0.46999998093E+01 0.  1.
</event>
<event>
 5   0  0.2080828E-07  0.3299176E+04  0.7818609E-02  0.8163105E-01
       -1   -1    0    0    0  501  0.00000000000E+00  0.00000000000E+00  0.22223589850E+04  0.22223589850E+04  0.50400001928E-02 0.  1.
        1   -1    0    0  501    0  0.00000000000E+00  0.00000000000E+00 -0.12244379694E+04  0.12244379694E+04  0.50400001928E-02 0. -1.
    10030    2    1    2    0    0  0.00000000000E+00  0.00000000000E+00  0.99792101556E+03  0.34467969544E+04  0.32991760929E+04 0.  0.
        1    1    3    3  502    0  0.12139563023E+04  0.13945364742E+03 -0.65877674031E+03  0.13882089242E+04  0.50400001928E-02 0. -1.
       -1    1    3    3    0  502 -0.12139563023E+04 -0.13945364742E+03  0.16566977559E+04  0.20585880302E+04  0.50400001928E-02 0.  1.
</event>
<event>
 5   0  0.6377741E-07  0.3316770E+04  0.7818609E-02  0.8158641E-01
       -2   -1    0    0    0  501  0.00000000000E+00  0.00000000000E+00  0.16243809815E+04  0.16243809815E+04  0.25500000920E-02 0. -1.
        2   -1    0    0  501    0  0.00000000000E+00  0.00000000000E+00 -0.16931004149E+04  0.16931004149E+04  0.25500000920E-02 0.  1.
    10030    2    1    2    0    0  0.00000000000E+00  0.00000000000E+00 -0.68719433463E+02  0.33174813964E+04  0.33167695813E+04 0.  0.
        1    1    3    3  502    0  0.11209006205E+04  0.10766055388E+03 -0.12520901435E+04  0.16839651788E+04  0.50400001928E-02 0.  1.
       -1    1    3    3    0  502 -0.11209006205E+04 -0.10766055388E+03  0.11833707100E+04  0.16335162176E+04  0.50400001928E-02 0. -1.
</event>
<event>
 5   0  0.6424183E-07  0.3303388E+04  0.7818609E-02  0.8162034E-01
        2   -1    0    0  501    0  0.00000000000E+00  0.00000000000E+00  0.15069730958E+04  0.15069730958E+04  0.25500000920E-02 0.  1.
       -2   -1    0    0    0  501  0.00000000000E+00  0.00000000000E+00 -0.18103132978E+04  0.18103132978E+04  0.25500000920E-02 0. -1.
    10030    2    1    2    0    0  0.00000000000E+00  0.00000000000E+00 -0.30334020197E+03  0.33172863936E+04  0.33033882210E+04 0.  0.
        2    1    3    3  502    0 -0.36035887561E+03  0.14996700633E+04  0.44176847830E+03  0.16043778253E+04  0.25500000920E-02 0.  1.
       -2    1    3    3    0  502  0.36035887561E+03 -0.14996700633E+04 -0.74510868026E+03  0.17129085683E+04  0.25500000920E-02 0. -1.
</event>
<event>
 5   0  0.1994250E-07  0.3294836E+04  0.7818609E-02  0.8164211E-01
        3   -1    0    0  501    0  0.00000000000E+00  0.00000000000E+00  0.15759938195E+04  0.15759938227E+04  0.10100000352E+00 0. -1.
       -3   -1    0    0    0  501  0.00000000000E+00  0.00000000000E+00 -0.17220786457E+04  0.17220786486E+04  0.10100000352E+00 0.  1.
    10030    2    1    2    0    0  0.00000000000E+00  0.00000000000E+00 -0.14608482618E+03  0.32980724714E+04  0.32948355422E+04 0.  0.
        4    1    3    3  502    0  0.45254667065E+03  0.52738020025E+03  0.14220967703E+04  0.15828105388E+04  0.12699999809E+01 0. -1.
       -4    1    3    3    0  502 -0.45254667065E+03 -0.52738020025E+03 -0.15681815965E+04  0.17152619325E+04  0.12699999809E+01 0.  1.
</event>
<event>
 5   0  0.2037333E-07  0.3296830E+04  0.7818609E-02  0.8163702E-01
        1   -1    0    0  501    0  0.00000000000E+00  0.00000000000E+00  0.12055481474E+04  0.12055481474E+04  0.50400001928E-02 0. -1.
       -1   -1    0    0    0  501  0.00000000000E+00  0.00000000000E+00 -0.22539728028E+04  0.22539728028E+04  0.50400001928E-02 0.  1.
    10030    2    1    2    0    0  0.00000000000E+00  0.00000000000E+00 -0.10484246554E+04  0.34595209503E+04  0.32968304396E+04 0.  0.
        3    1    3    3  502    0 -0.83259183499E+03  0.14103507759E+04 -0.32796960109E+03  0.16702881621E+04  0.10100000352E+00 0. -1.
       -3    1    3    3    0  502  0.83259183499E+03 -0.14103507759E+04 -0.72045505434E+03  0.17892327882E+04  0.10100000352E+00 0.  1.
</event>
<event>
 5   0  0.6351753E-07  0.3292534E+04  0.7818609E-02  0.8164798E-01
       -2   -1    0    0    0  501  0.00000000000E+00  0.00000000000E+00  0.27087363391E+04  0.27087363391E+04  0.25500000920E-02 0.  1.
        2   -1    0    0  501    0  0.00000000000E+00  0.00000000000E+00 -0.10005388146E+04  0.10005388146E+04  0.25500000920E-02 0. -1.
    10030    2    1    2    0    0  0.00000000000E+00  0.00000000000E+00  0.17081975245E+04  0.37092751538E+04  0.32925344924E+04 0.  0.
        3    1    3    3  502    0  0.86136977835E+03  0.13121410813E+04  0.14134544731E+04  0.21122323901E+04  0.10100000352E+00 0. -1.
       -3    1    3    3    0  502 -0.86136977835E+03 -0.13121410813E+04  0.29474305143E+03  0.15970427636E+04  0.10100000352E+00 0.  1.
</event>
<event>
 5   0  0.6258718E-07  0.3308673E+04  0.7818609E-02  0.8160692E-01
       -2   -1    0    0    0  501  0.00000000000E+00  0.00000000000E+00  0.13385630819E+04  0.13385630819E+04  0.25500000920E-02 0.  1.
        2   -1    0    0  501    0  0.00000000000E+00  0.00000000000E+00 -0.20446029470E+04  0.20446029470E+04  0.25500000920E-02 0. -1.
    10030    2    1    2    0    0  0.00000000000E+00  0.00000000000E+00 -0.70603986513E+03  0.33831660289E+04  0.33086734635E+04 0.  0.
        5    1    3    3  502    0  0.14378608251E+04  0.12658608114E+02  0.48344675050E+03  0.15170190649E+04  0.46999998093E+01 0.  1.
       -5    1    3    3    0  502 -0.14378608251E+04 -0.12658608114E+02 -0.11894866156E+04  0.18661469640E+04  0.46999998093E+01 0. -1.
</event>
<event>
 5   0  0.1994250E-07  0.3283139E+04  0.7818609E-02  0.8167199E-01
       -3   -1    0    0    0  501  0.00000000000E+00  0.00000000000E+00  0.10047810733E+04  0.10047810784E+04  0.10100000352E+00 0.  1.
        3   -1    0    0  501    0  0.00000000000E+00  0.00000000000E+00 -0.26819277011E+04  0.26819277030E+04  0.10100000352E+00 0. -1.
    10030    2    1    2    0    0  0.00000000000E+00  0.00000000000E+00 -0.16771466278E+04  0.36867087814E+04  0.32831388682E+04 0.  0.
        4    1    3    3  502    0 -0.28521448588E+03 -0.12898678367E+04  0.25570954416E+03  0.13455464775E+04  0.12699999809E+01 0.  1.
       -4    1    3    3    0  502  0.28521448588E+03  0.12898678367E+04 -0.19328561719E+04  0.23411623040E+04  0.12699999809E+01 0. -1.
</event>
<event>
 5   0  0.6377741E-07  0.3388414E+04  0.7818609E-02  0.8140756E-01
        2   -1    0    0  501    0  0.00000000000E+00  0.00000000000E+00  0.22338859024E+04  0.22338859024E+04  0.25500000920E-02 0.  1.
       -2   -1    0    0    0  501  0.00000000000E+00  0.00000000000E+00 -0.12849079322E+04  0.12849079322E+04  0.25500000920E-02 0. -1.
    10030    2    1    2    0    0  0.00000000000E+00  0.00000000000E+00  0.94897797024E+03  0.35187938346E+04  0.33884142106E+04 0.  0.
        1    1    3    3  502    0 -0.25636692719E+03  0.60507996469E+03 -0.11471642435E+04  0.13220558107E+04  0.50400001928E-02 0. -1.
       -1    1    3    3    0  502  0.25636692719E+03 -0.60507996469E+03  0.20961422138E+04  0.21967380238E+04  0.50400001928E-02 0.  1.
</event>
<event>
 5   0  0.2080828E-07  0.3316340E+04  0.7818609E-02  0.8158750E-01
       -1   -1    0    0    0  501  0.00000000000E+00  0.00000000000E+00  0.17781825495E+04  0.17781825495E+04  0.50400001928E-02 0.  1.
        1   -1    0    0  501    0  0.00000000000E+00  0.00000000000E+00 -0.15462575454E+04  0.15462575454E+04  0.50400001928E-02 0. -1.
    10030    2    1    2    0    0  0.00000000000E+00  0.00000000000E+00  0.23192500418E+03  0.33244400949E+04  0.33163402626E+04 0.  0.
        1    1    3    3  502    0  0.12993983335E+04 -0.29731175474E+03 -0.87270079471E+03  0.15932473084E+04  0.50400001928E-02 0. -1.
       -1    1    3    3    0  502 -0.12993983335E+04  0.29731175474E+03  0.11046257989E+04  0.17311927865E+04  0.50400001928E-02 0.  1.
</event>
<event>
 5   0  0.6351753E-07  0.3301120E+04  0.7818609E-02  0.8162610E-01
       -2   -1    0    0    0  501  0.00000000000E+00  0.00000000000E+00  0.13371602303E+04  0.13371602303E+04  0.25500000920E-02 0.  1.
        2   -1    0    0  501    0  0.00000000000E+00  0.00000000000E+00 -0.20374139366E+04  0.20374139366E+04  0.25500000920E-02 0. -1.
    10030    2    1    2    0    0  0.00000000000E+00  0.00000000000E+00 -0.70025370627E+03  0.33745741670E+04  0.33011203485E+04 0.  0.
        3    1    3    3  502    0  0.61560143008E+03  0.55932382040E+03 -0.18075217248E+04  0.19897092884E+04  0.10100000352E+00 0. -1.
       -3    1    3    3    0  502 -0.61560143008E+03 -0.55932382040E+03  0.11072680185E+04  0.13848648785E+04  0.10100000352E+00 0.  1.
</event>
<event>
 5   0  0.6426079E-07  0.3296897E+04  0.7818609E-02  0.8163685E-01
        2   -1    0    0  501    0  0.00000000000E+00  0.00000000000E+00  0.16382952756E+04  0.16382952756E+04  0.25500000920E-02 0. -1.
       -2   -1    0    0    0  501  0.00000000000E+00  0.00000000000E+00 -0.16586651131E+04  0.16586651131E+04  0.25500000920E-02 0.  1.
    10030    2    1    2    0    0  0.00000000000E+00  0.00000000000E+00 -0.20369837496E+02  0.32969603887E+04  0.32968974619E+04 0.  0.
        4    1    3    3  502    0 -0.29396831742E+02  0.14845121535E+04  0.70588817195E+03  0.16440560306E+04  0.12699999809E+01 0. -1.
       -4    1    3    3    0  502  0.29396831742E+02 -0.14845121535E+04 -0.72625800944E+03  0.16529043580E+04  0.12699999809E+01 0.  1.
</event>
<event>
 5   0  0.6424183E-07  0.3311733E+04  0.7818609E-02  0.8159916E-01
        2   -1    0    0  501    0  0.00000000000E+00  0.00000000000E+00  0.23499565644E+04  0.23499565644E+04  0.25500000920E-02 0. -1.
       -2   -1    0    0    0  501  0.00000000000E+00  0.00000000000E+00 -0.11667849891E+04  0.11667849891E+04  0.25500000920E-02 0.  1.
    10030    2    1    2    0    0  0.00000000000E+00  0.00000000000E+00  0.11831715753E+04  0.35167415535E+04  0.33117331078E+04 0.  0.
        2    1    3    3  502    0 -0.32466599320E+03 -0.16189207367E+04  0.45903193898E+03  0.17137743958E+04  0.25500000920E-02 0. -1.
       -2    1    3    3    0  502  0.32466599320E+03  0.16189207367E+04  0.72413963631E+03  0.18029671577E+04  0.25500000920E-02 0.  1.
</event>
<event>
 5   0  0.6426079E-07  0.3343635E+04  0.7818609E-02  0.8151880E-01
       -2   -1    0    0    0  501  0.00000000000E+00  0.00000000000E+00  0.98422557763E+03  0.98422557763E+03  0.25500000920E-02 0. -1.
        2   -1    0    0  501    0  0.00000000000E+00  0.00000000000E+00 -0.28397700396E+04  0.28397700396E+04  0.25500000920E-02 0.  1.
    10030    2    1    2    0    0  0.00000000000E+00  0.00000000000E+00 -0.18555444620E+04  0.38239956173E+04  0.33436353315E+04 0.  0.
        4    1    3    3  502    0 -0.35726378591E+03  0.49650557407E+02 -0.27947386334E+04  0.28179191316E+04  0.12699999809E+01 0.  1.
       -4    1    3    3    0  502  0.35726378591E+03 -0.49650557407E+02  0.93919417136E+03  0.10060764857E+04  0.12699999809E+01 0. -1.
</event>
<event>
 5   0  0.6377741E-07  0.3304548E+04  0.7818609E-02  0.8161739E-01
       -2   -1    0    0    0  501  0.00000000000E+00  0.00000000000E+00  0.80433338406E+03  0.80433338407E+03  0.25500000920E-02 0. -1.
        2   -1    0    0  501    0  0.00000000000E+00  0.00000000000E+00 -0.33941262970E+04  0.33941262970E+04  0.25500000920E-02 0.  1.
    10030    2    1    2    0    0  0.00000000000E+00  0.00000000000E+00 -0.25897929129E+04  0.41984596810E+04  0.33045478301E+04 0.  0.
        1    1    3    3  502    0 -0.42593315704E+03  0.10676870054E+04  0.21301938674E+03  0.11690816289E+04  0.50400001928E-02 0. -1.
       -1    1    3    3    0  502  0.42593315704E+03 -0.10676870054E+04 -0.28028122996E+04  0.30293780521E+04  0.50400001928E-02 0.  1.
</event>
<event>
 5   0  0.1994250E-07  0.3301763E+04  0.7818609E-02  0.8162447E-01
       -3   -1    0    0    0  501  0.00000000000E+00  0.00000000000E+00  0.15026917551E+04  0.15026917584E+04  0.10100000352E+00 0. -1.
        3   -1    0    0  501    0  0.00000000000E+00  0.00000000000E+00 -0.18136850518E+04  0.18136850547E+04  0.10100000352E+00 0.  1.
    10030    2    1    2    0    0  0.00000000000E+00  0.00000000000E+00 -0.31099329679E+03  0.33163768131E+04  0.33017629133E+04 0.  0.
        4    1    3    3  502    0  0.88417531741E+03  0.10059870003E+03 -0.15521625507E+04  0.17891607773E+04  0.12699999809E+01 0.  1.
       -4    1    3    3    0  502 -0.88417531741E+03 -0.10059870003E+03  0.12411692539E+04  0.15272160358E+04  0.12699999809E+01 0. -1.
</event>
<event>
 5   0  0.2080828E-07  0.3301432E+04  0.7818609E-02  0.8162531E-01
        1   -1    0    0  501    0  0.00000000000E+00  0.00000000000E+00  0.14602563508E+04  0.14602563509E+04  0.50400001928E-02 0. -1.
       -1   -1    0    0    0  501  0.00000000000E+00  0.00000000000E+00 -0.18660175684E+04  0.18660175685E+04  0.50400001928E-02 0.  1.
    10030    2    1    2    0    0  0.00000000000E+00  0.00000000000E+00 -0.40576121761E+03  0.33262739193E+04  0.33014324195E+04 0.  0.
        1    1    3    3  502    0  0.11878831734E+04  0.12359114029E+03 -0.13509823853E+04  0.18031901201E+04  0.50400001928E-02 0.  1.
       -1    1    3    3    0  502 -0.11878831734E+04 -0.12359114029E+03  0.94522116772E+03  0.15230837992E+04  0.50400001928E-02 0. -1.
</event>
<event>
 5   0  0.6377741E-07  0.3300908E+04  0.7818609E-02  0.8162664E-01
        2   -1    0    0  501    0  0.00000000000E+00  0.00000000000E+00  0.28051362748E+04  0.28051362748E+04  0.25500000920E-02 0. -1.
       -2   -1    0    0    0  501  0.00000000000E+00  0.00000000000E+00 -0.97107517394E+03  0.97107517394E+03  0.25500000920E-02 0.  1.
    10030    2    1    2    0    0  0.00000000000E+00  0.00000000000E+00  0.18340611009E+04  0.37762114487E+04  0.33009078727E+04 0.  0.
        1    1    3    3  502    0  0.55580336914E+03 -0.94791691576E+03  0.23258295168E+04  0.25723426688E+04  0.50400001928E-02 0. -1.
       -1    1    3    3    0  502 -0.55580336914E+03  0.94791691576E+03 -0.49176841598E+03  0.12038687799E+04  0.50400001928E-02 0.  1.
</event>
<event>
 5   0  0.2080770E-07  0.3279103E+04  0.7818609E-02  0.8168233E-01
       -1   -1    0    0    0  501  0.00000000000E+00  0.00000000000E+00  0.21238753143E+04  0.21238753143E+04  0.50400001928E-02 0.  1.
        1   -1    0    0  501    0  0.00000000000E+00  0.00000000000E+00 -0.12656716875E+04  0.12656716876E+04  0.50400001928E-02 0. -1.
    10030    2    1    2    0    0  0.00000000000E+00  0.00000000000E+00  0.85820362673E+03  0.33895470018E+04  0.32791028366E+04 0.  0.
        4    1    3    3  502    0 -0.28811662663E+03 -0.74734241824E+03  0.19078785716E+04  0.20691868300E+04  0.12699999809E+01 0.  1.
       -4    1    3    3    0  502  0.28811662663E+03  0.74734241824E+03 -0.10496749449E+04  0.13203601718E+04  0.12699999809E+01 0. -1.
</event>
<event>
 5   0  0.2037333E-07  0.3321339E+04  0.7818609E-02  0.8157487E-01
        1   -1    0    0  501    0  0.00000000000E+00  0.00000000000E+00  0.23650494795E+04  0.23650494795E+04  0.50400001928E-02 0.  1.
       -1   -1    0    0    0  501  0.00000000000E+00  0.00000000000E+00 -0.11660744125E+04  0.11660744125E+04  0.50400001928E-02 0. -1.
    10030    2    1    2    0    0  0.00000000000E+00  0.00000000000E+00  0.11989750670E+04  0.35311238920E+04  0.33213392976E+04 0.  0.
        3    1    3    3  502    0  0.15929635941E+04 -0.34793856405E+03  0.93439122007E+03  0.18792767808E+04  0.10100000352E+00 0.  1.
       -3    1    3    3    0  502 -0.15929635941E+04  0.34793856405E+03  0.26458384690E+03  0.16518471112E+04  0.10100000352E+00 0. -1.
</event>
<event>
 5   0  0.2080770E-07  0.3289996E+04  0.7818609E-02  0.8165446E-01
        1   -1    0    0  501    0  0.00000000000E+00  0.00000000000E+00  0.16918761733E+04  0.16918761733E+04  0.50400001928E-02 0. -1.
       -1   -1    0    0    0  501  0.00000000000E+00  0.00000000000E+00 -0.15994183272E+04  0.15994183272E+04  0.50400001928E-02 0.  1.
    10030    2    1    2    0    0  0.00000000000E+00  0.00000000000E+00  0.92457846101E+02  0.32912945006E+04  0.32899955982E+04 0.  0.
        4    1    3    3  502    0 -0.54182225682E+03 -0.51034995180E+03 -0.14213157187E+04  0.16044215208E+04  0.12699999809E+01 0.  1.
       -4    1    3    3    0  502  0.54182225682E+03  0.51034995180E+03  0.15137735648E+04  0.16868729797E+04  0.12699999809E+01 0. -1.
</event>
<event>
 5   0  0.6377741E-07  0.3282234E+04  0.7818609E-02  0.8167431E-01
       -2   -1    0    0    0  501  0.00000000000E+00  0.00000000000E+00  0.16317836660E+04  0.16317836660E+04  0.25500000920E-02 0. -1.
        2   -1    0    0  501    0  0.00000000000E+00  0.00000000000E+00 -0.16505039835E+04  0.16505039835E+04  0.25500000920E-02 0.  1.
    10030    2    1    2    0    0  0.00000000000E+00  0.00000000000E+00 -0.18720317545E+02  0.32822876495E+04  0.32822342640E+04 0.  0.
        1    1    3    3  502    0 -0.46648095850E+02 -0.55128749895E+03 -0.15544326958E+04  0.16499560471E+04  0.50400001928E-02 0.  1.
       -1    1    3    3    0  502  0.46648095850E+02  0.55128749895E+03  0.15357123783E+04  0.16323316024E+04  0.50400001928E-02 0. -1.
</event>
<event>
 5   0  0.2057130E-07  0.3301615E+04  0.7818609E-02  0.8162485E-01
       -1   -1    0    0    0  501  0.00000000000E+00  0.00000000000E+00  0.17992209579E+04  0.17992209579E+04  0.50400001928E-02 0. -1.
        1   -1    0    0  501    0  0.00000000000E+00  0.00000000000E+00 -0.15146364508E+04  0.15146364508E+04  0.50400001928E-02 0.  1.
    10030    2    1    2    0    0  0.00000000000E+00  0.00000000000E+00  0.28458450710E+03  0.33138574087E+04  0.33016151477E+04 0.  0.
        2    1    3    3  502    0 -0.62878513267E+03 -0.13230279192E+04 -0.62170821789E+03  0.15913185495E+04  0.25500000920E-02 0. -1.
       -2    1    3    3    0  502  0.62878513267E+03  0.13230279192E+04  0.90629272500E+03  0.17225388592E+04  0.25500000920E-02 0.  1.
</event>
<event>
 5   0  0.2087665E-07  0.3294969E+04  0.7818609E-02  0.8164177E-01
       -1   -1    0    0    0  501  0.00000000000E+00  0.00000000000E+00  0.19054722290E+04  0.19054722290E+04  0.50400001928E-02 0. -1.
        1   -1    0    0  501    0  0.00000000000E+00  0.00000000000E+00 -0.14244263451E+04  0.14244263451E+04  0.50400001928E-02 0.  1.
    10030    2    1    2    0    0  0.00000000000E+00  0.00000000000E+00  0.48104588387E+03  0.33298985742E+04  0.32949687968E+04 0.  0.
        5    1    3    3  502    0 -0.77227607386E+03 -0.13702474893E+04  0.73581457384E+03  0.17365004156E+04  0.46999998093E+01 0. -1.
       -5    1    3    3    0  502  0.77227607386E+03  0.13702474893E+04 -0.25476868998E+03  0.15933981586E+04  0.46999998093E+01 0.  1.
</event>
<event>
 5   0  0.2087665E-07  0.3289871E+04  0.7818609E-02  0.8165477E-01
       -1   -1    0    0    0  501  0.00000000000E+00  0.00000000000E+00  0.20926116421E+04  0.20926116421E+04  0.50400001928E-02 0. -1.
        1   -1    0    0  501    0  0.00000000000E+00  0.00000000000E+00 -0.12930315556E+04  0.12930315556E+04  0.50400001928E-02 0.  1.
    10030    2    1    2    0    0  0.00000000000E+00  0.00000000000E+00  0.79958008647E+03  0.33856431978E+04  0.32898710534E+04 0.  0.
        5    1    3    3  502    0 -0.13365815668E+04 -0.93902759715E+03  0.59925633908E+03  0.17399291258E+04  0.46999998093E+01 0.  1.
       -5    1    3    3    0  502  0.13365815668E+04  0.93902759715E+03  0.20032374739E+03  0.16457140720E+04  0.46999998093E+01 0. -1.
</event>
<event>
 5   0  0.6377741E-07  0.3310955E+04  0.7818609E-02  0.8160114E-01
        2   -1    0    0  501    0  0.00000000000E+00  0.00000000000E+00  0.19479924887E+04  0.19479924887E+04  0.25500000920E-02 0. -1.
       -2   -1    0    0    0  501  0.00000000000E+00  0.00000000000E+00 -0.14068870282E+04  0.14068870282E+04  0.25500000920E-02 0.  1.
    10030    2    1    2    0    0  0.00000000000E+00  0.00000000000E+00  0.54110546048E+03  0.33548795169E+04  0.33109547647E+04 0.  0.
        1    1    3    3  502    0 -0.63995186039E+03 -0.33454177332E+03 -0.12388908716E+04  0.14339829753E+04  0.50400001928E-02 0.  1.
       -1    1    3    3    0  502  0.63995186039E+03  0.33454177332E+03  0.17799963320E+04  0.19208965417E+04  0.50400001928E-02 0. -1.
</event>
<event>
 5   0  0.2087665E-07  0.3297015E+04  0.7818609E-02  0.8163655E-01
        1   -1    0    0  501    0  0.00000000000E+00  0.00000000000E+00  0.12365033303E+04  0.12365033303E+04  0.50400001928E-02 0.  1.
       -1   -1    0    0    0  501  0.00000000000E+00  0.00000000000E+00 -0.21977923241E+04  0.21977923241E+04  0.50400001928E-02 0. -1.
    10030    2    1    2    0    0  0.00000000000E+00  0.00000000000E+00 -0.96128899382E+03  0.34342956544E+04  0.32970153339E+04 0.  0.
        5    1    3    3  502    0 -0.14910075936E+04  0.38037442188E+03  0.13539163763E+03  0.15447139964E+04  0.46999998093E+01 0.  1.
       -5    1    3    3    0  502  0.14910075936E+04 -0.38037442188E+03 -0.10966806314E+04  0.18895816580E+04  0.46999998093E+01 0. -1.
</event>
<event>
 5   0  0.6424183E-07  0.3318922E+04  0.7818609E-02  0.8158097E-01
        2   -1    0    0  501    0  0.00000000000E+00  0.00000000000E+00  0.82293372143E+03  0.82293372143E+03  0.25500000920E-02 0.  1.
       -2   -1    0    0    0  501  0.00000000000E+00  0.00000000000E+00 -0.33463338843E+04  0.33463338843E+04  0.25500000920E-02 0. -1.
    10030    2    1    2    0    0  0.00000000000E+00  0.00000000000E+00 -0.25234001628E+04  0.41692676057E+04  0.33189221121E+04 0.  0.
        2    1    3    3  502    0  0.74506456512E+02 -0.27037525904E+03  0.79294753467E+03  0.84108250815E+03  0.25500000920E-02 0.  1.
       -2    1    3    3    0  502 -0.74506456512E+02  0.27037525904E+03 -0.33163476975E+04  0.33281850975E+04  0.25500000920E-02 0. -1.
</event>
<event>
 5   0  0.2057130E-07  0.3291082E+04  0.7818609E-02  0.8165168E-01
        1   -1    0    0  501    0  0.00000000000E+00  0.00000000000E+00  0.15987466034E+04  0.15987466034E+04  0.50400001928E-02 0. -1.
       -1   -1    0    0    0  501  0.00000000000E+00  0.00000000000E+00 -0.16937046727E+04  0.16937046727E+04  0.50400001928E-02 0.  1.
    10030    2    1    2    0    0  0.00000000000E+00  0.00000000000E+00 -0.94958069275E+02  0.32924512761E+04  0.32910816414E+04 0.  0.
        2    1    3    3  502    0 -0.38498552027E+03 -0.78436688305E+03  0.13475041272E+04  0.16059927244E+04  0.25500000920E-02 0. -1.
       -2    1    3    3    0  502  0.38498552027E+03  0.78436688305E+03 -0.14424621965E+04  0.16864585516E+04  0.25500000920E-02 0.  1.
</event>
<event>
 5   0  0.6258718E-07  0.3313327E+04  0.7818609E-02  0.8159513E-01
        2   -1    0    0  501    0  0.00000000000E+00  0.00000000000E+00  0.25408838674E+04  0.25408838674E+04  0.25500000920E-02 0. -1.
       -2   -1    0    0    0  501  0.00000000000E+00  0.00000000000E+00 -0.10801492466E+04  0.10801492466E+04  0.25500000920E-02 0.  1.
    10030    2    1    2    0    0  0.00000000000E+00  0.00000000000E+00  0.14607346208E+04  0.36210331141E+04  0.33133269052E+04 0.  0.
        5    1    3    3  502    0  0.54753424323E+03 -0.19806794062E+03  0.24253673816E+04  0.24942842024E+04  0.46999998093E+01 0. -1.
       -5    1    3    3    0  502 -0.54753424323E+03  0.19806794062E+03 -0.96463276081E+03  0.11267489116E+04  0.46999998093E+01 0.  1.
</event>
<event>
 5   0  0.6426079E-07  0.3287275E+04  0.7818609E-02  0.8166141E-01
        2   -1    0    0  501    0  0.00000000000E+00  0.00000000000E+00  0.28200944349E+04  0.28200944349E+04  0.25500000920E-02 0. -1.
       -2   -1    0    0    0  501  0.00000000000E+00  0.00000000000E+00 -0.95796219721E+03  0.95796219721E+03  0.25500000920E-02 0.  1.
    10030    2    1    2    0    0  0.00000000000E+00  0.00000000000E+00  0.18621322377E+04  0.37780566321E+04  0.32872747748E+04 0.  0.
        4    1    3    3  502    0  0.41362035480E+03 -0.46223905334E+03  0.26804145010E+04  0.27512488529E+04  0.12699999809E+01 0. -1.
       -4    1    3    3    0  502 -0.41362035480E+03  0.46223905334E+03 -0.81828226327E+03  0.10268077793E+04  0.12699999809E+01 0.  1.
</event>
<event>
 5   0  0.6426079E-07  0.3296395E+04  0.7818609E-02  0.8163813E-01
       -2   -1    0    0    0  501  0.00000000000E+00  0.00000000000E+00  0.20141606247E+04  0.20141606247E+04  0.25500000920E-02 0.  1.
        2   -1    0    0  501    0  0.00000000000E+00  0.00000000000E+00 -0.13487282657E+04  0.13487282657E+04  0.25500000920E-02 0. -1.
    10030    2    1    2    0    0  0.00000000000E+00  0.00000000000E+00  0.66543235898E+03  0.33628888905E+04  0.32963952228E+04 0.  0.
        4    1    3    3  502    0  0.69959896070E+03 -0.12957085718E+04  0.10880940947E+04  0.18309150119E+04  0.12699999809E+01 0.  1.
       -4    1    3    3    0  502 -0.69959896070E+03  0.12957085718E+04 -0.42266173571E+03  0.15319738786E+04  0.12699999809E+01 0. -1.
</event>
<event>
 5   0  0.1994250E-07  0.3309312E+04  0.7818609E-02  0.8160530E-01
       -3   -1    0    0    0  501  0.00000000000E+00  0.00000000000E+00  0.18733217223E+04  0.18733217250E+04  0.10100000352E+00 0.  1.
        3   -1    0    0  501    0  0.00000000000E+00  0.00000000000E+00 -0.14615141804E+04  0.14615141839E+04  0.10100000352E+00 0. -1.
    10030    2    1    2    0    0  0.00000000000E+00  0.00000000000E+00  0.41180754191E+03  0.33348359089E+04  0.33093118753E+04 0.  0.
        4    1    3    3  502    0 -0.11080277915E+04 -0.75679157630E+03  0.11815787599E+04  0.17879007398E+04  0.12699999809E+01 0.  1.
       -4    1    3    3    0  502  0.11080277915E+04  0.75679157630E+03 -0.76977121797E+03  0.15469351691E+04  0.12699999809E+01 0. -1.
</event>
<event>
 5   0  0.1994250E-07  0.3301270E+04  0.7818609E-02  0.8162572E-01
       -3   -1    0    0    0  501  0.00000000000E+00  0.00000000000E+00  0.19953941549E+04  0.19953941574E+04  0.10100000352E+00 0. -1.
        3   -1    0    0  501    0  0.00000000000E+00  0.00000000000E+00 -0.13654426670E+04  0.13654426707E+04  0.10100000352E+00 0.  1.
    10030    2    1    2    0    0  0.00000000000E+00  0.00000000000E+00  0.62995148792E+03  0.33608368281E+04  0.33012702567E+04 0.  0.
        5    1    3    3  502    0  0.10565468588E+03 -0.16421986231E+04  0.44612174902E+03  0.17050002742E+04  0.46999998093E+01 0.  1.
       -5    1    3    3    0  502 -0.10565468588E+03  0.16421986231E+04  0.18382973889E+03  0.16558365539E+04  0.46999998093E+01 0. -1.
</event>
<event>
 5   0  0.2087665E-07  0.3187762E+04  0.7818609E-02  0.8192057E-01
       -1   -1    0    0    0  501  0.00000000000E+00  0.00000000000E+00  0.17837404384E+04  0.17837404384E+04  0.50400001928E-02 0.  1.
        1   -1    0    0  501    0  0.00000000000E+00  0.00000000000E+00 -0.14242303844E+04  0.14242303844E+04  0.50400001928E-02 0. -1.
    10030    2    1    2    0    0  0.00000000000E+00  0.00000000000E+00  0.35951005400E+03  0.32079708228E+04  0.31877624317E+04 0.  0.
        5    1    3    3  502    0 -0.90581576782E+03  0.74559742090E+03  0.12654909825E+04  0.17256613909E+04  0.46999998093E+01 0.  1.
       -5    1    3    3    0  502  0.90581576782E+03 -0.74559742090E+03 -0.90598092846E+03  0.14823094319E+04  0.46999998093E+01 0. -1.
</event>
<event>
 5   0  0.6377741E-07  0.3286450E+04  0.7818609E-02  0.8166352E-01
        2   -1    0    0  501    0  0.00000000000E+00  0.00000000000E+00  0.19664810266E+04  0.19664810266E+04  0.25500000920E-02 0. -1.
       -2   -1    0    0    0  501  0.00000000000E+00  0.00000000000E+00 -0.13731071035E+04  0.13731071035E+04  0.25500000920E-02 0.  1.
    10030    2    1    2    0    0  0.00000000000E+00  0.00000000000E+00  0.59337392313E+03  0.33395881301E+04  0.32864504052E+04 0.  0.
        1    1    3    3  502    0 -0.43788308098E+03  0.96153201446E+01 -0.13126994422E+04  0.13838402627E+04  0.50400001928E-02 0.  1.
       -1    1    3    3    0  502  0.43788308098E+03 -0.96153201446E+01  0.19060733653E+04  0.19557478674E+04  0.50400001928E-02 0. -1.
</event>
<event>
 5   0  0.6258718E-07  0.3313313E+04  0.7818609E-02  0.8159516E-01
       -2   -1    0    0    0  501  0.00000000000E+00  0.00000000000E+00  0.18954182011E+04  0.18954182011E+04  0.25500000920E-02 0. -1.
        2   -1    0    0  501    0  0.00000000000E+00  0.00000000000E+00 -0.14479714475E+04  0.14479714475E+04  0.25500000920E-02 0.  1.
    10030    2    1    2    0    0  0.00000000000E+00  0.00000000000E+00  0.44744675361E+03  0.33433896486E+04  0.33133134088E+04 0.  0.
        5    1    3    3  502    0  0.15407036144E+04 -0.72612870001E+01  0.83807584054E+03  0.17539137830E+04  0.46999998093E+01 0. -1.
       -5    1    3    3    0  502 -0.15407036144E+04  0.72612870001E+01 -0.39062908692E+03  0.15894758656E+04  0.46999998093E+01 0.  1.
</event>
<event>
 5   0  0.2087665E-07  0.3301924E+04  0.7818609E-02  0.8162406E-01
        1   -1    0    0  501    0  0.00000000000E+00  0.00000000000E+00  0.20814305603E+04  0.20814305603E+04  0.50400001928E-02 0.  1.
       -1   -1    0    0    0  501  0.00000000000E+00  0.00000000000E+00 -0.13095205141E+04  0.13095205141E+04  0.50400001928E-02 0. -1.
    10030    2    1    2    0    0  0.00000000000E+00  0.00000000000E+00  0.77191004617E+03  0.33909510744E+04  0.33019242980E+04 0.  0.
        5    1    3    3  502    0  0.10479489422E+04  0.67969247452E+03 -0.72272419767E+03  0.14430977795E+04  0.46999998093E+01 0. -1.
       -5    1    3    3    0  502 -0.10479489422E+04 -0.67969247452E+03  0.14946342438E+04  0.19478532948E+04  0.46999998093E+01 0.  1.
</event>
<event>
 5   0  0.6426079E-07  0.3302088E+04  0.7818609E-02  0.8162364E-01
       -2   -1    0    0    0  501  0.00000000000E+00  0.00000000000E+00  0.14497298488E+04  0.14497298488E+04  0.25500000920E-02 0. -1.
        2   -1    0    0  501    0  0.00000000000E+00  0.00000000000E+00 -0.18803137130E+04  0.18803137130E+04  0.25500000920E-02 0.  1.
    10030    2    1    2    0    0  0.00000000000E+00  0.00000000000E+00 -0.43058386418E+03  0.33300435617E+04  0.33020883784E+04 0.  0.
        4    1    3    3  502    0  0.98930124000E+03  0.72248298523E+02  0.11157335259E+04  0.14929164993E+04  0.12699999809E+01 0. -1.
       -4    1    3    3    0  502 -0.98930124000E+03 -0.72248298523E+02 -0.15463173900E+04  0.18371270625E+04  0.12699999809E+01 0.  1.
</event>
<event>
 5   0  0.6377741E-07  0.3308551E+04  0.7818609E-02  0.8160723E-01
        2   -1    0    0  501    0  0.00000000000E+00  0.00000000000E+00  0.25117786482E+04  0.25117786482E+04  0.25500000920E-02 0.  1.
       -2   -1    0    0    0  501  0.00000000000E+00  0.00000000000E+00 -0.10895177536E+04  0.10895177536E+04  0.25500000920E-02 0. -1.
    10030    2    1    2    0    0  0.00000000000E+00  0.00000000000E+00  0.14222608946E+04  0.36012964017E+04  0.33085510002E+04 0.  0.
        1    1    3    3  502    0 -0.13562689617E+03 -0.22869466906E+03  0.24883681938E+04  0.25025331515E+04  0.50400001928E-02 0.  1.
       -1    1    3    3    0  502  0.13562689617E+03  0.22869466906E+03 -0.10661072992E+04  0.10987632502E+04  0.50400001928E-02 0. -1.
</event>
<event>
 5   0  0.2037333E-07  0.3306419E+04  0.7818609E-02  0.8161264E-01
        1   -1    0    0  501    0  0.00000000000E+00  0.00000000000E+00  0.21592476825E+04  0.21592476825E+04  0.50400001928E-02 0.  1.
       -1   -1    0    0    0  501  0.00000000000E+00  0.00000000000E+00 -0.12657660797E+04  0.12657660797E+04  0.50400001928E-02 0. -1.
    10030    2    1    2    0    0  0.00000000000E+00  0.00000000000E+00  0.89348160282E+03  0.34250137622E+04  0.33064194980E+04 0.  0.
        3    1    3    3  502    0  0.25395611683E+03 -0.15845272887E+04  0.35145211407E+02  0.16051341483E+04  0.10100000352E+00 0.  1.
       -3    1    3    3    0  502 -0.25395611683E+03  0.15845272887E+04  0.85833639141E+03  0.18198796139E+04  0.10100000352E+00 0. -1.
</event>
<event>
 5   0  0.6351753E-07  0.3298506E+04  0.7818609E-02  0.8163276E-01
        2   -1    0    0  501    0  0.00000000000E+00  0.00000000000E+00  0.19881047906E+04  0.19881047906E+04  0.25500000920E-02 0.  1.
       -2   -1    0    0    0  501  0.00000000000E+00  0.00000000000E+00 -0.13681548977E+04  0.13681548977E+04  0.25500000920E-02 0. -1.
    10030    2    1    2    0    0  0.00000000000E+00  0.00000000000E+00  0.61994989287E+03  0.33562596883E+04  0.32985059081E+04 0.  0.
        3    1    3    3  502    0  0.84009089060E+03  0.12657082234E+03 -0.11283749643E+04  0.14124457327E+04  0.10100000352E+00 0. -1.
       -3    1    3    3    0  502 -0.84009089060E+03 -0.12657082234E+03  0.17483248572E+04  0.19438139556E+04  0.10100000352E+00 0.  1.
</event>
<event>
 5   0  0.2037333E-07  0.3296905E+04  0.7818609E-02  0.8163683E-01
       -1   -1    0    0    0  501  0.00000000000E+00  0.00000000000E+00  0.15602816509E+04  0.15602816509E+04  0.50400001928E-02 0.  1.
        1   -1    0    0  501    0  0.00000000000E+00  0.00000000000E+00 -0.17416057274E+04  0.17416057275E+04  0.50400001928E-02 0. -1.
    10030    2    1    2    0    0  0.00000000000E+00  0.00000000000E+00 -0.18132407652E+03  0.33018873784E+04  0.32969048877E+04 0.  0.
        3    1    3    3  502    0  0.57969344469E+03 -0.13705502456E+04  0.61959445836E+03  0.16119397534E+04  0.10100000352E+00 0.  1.
       -3    1    3    3    0  502 -0.57969344469E+03  0.13705502456E+04 -0.80091853488E+03  0.16899476250E+04  0.10100000352E+00 0. -1.
</event>
<event>
 5   0  0.2087665E-07  0.3308228E+04  0.7818609E-02  0.8160805E-01
        1   -1    0    0  501    0  0.00000000000E+00  0.00000000000E+00  0.15720328121E+04  0.15720328121E+04  0.50400001928E-02 0.  1.
       -1   -1    0    0    0  501  0.00000000000E+00  0.00000000000E+00 -0.17404806321E+04  0.17404806321E+04  0.50400001928E-02 0. -1.
    10030    2    1    2    0    0  0.00000000000E+00  0.00000000000E+00 -0.16844782005E+03  0.33125134442E+04  0.33082277204E+04 0.  0.
        5    1    3    3  502    0 -0.94962102398E+03  0.60354800370E+03  0.11297907128E+04  0.15945216921E+04  0.46999998093E+01 0.  1.
       -5    1    3    3    0  502  0.94962102398E+03 -0.60354800370E+03 -0.12982385328E+04  0.17179917521E+04  0.46999998093E+01 0. -1.
</event>
<event>
 5   0  0.2080828E-07  0.3296830E+04  0.7818609E-02  0.8163703E-01
        1   -1    0    0  501    0  0.00000000000E+00  0.00000000000E+00  0.23337099821E+04  0.23337099821E+04  0.50400001928E-02 0.  1.
       -1   -1    0    0    0  501  0.00000000000E+00  0.00000000000E+00 -0.11643570613E+04  0.11643570613E+04  0.50400001928E-02 0. -1.
    10030    2    1    2    0    0  0.00000000000E+00  0.00000000000E+00  0.11693529208E+04  0.34980670434E+04  0.32968298086E+04 0.  0.
        1    1    3    3  502    0  0.58610035273E+03  0.24892742541E+03 -0.10285899537E+04  0.12097420302E+04  0.50400001928E-02 0. -1.
       -1    1    3    3    0  502 -0.58610035273E+03 -0.24892742541E+03  0.21979428745E+04  0.22883250132E+04  0.50400001928E-02 0.  1.
</event>
<event>
 5   0  0.2080828E-07  0.3294203E+04  0.7818609E-02  0.8164372E-01
       -1   -1    0    0    0  501  0.00000000000E+00  0.00000000000E+00  0.13377780359E+04  0.13377780359E+04  0.50400001928E-02 0. -1.
        1   -1    0    0  501    0  0.00000000000E+00  0.00000000000E+00 -0.20279467912E+04  0.20279467912E+04  0.50400001928E-02 0.  1.
    10030    2    1    2    0    0  0.00000000000E+00  0.00000000000E+00 -0.69016875533E+03  0.33657248271E+04  0.32942025896E+04 0.  0.
        1    1    3    3  502    0 -0.36124766417E+03  0.10705300169E+04  0.87943948424E+03  0.14317640163E+04  0.50400001928E-02 0. -1.
       -1    1    3    3    0  502  0.36124766417E+03 -0.10705300169E+04 -0.15696082396E+04  0.19339608108E+04  0.50400001928E-02 0.  1.
</event>
<event>
 5   0  0.6351753E-07  0.3303231E+04  0.7818609E-02  0.8162074E-01
       -2   -1    0    0    0  501  0.00000000000E+00  0.00000000000E+00  0.12281297401E+04  0.12281297401E+04  0.25500000920E-02 0. -1.
        2   -1    0    0  501    0  0.00000000000E+00  0.00000000000E+00 -0.22211289637E+04  0.22211289637E+04  0.25500000920E-02 0.  1.
    10030    2    1    2    0    0  0.00000000000E+00  0.00000000000E+00 -0.99299922359E+03  0.34492587037E+04  0.33032314704E+04 0.  0.
        3    1    3    3  502    0 -0.44697362593E+03  0.58712193642E+03 -0.20394328767E+04  0.21688208915E+04  0.10100000352E+00 0.  1.
       -3    1    3    3    0  502  0.44697362593E+03 -0.58712193642E+03  0.10464336531E+04  0.12804378123E+04  0.10100000352E+00 0. -1.
</event>
<event>
 5   0  0.2080828E-07  0.3276560E+04  0.7818609E-02  0.8168885E-01
        1   -1    0    0  501    0  0.00000000000E+00  0.00000000000E+00  0.20080473833E+04  0.20080473833E+04  0.50400001928E-02 0.  1.
       -1   -1    0    0    0  501  0.00000000000E+00  0.00000000000E+00 -0.13366024187E+04  0.13366024187E+04  0.50400001928E-02 0. -1.
    10030    2    1    2    0    0  0.00000000000E+00  0.00000000000E+00  0.67144496463E+03  0.33446498021E+04  0.32765597748E+04 0.  0.
        1    1    3    3  502    0 -0.16217392171E+04 -0.27944141748E+02  0.10040639900E+03  0.16250847388E+04  0.50400001928E-02 0. -1.
       -1    1    3    3    0  502  0.16217392171E+04  0.27944141748E+02  0.57103856562E+03  0.17195650633E+04  0.50400001928E-02 0.  1.
</event>
<event>
 5   0  0.2057130E-07  0.3247561E+04  0.7818609E-02  0.8176368E-01
        1   -1    0    0  501    0  0.00000000000E+00  0.00000000000E+00  0.18099471627E+04  0.18099471627E+04  0.50400001928E-02 0. -1.
       -1   -1    0    0    0  501  0.00000000000E+00  0.00000000000E+00 -0.14567621970E+04  0.14567621970E+04  0.50400001928E-02 0.  1.
    10030    2    1    2    0    0  0.00000000000E+00  0.00000000000E+00  0.35318496569E+03  0.32667093597E+04  0.32475606878E+04 0.  0.
        2    1    3    3  502    0  0.13374141442E+03 -0.15591885078E+04  0.61239877658E+03  0.16804725021E+04  0.25500000920E-02 0. -1.
       -2    1    3    3    0  502 -0.13374141442E+03  0.15591885078E+04 -0.25921381090E+03  0.15862368576E+04  0.25500000920E-02 0.  1.
</event>
<event>
 5   0  0.2087665E-07  0.3231888E+04  0.7818609E-02  0.8180446E-01
       -1   -1    0    0    0  501  0.00000000000E+00  0.00000000000E+00  0.13263244586E+04  0.13263244586E+04  0.50400001928E-02 0. -1.
        1   -1    0    0  501    0  0.00000000000E+00  0.00000000000E+00 -0.19688059607E+04  0.19688059607E+04  0.50400001928E-02 0.  1.
    10030    2    1    2    0    0  0.00000000000E+00  0.00000000000E+00 -0.64248150204E+03  0.32951304193E+04  0.32318883025E+04 0.  0.
        5    1    3    3  502    0  0.92449178567E+03 -0.77217934978E+03  0.77701325659E+03  0.14334286522E+04  0.46999998093E+01 0. -1.
       -5    1    3    3    0  502 -0.92449178567E+03  0.77217934978E+03 -0.14194947586E+04  0.18617017671E+04  0.46999998093E+01 0.  1.
</event>
<event>
 5   0  0.6377741E-07  0.3293918E+04  0.7818609E-02  0.8164445E-01
        2   -1    0    0  501    0  0.00000000000E+00  0.00000000000E+00  0.13794850987E+04  0.13794850987E+04  0.25500000920E-02 0.  1.
       -2   -1    0    0    0  501  0.00000000000E+00  0.00000000000E+00 -0.19662943521E+04  0.19662943521E+04  0.25500000920E-02 0. -1.
    10030    2    1    2    0    0  0.00000000000E+00  0.00000000000E+00 -0.58680925339E+03  0.33457794507E+04  0.32939178850E+04 0.  0.
        1    1    3    3  502    0 -0.11222801731E+04 -0.59670632194E+03 -0.13572256327E+04  0.18594710645E+04  0.50400001928E-02 0. -1.
       -1    1    3    3    0  502  0.11222801731E+04  0.59670632194E+03  0.77041637933E+03  0.14863083863E+04  0.50400001928E-02 0.  1.
</event>
<event>
 5   0  0.6351753E-07  0.3295109E+04  0.7818609E-02  0.8164141E-01
        2   -1    0    0  501    0  0.00000000000E+00  0.00000000000E+00  0.19495204440E+04  0.19495204440E+04  0.25500000920E-02 0.  1.
       -2   -1    0    0    0  501  0.00000000000E+00  0.00000000000E+00 -0.13923608667E+04  0.13923608667E+04  0.25500000920E-02 0. -1.
    10030    2    1    2    0    0  0.00000000000E+00  0.00000000000E+00  0.55715957724E+03  0.33418813107E+04  0.32951090878E+04 0.  0.
        3    1    3    3  502    0 -0.10771154127E+04 -0.51662359533E+02 -0.98472929851E+03  0.14603213390E+04  0.10100000352E+00 0. -1.
       -3    1    3    3    0  502  0.10771154127E+04  0.51662359533E+02  0.15418888758E+04  0.18815599717E+04  0.10100000352E+00 0.  1.
</event>
<event>
 5   0  0.2080828E-07  0.3318405E+04  0.7818609E-02  0.8158228E-01
       -1   -1    0    0    0  501  0.00000000000E+00  0.00000000000E+00  0.13079992157E+04  0.13079992157E+04  0.50400001928E-02 0.  1.
        1   -1    0    0  501    0  0.00000000000E+00  0.00000000000E+00 -0.21047047778E+04  0.21047047778E+04  0.50400001928E-02 0. -1.
    10030    2    1    2    0    0  0.00000000000E+00  0.00000000000E+00 -0.79670556216E+03  0.34127039935E+04  0.33184045556E+04 0.  0.
        1    1    3    3  502    0 -0.10551378222E+04  0.10204547173E+04 -0.11938375934E+04  0.18920602140E+04  0.50400001928E-02 0. -1.
       -1    1    3    3    0  502  0.10551378222E+04 -0.10204547173E+04  0.39713203125E+03  0.15206437795E+04  0.50400001928E-02 0.  1.
</event>
<event>
 5   0  0.2057130E-07  0.3308049E+04  0.7818609E-02  0.8160850E-01
        1   -1    0    0  501    0  0.00000000000E+00  0.00000000000E+00  0.23892861146E+04  0.23892861146E+04  0.50400001928E-02 0.  1.
       -1   -1    0    0    0  501  0.00000000000E+00  0.00000000000E+00 -0.11450272620E+04  0.11450272620E+04  0.50400001928E-02 0. -1.
    10030    2    1    2    0    0  0.00000000000E+00  0.00000000000E+00  0.12442588525E+04  0.35343133766E+04  0.33080494180E+04 0.  0.
        2    1    3    3  502    0  0.50166623918E+03  0.15743957612E+04  0.70068908503E+03  0.17948137013E+04  0.25500000920E-02 0. -1.
       -2    1    3    3    0  502 -0.50166623918E+03 -0.15743957612E+04  0.54356976750E+03  0.17394996753E+04  0.25500000920E-02 0.  1.
</event>
<event>
 5   0  0.2080770E-07  0.3297014E+04  0.7818609E-02  0.8163656E-01
       -1   -1    0    0    0  501  0.00000000000E+00  0.00000000000E+00  0.12647203518E+04  0.12647203518E+04  0.50400001928E-02 0.  1.
        1   -1    0    0  501    0  0.00000000000E+00  0.00000000000E+00 -0.21487559102E+04  0.21487559102E+04  0.50400001928E-02 0. -1.
    10030    2    1    2    0    0  0.00000000000E+00  0.00000000000E+00 -0.88403555840E+03  0.34134762619E+04  0.32970140009E+04 0.  0.
        4    1    3    3  502    0 -0.12100894273E+04 -0.88954824762E+03 -0.11457036825E+04  0.18889814843E+04  0.12699999809E+01 0. -1.
       -4    1    3    3    0  502  0.12100894273E+04  0.88954824762E+03  0.26166812409E+03  0.15244947777E+04  0.12699999809E+01 0.  1.
</event>
<event>
 5   0  0.2037333E-07  0.3328426E+04  0.7818609E-02  0.8155700E-01
        1   -1    0    0  501    0  0.00000000000E+00  0.00000000000E+00  0.24738641951E+04  0.24738641951E+04  0.50400001928E-02 0.  1.
       -1   -1    0    0    0  501  0.00000000000E+00  0.00000000000E+00 -0.11195459010E+04  0.11195459010E+04  0.50400001928E-02 0. -1.
    10030    2    1    2    0    0  0.00000000000E+00  0.00000000000E+00  0.13543182940E+04  0.35934100961E+04  0.33284257656E+04 0.  0.
        3    1    3    3  502    0  0.10664233139E+04  0.10192634921E+04 -0.15452640177E+03  0.14832515531E+04  0.10100000352E+00 0. -1.
       -3    1    3    3    0  502 -0.10664233139E+04 -0.10192634921E+04  0.15088446958E+04  0.21101585431E+04  0.10100000352E+00 0.  1.
</event>
<event>
 5   0  0.2080828E-07  0.3297188E+04  0.7818609E-02  0.8163611E-01
       -1   -1    0    0    0  501  0.00000000000E+00  0.00000000000E+00  0.18600270693E+04  0.18600270693E+04  0.50400001928E-02 0. -1.
        1   -1    0    0  501    0  0.00000000000E+00  0.00000000000E+00 -0.14611946476E+04  0.14611946476E+04  0.50400001928E-02 0.  1.
    10030    2    1    2    0    0  0.00000000000E+00  0.00000000000E+00  0.39883242169E+03  0.33212217169E+04  0.32971876489E+04 0.  0.
        1    1    3    3  502    0 -0.96679569817E+03  0.12683250355E+04  0.62021638536E+03  0.17111430923E+04  0.50400001928E-02 0. -1.
       -1    1    3    3    0  502  0.96679569817E+03 -0.12683250355E+04 -0.22138396367E+03  0.16100786245E+04  0.50400001928E-02 0.  1.
</event>
<event>
 5   0  0.6426079E-07  0.3298619E+04  0.7818609E-02  0.8163247E-01
        2   -1    0    0  501    0  0.00000000000E+00  0.00000000000E+00  0.21299878377E+04  0.21299878377E+04  0.25500000920E-02 0.  1.
       -2   -1    0    0    0  501  0.00000000000E+00  0.00000000000E+00 -0.12771065797E+04  0.12771065797E+04  0.25500000920E-02 0. -1.
    10030    2    1    2    0    0  0.00000000000E+00  0.00000000000E+00  0.85288125797E+03  0.34070944174E+04  0.32986187911E+04 0.  0.
        4    1    3    3  502    0 -0.79532442716E+03 -0.87674378842E+02 -0.10632047232E+04  0.13306515838E+04  0.12699999809E+01 0. -1.
       -4    1    3    3    0  502  0.79532442716E+03  0.87674378842E+02  0.19160859812E+04  0.20764428336E+04  0.12699999809E+01 0.  1.
</event>
<event>
 5   0  0.6426079E-07  0.3264904E+04  0.7818609E-02  0.8171883E-01
        2   -1    0    0  501    0  0.00000000000E+00  0.00000000000E+00  0.24903354350E+04  0.24903354350E+04  0.25500000920E-02 0.  1.
       -2   -1    0    0    0  501  0.00000000000E+00  0.00000000000E+00 -0.10700967839E+04  0.10700967839E+04  0.25500000920E-02 0. -1.
    10030    2    1    2    0    0  0.00000000000E+00  0.00000000000E+00  0.14202386511E+04  0.35604322189E+04  0.32649042496E+04 0.  0.
        4    1    3    3  502    0  0.14636455000E+02 -0.57176830316E+03 -0.95725346254E+03  0.11151094219E+04  0.12699999809E+01 0. -1.
       -4    1    3    3    0  502 -0.14636455000E+02  0.57176830316E+03  0.23774921136E+04  0.24453227970E+04  0.12699999809E+01 0.  1.
</event>
<event>
 5   0  0.2037333E-07  0.3298276E+04  0.7818609E-02  0.8163334E-01
       -1   -1    0    0    0  501  0.00000000000E+00  0.00000000000E+00  0.11398296874E+04  0.11398296874E+04  0.50400001928E-02 0. -1.
        1   -1    0    0  501    0  0.00000000000E+00  0.00000000000E+00 -0.23860194021E+04  0.23860194021E+04  0.50400001928E-02 0.  1.
    10030    2    1    2    0    0  0.00000000000E+00  0.00000000000E+00 -0.12461897147E+04  0.35258490895E+04  0.32982757612E+04 0.  0.
        3    1    3    3  502    0  0.13786661853E+03 -0.14657456531E+04  0.17130651385E+03  0.14821482571E+04  0.10100000352E+00 0. -1.
       -3    1    3    3    0  502 -0.13786661853E+03  0.14657456531E+04 -0.14174962285E+04  0.20437008324E+04  0.10100000352E+00 0.  1.
</event>
<event>
 5   0  0.2080770E-07  0.3323941E+04  0.7818609E-02  0.8156830E-01
       -1   -1    0    0    0  501  0.00000000000E+00  0.00000000000E+00  0.16311472908E+04  0.16311472908E+04  0.50400001928E-02 0.  1.
        1   -1    0    0  501    0  0.00000000000E+00  0.00000000000E+00 -0.16933763115E+04  0.16933763115E+04  0.50400001928E-02 0. -1.
    10030    2    1    2    0    0  0.00000000000E+00  0.00000000000E+00 -0.62229020712E+02  0.33245236023E+04  0.33239411443E+04 0.  0.
        4    1    3    3  502    0 -0.51035149220E+03  0.15475343684E+04  0.29578110549E+03  0.16561429112E+04  0.12699999809E+01 0. -1.
       -4    1    3    3    0  502  0.51035149220E+03 -0.15475343684E+04 -0.35801012620E+03  0.16683806911E+04  0.12699999809E+01 0.  1.
</event>
<event>
 5   0  0.6426079E-07  0.3310521E+04  0.7818609E-02  0.8160223E-01
        2   -1    0    0  501    0  0.00000000000E+00  0.00000000000E+00  0.10590685898E+04  0.10590685898E+04  0.25500000920E-02 0. -1.
       -2   -1    0    0    0  501  0.00000000000E+00  0.00000000000E+00 -0.25870728577E+04  0.25870728577E+04  0.25500000920E-02 0.  1.
    10030    2    1    2    0    0  0.00000000000E+00  0.00000000000E+00 -0.15280042680E+04  0.36461414475E+04  0.33105211693E+04 0.  0.
        4    1    3    3  502    0 -0.13175150696E+04 -0.52132522782E+03 -0.17064770716E+04  0.22180377726E+04  0.12699999809E+01 0.  1.
       -4    1    3    3    0  502  0.13175150696E+04  0.52132522782E+03  0.17847280362E+03  0.14281036749E+04  0.12699999809E+01 0. -1.
</event>
<event>
 5   0  0.6426079E-07  0.3350095E+04  0.7818609E-02  0.8150264E-01
        2   -1    0    0  501    0  0.00000000000E+00  0.00000000000E+00  0.20191709040E+04  0.20191709040E+04  0.25500000920E-02 0.  1.
       -2   -1    0    0    0  501  0.00000000000E+00  0.00000000000E+00 -0.13895727706E+04  0.13895727706E+04  0.25500000920E-02 0. -1.
    10030    2    1    2    0    0  0.00000000000E+00  0.00000000000E+00  0.62959813339E+03  0.34087436745E+04  0.33500954657E+04 0.  0.
        4    1    3    3  502    0 -0.25070086923E+03 -0.10025558874E+04  0.16561388802E+04  0.19521185509E+04  0.12699999809E+01 0.  1.
       -4    1    3    3    0  502  0.25070086923E+03  0.10025558874E+04 -0.10265407468E+04  0.14566251237E+04  0.12699999809E+01 0. -1.
</event>
<event>
 5   0  0.6258718E-07  0.3337154E+04  0.7818609E-02  0.8153505E-01
       -2   -1    0    0    0  501  0.00000000000E+00  0.00000000000E+00  0.10962281301E+04  0.10962281301E+04  0.25500000920E-02 0.  1.
        2   -1    0    0  501    0  0.00000000000E+00  0.00000000000E+00 -0.25397539200E+04  0.25397539200E+04  0.25500000920E-02 0. -1.
    10030    2    1    2    0    0  0.00000000000E+00  0.00000000000E+00 -0.14435257898E+04  0.36359820501E+04  0.33371542911E+04 0.  0.
        5    1    3    3  502    0  0.15746772015E+03  0.15959025800E+04 -0.21959405239E+03  0.16186243436E+04  0.46999998093E+01 0. -1.
       -5    1    3    3    0  502 -0.15746772015E+03 -0.15959025800E+04 -0.12239317375E+04  0.20173577065E+04  0.46999998093E+01 0.  1.
</event>
<event>
 5   0  0.6377741E-07  0.3317905E+04  0.7818609E-02  0.8158354E-01
        2   -1    0    0  501    0  0.00000000000E+00  0.00000000000E+00  0.22923155661E+04  0.22923155661E+04  0.25500000920E-02 0. -1.
       -2   -1    0    0    0  501  0.00000000000E+00  0.00000000000E+00 -0.12005868032E+04  0.12005868032E+04  0.25500000920E-02 0.  1.
    10030    2    1    2    0    0  0.00000000000E+00  0.00000000000E+00  0.10917287629E+04  0.34929023692E+04  0.33179052532E+04 0.  0.
        1    1    3    3  502    0 -0.11247131061E+04  0.48000799636E+03  0.17260344424E+04  0.21153208135E+04  0.50400001928E-02 0. -1.
       -1    1    3    3    0  502  0.11247131061E+04 -0.48000799636E+03 -0.63430567952E+03  0.13775815557E+04  0.50400001928E-02 0.  1.
</event>
<event>
 5   0  0.1994250E-07  0.3242118E+04  0.7818609E-02  0.8177782E-01
        3   -1    0    0  501    0  0.00000000000E+00  0.00000000000E+00  0.23785681702E+04  0.23785681724E+04  0.10100000352E+00 0.  1.
       -3   -1    0    0    0  501  0.00000000000E+00  0.00000000000E+00 -0.11047955757E+04  0.11047955803E+04  0.10100000352E+00 0. -1.
    10030    2    1    2    0    0  0.00000000000E+00  0.00000000000E+00  0.12737725946E+04  0.34833637526E+04  0.32421175812E+04 0.  0.
        4    1    3    3  502    0 -0.26179380119E+03 -0.30139421185E+03  0.23249262464E+04  0.23589527611E+04  0.12699999809E+01 0.  1.
       -4    1    3    3    0  502  0.26179380119E+03  0.30139421185E+03 -0.10511536518E+04  0.11244109915E+04  0.12699999809E+01 0. -1.
</event>
<event>
 5   0  0.6258718E-07  0.3282226E+04  0.7818609E-02  0.8167433E-01
       -2   -1    0    0    0  501  0.00000000000E+00  0.00000000000E+00  0.15093767989E+04  0.15093767989E+04  0.25500000920E-02 0.  1.
        2   -1    0    0  501    0  0.00000000000E+00  0.00000000000E+00 -0.17843465834E+04  0.17843465834E+04  0.25500000920E-02 0. -1.
    10030    2    1    2    0    0  0.00000000000E+00  0.00000000000E+00 -0.27496978448E+03  0.32937233823E+04  0.32822256681E+04 0.  0.
        5    1    3    3  502    0  0.15378051385E+04 -0.56632736269E+03 -0.22530097343E+03  0.16541928377E+04  0.46999998093E+01 0.  1.
       -5    1    3    3    0  502 -0.15378051385E+04  0.56632736269E+03 -0.49668811048E+02  0.16395305446E+04  0.46999998093E+01 0. -1.
</event>
<event>
 5   0  0.2057130E-07  0.3301559E+04  0.7818609E-02  0.8162499E-01
        1   -1    0    0  501    0  0.00000000000E+00  0.00000000000E+00  0.18837593505E+04  0.18837593505E+04  0.50400001928E-02 0.  1.
       -1   -1    0    0    0  501  0.00000000000E+00  0.00000000000E+00 -0.14466138589E+04  0.14466138589E+04  0.50400001928E-02 0. -1.
    10030    2    1    2    0    0  0.00000000000E+00  0.00000000000E+00  0.43714549165E+03  0.33303732094E+04  0.33015586521E+04 0.  0.
        2    1    3    3  502    0  0.11104955690E+04  0.59235346662E+03  0.12960663025E+04  0.18066186368E+04  0.25500000920E-02 0.  1.
       -2    1    3    3    0  502 -0.11104955690E+04 -0.59235346662E+03 -0.85892081085E+03  0.15237545726E+04  0.25500000920E-02 0. -1.
</event>
<event>
 5   0  0.6258718E-07  0.3291759E+04  0.7818609E-02  0.8164995E-01
        2   -1    0    0  501    0  0.00000000000E+00  0.00000000000E+00  0.10890221904E+04  0.10890221904E+04  0.25500000920E-02 0. -1.
       -2   -1    0    0    0  501  0.00000000000E+00  0.00000000000E+00 -0.24874788429E+04  0.24874788429E+04  0.25500000920E-02 0.  1.
    10030    2    1    2    0    0  0.00000000000E+00  0.00000000000E+00 -0.13984566526E+04  0.35765010333E+04  0.32917592002E+04 0.  0.
        5    1    3    3  502    0  0.75924801039E+03  0.18790508179E+03 -0.22726428331E+04  0.24034752751E+04  0.46999998093E+01 0.  1.
       -5    1    3    3    0  502 -0.75924801039E+03 -0.18790508179E+03  0.87418618056E+03  0.11730257582E+04  0.46999998093E+01 0. -1.
</event>
<event>
 5   0  0.2037333E-07  0.3280918E+04  0.7818609E-02  0.8167768E-01
        1   -1    0    0  501    0  0.00000000000E+00  0.00000000000E+00  0.99280918587E+03  0.99280918589E+03  0.50400001928E-02 0.  1.
       -1   -1    0    0    0  501  0.00000000000E+00  0.00000000000E+00 -0.27105969521E+04  0.27105969521E+04  0.50400001928E-02 0. -1.
    10030    2    1    2    0    0  0.00000000000E+00  0.00000000000E+00 -0.17177877662E+04  0.37034061380E+04  0.32809178918E+04 0.  0.
        3    1    3    3  502    0  0.40597298751E+03  0.82846420461E+02  0.93277170078E+03  0.10206569708E+04  0.10100000352E+00 0.  1.
       -3    1    3    3    0  502 -0.40597298751E+03 -0.82846420461E+02 -0.26505594670E+04  0.26827491672E+04  0.10100000352E+00 0. -1.
</event>
<event>
 5   0  0.2080770E-07  0.3291080E+04  0.7818609E-02  0.8165169E-01
       -1   -1    0    0    0  501  0.00000000000E+00  0.00000000000E+00  0.12818911032E+04  0.12818911032E+04  0.50400001928E-02 0.  1.
        1   -1    0    0  501    0  0.00000000000E+00  0.00000000000E+00 -0.21123494170E+04  0.21123494170E+04  0.50400001928E-02 0. -1.
    10030    2    1    2    0    0  0.00000000000E+00  0.00000000000E+00 -0.83045831376E+03  0.33942405202E+04  0.32910800200E+04 0.  0.
        4    1    3    3  502    0  0.12347854756E+04  0.78690551836E+03  0.35923154148E+03  0.15076353601E+04  0.12699999809E+01 0.  1.
       -4    1    3    3    0  502 -0.12347854756E+04 -0.78690551836E+03 -0.11896898552E+04  0.18866051601E+04  0.12699999809E+01 0. -1.
</event>
<event>
 5   0  0.2037333E-07  0.3302319E+04  0.7818609E-02  0.8162306E-01
       -1   -1    0    0    0  501  0.00000000000E+00  0.00000000000E+00  0.24060157916E+04  0.24060157916E+04  0.50400001928E-02 0. -1.
        1   -1    0    0  501    0  0.00000000000E+00  0.00000000000E+00 -0.11331293304E+04  0.11331293304E+04  0.50400001928E-02 0.  1.
    10030    2    1    2    0    0  0.00000000000E+00  0.00000000000E+00  0.12728864613E+04  0.35391451220E+04  0.33023186175E+04 0.  0.
        3    1    3    3  502    0 -0.21428361058E+03  0.37616100851E+03  0.23441105361E+04  0.23837509907E+04  0.10100000352E+00 0. -1.
       -3    1    3    3    0  502  0.21428361058E+03 -0.37616100851E+03 -0.10712240748E+04  0.11553941313E+04  0.10100000352E+00 0.  1.
</event>
<event>
 5   0  0.2037333E-07  0.3317537E+04  0.7818609E-02  0.8158447E-01
        1   -1    0    0  501    0  0.00000000000E+00  0.00000000000E+00  0.97901600656E+03  0.97901600657E+03  0.50400001928E-02 0.  1.
       -1   -1    0    0    0  501  0.00000000000E+00  0.00000000000E+00 -0.28104884132E+04  0.28104884132E+04  0.50400001928E-02 0. -1.
    10030    2    1    2    0    0  0.00000000000E+00  0.00000000000E+00 -0.18314724067E+04  0.37895044198E+04  0.33175371243E+04 0.  0.
        3    1    3    3  502    0  0.14791583257E+04  0.39851736800E+03 -0.16424782263E+04  0.22459875733E+04  0.10100000352E+00 0. -1.
       -3    1    3    3    0  502 -0.14791583257E+04 -0.39851736800E+03 -0.18899418038E+03  0.15435168466E+04  0.10100000352E+00 0.  1.
</event>
<event>
 5   0  0.6424183E-07  0.3292813E+04  0.7818609E-02  0.8164726E-01
        2   -1    0    0  501    0  0.00000000000E+00  0.00000000000E+00  0.26550890578E+04  0.26550890578E+04  0.25500000920E-02 0.  1.
       -2   -1    0    0    0  501  0.00000000000E+00  0.00000000000E+00 -0.10209279500E+04  0.10209279500E+04  0.25500000920E-02 0. -1.
    10030    2    1    2    0    0  0.00000000000E+00  0.00000000000E+00  0.16341611078E+04  0.36760170078E+04  0.32928131614E+04 0.  0.
        2    1    3    3  502    0  0.81115561030E+03  0.67782762448E+03  0.22262064160E+04  0.24644307090E+04  0.25500000920E-02 0.  1.
       -2    1    3    3    0  502 -0.81115561030E+03 -0.67782762448E+03 -0.59204530822E+03  0.12115862989E+04  0.25500000920E-02 0. -1.
</event>
<event>
 5   0  0.2087665E-07  0.3268339E+04  0.7818609E-02  0.8170999E-01
       -1   -1    0    0    0  501  0.00000000000E+00  0.00000000000E+00  0.12664539231E+04  0.12664539232E+04  0.50400001928E-02 0. -1.
        1   -1    0    0  501    0  0.00000000000E+00  0.00000000000E+00 -0.21086515809E+04  0.21086515809E+04  0.50400001928E-02 0.  1.
    10030    2    1    2    0    0  0.00000000000E+00  0.00000000000E+00 -0.84219765774E+03  0.33751055041E+04  0.32683390688E+04 0.  0.
        5    1    3    3  502    0  0.35274109347E+03 -0.51920485339E+03 -0.19791902352E+04  0.20763468005E+04  0.46999998093E+01 0.  1.
       -5    1    3    3    0  502 -0.35274109347E+03  0.51920485339E+03  0.11369925775E+04  0.12987587035E+04  0.46999998093E+01 0. -1.
</event>
<event>
 5   0  0.2057130E-07  0.3296928E+04  0.7818609E-02  0.8163677E-01
        1   -1    0    0  501    0  0.00000000000E+00  0.00000000000E+00  0.15904271749E+04  0.15904271749E+04  0.50400001928E-02 0.  1.
       -1   -1    0    0    0  501  0.00000000000E+00  0.00000000000E+00 -0.17086191319E+04  0.17086191319E+04  0.50400001928E-02 0. -1.
    10030    2    1    2    0    0  0.00000000000E+00  0.00000000000E+00 -0.11819195699E+03  0.32990463067E+04  0.32969284486E+04 0.  0.
        2    1    3    3  502    0  0.14914775713E+04  0.55767690174E+03  0.36770518059E+03  0.16342325331E+04  0.25500000920E-02 0. -1.
       -2    1    3    3    0  502 -0.14914775713E+04 -0.55767690174E+03 -0.48589713758E+03  0.16648137736E+04  0.25500000920E-02 0.  1.
</event>
<event>
 5   0  0.2037333E-07  0.3296823E+04  0.7818609E-02  0.8163704E-01
        1   -1    0    0  501    0  0.00000000000E+00  0.00000000000E+00  0.20085250127E+04  0.20085250127E+04  0.50400001928E-02 0.  1.
       -1   -1    0    0    0  501  0.00000000000E+00  0.00000000000E+00 -0.13528634131E+04  0.13528634131E+04  0.50400001928E-02 0. -1.
    10030    2    1    2    0    0  0.00000000000E+00  0.00000000000E+00  0.65566159966E+03  0.33613884258E+04  0.32968227152E+04 0.  0.
        3    1    3    3  502    0  0.62019372095E+03 -0.46808909134E+03  0.18100945949E+04  0.19698198146E+04  0.10100000352E+00 0.  1.
       -3    1    3    3    0  502 -0.62019372095E+03  0.46808909134E+03 -0.11544329953E+04  0.13915686112E+04  0.10100000352E+00 0. -1.
</event>
<event>
 5   0  0.6377741E-07  0.3312912E+04  0.7818609E-02  0.8159618E-01
        2   -1    0    0  501    0  0.00000000000E+00  0.00000000000E+00  0.17520360493E+04  0.17520360493E+04  0.25500000920E-02 0.  1.
       -2   -1    0    0    0  501  0.00000000000E+00  0.00000000000E+00 -0.15660899713E+04  0.15660899713E+04  0.25500000920E-02 0. -1.
    10030    2    1    2    0    0  0.00000000000E+00  0.00000000000E+00  0.18594607800E+03  0.33181260207E+04  0.33129117624E+04 0.  0.
        1    1    3    3  502    0  0.58547214576E+03 -0.10341674005E+04 -0.10627782737E+04  0.15942953004E+04  0.50400001928E-02 0. -1.
       -1    1    3    3    0  502 -0.58547214576E+03  0.10341674005E+04  0.12487243517E+04  0.17238307203E+04  0.50400001928E-02 0.  1.
</event>
<event>
 5   0  0.6424183E-07  0.3305279E+04  0.7818609E-02  0.8161554E-01
        2   -1    0    0  501    0  0.00000000000E+00  0.00000000000E+00  0.18972606835E+04  0.18972606835E+04  0.25500000920E-02 0.  1.
       -2   -1    0    0    0  501  0.00000000000E+00  0.00000000000E+00 -0.14395578464E+04  0.14395578464E+04  0.25500000920E-02 0. -1.
    10030    2    1    2    0    0  0.00000000000E+00  0.00000000000E+00  0.45770283710E+03  0.33368185299E+04  0.33052785079E+04 0.  0.
        2    1    3    3  502    0  0.11688423212E+04  0.74641185981E+02 -0.94823025933E+03  0.15069519910E+04  0.25500000920E-02 0. -1.
       -2    1    3    3    0  502 -0.11688423212E+04 -0.74641185981E+02  0.14059330964E+04  0.18298665389E+04  0.25500000920E-02 0.  1.
</event>
<event>
 5   0  0.2037333E-07  0.3300555E+04  0.7818609E-02  0.8162754E-01
        1   -1    0    0  501    0  0.00000000000E+00  0.00000000000E+00  0.21588620452E+04  0.21588620452E+04  0.50400001928E-02 0. -1.
       -1   -1    0    0    0  501  0.00000000000E+00  0.00000000000E+00 -0.12615049999E+04  0.12615050000E+04  0.50400001928E-02 0.  1.
    10030    2    1    2    0    0  0.00000000000E+00  0.00000000000E+00  0.89735704521E+03  0.34203670451E+04  0.33005546590E+04 0.  0.
        3    1    3    3  502    0  0.58625841474E+03 -0.95232388155E+03  0.17063204738E+04  0.20401346215E+04  0.10100000352E+00 0. -1.
       -3    1    3    3    0  502 -0.58625841474E+03  0.95232388155E+03 -0.80896342860E+03  0.13802324236E+04  0.10100000352E+00 0.  1.
</event>
<event>
 5   0  0.6377741E-07  0.3302629E+04  0.7818609E-02  0.8162227E-01
        2   -1    0    0  501    0  0.00000000000E+00  0.00000000000E+00  0.18852795612E+04  0.18852795612E+04  0.25500000920E-02 0. -1.
       -2   -1    0    0    0  501  0.00000000000E+00  0.00000000000E+00 -0.14463843863E+04  0.14463843863E+04  0.25500000920E-02 0.  1.
    10030    2    1    2    0    0  0.00000000000E+00  0.00000000000E+00  0.43889517493E+03  0.33316639475E+04  0.33026286023E+04 0.  0.
        1    1    3    3  502    0 -0.85845197923E+03  0.13853621500E+04 -0.48729431690E+02  0.16305038009E+04  0.50400001928E-02 0.  1.
       -1    1    3    3    0  502  0.85845197923E+03 -0.13853621500E+04  0.48762460662E+03  0.17011601466E+04  0.50400001928E-02 0. -1.
</event>
<event>
 5   0  0.2080828E-07  0.3276777E+04  0.7818609E-02  0.8168830E-01
       -1   -1    0    0    0  501  0.00000000000E+00  0.00000000000E+00  0.30813395245E+04  0.30813395245E+04  0.50400001928E-02 0.  1.
        1   -1    0    0  501    0  0.00000000000E+00  0.00000000000E+00 -0.87115279501E+03  0.87115279503E+03  0.50400001928E-02 0. -1.
    10030    2    1    2    0    0  0.00000000000E+00  0.00000000000E+00  0.22101867295E+04  0.39524923195E+04  0.32767774042E+04 0.  0.
        1    1    3    3  502    0 -0.97055812298E+03 -0.11064681296E+04  0.23690237040E+03  0.14907640742E+04  0.50400001928E-02 0. -1.
       -1    1    3    3    0  502  0.97055812298E+03  0.11064681296E+04  0.19732843591E+04  0.24617282453E+04  0.50400001928E-02 0.  1.
</event>
<event>
 5   0  0.2037333E-07  0.3305228E+04  0.7818609E-02  0.8161566E-01
        1   -1    0    0  501    0  0.00000000000E+00  0.00000000000E+00  0.14489877989E+04  0.14489877990E+04  0.50400001928E-02 0. -1.
       -1   -1    0    0    0  501  0.00000000000E+00  0.00000000000E+00 -0.18848555708E+04  0.18848555708E+04  0.50400001928E-02 0.  1.
    10030    2    1    2    0    0  0.00000000000E+00  0.00000000000E+00 -0.43586777188E+03  0.33338433698E+04  0.33052278136E+04 0.  0.
        3    1    3    3  502    0 -0.27193237904E+03 -0.13692313016E+04 -0.11101206064E+04  0.17835664684E+04  0.10100000352E+00 0.  1.
       -3    1    3    3    0  502  0.27193237904E+03  0.13692313016E+04  0.67425283456E+03  0.15502769014E+04  0.10100000352E+00 0. -1.
</event>
<event>
 5   0  0.6426079E-07  0.3347840E+04  0.7818609E-02  0.8150828E-01
        2   -1    0    0  501    0  0.00000000000E+00  0.00000000000E+00  0.25179815920E+04  0.25179815920E+04  0.25500000920E-02 0.  1.
       -2   -1    0    0    0  501  0.00000000000E+00  0.00000000000E+00 -0.11127992854E+04  0.11127992854E+04  0.25500000920E-02 0. -1.
    10030    2    1    2    0    0  0.00000000000E+00  0.00000000000E+00  0.14051823066E+04  0.36307808774E+04  0.33478399701E+04 0.  0.
        4    1    3    3  502    0  0.13924354691E+04 -0.52727415590E+02  0.17085330051E+04  0.22047093592E+04  0.12699999809E+01 0.  1.
       -4    1    3    3    0  502 -0.13924354691E+04  0.52727415590E+02 -0.30335069849E+03  0.14260715183E+04  0.12699999809E+01 0. -1.
</event>
<event>
 5   0  0.2057130E-07  0.3291639E+04  0.7818609E-02  0.8165026E-01
       -1   -1    0    0    0  501  0.00000000000E+00  0.00000000000E+00  0.20718252764E+04  0.20718252764E+04  0.50400001928E-02 0.  1.
        1   -1    0    0  501    0  0.00000000000E+00  0.00000000000E+00 -0.13074083465E+04  0.13074083465E+04  0.50400001928E-02 0. -1.
    10030    2    1    2    0    0  0.00000000000E+00  0.00000000000E+00  0.76441692990E+03  0.33792336230E+04  0.32916388982E+04 0.  0.
        2    1    3    3  502    0 -0.11234907091E+04 -0.79299650285E+03 -0.54609273331E+03  0.14796256623E+04  0.25500000920E-02 0. -1.
       -2    1    3    3    0  502  0.11234907091E+04  0.79299650285E+03  0.13105096632E+04  0.18996079607E+04  0.25500000920E-02 0.  1.
</event>
<event>
 5   0  0.6377741E-07  0.3314088E+04  0.7818609E-02  0.8159320E-01
        2   -1    0    0  501    0  0.00000000000E+00  0.00000000000E+00  0.21672049659E+04  0.21672049659E+04  0.25500000920E-02 0.  1.
       -2   -1    0    0    0  501  0.00000000000E+00  0.00000000000E+00 -0.12669750375E+04  0.12669750375E+04  0.25500000920E-02 0. -1.
    10030    2    1    2    0    0  0.00000000000E+00  0.00000000000E+00  0.90022992839E+03  0.34341800034E+04  0.33140878643E+04 0.  0.
        1    1    3    3  502    0  0.62741067276E+03 -0.14892103314E+04  0.83000995395E+03  0.18166750086E+04  0.50400001928E-02 0.  1.
       -1    1    3    3    0  502 -0.62741067276E+03  0.14892103314E+04  0.70219974450E+02  0.16175049948E+04  0.50400001928E-02 0. -1.
</event>
<event>
 5   0  0.6258718E-07  0.3296153E+04  0.7818609E-02  0.8163875E-01
        2   -1    0    0  501    0  0.00000000000E+00  0.00000000000E+00  0.19613078009E+04  0.19613078009E+04  0.25500000920E-02 0.  1.
       -2   -1    0    0    0  501  0.00000000000E+00  0.00000000000E+00 -0.13848701874E+04  0.13848701874E+04  0.25500000920E-02 0. -1.
    10030    2    1    2    0    0  0.00000000000E+00  0.00000000000E+00  0.57643761344E+03  0.33461779883E+04  0.32961533349E+04 0.  0.
        5    1    3    3  502    0  0.52403329965E+03  0.33497018380E+03 -0.12611545625E+04  0.14061823650E+04  0.46999998093E+01 0. -1.
       -5    1    3    3    0  502 -0.52403329965E+03 -0.33497018380E+03  0.18375921759E+04  0.19399956233E+04  0.46999998093E+01 0.  1.
</event>
<event>
 5   0  0.6426079E-07  0.3288900E+04  0.7818609E-02  0.8165726E-01
        2   -1    0    0  501    0  0.00000000000E+00  0.00000000000E+00  0.20450268068E+04  0.20450268068E+04  0.25500000920E-02 0.  1.
       -2   -1    0    0    0  501  0.00000000000E+00  0.00000000000E+00 -0.13223376680E+04  0.13223376680E+04  0.25500000920E-02 0. -1.
    10030    2    1    2    0    0  0.00000000000E+00  0.00000000000E+00  0.72268913874E+03  0.33673644748E+04  0.32889001072E+04 0.  0.
        4    1    3    3  502    0 -0.12335720627E+04 -0.81949242944E+03  0.10932031229E+04  0.18407505416E+04  0.12699999809E+01 0.  1.
       -4    1    3    3    0  502  0.12335720627E+04  0.81949242944E+03 -0.37051398416E+03  0.15266139332E+04  0.12699999809E+01 0. -1.
</event>
<event>
 5   0  0.2037333E-07  0.3293975E+04  0.7818609E-02  0.8164430E-01
        1   -1    0    0  501    0  0.00000000000E+00  0.00000000000E+00  0.23119302671E+04  0.23119302671E+04  0.50400001928E-02 0. -1.
       -1   -1    0    0    0  501  0.00000000000E+00  0.00000000000E+00 -0.11732915792E+04  0.11732915792E+04  0.50400001928E-02 0.  1.
    10030    2    1    2    0    0  0.00000000000E+00  0.00000000000E+00  0.11386386880E+04  0.34852218463E+04  0.32939752968E+04 0.  0.
        3    1    3    3  502    0  0.15129692914E+04  0.86000941941E+02 -0.11318731689E+03  0.15196327246E+04  0.10100000352E+00 0.  1.
       -3    1    3    3    0  502 -0.15129692914E+04 -0.86000941941E+02  0.12518260048E+04  0.19655891217E+04  0.10100000352E+00 0. -1.
</event>
<event>
 5   0  0.2037333E-07  0.3306631E+04  0.7818609E-02  0.8161210E-01
        1   -1    0    0  501    0  0.00000000000E+00  0.00000000000E+00  0.20794380002E+04  0.20794380002E+04  0.50400001928E-02 0. -1.
       -1   -1    0    0    0  501  0.00000000000E+00  0.00000000000E+00 -0.13145146166E+04  0.13145146166E+04  0.50400001928E-02 0.  1.
    10030    2    1    2    0    0  0.00000000000E+00  0.00000000000E+00  0.76492338363E+03  0.33939526168E+04  0.33066306994E+04 0.  0.
        3    1    3    3  502    0 -0.15035420686E+04  0.33171142527E+03 -0.23575680838E+03  0.15576432533E+04  0.10100000352E+00 0.  1.
       -3    1    3    3    0  502  0.15035420686E+04 -0.33171142527E+03  0.10006801920E+04  0.18363093635E+04  0.10100000352E+00 0. -1.
</event>
<event>
 5   0  0.6351753E-07  0.3351829E+04  0.7818609E-02  0.8149831E-01
       -2   -1    0    0    0  501  0.00000000000E+00  0.00000000000E+00  0.13637736300E+04  0.13637736300E+04  0.25500000920E-02 0.  1.
        2   -1    0    0  501    0  0.00000000000E+00  0.00000000000E+00 -0.20594976889E+04  0.20594976889E+04  0.25500000920E-02 0. -1.
    10030    2    1    2    0    0  0.00000000000E+00  0.00000000000E+00 -0.69572405895E+03  0.34232713189E+04  0.33518285392E+04 0.  0.
        3    1    3    3  502    0  0.47286819379E+03  0.97555313140E+03  0.95741650301E+03  0.14463590880E+04  0.10100000352E+00 0.  1.
       -3    1    3    3    0  502 -0.47286819379E+03 -0.97555313140E+03 -0.16531405620E+04  0.19769122309E+04  0.10100000352E+00 0. -1.
</event>
<event>
 5   0  0.6426079E-07  0.3303077E+04  0.7818609E-02  0.8162113E-01
       -2   -1    0    0    0  501  0.00000000000E+00  0.00000000000E+00  0.12796780865E+04  0.12796780865E+04  0.25500000920E-02 0.  1.
        2   -1    0    0  501    0  0.00000000000E+00  0.00000000000E+00 -0.21314572221E+04  0.21314572221E+04  0.25500000920E-02 0. -1.
    10030    2    1    2    0    0  0.00000000000E+00  0.00000000000E+00 -0.85177913559E+03  0.34111353085E+04  0.33030768076E+04 0.  0.
        4    1    3    3  502    0 -0.15670682288E+04 -0.36841269221E+03 -0.80694126397E+03  0.18007183460E+04  0.12699999809E+01 0. -1.
       -4    1    3    3    0  502  0.15670682288E+04  0.36841269221E+03 -0.44837871617E+02  0.16104169625E+04  0.12699999809E+01 0.  1.
</event>
<event>
 5   0  0.2080770E-07  0.3298840E+04  0.7818609E-02  0.8163191E-01
        1   -1    0    0  501    0  0.00000000000E+00  0.00000000000E+00  0.13215078426E+04  0.13215078426E+04  0.50400001928E-02 0. -1.
       -1   -1    0    0    0  501  0.00000000000E+00  0.00000000000E+00 -0.20586986101E+04  0.20586986101E+04  0.50400001928E-02 0.  1.
    10030    2    1    2    0    0  0.00000000000E+00  0.00000000000E+00 -0.73719076743E+03  0.33802064527E+04  0.32988400136E+04 0.  0.
        4    1    3    3  502    0  0.28052570923E+03  0.11341860679E+04 -0.15615767541E+04  0.19502810777E+04  0.12699999809E+01 0.  1.
       -4    1    3    3    0  502 -0.28052570923E+03 -0.11341860679E+04  0.82438598664E+03  0.14299253750E+04  0.12699999809E+01 0. -1.
</event>
<event>
 5   0  0.2080828E-07  0.3301442E+04  0.7818609E-02  0.8162529E-01
       -1   -1    0    0    0  501  0.00000000000E+00  0.00000000000E+00  0.17769101857E+04  0.17769101857E+04  0.50400001928E-02 0. -1.
        1   -1    0    0  501    0  0.00000000000E+00  0.00000000000E+00 -0.15334933987E+04  0.15334933987E+04  0.50400001928E-02 0.  1.
    10030    2    1    2    0    0  0.00000000000E+00  0.00000000000E+00  0.24341678702E+03  0.33104035844E+04  0.33014421332E+04 0.  0.
        1    1    3    3  502    0  0.62138925501E+03  0.14467056963E+04  0.61883439757E+03  0.16917558895E+04  0.50400001928E-02 0. -1.
       -1    1    3    3    0  502 -0.62138925501E+03 -0.14467056963E+04 -0.37541761055E+03  0.16186476949E+04  0.50400001928E-02 0.  1.
</event>
<event>
 5   0  0.2057130E-07  0.3269703E+04  0.7818609E-02  0.8170648E-01
        1   -1    0    0  501    0  0.00000000000E+00  0.00000000000E+00  0.10275615301E+04  0.10275615301E+04  0.50400001928E-02 0.  1.
       -1   -1    0    0    0  501  0.00000000000E+00  0.00000000000E+00 -0.26010504467E+04  0.26010504467E+04  0.50400001928E-02 0. -1.
    10030    2    1    2    0    0  0.00000000000E+00  0.00000000000E+00 -0.15734889166E+04  0.36286119767E+04  0.32697029692E+04 0.  0.
        2    1    3    3  502    0  0.95631206863E+03  0.11096125958E+04 -0.15923523802E+04  0.21636448387E+04  0.25500000920E-02 0. -1.
       -2    1    3    3    0  502 -0.95631206863E+03 -0.11096125958E+04  0.18863463620E+02  0.14649671380E+04  0.25500000920E-02 0.  1.
</event>
<event>
 5   0  0.6426079E-07  0.3302275E+04  0.7818609E-02  0.8162317E-01
       -2   -1    0    0    0  501  0.00000000000E+00  0.00000000000E+00  0.16889334455E+04  0.16889334455E+04  0.25500000920E-02 0. -1.
        2   -1    0    0  501    0  0.00000000000E+00  0.00000000000E+00 -0.16141877519E+04  0.16141877519E+04  0.25500000920E-02 0.  1.
    10030    2    1    2    0    0  0.00000000000E+00  0.00000000000E+00  0.74745693617E+02  0.33031211973E+04  0.33022753861E+04 0.  0.
        4    1    3    3  502    0 -0.64103383543E+03  0.19691793532E+03  0.15465843471E+04  0.16857122551E+04  0.12699999809E+01 0. -1.
       -4    1    3    3    0  502  0.64103383543E+03 -0.19691793532E+03 -0.14718386535E+04  0.16174089422E+04  0.12699999809E+01 0.  1.
</event>
<event>
 5   0  0.6426079E-07  0.3288296E+04  0.7818609E-02  0.8165880E-01
       -2   -1    0    0    0  501  0.00000000000E+00  0.00000000000E+00  0.15132572979E+04  0.15132572979E+04  0.25500000920E-02 0.  1.
        2   -1    0    0  501    0  0.00000000000E+00  0.00000000000E+00 -0.17863600140E+04  0.17863600140E+04  0.25500000920E-02 0. -1.
    10030    2    1    2    0    0  0.00000000000E+00  0.00000000000E+00 -0.27310271608E+03  0.32996173118E+04  0.32882958065E+04 0.  0.
        4    1    3    3  502    0  0.14235228915E+04 -0.64649995902E+03 -0.64706730114E+03  0.16920630380E+04  0.12699999809E+01 0. -1.
       -4    1    3    3    0  502 -0.14235228915E+04  0.64649995902E+03  0.37396458506E+03  0.16075542738E+04  0.12699999809E+01 0.  1.
</event>
<event>
 5   0  0.6258718E-07  0.3308120E+04  0.7818609E-02  0.8160832E-01
       -2   -1    0    0    0  501  0.00000000000E+00  0.00000000000E+00  0.11381794844E+04  0.11381794844E+04  0.25500000920E-02 0.  1.
        2   -1    0    0  501    0  0.00000000000E+00  0.00000000000E+00 -0.24037631190E+04  0.24037631190E+04  0.25500000920E-02 0. -1.
    10030    2    1    2    0    0  0.00000000000E+00  0.00000000000E+00 -0.12655836346E+04  0.35419426034E+04  0.33081196275E+04 0.  0.
        5    1    3    3  502    0  0.10838924453E+04  0.10134058454E+04  0.14966876644E+03  0.14913876324E+04  0.46999998093E+01 0. -1.
       -5    1    3    3    0  502 -0.10838924453E+04 -0.10134058454E+04 -0.14152524010E+04  0.20505549710E+04  0.46999998093E+01 0.  1.
</event>
<event>
 5   0  0.2037333E-07  0.3310563E+04  0.7818609E-02  0.8160213E-01
        1   -1    0    0  501    0  0.00000000000E+00  0.00000000000E+00  0.15267147844E+04  0.15267147845E+04  0.50400001928E-02 0.  1.
       -1   -1    0    0    0  501  0.00000000000E+00  0.00000000000E+00 -0.17946747888E+04  0.17946747888E+04  0.50400001928E-02 0. -1.
    10030    2    1    2    0    0  0.00000000000E+00  0.00000000000E+00 -0.26796000432E+03  0.33213895732E+04  0.33105628122E+04 0.  0.
        3    1    3    3  502    0 -0.81061809322E+03 -0.52389814950E+03  0.12151801349E+04  0.15518484895E+04  0.10100000352E+00 0.  1.
       -3    1    3    3    0  502  0.81061809322E+03  0.52389814950E+03 -0.14831401392E+04  0.17695410837E+04  0.10100000352E+00 0. -1.
</event>
<event>
 5   0  0.2057130E-07  0.3289222E+04  0.7818609E-02  0.8165643E-01
       -1   -1    0    0    0  501  0.00000000000E+00  0.00000000000E+00  0.23172988316E+04  0.23172988316E+04  0.50400001928E-02 0.  1.
        1   -1    0    0  501    0  0.00000000000E+00  0.00000000000E+00 -0.11671972553E+04  0.11671972553E+04  0.50400001928E-02 0. -1.
    10030    2    1    2    0    0  0.00000000000E+00  0.00000000000E+00  0.11501015762E+04  0.34844960869E+04  0.32892216927E+04 0.  0.
        2    1    3    3  502    0 -0.13929735797E+04  0.71703339567E+03  0.11049810704E+04  0.19171581704E+04  0.25500000920E-02 0.  1.
       -2    1    3    3    0  502  0.13929735797E+04 -0.71703339567E+03  0.45120505788E+02  0.15673379165E+04  0.25500000920E-02 0. -1.
</event>
<event>
 5   0  0.6377741E-07  0.3319651E+04  0.7818609E-02  0.8157913E-01
        2   -1    0    0  501    0  0.00000000000E+00  0.00000000000E+00  0.18304668213E+04  0.18304668213E+04  0.25500000920E-02 0. -1.
       -2   -1    0    0    0  501  0.00000000000E+00  0.00000000000E+00 -0.15050916380E+04  0.15050916380E+04  0.25500000920E-02 0.  1.
    10030    2    1    2    0    0  0.00000000000E+00  0.00000000000E+00  0.32537518332E+03  0.33355584594E+04  0.33196507687E+04 0.  0.
        1    1    3    3  502    0 -0.12006617422E+03 -0.11649339128E+04 -0.10191858746E+04  0.15524905005E+04  0.50400001928E-02 0. -1.
       -1    1    3    3    0  502  0.12006617422E+03  0.11649339128E+04  0.13445610579E+04  0.17830679588E+04  0.50400001928E-02 0.  1.
</event>
<event>
 5   0  0.2080770E-07  0.3308157E+04  0.7818609E-02  0.8160823E-01
        1   -1    0    0  501    0  0.00000000000E+00  0.00000000000E+00  0.26762306202E+04  0.26762306202E+04  0.50400001928E-02 0.  1.
       -1   -1    0    0    0  501  0.00000000000E+00  0.00000000000E+00 -0.10223240665E+04  0.10223240665E+04  0.50400001928E-02 0. -1.
    10030    2    1    2    0    0  0.00000000000E+00  0.00000000000E+00  0.16539065538E+04  0.36985546867E+04  0.33081565685E+04 0.  0.
        4    1    3    3  502    0 -0.20847360048E+03  0.16388688742E+04  0.73598175960E+03  0.18085970232E+04  0.12699999809E+01 0.  1.
       -4    1    3    3    0  502  0.20847360048E+03 -0.16388688742E+04  0.91792479418E+03  0.18899576635E+04  0.12699999809E+01 0. -1.
</event>
<event>
 5   0  0.6377741E-07  0.3286939E+04  0.7818609E-02  0.8166227E-01
        2   -1    0    0  501    0  0.00000000000E+00  0.00000000000E+00  0.21953767537E+04  0.21953767537E+04  0.25500000920E-02 0.  1.
       -2   -1    0    0    0  501  0.00000000000E+00  0.00000000000E+00 -0.12303087567E+04  0.12303087567E+04  0.25500000920E-02 0. -1.
    10030    2    1    2    0    0  0.00000000000E+00  0.00000000000E+00  0.96506799696E+03  0.34256855104E+04  0.32869385418E+04 0.  0.
        1    1    3    3  502    0  0.77640508955E+03 -0.13772113016E+04  0.95034123240E+03  0.18446312071E+04  0.50400001928E-02 0. -1.
       -1    1    3    3    0  502 -0.77640508955E+03  0.13772113016E+04  0.14726764564E+02  0.15810543033E+04  0.50400001928E-02 0.  1.
</event>
<event>
 5   0  0.6424183E-07  0.3316473E+04  0.7818609E-02  0.8158717E-01
       -2   -1    0    0    0  501  0.00000000000E+00  0.00000000000E+00  0.25046020745E+04  0.25046020745E+04  0.25500000920E-02 0. -1.
        2   -1    0    0  501    0  0.00000000000E+00  0.00000000000E+00 -0.10978780478E+04  0.10978780478E+04  0.25500000920E-02 0.  1.
    10030    2    1    2    0    0  0.00000000000E+00  0.00000000000E+00  0.14067240267E+04  0.36024801224E+04  0.33164726058E+04 0.  0.
        2    1    3    3  502    0 -0.35214291806E+03 -0.16199944835E+04  0.66329063463E+03  0.17855926824E+04  0.25500000920E-02 0. -1.
       -2    1    3    3    0  502  0.35214291806E+03  0.16199944835E+04  0.74343339207E+03  0.18168874400E+04  0.25500000920E-02 0.  1.
</event>
<event>
 5   0  0.2080828E-07  0.3304219E+04  0.7818609E-02  0.8161823E-01
        1   -1    0    0  501    0  0.00000000000E+00  0.00000000000E+00  0.10142540965E+04  0.10142540965E+04  0.50400001928E-02 0. -1.
       -1   -1    0    0    0  501  0.00000000000E+00  0.00000000000E+00 -0.26911070699E+04  0.26911070699E+04  0.50400001928E-02 0.  1.
    10030    2    1    2    0    0  0.00000000000E+00  0.00000000000E+00 -0.16768529734E+04  0.37053611664E+04  0.33042193449E+04 0.  0.
        1    1    3    3  502    0  0.14747297068E+04 -0.32659185045E+03 -0.87859849773E+02  0.15130133172E+04  0.50400001928E-02 0. -1.
       -1    1    3    3    0  502 -0.14747297068E+04  0.32659185045E+03 -0.15889931236E+04  0.21923478492E+04  0.50400001928E-02 0.  1.
</event>
<event>
 5   0  0.6426079E-07  0.3305491E+04  0.7818609E-02  0.8161500E-01
       -2   -1    0    0    0  501  0.00000000000E+00  0.00000000000E+00  0.10511830594E+04  0.10511830594E+04  0.25500000920E-02 0.  1.
        2   -1    0    0  501    0  0.00000000000E+00  0.00000000000E+00 -0.25985653070E+04  0.25985653070E+04  0.25500000920E-02 0. -1.
    10030    2    1    2    0    0  0.00000000000E+00  0.00000000000E+00 -0.15473822476E+04  0.36497483663E+04  0.33054910857E+04 0.  0.
        4    1    3    3  502    0  0.57268524269E+03  0.62932450616E+03  0.79075263528E+03  0.11615976344E+04  0.12699999809E+01 0.  1.
       -4    1    3    3    0  502 -0.57268524269E+03 -0.62932450616E+03 -0.23381348829E+04  0.24881507319E+04  0.12699999809E+01 0. -1.
</event>
<event>
 5   0  0.2037333E-07  0.3274051E+04  0.7818609E-02  0.8169530E-01
       -1   -1    0    0    0  501  0.00000000000E+00  0.00000000000E+00  0.10716271146E+04  0.10716271146E+04  0.50400001928E-02 0. -1.
        1   -1    0    0  501    0  0.00000000000E+00  0.00000000000E+00 -0.25007315621E+04  0.25007315621E+04  0.50400001928E-02 0.  1.
    10030    2    1    2    0    0  0.00000000000E+00  0.00000000000E+00 -0.14291044475E+04  0.35723586767E+04  0.32740505484E+04 0.  0.
        3    1    3    3  502    0 -0.52080355674E+03 -0.19217685998E+03 -0.23948955989E+04  0.24583924077E+04  0.10100000352E+00 0.  1.
       -3    1    3    3    0  502  0.52080355674E+03  0.19217685998E+03  0.96579115139E+03  0.11139662690E+04  0.10100000352E+00 0. -1.
</event>
<event>
 5   0  0.6258718E-07  0.3314924E+04  0.7818609E-02  0.8159108E-01
        2   -1    0    0  501    0  0.00000000000E+00  0.00000000000E+00  0.18303463080E+04  0.18303463080E+04  0.25500000920E-02 0. -1.
       -2   -1    0    0    0  501  0.00000000000E+00  0.00000000000E+00 -0.15009070313E+04  0.15009070313E+04  0.25500000920E-02 0.  1.
    10030    2    1    2    0    0  0.00000000000E+00  0.00000000000E+00  0.32943927673E+03  0.33312533393E+04  0.33149236150E+04 0.  0.
        5    1    3    3  502    0 -0.56921370355E+02  0.54324310938E+03  0.17372939887E+04  0.18211440392E+04  0.46999998093E+01 0. -1.
       -5    1    3    3    0  502  0.56921370355E+02 -0.54324310938E+03 -0.14078547120E+04  0.15101093001E+04  0.46999998093E+01 0.  1.
</event>
<event>
 5   0  0.6258718E-07  0.3282069E+04  0.7818609E-02  0.8167473E-01
        2   -1    0    0  501    0  0.00000000000E+00  0.00000000000E+00  0.22615517749E+04  0.22615517749E+04  0.25500000920E-02 0.  1.
       -2   -1    0    0    0  501  0.00000000000E+00  0.00000000000E+00 -0.11907729464E+04  0.11907729464E+04  0.25500000920E-02 0. -1.
    10030    2    1    2    0    0  0.00000000000E+00  0.00000000000E+00  0.10707788285E+04  0.34523247212E+04  0.32820692682E+04 0.  0.
        5    1    3    3  502    0  0.49148509999E+03  0.59641033890E+03 -0.98736355733E+03  0.12538627438E+04  0.46999998093E+01 0. -1.
       -5    1    3    3    0  502 -0.49148509999E+03 -0.59641033890E+03  0.20581423859E+04  0.21984619775E+04  0.46999998093E+01 0.  1.
</event>
<event>
 5   0  0.6377741E-07  0.3297197E+04  0.7818609E-02  0.8163609E-01
        2   -1    0    0  501    0  0.00000000000E+00  0.00000000000E+00  0.15833020499E+04  0.15833020499E+04  0.25500000920E-02 0.  1.
       -2   -1    0    0    0  501  0.00000000000E+00  0.00000000000E+00 -0.17165882520E+04  0.17165882520E+04  0.25500000920E-02 0. -1.
    10030    2    1    2    0    0  0.00000000000E+00  0.00000000000E+00 -0.13328620212E+03  0.32998903019E+04  0.32971974149E+04 0.  0.
        1    1    3    3  502    0  0.79233317669E+03 -0.13048604896E+04  0.55629993947E+03  0.16247837957E+04  0.50400001928E-02 0.  1.
       -1    1    3    3    0  502 -0.79233317669E+03  0.13048604896E+04 -0.68958614160E+03  0.16751065061E+04  0.50400001928E-02 0. -1.
</event>
<event>
 5   0  0.2080770E-07  0.3339720E+04  0.7818609E-02  0.8152862E-01
       -1   -1    0    0    0  501  0.00000000000E+00  0.00000000000E+00  0.15999522212E+04  0.15999522212E+04  0.50400001928E-02 0. -1.
        1   -1    0    0  501    0  0.00000000000E+00  0.00000000000E+00 -0.17428218570E+04  0.17428218570E+04  0.50400001928E-02 0.  1.
    10030    2    1    2    0    0  0.00000000000E+00  0.00000000000E+00 -0.14286963584E+03  0.33427740782E+04  0.33397195698E+04 0.  0.
        4    1    3    3  502    0 -0.14352322490E+04  0.55665432178E+03 -0.71907718480E+03  0.16990671715E+04  0.12699999809E+01 0.  1.
       -4    1    3    3    0  502  0.14352322490E+04 -0.55665432178E+03  0.57620754896E+03  0.16437069067E+04  0.12699999809E+01 0. -1.
</event>
<event>
 5   0  0.2037333E-07  0.3309605E+04  0.7818609E-02  0.8160456E-01
        1   -1    0    0  501    0  0.00000000000E+00  0.00000000000E+00  0.15955200238E+04  0.15955200238E+04  0.50400001928E-02 0.  1.
       -1   -1    0    0    0  501  0.00000000000E+00  0.00000000000E+00 -0.17162878356E+04  0.17162878356E+04  0.50400001928E-02 0. -1.
    10030    2    1    2    0    0  0.00000000000E+00  0.00000000000E+00 -0.12076781174E+03  0.33118078594E+04  0.33096051779E+04 0.  0.
        3    1    3    3  502    0 -0.11789165281E+03  0.12371397589E+04  0.10330273440E+04  0.16160317845E+04  0.10100000352E+00 0.  1.
       -3    1    3    3    0  502  0.11789165281E+03 -0.12371397589E+04 -0.11537951557E+04  0.16957760750E+04  0.10100000352E+00 0. -1.
</event>
<event>
 5   0  0.2037333E-07  0.3323585E+04  0.7818609E-02  0.8156920E-01
       -1   -1    0    0    0  501  0.00000000000E+00  0.00000000000E+00  0.13032224304E+04  0.13032224304E+04  0.50400001928E-02 0.  1.
        1   -1    0    0  501    0  0.00000000000E+00  0.00000000000E+00 -0.21190198656E+04  0.21190198656E+04  0.50400001928E-02 0. -1.
    10030    2    1    2    0    0  0.00000000000E+00  0.00000000000E+00 -0.81579743516E+03  0.34222422960E+04  0.33235849436E+04 0.  0.
        3    1    3    3  502    0  0.10008115336E+04  0.12183271085E+03  0.95233190355E+03  0.13868680543E+04  0.10100000352E+00 0.  1.
       -3    1    3    3    0  502 -0.10008115336E+04 -0.12183271085E+03 -0.17681293387E+04  0.20353742417E+04  0.10100000352E+00 0. -1.
</event>
<event>
 5   0  0.6426079E-07  0.3297933E+04  0.7818609E-02  0.8163421E-01
        2   -1    0    0  501    0  0.00000000000E+00  0.00000000000E+00  0.18622520510E+04  0.18622520510E+04  0.25500000920E-02 0.  1.
       -2   -1    0    0    0  501  0.00000000000E+00  0.00000000000E+00 -0.14601091240E+04  0.14601091240E+04  0.25500000920E-02 0. -1.
    10030    2    1    2    0    0  0.00000000000E+00  0.00000000000E+00  0.40214292702E+03  0.33223611749E+04  0.32979334200E+04 0.  0.
        4    1    3    3  502    0  0.28448373645E+02  0.17613365179E+03  0.18524992166E+04  0.18610715552E+04  0.12699999809E+01 0.  1.
       -4    1    3    3    0  502 -0.28448373645E+02 -0.17613365179E+03 -0.14503562895E+04  0.14612896197E+04  0.12699999809E+01 0. -1.
</event>
<event>
 5   0  0.2087665E-07  0.3293008E+04  0.7818609E-02  0.8164677E-01
        1   -1    0    0  501    0  0.00000000000E+00  0.00000000000E+00  0.18030115845E+04  0.18030115845E+04  0.50400001928E-02 0.  1.
       -1   -1    0    0    0  501  0.00000000000E+00  0.00000000000E+00 -0.15035818026E+04  0.15035818027E+04  0.50400001928E-02 0. -1.
    10030    2    1    2    0    0  0.00000000000E+00  0.00000000000E+00  0.29942978186E+03  0.33065933872E+04  0.32930079918E+04 0.  0.
        5    1    3    3  502    0 -0.16408636033E+04  0.74565461255E+02  0.26402630672E+03  0.16636482059E+04  0.46999998093E+01 0. -1.
       -5    1    3    3    0  502  0.16408636033E+04 -0.74565461255E+02  0.35403475147E+02  0.16429451812E+04  0.46999998093E+01 0.  1.
</event>
<event>
 5   0  0.2080828E-07  0.3292580E+04  0.7818609E-02  0.8164786E-01
       -1   -1    0    0    0  501  0.00000000000E+00  0.00000000000E+00  0.20067089872E+04  0.20067089872E+04  0.50400001928E-02 0.  1.
        1   -1    0    0  501    0  0.00000000000E+00  0.00000000000E+00 -0.13506048914E+04  0.13506048914E+04  0.50400001928E-02 0. -1.
    10030    2    1    2    0    0  0.00000000000E+00  0.00000000000E+00  0.65610409575E+03  0.33573138786E+04  0.32925801274E+04 0.  0.
        1    1    3    3  502    0 -0.13163376792E+03  0.69262887510E+03  0.18449863917E+04  0.19751042993E+04  0.50400001928E-02 0.  1.
       -1    1    3    3    0  502  0.13163376792E+03 -0.69262887510E+03 -0.11888822960E+04  0.13822095793E+04  0.50400001928E-02 0. -1.
</event>
<event>
 5   0  0.2057130E-07  0.3236998E+04  0.7818609E-02  0.8179114E-01
        1   -1    0    0  501    0  0.00000000000E+00  0.00000000000E+00  0.11903498316E+04  0.11903498316E+04  0.50400001928E-02 0. -1.
       -1   -1    0    0    0  501  0.00000000000E+00  0.00000000000E+00 -0.22006458893E+04  0.22006458893E+04  0.50400001928E-02 0.  1.
    10030    2    1    2    0    0  0.00000000000E+00  0.00000000000E+00 -0.10102960577E+04  0.33909957209E+04  0.32369976606E+04 0.  0.
        2    1    3    3  502    0  0.38295684034E+03  0.14939562429E+04 -0.10193963623E+04  0.18487103994E+04  0.25500000920E-02 0. -1.
       -2    1    3    3    0  502 -0.38295684034E+03 -0.14939562429E+04  0.91003046263E+01  0.15422853215E+04  0.25500000920E-02 0.  1.
</event>
<event>
 5   0  0.6351753E-07  0.3283715E+04  0.7818609E-02  0.8167052E-01
        2   -1    0    0  501    0  0.00000000000E+00  0.00000000000E+00  0.17266115558E+04  0.17266115558E+04  0.25500000920E-02 0.  1.
       -2   -1    0    0    0  501  0.00000000000E+00  0.00000000000E+00 -0.15612633167E+04  0.15612633167E+04  0.25500000920E-02 0. -1.
    10030    2    1    2    0    0  0.00000000000E+00  0.00000000000E+00  0.16534823903E+03  0.32878748725E+04  0.32837145334E+04 0.  0.
        3    1    3    3  502    0 -0.96957959128E+03  0.10870908272E+04  0.84115893910E+03  0.16820818712E+04  0.10100000352E+00 0.  1.
       -3    1    3    3    0  502  0.96957959128E+03 -0.10870908272E+04 -0.67581070007E+03  0.16057930013E+04  0.10100000352E+00 0. -1.
</event>
<event>
 5   0  0.6426079E-07  0.3307961E+04  0.7818609E-02  0.8160873E-01
        2   -1    0    0  501    0  0.00000000000E+00  0.00000000000E+00  0.27242253700E+04  0.27242253700E+04  0.25500000920E-02 0.  1.
       -2   -1    0    0    0  501  0.00000000000E+00  0.00000000000E+00 -0.10041941870E+04  0.10041941870E+04  0.25500000920E-02 0. -1.
    10030    2    1    2    0    0  0.00000000000E+00  0.00000000000E+00  0.17200311830E+04  0.37284195570E+04  0.33079608708E+04 0.  0.
        4    1    3    3  502    0  0.15691145625E+04  0.36873953309E+03  0.12780490018E+04  0.20570610632E+04  0.12699999809E+01 0.  1.
       -4    1    3    3    0  502 -0.15691145625E+04 -0.36873953309E+03  0.44198218120E+03  0.16713584939E+04  0.12699999809E+01 0. -1.
</event>
<event>
 5   0  0.6351753E-07  0.3309126E+04  0.7818609E-02  0.8160577E-01
       -2   -1    0    0    0  501  0.00000000000E+00  0.00000000000E+00  0.14397335334E+04  0.14397335334E+04  0.25500000920E-02 0.  1.
        2   -1    0    0  501    0  0.00000000000E+00  0.00000000000E+00 -0.19014481838E+04  0.19014481838E+04  0.25500000920E-02 0. -1.
    10030    2    1    2    0    0  0.00000000000E+00  0.00000000000E+00 -0.46171465036E+03  0.33411817172E+04  0.33091259947E+04 0.  0.
        3    1    3    3  502    0 -0.51704670963E+03  0.14837246721E+04  0.29262671371E+03  0.15982511086E+04  0.10100000352E+00 0.  1.
       -3    1    3    3    0  502  0.51704670963E+03 -0.14837246721E+04 -0.75434136407E+03  0.17429306085E+04  0.10100000352E+00 0. -1.
</event>
<event>
 5   0  0.6351753E-07  0.3146744E+04  0.7818609E-02  0.8203025E-01
        2   -1    0    0  501    0  0.00000000000E+00  0.00000000000E+00  0.18266582184E+04  0.18266582184E+04  0.25500000920E-02 0.  1.
       -2   -1    0    0    0  501  0.00000000000E+00  0.00000000000E+00 -0.13552062780E+04  0.13552062780E+04  0.25500000920E-02 0. -1.
    10030    2    1    2    0    0  0.00000000000E+00  0.00000000000E+00  0.47145194037E+03  0.31818644963E+04  0.31467435137E+04 0.  0.
        3    1    3    3  502    0 -0.13825954086E+04 -0.65075671859E+03 -0.14321573128E+03  0.15347850424E+04  0.10100000352E+00 0. -1.
       -3    1    3    3    0  502  0.13825954086E+04  0.65075671859E+03  0.61466767165E+03  0.16470794539E+04  0.10100000352E+00 0.  1.
</event>
<event>
 5   0  0.2087665E-07  0.3417331E+04  0.7818609E-02  0.8133666E-01
       -1   -1    0    0    0  501  0.00000000000E+00  0.00000000000E+00  0.98588025241E+03  0.98588025242E+03  0.50400001928E-02 0. -1.
        1   -1    0    0  501    0  0.00000000000E+00  0.00000000000E+00 -0.29613505854E+04  0.29613505854E+04  0.50400001928E-02 0.  1.
    10030    2    1    2    0    0  0.00000000000E+00  0.00000000000E+00 -0.19754703330E+04  0.39472308379E+04  0.34173305738E+04 0.  0.
        5    1    3    3  502    0 -0.90946801802E+03  0.61162583272E+03 -0.25018353629E+04  0.27313770351E+04  0.46999998093E+01 0.  1.
       -5    1    3    3    0  502  0.90946801802E+03 -0.61162583272E+03  0.52636502983E+03  0.12158538028E+04  0.46999998093E+01 0. -1.
</event>
<event>
 5   0  0.2080770E-07  0.3300529E+04  0.7818609E-02  0.8162761E-01
        1   -1    0    0  501    0  0.00000000000E+00  0.00000000000E+00  0.23798879846E+04  0.23798879846E+04  0.50400001928E-02 0. -1.
       -1   -1    0    0    0  501  0.00000000000E+00  0.00000000000E+00 -0.11443279336E+04  0.11443279337E+04  0.50400001928E-02 0.  1.
    10030    2    1    2    0    0  0.00000000000E+00  0.00000000000E+00  0.12355600509E+04  0.35242159183E+04  0.33005286242E+04 0.  0.
        4    1    3    3  502    0  0.76419337273E+03 -0.12844304710E+04 -0.12936943839E+03  0.15001637278E+04  0.12699999809E+01 0.  1.
       -4    1    3    3    0  502 -0.76419337273E+03  0.12844304710E+04  0.13649294893E+04  0.20240521904E+04  0.12699999809E+01 0. -1.
</event>
<event>
 5   0  0.2087665E-07  0.3303561E+04  0.7818609E-02  0.8161990E-01
       -1   -1    0    0    0  501  0.00000000000E+00  0.00000000000E+00  0.14072575689E+04  0.14072575689E+04  0.50400001928E-02 0. -1.
        1   -1    0    0  501    0  0.00000000000E+00  0.00000000000E+00 -0.19387911964E+04  0.19387911964E+04  0.50400001928E-02 0.  1.
    10030    2    1    2    0    0  0.00000000000E+00  0.00000000000E+00 -0.53153362748E+03  0.33460487653E+04  0.33035608580E+04 0.  0.
        5    1    3    3  502    0  0.10610117379E+03  0.30442492962E+02  0.14035109628E+04  0.14078527327E+04  0.46999998093E+01 0. -1.
       -5    1    3    3    0  502 -0.10610117379E+03 -0.30442492962E+02 -0.19350445902E+04  0.19381960326E+04  0.46999998093E+01 0.  1.
</event>
<event>
 5   0  0.2037333E-07  0.3292680E+04  0.7818609E-02  0.8164760E-01
        1   -1    0    0  501    0  0.00000000000E+00  0.00000000000E+00  0.11909587997E+04  0.11909587997E+04  0.50400001928E-02 0. -1.
       -1   -1    0    0    0  501  0.00000000000E+00  0.00000000000E+00 -0.22758435088E+04  0.22758435088E+04  0.50400001928E-02 0.  1.
    10030    2    1    2    0    0  0.00000000000E+00  0.00000000000E+00 -0.10848847092E+04  0.34668023085E+04  0.32926802781E+04 0.  0.
        3    1    3    3  502    0  0.70408235402E+03  0.90078494412E+02 -0.21064551890E+04  0.22228359296E+04  0.10100000352E+00 0.  1.
       -3    1    3    3    0  502 -0.70408235402E+03 -0.90078494412E+02  0.10215704798E+04  0.12439663789E+04  0.10100000352E+00 0. -1.
</event>
<event>
 5   0  0.6426079E-07  0.3317536E+04  0.7818609E-02  0.8158448E-01
       -2   -1    0    0    0  501  0.00000000000E+00  0.00000000000E+00  0.10303531113E+04  0.10303531113E+04  0.25500000920E-02 0.  1.
        2   -1    0    0  501    0  0.00000000000E+00  0.00000000000E+00 -0.26704548793E+04  0.26704548793E+04  0.25500000920E-02 0. -1.
    10030    2    1    2    0    0  0.00000000000E+00  0.00000000000E+00 -0.16401017679E+04  0.37008079906E+04  0.33175361300E+04 0.  0.
        4    1    3    3  502    0 -0.55856229666E+03 -0.15027890867E+04 -0.12948300711E+04  0.20608137723E+04  0.12699999809E+01 0.  1.
       -4    1    3    3    0  502  0.55856229666E+03  0.15027890867E+04 -0.34527169682E+03  0.16399942182E+04  0.12699999809E+01 0. -1.
</event>
<event>
 5   0  0.6377741E-07  0.3342789E+04  0.7818609E-02  0.8152092E-01
        2   -1    0    0  501    0  0.00000000000E+00  0.00000000000E+00  0.17991444661E+04  0.17991444661E+04  0.25500000920E-02 0. -1.
       -2   -1    0    0    0  501  0.00000000000E+00  0.00000000000E+00 -0.15527158732E+04  0.15527158732E+04  0.25500000920E-02 0.  1.
    10030    2    1    2    0    0  0.00000000000E+00  0.00000000000E+00  0.24642859289E+03  0.33518603393E+04  0.33427893566E+04 0.  0.
        1    1    3    3  502    0  0.13131490825E+04 -0.10117182356E+04 -0.90967462812E+02  0.16601835382E+04  0.50400001928E-02 0.  1.
       -1    1    3    3    0  502 -0.13131490825E+04  0.10117182356E+04  0.33739605570E+03  0.16916768011E+04  0.50400001928E-02 0. -1.
</event>
<event>
 5   0  0.6424183E-07  0.3338457E+04  0.7818609E-02  0.8153178E-01
       -2   -1    0    0    0  501  0.00000000000E+00  0.00000000000E+00  0.10980608095E+04  0.10980608095E+04  0.25500000920E-02 0. -1.
        2   -1    0    0  501    0  0.00000000000E+00  0.00000000000E+00 -0.25374947450E+04  0.25374947450E+04  0.25500000920E-02 0.  1.
    10030    2    1    2    0    0  0.00000000000E+00  0.00000000000E+00 -0.14394339355E+04  0.36355555545E+04  0.33384568494E+04 0.  0.
        2    1    3    3  502    0 -0.35262178414E+03  0.51031253873E+03 -0.24073264898E+04  0.24859569261E+04  0.25500000920E-02 0.  1.
       -2    1    3    3    0  502  0.35262178414E+03 -0.51031253873E+03  0.96789255429E+03  0.11495986284E+04  0.25500000920E-02 0. -1.
</event>
<event>
 5   0  0.2037333E-07  0.3312531E+04  0.7818609E-02  0.8159714E-01
       -1   -1    0    0    0  501  0.00000000000E+00  0.00000000000E+00  0.30670764103E+04  0.30670764103E+04  0.50400001928E-02 0. -1.
        1   -1    0    0  501    0  0.00000000000E+00  0.00000000000E+00 -0.89440744643E+03  0.89440744644E+03  0.50400001928E-02 0.  1.
    10030    2    1    2    0    0  0.00000000000E+00  0.00000000000E+00  0.21726689639E+04  0.39614838568E+04  0.33125313464E+04 0.  0.
        3    1    3    3  502    0  0.16503339602E+04  0.47082015787E+02  0.12440723594E+04  0.20672529942E+04  0.10100000352E+00 0.  1.
       -3    1    3    3    0  502 -0.16503339602E+04 -0.47082015787E+02  0.92859660446E+03  0.18942308625E+04  0.10100000352E+00 0. -1.
</event>
<event>
 5   0  0.6351753E-07  0.3282461E+04  0.7818609E-02  0.8167373E-01
       -2   -1    0    0    0  501  0.00000000000E+00  0.00000000000E+00  0.15727986195E+04  0.15727986195E+04  0.25500000920E-02 0. -1.
        2   -1    0    0  501    0  0.00000000000E+00  0.00000000000E+00 -0.17126398241E+04  0.17126398241E+04  0.25500000920E-02 0.  1.
    10030    2    1    2    0    0  0.00000000000E+00  0.00000000000E+00 -0.13984120464E+03  0.32854384436E+04  0.32824609981E+04 0.  0.
        3    1    3    3  502    0 -0.82021000704E+03  0.11121984639E+04 -0.95610931611E+03  0.16804389050E+04  0.10100000352E+00 0.  1.
       -3    1    3    3    0  502  0.82021000704E+03 -0.11121984639E+04  0.81626811147E+03  0.16049995386E+04  0.10100000352E+00 0. -1.
</event>
<event>
 5   0  0.6258718E-07  0.3304365E+04  0.7818609E-02  0.8161786E-01
       -2   -1    0    0    0  501  0.00000000000E+00  0.00000000000E+00  0.13184147464E+04  0.13184147464E+04  0.25500000920E-02 0.  1.
        2   -1    0    0  501    0  0.00000000000E+00  0.00000000000E+00 -0.20704458249E+04  0.20704458249E+04  0.25500000920E-02 0. -1.
    10030    2    1    2    0    0  0.00000000000E+00  0.00000000000E+00 -0.75203107847E+03  0.33888605712E+04  0.33043645725E+04 0.  0.
        5    1    3    3  502    0 -0.13733439312E+04  0.12521976664E+03 -0.13091897544E+04  0.19015134620E+04  0.46999998093E+01 0. -1.
       -5    1    3    3    0  502  0.13733439312E+04 -0.12521976664E+03  0.55715867588E+03  0.14873471092E+04  0.46999998093E+01 0.  1.
</event>
<event>
 5   0  0.6377741E-07  0.3471373E+04  0.7818609E-02  0.8120608E-01
        2   -1    0    0  501    0  0.00000000000E+00  0.00000000000E+00  0.22985229953E+04  0.22985229953E+04  0.25500000920E-02 0. -1.
       -2   -1    0    0    0  501  0.00000000000E+00  0.00000000000E+00 -0.13106713749E+04  0.13106713749E+04  0.25500000920E-02 0.  1.
    10030    2    1    2    0    0  0.00000000000E+00  0.00000000000E+00  0.98785162039E+03  0.36091943701E+04  0.34713733849E+04 0.  0.
        1    1    3    3  502    0 -0.21805405156E+03  0.15960706008E+04  0.11658174770E+04  0.19884967493E+04  0.50400001928E-02 0. -1.
       -1    1    3    3    0  502  0.21805405156E+03 -0.15960706008E+04 -0.17796585665E+03  0.16206976209E+04  0.50400001928E-02 0.  1.
</event>
<event>
 5   0  0.2037333E-07  0.3292370E+04  0.7818609E-02  0.8164840E-01
       -1   -1    0    0    0  501  0.00000000000E+00  0.00000000000E+00  0.15704010431E+04  0.15704010431E+04  0.50400001928E-02 0. -1.
        1   -1    0    0  501    0  0.00000000000E+00  0.00000000000E+00 -0.17256260883E+04  0.17256260883E+04  0.50400001928E-02 0.  1.
    10030    2    1    2    0    0  0.00000000000E+00  0.00000000000E+00 -0.15522504520E+03  0.32960271314E+04  0.32923699725E+04 0.  0.
        3    1    3    3  502    0 -0.35040604086E+02 -0.37233155184E+03  0.15273108999E+04  0.15724303557E+04  0.10100000352E+00 0. -1.
       -3    1    3    3    0  502  0.35040604086E+02  0.37233155184E+03 -0.16825359451E+04  0.17235967757E+04  0.10100000352E+00 0.  1.
</event>
<event>
 5   0  0.2080770E-07  0.3316396E+04  0.7818609E-02  0.8158736E-01
        1   -1    0    0  501    0  0.00000000000E+00  0.00000000000E+00  0.16677082597E+04  0.16677082597E+04  0.50400001928E-02 0.  1.
       -1   -1    0    0    0  501  0.00000000000E+00  0.00000000000E+00 -0.16487421653E+04  0.16487421654E+04  0.50400001928E-02 0. -1.
    10030    2    1    2    0    0  0.00000000000E+00  0.00000000000E+00  0.18966094340E+02  0.33164504251E+04  0.33163961930E+04 0.  0.
        4    1    3    3  502    0 -0.32954815916E+03 -0.76601213417E+03  0.14427694529E+04  0.16664218812E+04  0.12699999809E+01 0.  1.
       -4    1    3    3    0  502  0.32954815916E+03  0.76601213417E+03 -0.14238033586E+04  0.16500285439E+04  0.12699999809E+01 0. -1.
</event>
<event>
 5   0  0.2087665E-07  0.3286804E+04  0.7818609E-02  0.8166261E-01
       -1   -1    0    0    0  501  0.00000000000E+00  0.00000000000E+00  0.20402930635E+04  0.20402930635E+04  0.50400001928E-02 0.  1.
        1   -1    0    0  501    0  0.00000000000E+00  0.00000000000E+00 -0.13237164492E+04  0.13237164492E+04  0.50400001928E-02 0. -1.
    10030    2    1    2    0    0  0.00000000000E+00  0.00000000000E+00  0.71657661426E+03  0.33640095127E+04  0.32868036080E+04 0.  0.
        5    1    3    3  502    0 -0.10279433088E+04 -0.16851804488E+03 -0.94266393115E+03  0.14048854596E+04  0.46999998093E+01 0. -1.
       -5    1    3    3    0  502  0.10279433088E+04  0.16851804488E+03  0.16592405454E+04  0.19591240530E+04  0.46999998093E+01 0.  1.
</event>
<event>
 5   0  0.6377741E-07  0.3269197E+04  0.7818609E-02  0.8170778E-01
        2   -1    0    0  501    0  0.00000000000E+00  0.00000000000E+00  0.17094694560E+04  0.17094694560E+04  0.25500000920E-02 0. -1.
       -2   -1    0    0    0  501  0.00000000000E+00  0.00000000000E+00 -0.15630066422E+04  0.15630066422E+04  0.25500000920E-02 0.  1.
    10030    2    1    2    0    0  0.00000000000E+00  0.00000000000E+00  0.14646281373E+03  0.32724760982E+04  0.32691969132E+04 0.  0.
        1    1    3    3  502    0  0.15053917116E+04  0.91640150480E+02 -0.55772615067E+03  0.16079989370E+04  0.50400001928E-02 0.  1.
       -1    1    3    3    0  502 -0.15053917116E+04 -0.91640150480E+02  0.70418896440E+03  0.16644771612E+04  0.50400001928E-02 0. -1.
</event>
<event>
 5   0  0.1994250E-07  0.3298064E+04  0.7818609E-02  0.8163388E-01
        4   -1    0    0  501    0  0.00000000000E+00  0.00000000000E+00  0.19930678092E+04  0.19930682138E+04  0.12699999809E+01 0. -1.
       -4   -1    0    0    0  501  0.00000000000E+00  0.00000000000E+00 -0.13643818256E+04  0.13643824167E+04  0.12699999809E+01 0.  1.
    10030    2    1    2    0    0  0.00000000000E+00  0.00000000000E+00  0.62868598358E+03  0.33574506305E+04  0.32980643823E+04 0.  0.
        2    1    3    3  502    0  0.10033982931E+04 -0.12918101821E+04  0.52721464392E+03  0.17185857447E+04  0.25500000920E-02 0.  1.
       -2    1    3    3    0  502 -0.10033982931E+04  0.12918101821E+04  0.10147133966E+03  0.16388648858E+04  0.25500000920E-02 0. -1.
</event>
<event>
 5   0  0.6424183E-07  0.3298685E+04  0.7818609E-02  0.8163230E-01
        2   -1    0    0  501    0  0.00000000000E+00  0.00000000000E+00  0.18613562926E+04  0.18613562926E+04  0.25500000920E-02 0. -1.
       -2   -1    0    0    0  501  0.00000000000E+00  0.00000000000E+00 -0.14614778330E+04  0.14614778330E+04  0.25500000920E-02 0.  1.
    10030    2    1    2    0    0  0.00000000000E+00  0.00000000000E+00  0.39987845960E+03  0.33228341255E+04  0.32986851689E+04 0.  0.
        2    1    3    3  502    0 -0.14269120477E+04 -0.26779099600E+03 -0.58844033483E+03  0.15665414253E+04  0.25500000920E-02 0.  1.
       -2    1    3    3    0  502  0.14269120477E+04  0.26779099600E+03  0.98831879443E+03  0.17562927002E+04  0.25500000920E-02 0. -1.
</event>
<event>
 5   0  0.6351753E-07  0.3304635E+04  0.7818609E-02  0.8161717E-01
       -2   -1    0    0    0  501  0.00000000000E+00  0.00000000000E+00  0.12797218842E+04  0.12797218842E+04  0.25500000920E-02 0.  1.
        2   -1    0    0  501    0  0.00000000000E+00  0.00000000000E+00 -0.21333959434E+04  0.21333959434E+04  0.25500000920E-02 0. -1.
    10030    2    1    2    0    0  0.00000000000E+00  0.00000000000E+00 -0.85367405925E+03  0.34131178276E+04  0.33046352152E+04 0.  0.
        3    1    3    3  502    0  0.11556812263E+04 -0.10725472914E+04 -0.93722170950E+03  0.18342140911E+04  0.10100000352E+00 0. -1.
       -3    1    3    3    0  502 -0.11556812263E+04  0.10725472914E+04  0.83547650244E+02  0.15789037365E+04  0.10100000352E+00 0.  1.
</event>
<event>
 5   0  0.6424183E-07  0.3299322E+04  0.7818609E-02  0.8163068E-01
       -2   -1    0    0    0  501  0.00000000000E+00  0.00000000000E+00  0.12976900195E+04  0.12976900195E+04  0.25500000920E-02 0. -1.
        2   -1    0    0  501    0  0.00000000000E+00  0.00000000000E+00 -0.20970963519E+04  0.20970963519E+04  0.25500000920E-02 0.  1.
    10030    2    1    2    0    0  0.00000000000E+00  0.00000000000E+00 -0.79940633242E+03  0.33947863714E+04  0.32993217520E+04 0.  0.
        2    1    3    3  502    0 -0.15780146553E+04 -0.48071817068E+03 -0.41275051751E+03  0.17004655838E+04  0.25500000920E-02 0. -1.
       -2    1    3    3    0  502  0.15780146553E+04  0.48071817068E+03 -0.38665581492E+03  0.16943207876E+04  0.25500000920E-02 0.  1.
</event>
<event>
 5   0  0.6351753E-07  0.3301297E+04  0.7818609E-02  0.8162566E-01
       -2   -1    0    0    0  501  0.00000000000E+00  0.00000000000E+00  0.12114453517E+04  0.12114453517E+04  0.25500000920E-02 0. -1.
        2   -1    0    0  501    0  0.00000000000E+00  0.00000000000E+00 -0.22490820494E+04  0.22490820494E+04  0.25500000920E-02 0.  1.
    10030    2    1    2    0    0  0.00000000000E+00  0.00000000000E+00 -0.10376366977E+04  0.34605274010E+04  0.33012967114E+04 0.  0.
        3    1    3    3  502    0 -0.14206164810E+04 -0.79876713330E+03 -0.79308673509E+03  0.18125028825E+04  0.10100000352E+00 0. -1.
       -3    1    3    3    0  502  0.14206164810E+04  0.79876713330E+03 -0.24454996261E+03  0.16480245186E+04  0.10100000352E+00 0.  1.
</event>
<event>
 5   0  0.6351753E-07  0.3296614E+04  0.7818609E-02  0.8163757E-01
        2   -1    0    0  501    0  0.00000000000E+00  0.00000000000E+00  0.28072416556E+04  0.28072416556E+04  0.25500000920E-02 0.  1.
       -2   -1    0    0    0  501  0.00000000000E+00  0.00000000000E+00 -0.96782410173E+03  0.96782410174E+03  0.25500000920E-02 0. -1.
    10030    2    1    2    0    0  0.00000000000E+00  0.00000000000E+00  0.18394175538E+04  0.37750657573E+04  0.32966141016E+04 0.  0.
        3    1    3    3  502    0 -0.85604047083E+02  0.25292743752E+03  0.27823096201E+04  0.27950934106E+04  0.10100000352E+00 0.  1.
       -3    1    3    3    0  502  0.85604047083E+02 -0.25292743752E+03 -0.94289206627E+03  0.97997234673E+03  0.10100000352E+00 0. -1.
</event>
<event>
 5   0  0.6426079E-07  0.3282755E+04  0.7818609E-02  0.8167297E-01
        2   -1    0    0  501    0  0.00000000000E+00  0.00000000000E+00  0.17531421718E+04  0.17531421718E+04  0.25500000920E-02 0.  1.
       -2   -1    0    0    0  501  0.00000000000E+00  0.00000000000E+00 -0.15367379424E+04  0.15367379424E+04  0.25500000920E-02 0. -1.
    10030    2    1    2    0    0  0.00000000000E+00  0.00000000000E+00  0.21640422937E+03  0.32898801141E+04  0.32827549977E+04 0.  0.
        4    1    3    3  502    0 -0.71886786135E+03  0.63975793200E+02 -0.13691938296E+04  0.15477587861E+04  0.12699999809E+01 0. -1.
       -4    1    3    3    0  502  0.71886786135E+03 -0.63975793200E+02  0.15855980589E+04  0.17421213280E+04  0.12699999809E+01 0.  1.
</event>
<event>
 5   0  0.2087665E-07  0.3286900E+04  0.7818609E-02  0.8166237E-01
        1   -1    0    0  501    0  0.00000000000E+00  0.00000000000E+00  0.22749670341E+04  0.22749670341E+04  0.50400001928E-02 0. -1.
       -1   -1    0    0    0  501  0.00000000000E+00  0.00000000000E+00 -0.11872384772E+04  0.11872384772E+04  0.50400001928E-02 0.  1.
    10030    2    1    2    0    0  0.00000000000E+00  0.00000000000E+00  0.10877285569E+04  0.34622055113E+04  0.32869003011E+04 0.  0.
        5    1    3    3  502    0 -0.31332991054E+03 -0.66794259512E+03  0.20907186805E+04  0.22170813323E+04  0.46999998093E+01 0. -1.
       -5    1    3    3    0  502  0.31332991054E+03  0.66794259512E+03 -0.10029901236E+04  0.12451241790E+04  0.46999998093E+01 0.  1.
</event>
<event>
 5   0  0.2080770E-07  0.3308900E+04  0.7818609E-02  0.8160634E-01
        1   -1    0    0  501    0  0.00000000000E+00  0.00000000000E+00  0.19844915451E+04  0.19844915451E+04  0.50400001928E-02 0.  1.
       -1   -1    0    0    0  501  0.00000000000E+00  0.00000000000E+00 -0.13792978985E+04  0.13792978985E+04  0.50400001928E-02 0. -1.
    10030    2    1    2    0    0  0.00000000000E+00  0.00000000000E+00  0.60519364666E+03  0.33637894436E+04  0.33089001301E+04 0.  0.
        4    1    3    3  502    0  0.40307427681E+02  0.31058144916E+03  0.19540814619E+04  0.19790203379E+04  0.12699999809E+01 0.  1.
       -4    1    3    3    0  502 -0.40307427681E+02 -0.31058144916E+03 -0.13488878152E+04  0.13847691057E+04  0.12699999809E+01 0. -1.
</event>
<event>
 5   0  0.2057130E-07  0.3299614E+04  0.7818609E-02  0.8162994E-01
       -1   -1    0    0    0  501  0.00000000000E+00  0.00000000000E+00  0.14068846430E+04  0.14068846431E+04  0.50400001928E-02 0. -1.
        1   -1    0    0  501    0  0.00000000000E+00  0.00000000000E+00 -0.19346738833E+04  0.19346738833E+04  0.50400001928E-02 0.  1.
    10030    2    1    2    0    0  0.00000000000E+00  0.00000000000E+00 -0.52778924027E+03  0.33415585264E+04  0.32996139021E+04 0.  0.
        2    1    3    3  502    0  0.18736390573E+03  0.28216855914E+03  0.13712945836E+04  0.14125059872E+04  0.25500000920E-02 0. -1.
       -2    1    3    3    0  502 -0.18736390573E+03 -0.28216855914E+03 -0.18990838238E+04  0.19290525392E+04  0.25500000920E-02 0.  1.
</event>
<event>
 5   0  0.2037333E-07  0.3304268E+04  0.7818609E-02  0.8161810E-01
       -1   -1    0    0    0  501  0.00000000000E+00  0.00000000000E+00  0.11175766557E+04  0.11175766557E+04  0.50400001928E-02 0. -1.
        1   -1    0    0  501    0  0.00000000000E+00  0.00000000000E+00 -0.24423800400E+04  0.24423800400E+04  0.50400001928E-02 0.  1.
    10030    2    1    2    0    0  0.00000000000E+00  0.00000000000E+00 -0.13248033842E+04  0.35599566957E+04  0.33042680988E+04 0.  0.
        3    1    3    3  502    0 -0.82514370978E+03 -0.43675861107E+03  0.80613135254E+03  0.12334780071E+04  0.10100000352E+00 0. -1.
       -3    1    3    3    0  502  0.82514370978E+03  0.43675861107E+03 -0.21309347368E+04  0.23264786887E+04  0.10100000352E+00 0.  1.
</event>
<event>
 5   0  0.6377741E-07  0.3302088E+04  0.7818609E-02  0.8162364E-01
        2   -1    0    0  501    0  0.00000000000E+00  0.00000000000E+00  0.14289823496E+04  0.14289823496E+04  0.25500000920E-02 0.  1.
       -2   -1    0    0    0  501  0.00000000000E+00  0.00000000000E+00 -0.19076133652E+04  0.19076133652E+04  0.25500000920E-02 0. -1.
    10030    2    1    2    0    0  0.00000000000E+00  0.00000000000E+00 -0.47863101556E+03  0.33365957148E+04  0.33020877207E+04 0.  0.
        1    1    3    3  502    0 -0.14669259548E+03  0.16444658040E+04 -0.25207003749E+03  0.16701274808E+04  0.50400001928E-02 0. -1.
       -1    1    3    3    0  502  0.14669259548E+03 -0.16444658040E+04 -0.22656097806E+03  0.16664682340E+04  0.50400001928E-02 0.  1.
</event>
<event>
 5   0  0.2037333E-07  0.3305927E+04  0.7818609E-02  0.8161389E-01
        1   -1    0    0  501    0  0.00000000000E+00  0.00000000000E+00  0.11619857787E+04  0.11619857787E+04  0.50400001928E-02 0.  1.
       -1   -1    0    0    0  501  0.00000000000E+00  0.00000000000E+00 -0.23513963595E+04  0.23513963595E+04  0.50400001928E-02 0. -1.
    10030    2    1    2    0    0  0.00000000000E+00  0.00000000000E+00 -0.11894105808E+04  0.35133821383E+04  0.33059274825E+04 0.  0.
        3    1    3    3  502    0  0.10134516940E+04 -0.62513760361E+03  0.62371500212E+03  0.13442104648E+04  0.10100000352E+00 0.  1.
       -3    1    3    3    0  502 -0.10134516940E+04  0.62513760361E+03 -0.18131255829E+04  0.21691716735E+04  0.10100000352E+00 0. -1.
</event>
<event>
 5   0  0.6351753E-07  0.3283256E+04  0.7818609E-02  0.8167169E-01
        2   -1    0    0  501    0  0.00000000000E+00  0.00000000000E+00  0.15686696888E+04  0.15686696888E+04  0.25500000920E-02 0.  1.
       -2   -1    0    0    0  501  0.00000000000E+00  0.00000000000E+00 -0.17179794864E+04  0.17179794864E+04  0.25500000920E-02 0. -1.
    10030    2    1    2    0    0  0.00000000000E+00  0.00000000000E+00 -0.14930979759E+03  0.32866491752E+04  0.32832559122E+04 0.  0.
        3    1    3    3  502    0 -0.86196625052E+03  0.12270079195E+04 -0.74348319653E+03  0.16737089129E+04  0.10100000352E+00 0. -1.
       -3    1    3    3    0  502  0.86196625052E+03 -0.12270079195E+04  0.59417339894E+03  0.16129402623E+04  0.10100000352E+00 0.  1.
</event>
<event>
 5   0  0.2080828E-07  0.3298859E+04  0.7818609E-02  0.8163186E-01
        1   -1    0    0  501    0  0.00000000000E+00  0.00000000000E+00  0.19041854063E+04  0.19041854063E+04  0.50400001928E-02 0.  1.
       -1   -1    0    0    0  501  0.00000000000E+00  0.00000000000E+00 -0.14287570876E+04  0.14287570876E+04  0.50400001928E-02 0. -1.
    10030    2    1    2    0    0  0.00000000000E+00  0.00000000000E+00  0.47542831871E+03  0.33329424939E+04  0.32988594365E+04 0.  0.
        1    1    3    3  502    0 -0.10339735504E+04 -0.11672280500E+04  0.78094557746E+03  0.17439606127E+04  0.50400001928E-02 0. -1.
       -1    1    3    3    0  502  0.10339735504E+04  0.11672280500E+04 -0.30551725875E+03  0.15889818813E+04  0.50400001928E-02 0.  1.
</event>
<event>
 5   0  0.6426079E-07  0.3298928E+04  0.7818609E-02  0.8163168E-01
       -2   -1    0    0    0  501  0.00000000000E+00  0.00000000000E+00  0.27607962639E+04  0.27607962639E+04  0.25500000920E-02 0.  1.
        2   -1    0    0  501    0  0.00000000000E+00  0.00000000000E+00 -0.98548819313E+03  0.98548819313E+03  0.25500000920E-02 0. -1.
    10030    2    1    2    0    0  0.00000000000E+00  0.00000000000E+00  0.17753080707E+04  0.37462844570E+04  0.32989283846E+04 0.  0.
        4    1    3    3  502    0  0.74464871951E+03 -0.56095572858E+02 -0.78253013219E+03  0.10816669771E+04  0.12699999809E+01 0. -1.
       -4    1    3    3    0  502 -0.74464871951E+03  0.56095572858E+02  0.25578382029E+04  0.26646174799E+04  0.12699999809E+01 0.  1.
</event>
<event>
 5   0  0.6426079E-07  0.3293462E+04  0.7818609E-02  0.8164561E-01
        2   -1    0    0  501    0  0.00000000000E+00  0.00000000000E+00  0.16901193359E+04  0.16901193359E+04  0.25500000920E-02 0.  1.
       -2   -1    0    0    0  501  0.00000000000E+00  0.00000000000E+00 -0.16044562930E+04  0.16044562930E+04  0.25500000920E-02 0. -1.
    10030    2    1    2    0    0  0.00000000000E+00  0.00000000000E+00  0.85663042873E+02  0.32945756290E+04  0.32934617681E+04 0.  0.
        4    1    3    3  502    0  0.15742025210E+04  0.12521760770E+02 -0.44049916702E+03  0.16347206185E+04  0.12699999809E+01 0.  1.
       -4    1    3    3    0  502 -0.15742025210E+04 -0.12521760770E+02  0.52616220989E+03  0.16598550104E+04  0.12699999809E+01 0. -1.
</event>
<event>
 5   0  0.2087665E-07  0.3307238E+04  0.7818609E-02  0.8161056E-01
       -1   -1    0    0    0  501  0.00000000000E+00  0.00000000000E+00  0.17019536549E+04  0.17019536549E+04  0.50400001928E-02 0.  1.
        1   -1    0    0  501    0  0.00000000000E+00  0.00000000000E+00 -0.16066573111E+04  0.16066573111E+04  0.50400001928E-02 0. -1.
    10030    2    1    2    0    0  0.00000000000E+00  0.00000000000E+00  0.95296343755E+02  0.33086109660E+04  0.33072382937E+04 0.  0.
        5    1    3    3  502    0  0.84161502051E+03 -0.12468280835E+04 -0.63932314207E+03  0.16345189759E+04  0.46999998093E+01 0. -1.
       -5    1    3    3    0  502 -0.84161502051E+03  0.12468280835E+04  0.73461948582E+03  0.16740919901E+04  0.46999998093E+01 0.  1.
</event>
<event>
 5   0  0.2037333E-07  0.3310771E+04  0.7818609E-02  0.8160160E-01
        1   -1    0    0  501    0  0.00000000000E+00  0.00000000000E+00  0.14733058377E+04  0.14733058377E+04  0.50400001928E-02 0. -1.
       -1   -1    0    0    0  501  0.00000000000E+00  0.00000000000E+00 -0.18599671760E+04  0.18599671760E+04  0.50400001928E-02 0.  1.
    10030    2    1    2    0    0  0.00000000000E+00  0.00000000000E+00 -0.38666133829E+03  0.33332730137E+04  0.33107706042E+04 0.  0.
        3    1    3    3  502    0  0.16014772422E+04  0.36194870505E+03  0.19206638367E+02  0.16419820728E+04  0.10100000352E+00 0. -1.
       -3    1    3    3    0  502 -0.16014772422E+04 -0.36194870505E+03 -0.40586797665E+03  0.16912909409E+04  0.10100000352E+00 0.  1.
</event>
<event>
 5   0  0.2057130E-07  0.3307158E+04  0.7818609E-02  0.8161076E-01
       -1   -1    0    0    0  501  0.00000000000E+00  0.00000000000E+00  0.15733590436E+04  0.15733590436E+04  0.50400001928E-02 0. -1.
        1   -1    0    0  501    0  0.00000000000E+00  0.00000000000E+00 -0.17378892957E+04  0.17378892957E+04  0.50400001928E-02 0.  1.
    10030    2    1    2    0    0  0.00000000000E+00  0.00000000000E+00 -0.16453025205E+03  0.33112483393E+04  0.33071582001E+04 0.  0.
        2    1    3    3  502    0  0.87063061756E+03  0.70513679450E+02  0.13235204770E+04  0.15857730936E+04  0.25500000920E-02 0. -1.
       -2    1    3    3    0  502 -0.87063061756E+03 -0.70513679450E+02 -0.14880507291E+04  0.17254752457E+04  0.25500000920E-02 0.  1.
</event>
<event>
 5   0  0.6426079E-07  0.3289813E+04  0.7818609E-02  0.8165492E-01
        2   -1    0    0  501    0  0.00000000000E+00  0.00000000000E+00  0.15267394420E+04  0.15267394420E+04  0.25500000920E-02 0.  1.
       -2   -1    0    0    0  501  0.00000000000E+00  0.00000000000E+00 -0.17722194812E+04  0.17722194812E+04  0.25500000920E-02 0. -1.
    10030    2    1    2    0    0  0.00000000000E+00  0.00000000000E+00 -0.24548003923E+03  0.32989589232E+04  0.32898129928E+04 0.  0.
        4    1    3    3  502    0 -0.51701271861E+03  0.28933850719E+03  0.14160281624E+04  0.15349776195E+04  0.12699999809E+01 0.  1.
       -4    1    3    3    0  502  0.51701271861E+03 -0.28933850719E+03 -0.16615082016E+04  0.17639813037E+04  0.12699999809E+01 0. -1.
</event>
<event>
 5   0  0.2037333E-07  0.3320384E+04  0.7818609E-02  0.8157728E-01
       -1   -1    0    0    0  501  0.00000000000E+00  0.00000000000E+00  0.20251193083E+04  0.20251193083E+04  0.50400001928E-02 0. -1.
        1   -1    0    0  501    0  0.00000000000E+00  0.00000000000E+00 -0.13610244796E+04  0.13610244796E+04  0.50400001928E-02 0.  1.
    10030    2    1    2    0    0  0.00000000000E+00  0.00000000000E+00  0.66409482871E+03  0.33861437879E+04  0.33203836842E+04 0.  0.
        3    1    3    3  502    0 -0.47692981264E+03  0.34969267163E+03  0.19140571406E+04  0.20033376546E+04  0.10100000352E+00 0. -1.
       -3    1    3    3    0  502  0.47692981264E+03 -0.34969267163E+03 -0.12499623119E+04  0.13828061332E+04  0.10100000352E+00 0.  1.
</event>
<event>
 5   0  0.6424183E-07  0.3284442E+04  0.7818609E-02  0.8166865E-01
       -2   -1    0    0    0  501  0.00000000000E+00  0.00000000000E+00  0.11426625819E+04  0.11426625819E+04  0.25500000920E-02 0. -1.
        2   -1    0    0  501    0  0.00000000000E+00  0.00000000000E+00 -0.23601801335E+04  0.23601801335E+04  0.25500000920E-02 0.  1.
    10030    2    1    2    0    0  0.00000000000E+00  0.00000000000E+00 -0.12175175515E+04  0.35028427154E+04  0.32844418248E+04 0.  0.
        2    1    3    3  502    0  0.12739817645E+04  0.83161026030E+03 -0.12681639196E+04  0.19806172998E+04  0.25500000920E-02 0. -1.
       -2    1    3    3    0  502 -0.12739817645E+04 -0.83161026030E+03  0.50646368104E+02  0.15222254156E+04  0.25500000920E-02 0.  1.
</event>
<event>
 5   0  0.6426079E-07  0.3240569E+04  0.7818609E-02  0.8178184E-01
        2   -1    0    0  501    0  0.00000000000E+00  0.00000000000E+00  0.14570760230E+04  0.14570760230E+04  0.25500000920E-02 0.  1.
       -2   -1    0    0    0  501  0.00000000000E+00  0.00000000000E+00 -0.18017746152E+04  0.18017746152E+04  0.25500000920E-02 0. -1.
    10030    2    1    2    0    0  0.00000000000E+00  0.00000000000E+00 -0.34469859224E+03  0.32588506382E+04  0.32405694503E+04 0.  0.
        4    1    3    3  502    0  0.67623254313E+03 -0.50113625177E+03 -0.15646788970E+04  0.17766962764E+04  0.12699999809E+01 0. -1.
       -4    1    3    3    0  502 -0.67623254313E+03  0.50113625177E+03  0.12199803047E+04  0.14821543617E+04  0.12699999809E+01 0.  1.
</event>
<event>
 5   0  0.2087665E-07  0.3288187E+04  0.7818609E-02  0.8165908E-01
       -1   -1    0    0    0  501  0.00000000000E+00  0.00000000000E+00  0.20758228413E+04  0.20758228413E+04  0.50400001928E-02 0. -1.
        1   -1    0    0  501    0  0.00000000000E+00  0.00000000000E+00 -0.13021550447E+04  0.13021550447E+04  0.50400001928E-02 0.  1.
    10030    2    1    2    0    0  0.00000000000E+00  0.00000000000E+00  0.77366779660E+03  0.33779778860E+04  0.32881868467E+04 0.  0.
        5    1    3    3  502    0  0.11716443678E+04 -0.10793371364E+04 -0.30841848942E+02  0.15933274893E+04  0.46999998093E+01 0.  1.
       -5    1    3    3    0  502 -0.11716443678E+04  0.10793371364E+04  0.80450964555E+03  0.17846503967E+04  0.46999998093E+01 0. -1.
</event>
<event>
 5   0  0.2057130E-07  0.3288310E+04  0.7818609E-02  0.8165876E-01
        1   -1    0    0  501    0  0.00000000000E+00  0.00000000000E+00  0.30129886225E+04  0.30129886225E+04  0.50400001928E-02 0. -1.
       -1   -1    0    0    0  501  0.00000000000E+00  0.00000000000E+00 -0.89719724345E+03  0.89719724347E+03  0.50400001928E-02 0.  1.
    10030    2    1    2    0    0  0.00000000000E+00  0.00000000000E+00  0.21157913791E+04  0.39101858660E+04  0.32883096489E+04 0.  0.
        2    1    3    3  502    0 -0.82962411844E+03 -0.17646259844E+03  0.27327495020E+04  0.28613519649E+04  0.25500000920E-02 0. -1.
       -2    1    3    3    0  502  0.82962411844E+03  0.17646259844E+03 -0.61695812293E+03  0.10488339011E+04  0.25500000920E-02 0.  1.
</event>
<event>
 5   0  0.6424183E-07  0.3305932E+04  0.7818609E-02  0.8161388E-01
       -2   -1    0    0    0  501  0.00000000000E+00  0.00000000000E+00  0.14957379286E+04  0.14957379286E+04  0.25500000920E-02 0. -1.
        2   -1    0    0  501    0  0.00000000000E+00  0.00000000000E+00 -0.18267218878E+04  0.18267218878E+04  0.25500000920E-02 0.  1.
    10030    2    1    2    0    0  0.00000000000E+00  0.00000000000E+00 -0.33098395916E+03  0.33224598164E+04  0.33059323723E+04 0.  0.
        2    1    3    3  502    0  0.32583320142E+03 -0.57476048923E+03  0.13572661823E+04  0.15095325054E+04  0.25500000920E-02 0. -1.
       -2    1    3    3    0  502 -0.32583320142E+03  0.57476048923E+03 -0.16882501414E+04  0.18129273111E+04  0.25500000920E-02 0.  1.
</event>
<event>
 5   0  0.6351753E-07  0.3307298E+04  0.7818609E-02  0.8161041E-01
        2   -1    0    0  501    0  0.00000000000E+00  0.00000000000E+00  0.14858158985E+04  0.14858158985E+04  0.25500000920E-02 0. -1.
       -2   -1    0    0    0  501  0.00000000000E+00  0.00000000000E+00 -0.18404404272E+04  0.18404404272E+04  0.25500000920E-02 0.  1.
    10030    2    1    2    0    0  0.00000000000E+00  0.00000000000E+00 -0.35462452873E+03  0.33262563257E+04  0.33072983821E+04 0.  0.
        3    1    3    3  502    0  0.18682027497E+03 -0.16423264379E+04 -0.12786037010E+03  0.16578559129E+04  0.10100000352E+00 0.  1.
       -3    1    3    3    0  502 -0.18682027497E+03  0.16423264379E+04 -0.22676415863E+03  0.16684004128E+04  0.10100000352E+00 0. -1.
</event>
<event>
 5   0  0.6258718E-07  0.3297185E+04  0.7818609E-02  0.8163612E-01
        2   -1    0    0  501    0  0.00000000000E+00  0.00000000000E+00  0.12500060893E+04  0.12500060893E+04  0.25500000920E-02 0.  1.
       -2   -1    0    0    0  501  0.00000000000E+00  0.00000000000E+00 -0.21742751749E+04  0.21742751749E+04  0.25500000920E-02 0. -1.
    10030    2    1    2    0    0  0.00000000000E+00  0.00000000000E+00 -0.92426908561E+03  0.34242812641E+04  0.32971849862E+04 0.  0.
        5    1    3    3  502    0  0.14172782857E+04 -0.70323938633E+03  0.18984845497E+02  0.15822787011E+04  0.46999998093E+01 0.  1.
       -5    1    3    3    0  502 -0.14172782857E+04  0.70323938633E+03 -0.94325393110E+03  0.18420025630E+04  0.46999998093E+01 0. -1.
</event>
<event>
 5   0  0.2057130E-07  0.3291346E+04  0.7818609E-02  0.8165101E-01
       -1   -1    0    0    0  501  0.00000000000E+00  0.00000000000E+00  0.18528496868E+04  0.18528496868E+04  0.50400001928E-02 0. -1.
        1   -1    0    0  501    0  0.00000000000E+00  0.00000000000E+00 -0.14616619474E+04  0.14616619474E+04  0.50400001928E-02 0.  1.
    10030    2    1    2    0    0  0.00000000000E+00  0.00000000000E+00  0.39118773935E+03  0.33145116342E+04  0.32913461571E+04 0.  0.
        2    1    3    3  502    0 -0.54838033517E+03 -0.12559654437E+04 -0.72190020116E+03  0.15489706544E+04  0.25500000920E-02 0.  1.
       -2    1    3    3    0  502  0.54838033517E+03  0.12559654437E+04  0.11130879405E+04  0.17655409798E+04  0.25500000920E-02 0. -1.
</event>
<event>
 5   0  0.6424183E-07  0.3138843E+04  0.7818609E-02  0.8205158E-01
       -2   -1    0    0    0  501  0.00000000000E+00  0.00000000000E+00  0.16517366086E+04  0.16517366086E+04  0.25500000920E-02 0. -1.
        2   -1    0    0  501    0  0.00000000000E+00  0.00000000000E+00 -0.14912084769E+04  0.14912084769E+04  0.25500000920E-02 0.  1.
    10030    2    1    2    0    0  0.00000000000E+00  0.00000000000E+00  0.16052813174E+03  0.31429450855E+04  0.31388428648E+04 0.  0.
        2    1    3    3  502    0  0.11951372906E+04 -0.14255253549E+03 -0.92823110152E+03  0.15199629425E+04  0.25500000920E-02 0.  1.
       -2    1    3    3    0  502 -0.11951372906E+04  0.14255253549E+03  0.10887592333E+04  0.16229821431E+04  0.25500000920E-02 0. -1.
</event>
<event>
 5   0  0.2057130E-07  0.3297958E+04  0.7818609E-02  0.8163415E-01
        1   -1    0    0  501    0  0.00000000000E+00  0.00000000000E+00  0.15853870323E+04  0.15853870323E+04  0.50400001928E-02 0.  1.
       -1   -1    0    0    0  501  0.00000000000E+00  0.00000000000E+00 -0.17151215753E+04  0.17151215753E+04  0.50400001928E-02 0. -1.
    10030    2    1    2    0    0  0.00000000000E+00  0.00000000000E+00 -0.12973454304E+03  0.33005086076E+04  0.32979578556E+04 0.  0.
        2    1    3    3  502    0 -0.13234945627E+04 -0.64521570429E+03 -0.80786342887E+03  0.16794595805E+04  0.25500000920E-02 0. -1.
       -2    1    3    3    0  502  0.13234945627E+04  0.64521570429E+03  0.67812888583E+03  0.16210490272E+04  0.25500000920E-02 0.  1.
</event>
<event>
 5   0  0.6258718E-07  0.3295834E+04  0.7818609E-02  0.8163956E-01
        2   -1    0    0  501    0  0.00000000000E+00  0.00000000000E+00  0.15333472603E+04  0.15333472603E+04  0.25500000920E-02 0. -1.
       -2   -1    0    0    0  501  0.00000000000E+00  0.00000000000E+00 -0.17710468340E+04  0.17710468340E+04  0.25500000920E-02 0.  1.
    10030    2    1    2    0    0  0.00000000000E+00  0.00000000000E+00 -0.23769957372E+03  0.33043940943E+04  0.32958336188E+04 0.  0.
        5    1    3    3  502    0  0.47074734365E+03 -0.14141088837E+03  0.14581334409E+04  0.15387577205E+04  0.46999998093E+01 0. -1.
       -5    1    3    3    0  502 -0.47074734365E+03  0.14141088837E+03 -0.16958330146E+04  0.17656363738E+04  0.46999998093E+01 0.  1.
</event>
<event>
 5   0  0.2080828E-07  0.3438397E+04  0.7818609E-02  0.8128546E-01
        1   -1    0    0  501    0  0.00000000000E+00  0.00000000000E+00  0.22020495807E+04  0.22020495808E+04  0.50400001928E-02 0.  1.
       -1   -1    0    0    0  501  0.00000000000E+00  0.00000000000E+00 -0.13422239799E+04  0.13422239799E+04  0.50400001928E-02 0. -1.
    10030    2    1    2    0    0  0.00000000000E+00  0.00000000000E+00  0.85982560082E+03  0.35442735607E+04  0.34383971570E+04 0.  0.
        1    1    3    3  502    0 -0.17051573920E+04  0.21018311414E+03  0.36549793051E+03  0.17565100085E+04  0.50400001928E-02 0. -1.
       -1    1    3    3    0  502  0.17051573920E+04 -0.21018311414E+03  0.49432767031E+03  0.17877635522E+04  0.50400001928E-02 0.  1.
</event>
<event>
 5   0  0.2080770E-07  0.3336650E+04  0.7818609E-02  0.8153632E-01
        1   -1    0    0  501    0  0.00000000000E+00  0.00000000000E+00  0.18113703116E+04  0.18113703116E+04  0.50400001928E-02 0. -1.
       -1   -1    0    0    0  501  0.00000000000E+00  0.00000000000E+00 -0.15365762817E+04  0.15365762817E+04  0.50400001928E-02 0.  1.
    10030    2    1    2    0    0  0.00000000000E+00  0.00000000000E+00  0.27479402989E+03  0.33479465933E+04  0.33366502114E+04 0.  0.
        4    1    3    3  502    0 -0.32393493803E+03  0.14311568319E+04  0.93391282786E+03  0.17393500236E+04  0.12699999809E+01 0.  1.
       -4    1    3    3    0  502  0.32393493803E+03 -0.14311568319E+04 -0.65911879797E+03  0.16085965698E+04  0.12699999809E+01 0. -1.
</event>
<event>
 5   0  0.2080828E-07  0.3302260E+04  0.7818609E-02  0.8162321E-01
        1   -1    0    0  501    0  0.00000000000E+00  0.00000000000E+00  0.13631781671E+04  0.13631781671E+04  0.50400001928E-02 0.  1.
       -1   -1    0    0    0  501  0.00000000000E+00  0.00000000000E+00 -0.19999070168E+04  0.19999070168E+04  0.50400001928E-02 0. -1.
    10030    2    1    2    0    0  0.00000000000E+00  0.00000000000E+00 -0.63672884967E+03  0.33630851839E+04  0.33022595788E+04 0.  0.
        1    1    3    3  502    0 -0.10609830750E+04 -0.11272023923E+04 -0.90336571190E+03  0.17923001780E+04  0.50400001928E-02 0. -1.
       -1    1    3    3    0  502  0.10609830750E+04  0.11272023923E+04  0.26663686223E+03  0.15707850059E+04  0.50400001928E-02 0.  1.
</event>
<event>
 5   0  0.6258718E-07  0.3369132E+04  0.7818609E-02  0.8145524E-01
       -2   -1    0    0    0  501  0.00000000000E+00  0.00000000000E+00  0.12675803717E+04  0.12675803717E+04  0.25500000920E-02 0. -1.
        2   -1    0    0  501    0  0.00000000000E+00  0.00000000000E+00 -0.22387243460E+04  0.22387243460E+04  0.25500000920E-02 0.  1.
    10030    2    1    2    0    0  0.00000000000E+00  0.00000000000E+00 -0.97114397432E+03  0.35063047177E+04  0.33691322554E+04 0.  0.
        5    1    3    3  502    0  0.73026446381E+03  0.13147533597E+03  0.10883410191E+04  0.13172244361E+04  0.46999998093E+01 0. -1.
       -5    1    3    3    0  502 -0.73026446381E+03 -0.13147533597E+03 -0.20594849934E+04  0.21890802816E+04  0.46999998093E+01 0.  1.
</event>
<event>
 5   0  0.2087665E-07  0.3331334E+04  0.7818609E-02  0.8154968E-01
       -1   -1    0    0    0  501  0.00000000000E+00  0.00000000000E+00  0.14524703498E+04  0.14524703498E+04  0.50400001928E-02 0. -1.
        1   -1    0    0  501    0  0.00000000000E+00  0.00000000000E+00 -0.19101565322E+04  0.19101565322E+04  0.50400001928E-02 0.  1.
    10030    2    1    2    0    0  0.00000000000E+00  0.00000000000E+00 -0.45768618235E+03  0.33626268820E+04  0.33313335027E+04 0.  0.
        5    1    3    3  502    0  0.10435028771E+03 -0.13870029543E+04  0.69614790011E+03  0.15554131819E+04  0.46999998093E+01 0. -1.
       -5    1    3    3    0  502 -0.10435028771E+03  0.13870029543E+04 -0.11538340825E+04  0.18072137000E+04  0.46999998093E+01 0.  1.
</event>
<event>
 5   0  0.2037333E-07  0.3306348E+04  0.7818609E-02  0.8161282E-01
        1   -1    0    0  501    0  0.00000000000E+00  0.00000000000E+00  0.17586552677E+04  0.17586552677E+04  0.50400001928E-02 0.  1.
       -1   -1    0    0    0  501  0.00000000000E+00  0.00000000000E+00 -0.15540190474E+04  0.15540190475E+04  0.50400001928E-02 0. -1.
    10030    2    1    2    0    0  0.00000000000E+00  0.00000000000E+00  0.20463622028E+03  0.33126743152E+04  0.33063477034E+04 0.  0.
        3    1    3    3  502    0 -0.33147530254E+03 -0.27200190119E+03 -0.14973342144E+04  0.15575206805E+04  0.10100000352E+00 0. -1.
       -3    1    3    3    0  502  0.33147530254E+03  0.27200190119E+03  0.17019704347E+04  0.17551536347E+04  0.10100000352E+00 0.  1.
</event>
<event>
 5   0  0.6377741E-07  0.3365396E+04  0.7818609E-02  0.8146452E-01
       -2   -1    0    0    0  501  0.00000000000E+00  0.00000000000E+00  0.17571089142E+04  0.17571089142E+04  0.25500000920E-02 0.  1.
        2   -1    0    0  501    0  0.00000000000E+00  0.00000000000E+00 -0.16114383507E+04  0.16114383507E+04  0.25500000920E-02 0. -1.
    10030    2    1    2    0    0  0.00000000000E+00  0.00000000000E+00  0.14567056353E+03  0.33685472648E+04  0.33653960781E+04 0.  0.
        1    1    3    3  502    0  0.15349080846E+03  0.40513536481E+03 -0.15546572428E+04  0.16138938115E+04  0.50400001928E-02 0. -1.
       -1    1    3    3    0  502 -0.15349080846E+03 -0.40513536481E+03  0.17003278064E+04  0.17546534533E+04  0.50400001928E-02 0.  1.
</event>
<event>
 5   0  0.2037333E-07  0.3316872E+04  0.7818609E-02  0.8158616E-01
        1   -1    0    0  501    0  0.00000000000E+00  0.00000000000E+00  0.24731763671E+04  0.24731763671E+04  0.50400001928E-02 0. -1.
       -1   -1    0    0    0  501  0.00000000000E+00  0.00000000000E+00 -0.11120962094E+04  0.11120962094E+04  0.50400001928E-02 0.  1.
    10030    2    1    2    0    0  0.00000000000E+00  0.00000000000E+00  0.13610801577E+04  0.35852725765E+04  0.33168720584E+04 0.  0.
        3    1    3    3  502    0  0.48480909246E+03 -0.14776820273E+03 -0.10263327785E+04  0.11446546555E+04  0.10100000352E+00 0.  1.
       -3    1    3    3    0  502 -0.48480909246E+03  0.14776820273E+03  0.23874129362E+04  0.24406179210E+04  0.10100000352E+00 0. -1.
</event>
<event>
 5   0  0.6351753E-07  0.3319567E+04  0.7818609E-02  0.8157934E-01
        2   -1    0    0  501    0  0.00000000000E+00  0.00000000000E+00  0.11644222603E+04  0.11644222603E+04  0.25500000920E-02 0. -1.
       -2   -1    0    0    0  501  0.00000000000E+00  0.00000000000E+00 -0.23658783273E+04  0.23658783273E+04  0.25500000920E-02 0.  1.
    10030    2    1    2    0    0  0.00000000000E+00  0.00000000000E+00 -0.12014560671E+04  0.35303005876E+04  0.33195670739E+04 0.  0.
        3    1    3    3  502    0  0.69578339168E+03  0.58133142104E+03  0.87778791291E+03  0.12619716239E+04  0.10100000352E+00 0. -1.
       -3    1    3    3    0  502 -0.69578339168E+03 -0.58133142104E+03 -0.20792439800E+04  0.22683289637E+04  0.10100000352E+00 0.  1.
</event>
<event>
 5   0  0.2037333E-07  0.3294150E+04  0.7818609E-02  0.8164385E-01
        1   -1    0    0  501    0  0.00000000000E+00  0.00000000000E+00  0.23029527856E+04  0.23029527856E+04  0.50400001928E-02 0. -1.
       -1   -1    0    0    0  501  0.00000000000E+00  0.00000000000E+00 -0.11779905659E+04  0.11779905659E+04  0.50400001928E-02 0.  1.
    10030    2    1    2    0    0  0.00000000000E+00  0.00000000000E+00  0.11249622197E+04  0.34809433515E+04  0.32941503640E+04 0.  0.
        3    1    3    3  502    0  0.11654027333E+04  0.19730655410E+03  0.17745921609E+04  0.21321985730E+04  0.10100000352E+00 0. -1.
       -3    1    3    3    0  502 -0.11654027333E+04 -0.19730655410E+03 -0.64962994114E+03  0.13487447785E+04  0.10100000352E+00 0.  1.
</event>
<event>
 5   0  0.2080828E-07  0.3308104E+04  0.7818609E-02  0.8160836E-01
        1   -1    0    0  501    0  0.00000000000E+00  0.00000000000E+00  0.15975317522E+04  0.15975317522E+04  0.50400001928E-02 0. -1.
       -1   -1    0    0    0  501  0.00000000000E+00  0.00000000000E+00 -0.17125716429E+04  0.17125716429E+04  0.50400001928E-02 0.  1.
    10030    2    1    2    0    0  0.00000000000E+00  0.00000000000E+00 -0.11503989076E+03  0.33101033951E+04  0.33081037333E+04 0.  0.
        1    1    3    3  502    0  0.13522807930E+04  0.13507847355E+03 -0.10009461973E+04  0.16878396924E+04  0.50400001928E-02 0.  1.
       -1    1    3    3    0  502 -0.13522807930E+04 -0.13507847355E+03  0.88590630655E+03  0.16222637028E+04  0.50400001928E-02 0. -1.
</event>
<event>
 5   0  0.6377741E-07  0.3288691E+04  0.7818609E-02  0.8165779E-01
       -2   -1    0    0    0  501  0.00000000000E+00  0.00000000000E+00  0.22232584851E+04  0.22232584851E+04  0.25500000920E-02 0. -1.
        2   -1    0    0  501    0  0.00000000000E+00  0.00000000000E+00 -0.12161754890E+04  0.12161754890E+04  0.25500000920E-02 0.  1.
    10030    2    1    2    0    0  0.00000000000E+00  0.00000000000E+00  0.10070829960E+04  0.34394339741E+04  0.32886912141E+04 0.  0.
        1    1    3    3  502    0 -0.39104226115E+03 -0.67670014450E+03 -0.10095045982E+04  0.12766897311E+04  0.50400001928E-02 0.  1.
       -1    1    3    3    0  502  0.39104226115E+03  0.67670014450E+03  0.20165875943E+04  0.21627442431E+04  0.50400001928E-02 0. -1.
</event>
<event>
 5   0  0.2037333E-07  0.3302663E+04  0.7818609E-02  0.8162218E-01
        1   -1    0    0  501    0  0.00000000000E+00  0.00000000000E+00  0.14521239028E+04  0.14521239028E+04  0.50400001928E-02 0. -1.
       -1   -1    0    0    0  501  0.00000000000E+00  0.00000000000E+00 -0.18778670646E+04  0.18778670646E+04  0.50400001928E-02 0.  1.
    10030    2    1    2    0    0  0.00000000000E+00  0.00000000000E+00 -0.42574316179E+03  0.33299909674E+04  0.33026629563E+04 0.  0.
        3    1    3    3  502    0 -0.31393240921E+03 -0.35296855470E+03 -0.18082905062E+04  0.18689716218E+04  0.10100000352E+00 0.  1.
       -3    1    3    3    0  502  0.31393240921E+03  0.35296855470E+03  0.13825473444E+04  0.14610193455E+04  0.10100000352E+00 0. -1.
</event>
<event>
 5   0  0.2037333E-07  0.3352866E+04  0.7818609E-02  0.8149572E-01
       -1   -1    0    0    0  501  0.00000000000E+00  0.00000000000E+00  0.11548138567E+04  0.11548138567E+04  0.50400001928E-02 0.  1.
        1   -1    0    0  501    0  0.00000000000E+00  0.00000000000E+00 -0.24336633507E+04  0.24336633507E+04  0.50400001928E-02 0. -1.
    10030    2    1    2    0    0  0.00000000000E+00  0.00000000000E+00 -0.12788494940E+04  0.35884772074E+04  0.33528663319E+04 0.  0.
        3    1    3    3  502    0  0.79010032384E+03 -0.23010871431E+03 -0.22026146303E+04  0.23513229812E+04  0.10100000352E+00 0. -1.
       -3    1    3    3    0  502 -0.79010032384E+03  0.23010871431E+03  0.92376513627E+03  0.12371542262E+04  0.10100000352E+00 0.  1.
</event>
<event>
 5   0  0.6351753E-07  0.3296003E+04  0.7818609E-02  0.8163913E-01
       -2   -1    0    0    0  501  0.00000000000E+00  0.00000000000E+00  0.17014241703E+04  0.17014241703E+04  0.25500000920E-02 0.  1.
        2   -1    0    0  501    0  0.00000000000E+00  0.00000000000E+00 -0.15962558684E+04  0.15962558684E+04  0.25500000920E-02 0. -1.
    10030    2    1    2    0    0  0.00000000000E+00  0.00000000000E+00  0.10516830190E+03  0.32976800387E+04  0.32960026193E+04 0.  0.
        3    1    3    3  502    0 -0.12218813880E+04  0.86303224293E+03 -0.63920792431E+03  0.16267776613E+04  0.10100000352E+00 0. -1.
       -3    1    3    3    0  502  0.12218813880E+04 -0.86303224293E+03  0.74437622622E+03  0.16709023774E+04  0.10100000352E+00 0.  1.
</event>
<event>
 5   0  0.6258718E-07  0.3299855E+04  0.7818609E-02  0.8162932E-01
       -2   -1    0    0    0  501  0.00000000000E+00  0.00000000000E+00  0.15609775744E+04  0.15609775744E+04  0.25500000920E-02 0.  1.
        2   -1    0    0  501    0  0.00000000000E+00  0.00000000000E+00 -0.17439459161E+04  0.17439459161E+04  0.25500000920E-02 0. -1.
    10030    2    1    2    0    0  0.00000000000E+00  0.00000000000E+00 -0.18296834174E+03  0.33049234906E+04  0.32998548247E+04 0.  0.
        5    1    3    3  502    0  0.16122515962E+04  0.32940579124E+03 -0.21156408621E+03  0.16591096520E+04  0.46999998093E+01 0. -1.
       -5    1    3    3    0  502 -0.16122515962E+04 -0.32940579124E+03  0.28595744467E+02  0.16458138386E+04  0.46999998093E+01 0.  1.
</event>
<event>
 5   0  0.6424183E-07  0.3294763E+04  0.7818609E-02  0.8164229E-01
       -2   -1    0    0    0  501  0.00000000000E+00  0.00000000000E+00  0.96117766039E+03  0.96117766039E+03  0.25500000920E-02 0.  1.
        2   -1    0    0  501    0  0.00000000000E+00  0.00000000000E+00 -0.28234792460E+04  0.28234792460E+04  0.25500000920E-02 0. -1.
    10030    2    1    2    0    0  0.00000000000E+00  0.00000000000E+00 -0.18623015856E+04  0.37846569064E+04  0.32947626172E+04 0.  0.
        2    1    3    3  502    0  0.68641533138E+03 -0.13669178908E+04 -0.22844362671E+03  0.15465500373E+04  0.25500000920E-02 0.  1.
       -2    1    3    3    0  502 -0.68641533138E+03  0.13669178908E+04 -0.16338579589E+04  0.22381068691E+04  0.25500000920E-02 0. -1.
</event>
<event>
 5   0  0.6424183E-07  0.3293956E+04  0.7818609E-02  0.8164435E-01
        2   -1    0    0  501    0  0.00000000000E+00  0.00000000000E+00  0.91839358920E+03  0.91839358920E+03  0.25500000920E-02 0.  1.
       -2   -1    0    0    0  501  0.00000000000E+00  0.00000000000E+00 -0.29535669107E+04  0.29535669107E+04  0.25500000920E-02 0. -1.
    10030    2    1    2    0    0  0.00000000000E+00  0.00000000000E+00 -0.20351733215E+04  0.38719604999E+04  0.32939562329E+04 0.  0.
        2    1    3    3  502    0  0.13528367524E+04 -0.56523903608E+03 -0.13568762222E+03  0.14724379707E+04  0.25500000920E-02 0.  1.
       -2    1    3    3    0  502 -0.13528367524E+04  0.56523903608E+03 -0.18994856993E+04  0.23995225292E+04  0.25500000920E-02 0. -1.
</event>
<event>
 5   0  0.6351753E-07  0.3295225E+04  0.7818609E-02  0.8164111E-01
        2   -1    0    0  501    0  0.00000000000E+00  0.00000000000E+00  0.33083438752E+04  0.33083438753E+04  0.25500000920E-02 0.  1.
       -2   -1    0    0    0  501  0.00000000000E+00  0.00000000000E+00 -0.82053974968E+03  0.82053974969E+03  0.25500000920E-02 0. -1.
    10030    2    1    2    0    0  0.00000000000E+00  0.00000000000E+00  0.24878041256E+04  0.41288836249E+04  0.32952254280E+04 0.  0.
        3    1    3    3  502    0  0.45206802301E+03 -0.16195215986E+03  0.32187162971E+04  0.32543399655E+04  0.10100000352E+00 0.  1.
       -3    1    3    3    0  502 -0.45206802301E+03  0.16195215986E+03 -0.73091217156E+03  0.87454365943E+03  0.10100000352E+00 0. -1.
</event>
<event>
 5   0  0.2057130E-07  0.3307236E+04  0.7818609E-02  0.8161057E-01
       -1   -1    0    0    0  501  0.00000000000E+00  0.00000000000E+00  0.16292753241E+04  0.16292753241E+04  0.50400001928E-02 0. -1.
        1   -1    0    0  501    0  0.00000000000E+00  0.00000000000E+00 -0.16783239357E+04  0.16783239357E+04  0.50400001928E-02 0.  1.
    10030    2    1    2    0    0  0.00000000000E+00  0.00000000000E+00 -0.49048611650E+02  0.33075992598E+04  0.33072355672E+04 0.  0.
        2    1    3    3  502    0 -0.57143483281E+03 -0.13257791218E+04 -0.83097749274E+03  0.16657585784E+04  0.25500000920E-02 0.  1.
       -2    1    3    3    0  502  0.57143483281E+03  0.13257791218E+04  0.78192888109E+03  0.16418406814E+04  0.25500000920E-02 0. -1.
</event>
<event>
 5   0  0.6377741E-07  0.3150379E+04  0.7818609E-02  0.8202046E-01
       -2   -1    0    0    0  501  0.00000000000E+00  0.00000000000E+00  0.10492855441E+04  0.10492855441E+04  0.25500000920E-02 0.  1.
        2   -1    0    0  501    0  0.00000000000E+00  0.00000000000E+00 -0.23646771841E+04  0.23646771841E+04  0.25500000920E-02 0. -1.
    10030    2    1    2    0    0  0.00000000000E+00  0.00000000000E+00 -0.13153916400E+04  0.34139627282E+04  0.31503787618E+04 0.  0.
        1    1    3    3  502    0 -0.51643929854E+03 -0.39163974602E+03  0.89808614636E+03  0.11075423089E+04  0.50400001928E-02 0.  1.
       -1    1    3    3    0  502  0.51643929854E+03  0.39163974602E+03 -0.22134777863E+04  0.23064204192E+04  0.50400001928E-02 0. -1.
</event>
<event>
 5   0  0.2037333E-07  0.3311233E+04  0.7818609E-02  0.8160043E-01
        1   -1    0    0  501    0  0.00000000000E+00  0.00000000000E+00  0.28887740465E+04  0.28887740465E+04  0.50400001928E-02 0. -1.
       -1   -1    0    0    0  501  0.00000000000E+00  0.00000000000E+00 -0.94886811398E+03  0.94886811399E+03  0.50400001928E-02 0.  1.
    10030    2    1    2    0    0  0.00000000000E+00  0.00000000000E+00  0.19399059325E+04  0.38376421605E+04  0.33112327500E+04 0.  0.
        3    1    3    3  502    0 -0.15476088620E+04 -0.30191809191E+03  0.38490740479E+03  0.16230839302E+04  0.10100000352E+00 0.  1.
       -3    1    3    3    0  502  0.15476088620E+04  0.30191809191E+03  0.15549985277E+04  0.22145582303E+04  0.10100000352E+00 0. -1.
</event>
<event>
 5   0  0.2037333E-07  0.3290760E+04  0.7818609E-02  0.8165250E-01
       -1   -1    0    0    0  501  0.00000000000E+00  0.00000000000E+00  0.26550557258E+04  0.26550557258E+04  0.50400001928E-02 0. -1.
        1   -1    0    0  501    0  0.00000000000E+00  0.00000000000E+00 -0.10196680426E+04  0.10196680426E+04  0.50400001928E-02 0.  1.
    10030    2    1    2    0    0  0.00000000000E+00  0.00000000000E+00  0.16353876832E+04  0.36747237684E+04  0.32907600793E+04 0.  0.
        3    1    3    3  502    0 -0.10997483364E+04 -0.96910272334E+03  0.16523464490E+04  0.22088130952E+04  0.10100000352E+00 0. -1.
       -3    1    3    3    0  502  0.10997483364E+04  0.96910272334E+03 -0.16958765812E+02  0.14659106732E+04  0.10100000352E+00 0.  1.
</event>
<event>
 5   0  0.2080770E-07  0.3294319E+04  0.7818609E-02  0.8164342E-01
       -1   -1    0    0    0  501  0.00000000000E+00  0.00000000000E+00  0.17549604580E+04  0.17549604580E+04  0.50400001928E-02 0. -1.
        1   -1    0    0  501    0  0.00000000000E+00  0.00000000000E+00 -0.15459806778E+04  0.15459806778E+04  0.50400001928E-02 0.  1.
    10030    2    1    2    0    0  0.00000000000E+00  0.00000000000E+00  0.20897978018E+03  0.33009411358E+04  0.32943193278E+04 0.  0.
        4    1    3    3  502    0 -0.11050596660E+04  0.21481683553E+03 -0.11003538694E+04  0.15741929326E+04  0.12699999809E+01 0.  1.
       -4    1    3    3    0  502  0.11050596660E+04 -0.21481683553E+03  0.13093336496E+04  0.17267482032E+04  0.12699999809E+01 0. -1.
</event>
<event>
 5   0  0.6426079E-07  0.3435405E+04  0.7818609E-02  0.8129271E-01
        2   -1    0    0  501    0  0.00000000000E+00  0.00000000000E+00  0.22440419263E+04  0.22440419263E+04  0.25500000920E-02 0. -1.
       -2   -1    0    0    0  501  0.00000000000E+00  0.00000000000E+00 -0.13148160829E+04  0.13148160829E+04  0.25500000920E-02 0.  1.
    10030    2    1    2    0    0  0.00000000000E+00  0.00000000000E+00  0.92922584342E+03  0.35588580093E+04  0.34354053126E+04 0.  0.
        4    1    3    3  502    0  0.10957797362E+04 -0.70326539552E+03  0.16252237279E+04  0.20824671007E+04  0.12699999809E+01 0. -1.
       -4    1    3    3    0  502 -0.10957797362E+04  0.70326539552E+03 -0.69599788445E+03  0.14763909086E+04  0.12699999809E+01 0.  1.
</event>
<event>
 5   0  0.2037333E-07  0.3290618E+04  0.7818609E-02  0.8165287E-01
       -1   -1    0    0    0  501  0.00000000000E+00  0.00000000000E+00  0.14765513439E+04  0.14765513439E+04  0.50400001928E-02 0.  1.
        1   -1    0    0  501    0  0.00000000000E+00  0.00000000000E+00 -0.18333540353E+04  0.18333540354E+04  0.50400001928E-02 0. -1.
    10030    2    1    2    0    0  0.00000000000E+00  0.00000000000E+00 -0.35680269140E+03  0.33099053793E+04  0.32906177930E+04 0.  0.
        3    1    3    3  502    0 -0.10492914429E+04  0.11966347126E+04 -0.59809294127E+03  0.17001947959E+04  0.10100000352E+00 0.  1.
       -3    1    3    3    0  502  0.10492914429E+04 -0.11966347126E+04  0.24129024986E+03  0.16097105834E+04  0.10100000352E+00 0. -1.
</event>
<event>
 5   0  0.6258718E-07  0.3273348E+04  0.7818609E-02  0.8169710E-01
       -2   -1    0    0    0  501  0.00000000000E+00  0.00000000000E+00  0.82223388549E+03  0.82223388550E+03  0.25500000920E-02 0.  1.
        2   -1    0    0  501    0  0.00000000000E+00  0.00000000000E+00 -0.32578347593E+04  0.32578347593E+04  0.25500000920E-02 0. -1.
    10030    2    1    2    0    0  0.00000000000E+00  0.00000000000E+00 -0.24356008738E+04  0.40800686448E+04  0.32733482139E+04 0.  0.
        5    1    3    3  502    0 -0.88630941672E+03 -0.34792256831E+03 -0.28770725121E+04  0.30305383722E+04  0.46999998093E+01 0. -1.
       -5    1    3    3    0  502  0.88630941672E+03  0.34792256831E+03  0.44147163826E+03  0.10495302726E+04  0.46999998093E+01 0.  1.
</event>
<event>
 5   0  0.2037333E-07  0.3281542E+04  0.7818609E-02  0.8167608E-01
        1   -1    0    0  501    0  0.00000000000E+00  0.00000000000E+00  0.31469719054E+04  0.31469719054E+04  0.50400001928E-02 0.  1.
       -1   -1    0    0    0  501  0.00000000000E+00  0.00000000000E+00 -0.85546662332E+03  0.85546662334E+03  0.50400001928E-02 0. -1.
    10030    2    1    2    0    0  0.00000000000E+00  0.00000000000E+00  0.22915052821E+04  0.40024385287E+04  0.32815419727E+04 0.  0.
        3    1    3    3  502    0 -0.85387225317E+03  0.59599016675E+03 -0.40080605908E+03  0.11157722038E+04  0.10100000352E+00 0. -1.
       -3    1    3    3    0  502  0.85387225317E+03 -0.59599016675E+03  0.26923113411E+04  0.28866663249E+04  0.10100000352E+00 0.  1.
</event>
<event>
 5   0  0.6377741E-07  0.3364777E+04  0.7818609E-02  0.8146606E-01
        2   -1    0    0  501    0  0.00000000000E+00  0.00000000000E+00  0.10856707463E+04  0.10856707463E+04  0.25500000920E-02 0. -1.
       -2   -1    0    0    0  501  0.00000000000E+00  0.00000000000E+00 -0.26070802032E+04  0.26070802032E+04  0.25500000920E-02 0.  1.
    10030    2    1    2    0    0  0.00000000000E+00  0.00000000000E+00 -0.15214094568E+04  0.36927509495E+04  0.33647767890E+04 0.  0.
        1    1    3    3  502    0 -0.14167053783E+04 -0.36753531444E+03 -0.16712066543E+04  0.22215012981E+04  0.50400001928E-02 0.  1.
       -1    1    3    3    0  502  0.14167053783E+04  0.36753531444E+03  0.14979719743E+03  0.14712496514E+04  0.50400001928E-02 0. -1.
</event>
<event>
 5   0  0.2037333E-07  0.3259551E+04  0.7818609E-02  0.8173265E-01
       -1   -1    0    0    0  501  0.00000000000E+00  0.00000000000E+00  0.10973356430E+04  0.10973356431E+04  0.50400001928E-02 0. -1.
        1   -1    0    0  501    0  0.00000000000E+00  0.00000000000E+00 -0.24205611664E+04  0.24205611664E+04  0.50400001928E-02 0.  1.
    10030    2    1    2    0    0  0.00000000000E+00  0.00000000000E+00 -0.13232255233E+04  0.35178968094E+04  0.32595509163E+04 0.  0.
        3    1    3    3  502    0  0.14537987378E+04  0.47123721478E+03 -0.12726794776E+04  0.19887957024E+04  0.10100000352E+00 0.  1.
       -3    1    3    3    0  502 -0.14537987378E+04 -0.47123721478E+03 -0.50546045701E+02  0.15291011071E+04  0.10100000352E+00 0. -1.
</event>
<event>
 5   0  0.6258718E-07  0.3291089E+04  0.7818609E-02  0.8165167E-01
       -2   -1    0    0    0  501  0.00000000000E+00  0.00000000000E+00  0.27877829092E+04  0.27877829092E+04  0.25500000920E-02 0.  1.
        2   -1    0    0  501    0  0.00000000000E+00  0.00000000000E+00 -0.97131535212E+03  0.97131535212E+03  0.25500000920E-02 0. -1.
    10030    2    1    2    0    0  0.00000000000E+00  0.00000000000E+00  0.18164675571E+04  0.37590982613E+04  0.32910887792E+04 0.  0.
        5    1    3    3  502    0  0.34485976395E+03  0.15802888378E+04  0.56262815710E+03  0.17125459413E+04  0.46999998093E+01 0. -1.
       -5    1    3    3    0  502 -0.34485976395E+03 -0.15802888378E+04  0.12538394000E+04  0.20465523201E+04  0.46999998093E+01 0.  1.
</event>
<event>
 5   0  0.6351753E-07  0.3309921E+04  0.7818609E-02  0.8160376E-01
       -2   -1    0    0    0  501  0.00000000000E+00  0.00000000000E+00  0.16657880587E+04  0.16657880587E+04  0.25500000920E-02 0. -1.
        2   -1    0    0  501    0  0.00000000000E+00  0.00000000000E+00 -0.16442034253E+04  0.16442034253E+04  0.25500000920E-02 0.  1.
    10030    2    1    2    0    0  0.00000000000E+00  0.00000000000E+00  0.21584633425E+02  0.33099914841E+04  0.33099211060E+04 0.  0.
        3    1    3    3  502    0  0.76326607572E+03 -0.47200443419E+03 -0.13797519504E+04  0.16459279277E+04  0.10100000352E+00 0.  1.
       -3    1    3    3    0  502 -0.76326607572E+03  0.47200443419E+03  0.14013365838E+04  0.16640635564E+04  0.10100000352E+00 0. -1.
</event>
<event>
 5   0  0.6351753E-07  0.3299735E+04  0.7818609E-02  0.8162963E-01
       -2   -1    0    0    0  501  0.00000000000E+00  0.00000000000E+00  0.19550312170E+04  0.19550312170E+04  0.25500000920E-02 0.  1.
        2   -1    0    0  501    0  0.00000000000E+00  0.00000000000E+00 -0.13923374183E+04  0.13923374183E+04  0.25500000920E-02 0. -1.
    10030    2    1    2    0    0  0.00000000000E+00  0.00000000000E+00  0.56269379872E+03  0.33473686353E+04  0.32997352121E+04 0.  0.
        3    1    3    3  502    0  0.11799672615E+04 -0.11328574966E+04  0.49980238437E+03  0.17104067585E+04  0.10100000352E+00 0. -1.
       -3    1    3    3    0  502 -0.11799672615E+04  0.11328574966E+04  0.62891414342E+02  0.16369618768E+04  0.10100000352E+00 0.  1.
</event>
<event>
 5   0  0.2080828E-07  0.3345130E+04  0.7818609E-02  0.8151506E-01
       -1   -1    0    0    0  501  0.00000000000E+00  0.00000000000E+00  0.16546119035E+04  0.16546119035E+04  0.50400001928E-02 0. -1.
        1   -1    0    0  501    0  0.00000000000E+00  0.00000000000E+00 -0.16907128308E+04  0.16907128308E+04  0.50400001928E-02 0.  1.
    10030    2    1    2    0    0  0.00000000000E+00  0.00000000000E+00 -0.36100927309E+02  0.33453247344E+04  0.33451299379E+04 0.  0.
        1    1    3    3  502    0 -0.14774505462E+03  0.13619128620E+04  0.94160863190E+03  0.16623062475E+04  0.50400001928E-02 0. -1.
       -1    1    3    3    0  502  0.14774505462E+03 -0.13619128620E+04 -0.97770955921E+03  0.16830184869E+04  0.50400001928E-02 0.  1.
</event>
<event>
 5   0  0.2080770E-07  0.3296365E+04  0.7818609E-02  0.8163821E-01
        1   -1    0    0  501    0  0.00000000000E+00  0.00000000000E+00  0.21664604382E+04  0.21664604382E+04  0.50400001928E-02 0.  1.
       -1   -1    0    0    0  501  0.00000000000E+00  0.00000000000E+00 -0.12538912362E+04  0.12538912362E+04  0.50400001928E-02 0. -1.
    10030    2    1    2    0    0  0.00000000000E+00  0.00000000000E+00  0.91256920203E+03  0.34203516744E+04  0.32963651236E+04 0.  0.
        4    1    3    3  502    0 -0.11313137683E+04  0.71948538505E+03  0.14509730687E+04  0.19755643550E+04  0.12699999809E+01 0.  1.
       -4    1    3    3    0  502  0.11313137683E+04 -0.71948538505E+03 -0.53840386671E+03  0.14447873194E+04  0.12699999809E+01 0. -1.
</event>
<event>
 5   0  0.2080828E-07  0.3310607E+04  0.7818609E-02  0.8160202E-01
        1   -1    0    0  501    0  0.00000000000E+00  0.00000000000E+00  0.15302332021E+04  0.15302332021E+04  0.50400001928E-02 0. -1.
       -1   -1    0    0    0  501  0.00000000000E+00  0.00000000000E+00 -0.17905957455E+04  0.17905957455E+04  0.50400001928E-02 0.  1.
    10030    2    1    2    0    0  0.00000000000E+00  0.00000000000E+00 -0.26036254338E+03  0.33208289476E+04  0.33106066279E+04 0.  0.
        1    1    3    3  502    0  0.27537648329E+03  0.13350468932E+04  0.81178523248E+03  0.15865615899E+04  0.50400001928E-02 0. -1.
       -1    1    3    3    0  502 -0.27537648329E+03 -0.13350468932E+04 -0.10721477759E+04  0.17342673577E+04  0.50400001928E-02 0.  1.
</event>
<event>
 5   0  0.1994250E-07  0.3285179E+04  0.7818609E-02  0.8166677E-01
       -3   -1    0    0    0  501  0.00000000000E+00  0.00000000000E+00  0.19937608623E+04  0.19937608649E+04  0.10100000352E+00 0. -1.
        3   -1    0    0  501    0  0.00000000000E+00  0.00000000000E+00 -0.13532719246E+04  0.13532719284E+04  0.10100000352E+00 0.  1.
    10030    2    1    2    0    0  0.00000000000E+00  0.00000000000E+00  0.64048893771E+03  0.33470327932E+04  0.32851792097E+04 0.  0.
        5    1    3    3  502    0 -0.15706752964E+04 -0.86388287923E+02 -0.16151654406E+03  0.15813265023E+04  0.46999998093E+01 0. -1.
       -5    1    3    3    0  502  0.15706752964E+04  0.86388287923E+02  0.80200548177E+03  0.17657062909E+04  0.46999998093E+01 0.  1.
</event>
<event>
 5   0  0.2087665E-07  0.3299924E+04  0.7818609E-02  0.8162915E-01
       -1   -1    0    0    0  501  0.00000000000E+00  0.00000000000E+00  0.21195077680E+04  0.21195077680E+04  0.50400001928E-02 0. -1.
        1   -1    0    0  501    0  0.00000000000E+00  0.00000000000E+00 -0.12844370514E+04  0.12844370514E+04  0.50400001928E-02 0.  1.
    10030    2    1    2    0    0  0.00000000000E+00  0.00000000000E+00  0.83507071655E+03  0.34039448194E+04  0.32999238222E+04 0.  0.
        5    1    3    3  502    0  0.73958133960E+03 -0.95249200726E+03 -0.74407531575E+03  0.14170009694E+04  0.46999998093E+01 0.  1.
       -5    1    3    3    0  502 -0.73958133960E+03  0.95249200726E+03  0.15791460323E+04  0.19869438500E+04  0.46999998093E+01 0. -1.
</event>
<event>
 5   0  0.2080770E-07  0.3298707E+04  0.7818609E-02  0.8163224E-01
       -1   -1    0    0    0  501  0.00000000000E+00  0.00000000000E+00  0.96947810952E+03  0.96947810953E+03  0.50400001928E-02 0.  1.
        1   -1    0    0  501    0  0.00000000000E+00  0.00000000000E+00 -0.28060118070E+04  0.28060118070E+04  0.50400001928E-02 0. -1.
    10030    2    1    2    0    0  0.00000000000E+00  0.00000000000E+00 -0.18365336975E+04  0.37754899166E+04  0.32987070328E+04 0.  0.
        4    1    3    3  502    0 -0.37307912115E+03 -0.61532334740E+02  0.91920094124E+03  0.99393472730E+03  0.12699999809E+01 0.  1.
       -4    1    3    3    0  502  0.37307912115E+03  0.61532334740E+02 -0.27557346387E+04  0.27815551893E+04  0.12699999809E+01 0. -1.
</event>
<event>
 5   0  0.2057130E-07  0.3434682E+04  0.7818609E-02  0.8129446E-01
       -1   -1    0    0    0  501  0.00000000000E+00  0.00000000000E+00  0.18780073901E+04  0.18780073901E+04  0.50400001928E-02 0. -1.
        1   -1    0    0  501    0  0.00000000000E+00  0.00000000000E+00 -0.15704202132E+04  0.15704202132E+04  0.50400001928E-02 0.  1.
    10030    2    1    2    0    0  0.00000000000E+00  0.00000000000E+00  0.30758717692E+03  0.34484276034E+04  0.34346823819E+04 0.  0.
        2    1    3    3  502    0 -0.16772196975E+04  0.51075337382E+02 -0.21316348826E+03  0.16914825676E+04  0.25500000920E-02 0. -1.
       -2    1    3    3    0  502  0.16772196975E+04 -0.51075337382E+02  0.52075066517E+03  0.17569450358E+04  0.25500000920E-02 0.  1.
</event>
<event>
 5   0  0.6424183E-07  0.3326005E+04  0.7818609E-02  0.8156310E-01
        2   -1    0    0  501    0  0.00000000000E+00  0.00000000000E+00  0.19534477196E+04  0.19534477196E+04  0.25500000920E-02 0. -1.
       -2   -1    0    0    0  501  0.00000000000E+00  0.00000000000E+00 -0.14157419766E+04  0.14157419766E+04  0.25500000920E-02 0.  1.
    10030    2    1    2    0    0  0.00000000000E+00  0.00000000000E+00  0.53770574300E+03  0.33691896962E+04  0.33260053732E+04 0.  0.
        2    1    3    3  502    0  0.58919753967E+03  0.38703207932E+02 -0.13059790789E+04  0.14332595834E+04  0.25500000920E-02 0.  1.
       -2    1    3    3    0  502 -0.58919753967E+03 -0.38703207932E+02  0.18436848219E+04  0.19359301127E+04  0.25500000920E-02 0. -1.
</event>
<event>
 5   0  0.2087665E-07  0.3290842E+04  0.7818609E-02  0.8165230E-01
       -1   -1    0    0    0  501  0.00000000000E+00  0.00000000000E+00  0.23805774618E+04  0.23805774618E+04  0.50400001928E-02 0. -1.
        1   -1    0    0  501    0  0.00000000000E+00  0.00000000000E+00 -0.11372915213E+04  0.11372915213E+04  0.50400001928E-02 0.  1.
    10030    2    1    2    0    0  0.00000000000E+00  0.00000000000E+00  0.12432859405E+04  0.35178689830E+04  0.32908421798E+04 0.  0.
        5    1    3    3  502    0  0.14282996346E+04  0.41995718588E+03  0.13706856015E+04  0.20236612840E+04  0.46999998093E+01 0. -1.
       -5    1    3    3    0  502 -0.14282996346E+04 -0.41995718588E+03 -0.12739966101E+03  0.14942076990E+04  0.46999998093E+01 0.  1.
</event>
<event>
 5   0  0.2037333E-07  0.3308933E+04  0.7818609E-02  0.8160626E-01
       -1   -1    0    0    0  501  0.00000000000E+00  0.00000000000E+00  0.10535325503E+04  0.10535325503E+04  0.50400001928E-02 0.  1.
        1   -1    0    0  501    0  0.00000000000E+00  0.00000000000E+00 -0.25981733466E+04  0.25981733466E+04  0.50400001928E-02 0. -1.
    10030    2    1    2    0    0  0.00000000000E+00  0.00000000000E+00 -0.15446407964E+04  0.36517058969E+04  0.33089334789E+04 0.  0.
        3    1    3    3  502    0  0.12513043134E+04 -0.10662008550E+04 -0.56670456977E+03  0.17388791872E+04  0.10100000352E+00 0.  1.
       -3    1    3    3    0  502 -0.12513043134E+04  0.10662008550E+04 -0.97793622659E+03  0.19128267097E+04  0.10100000352E+00 0. -1.
</event>
<event>
 5   0  0.6424183E-07  0.3300231E+04  0.7818609E-02  0.8162837E-01
        2   -1    0    0  501    0  0.00000000000E+00  0.00000000000E+00  0.26546675197E+04  0.26546675197E+04  0.25500000920E-02 0. -1.
       -2   -1    0    0    0  501  0.00000000000E+00  0.00000000000E+00 -0.10256956236E+04  0.10256956236E+04  0.25500000920E-02 0.  1.
    10030    2    1    2    0    0  0.00000000000E+00  0.00000000000E+00  0.16289718961E+04  0.36803631433E+04  0.33002308145E+04 0.  0.
        2    1    3    3  502    0 -0.69627969817E+03  0.39592248100E+03  0.24233371266E+04  0.25522779743E+04  0.25500000920E-02 0. -1.
       -2    1    3    3    0  502  0.69627969817E+03 -0.39592248100E+03 -0.79436523055E+03  0.11280851690E+04  0.25500000920E-02 0.  1.
</event>
<event>
 5   0  0.2057130E-07  0.3298222E+04  0.7818609E-02  0.8163348E-01
        1   -1    0    0  501    0  0.00000000000E+00  0.00000000000E+00  0.24266746118E+04  0.24266746118E+04  0.50400001928E-02 0.  1.
       -1   -1    0    0    0  501  0.00000000000E+00  0.00000000000E+00 -0.11206972253E+04  0.11206972253E+04  0.50400001928E-02 0. -1.
    10030    2    1    2    0    0  0.00000000000E+00  0.00000000000E+00  0.13059773865E+04  0.35473718371E+04  0.32982222509E+04 0.  0.
        2    1    3    3  502    0 -0.36323874340E+02 -0.40404552723E+03  0.23721706666E+04  0.24066087931E+04  0.25500000920E-02 0.  1.
       -2    1    3    3    0  502  0.36323874340E+02  0.40404552723E+03 -0.10661932801E+04  0.11407630439E+04  0.25500000920E-02 0. -1.
</event>
<event>
 5   0  0.2087665E-07  0.3299776E+04  0.7818609E-02  0.8162952E-01
       -1   -1    0    0    0  501  0.00000000000E+00  0.00000000000E+00  0.18700950277E+04  0.18700950277E+04  0.50400001928E-02 0.  1.
        1   -1    0    0  501    0  0.00000000000E+00  0.00000000000E+00 -0.14556111049E+04  0.14556111049E+04  0.50400001928E-02 0. -1.
    10030    2    1    2    0    0  0.00000000000E+00  0.00000000000E+00  0.41448392279E+03  0.33257061326E+04  0.32997764103E+04 0.  0.
        5    1    3    3  502    0  0.10615772227E+04  0.91061118138E+03  0.10893049300E+04  0.17727848837E+04  0.46999998093E+01 0.  1.
       -5    1    3    3    0  502 -0.10615772227E+04 -0.91061118138E+03 -0.67482100723E+03  0.15529212489E+04  0.46999998093E+01 0. -1.
</event>
<event>
 5   0  0.6377741E-07  0.3307922E+04  0.7818609E-02  0.8160883E-01
       -2   -1    0    0    0  501  0.00000000000E+00  0.00000000000E+00  0.16174677179E+04  0.16174677179E+04  0.25500000920E-02 0.  1.
        2   -1    0    0  501    0  0.00000000000E+00  0.00000000000E+00 -0.16912773689E+04  0.16912773689E+04  0.25500000920E-02 0. -1.
    10030    2    1    2    0    0  0.00000000000E+00  0.00000000000E+00 -0.73809650968E+02  0.33087450868E+04  0.33079217320E+04 0.  0.
        1    1    3    3  502    0 -0.61257767959E+03  0.13734117315E+04  0.65179785081E+03  0.16390093459E+04  0.50400001928E-02 0. -1.
       -1    1    3    3    0  502  0.61257767959E+03 -0.13734117315E+04 -0.72560750178E+03  0.16697357409E+04  0.50400001928E-02 0.  1.
</event>
<event>
 5   0  0.6424183E-07  0.3307314E+04  0.7818609E-02  0.8161037E-01
       -2   -1    0    0    0  501  0.00000000000E+00  0.00000000000E+00  0.15932690438E+04  0.15932690438E+04  0.25500000920E-02 0.  1.
        2   -1    0    0  501    0  0.00000000000E+00  0.00000000000E+00 -0.17163338475E+04  0.17163338475E+04  0.25500000920E-02 0. -1.
    10030    2    1    2    0    0  0.00000000000E+00  0.00000000000E+00 -0.12306480363E+03  0.33096028913E+04  0.33073140692E+04 0.  0.
        2    1    3    3  502    0 -0.15050077622E+04 -0.46475631915E+03  0.44233844039E+03  0.16360654316E+04  0.25500000920E-02 0.  1.
       -2    1    3    3    0  502  0.15050077622E+04  0.46475631915E+03 -0.56540324403E+03  0.16735374597E+04  0.25500000920E-02 0. -1.
</event>
<event>
 5   0  0.6377741E-07  0.3294142E+04  0.7818609E-02  0.8164388E-01
        2   -1    0    0  501    0  0.00000000000E+00  0.00000000000E+00  0.11348895342E+04  0.11348895342E+04  0.25500000920E-02 0.  1.
       -2   -1    0    0    0  501  0.00000000000E+00  0.00000000000E+00 -0.23904020875E+04  0.23904020875E+04  0.25500000920E-02 0. -1.
    10030    2    1    2    0    0  0.00000000000E+00  0.00000000000E+00 -0.12555125533E+04  0.35252916217E+04  0.32941416555E+04 0.  0.
        1    1    3    3  502    0 -0.84890717550E+03 -0.35666816339E+02  0.88225581157E+03  0.12248635971E+04  0.50400001928E-02 0.  1.
       -1    1    3    3    0  502  0.84890717550E+03  0.35666816339E+02 -0.21377683649E+04  0.23004280246E+04  0.50400001928E-02 0. -1.
</event>
<event>
 5   0  0.6258718E-07  0.3277923E+04  0.7818609E-02  0.8168536E-01
       -2   -1    0    0    0  501  0.00000000000E+00  0.00000000000E+00  0.13023415541E+04  0.13023415541E+04  0.25500000920E-02 0. -1.
        2   -1    0    0  501    0  0.00000000000E+00  0.00000000000E+00 -0.20625890038E+04  0.20625890038E+04  0.25500000920E-02 0.  1.
    10030    2    1    2    0    0  0.00000000000E+00  0.00000000000E+00 -0.76024744972E+03  0.33649305579E+04  0.32779233479E+04 0.  0.
        5    1    3    3  502    0 -0.12509802953E+04 -0.35313273138E+03  0.64463133721E+03  0.14509397217E+04  0.46999998093E+01 0. -1.
       -5    1    3    3    0  502  0.12509802953E+04  0.35313273138E+03 -0.14048787869E+04  0.19139908362E+04  0.46999998093E+01 0.  1.
</event>
<event>
 5   0  0.6426079E-07  0.3312145E+04  0.7818609E-02  0.8159812E-01
        2   -1    0    0  501    0  0.00000000000E+00  0.00000000000E+00  0.19616213885E+04  0.19616213885E+04  0.25500000920E-02 0. -1.
       -2   -1    0    0    0  501  0.00000000000E+00  0.00000000000E+00 -0.13981167983E+04  0.13981167983E+04  0.25500000920E-02 0.  1.
    10030    2    1    2    0    0  0.00000000000E+00  0.00000000000E+00  0.56350459025E+03  0.33597381868E+04  0.33121448128E+04 0.  0.
        4    1    3    3  502    0 -0.19141991961E+03  0.16438112548E+04  0.21908121568E+03  0.16693577265E+04  0.12699999809E+01 0. -1.
       -4    1    3    3    0  502  0.19141991961E+03 -0.16438112548E+04  0.34442337457E+03  0.16903804604E+04  0.12699999809E+01 0.  1.
</event>
<event>
 5   0  0.6377741E-07  0.3298633E+04  0.7818609E-02  0.8163243E-01
       -2   -1    0    0    0  501  0.00000000000E+00  0.00000000000E+00  0.26394513371E+04  0.26394513371E+04  0.25500000920E-02 0. -1.
        2   -1    0    0  501    0  0.00000000000E+00  0.00000000000E+00 -0.10306097657E+04  0.10306097657E+04  0.25500000920E-02 0.  1.
    10030    2    1    2    0    0  0.00000000000E+00  0.00000000000E+00  0.16088415713E+04  0.36700611028E+04  0.32986326404E+04 0.  0.
        1    1    3    3  502    0  0.42302935732E+03  0.70444676302E+03 -0.78665476888E+03  0.11375521107E+04  0.50400001928E-02 0.  1.
       -1    1    3    3    0  502 -0.42302935732E+03 -0.70444676302E+03  0.23954963402E+04  0.25325089921E+04  0.50400001928E-02 0. -1.
</event>
<event>
 5   0  0.2080770E-07  0.3314708E+04  0.7818609E-02  0.8159163E-01
        1   -1    0    0  501    0  0.00000000000E+00  0.00000000000E+00  0.17662972220E+04  0.17662972220E+04  0.50400001928E-02 0.  1.
       -1   -1    0    0    0  501  0.00000000000E+00  0.00000000000E+00 -0.15551298186E+04  0.15551298186E+04  0.50400001928E-02 0. -1.
    10030    2    1    2    0    0  0.00000000000E+00  0.00000000000E+00  0.21116740335E+03  0.33214270406E+04  0.33147075156E+04 0.  0.
        4    1    3    3  502    0  0.11841037250E+04 -0.95075156343E+01  0.12675152768E+04  0.17345860066E+04  0.12699999809E+01 0.  1.
       -4    1    3    3    0  502 -0.11841037250E+04  0.95075156343E+01 -0.10563478735E+04  0.15868410340E+04  0.12699999809E+01 0. -1.
</event>
<event>
 5   0  0.6424183E-07  0.3293494E+04  0.7818609E-02  0.8164553E-01
       -2   -1    0    0    0  501  0.00000000000E+00  0.00000000000E+00  0.11706547278E+04  0.11706547278E+04  0.25500000920E-02 0. -1.
        2   -1    0    0  501    0  0.00000000000E+00  0.00000000000E+00 -0.23164607023E+04  0.23164607023E+04  0.25500000920E-02 0.  1.
    10030    2    1    2    0    0  0.00000000000E+00  0.00000000000E+00 -0.11458059745E+04  0.34871154300E+04  0.32934939944E+04 0.  0.
        2    1    3    3  502    0 -0.35339797775E+03 -0.15098569282E+04 -0.11597602623E+04  0.19363888918E+04  0.25500000920E-02 0.  1.
       -2    1    3    3    0  502  0.35339797775E+03  0.15098569282E+04  0.13954287772E+02  0.15507265382E+04  0.25500000920E-02 0. -1.
</event>
<event>
 5   0  0.6351753E-07  0.3235353E+04  0.7818609E-02  0.8179542E-01
        2   -1    0    0  501    0  0.00000000000E+00  0.00000000000E+00  0.25902318365E+04  0.25902318365E+04  0.25500000920E-02 0. -1.
       -2   -1    0    0    0  501  0.00000000000E+00  0.00000000000E+00 -0.10102868416E+04  0.10102868416E+04  0.25500000920E-02 0.  1.
    10030    2    1    2    0    0  0.00000000000E+00  0.00000000000E+00  0.15799449949E+04  0.36005186782E+04  0.32353529274E+04 0.  0.
        3    1    3    3  502    0 -0.27837205115E+03  0.99578919313E+03  0.21744931108E+04  0.24078013653E+04  0.10100000352E+00 0. -1.
       -3    1    3    3    0  502  0.27837205115E+03 -0.99578919313E+03 -0.59454811588E+03  0.11927173128E+04  0.10100000352E+00 0.  1.
</event>
<event>
 5   0  0.2057130E-07  0.3288643E+04  0.7818609E-02  0.8165791E-01
       -1   -1    0    0    0  501  0.00000000000E+00  0.00000000000E+00  0.26807602714E+04  0.26807602714E+04  0.50400001928E-02 0.  1.
        1   -1    0    0  501    0  0.00000000000E+00  0.00000000000E+00 -0.10085921079E+04  0.10085921079E+04  0.50400001928E-02 0. -1.
    10030    2    1    2    0    0  0.00000000000E+00  0.00000000000E+00  0.16721681635E+04  0.36893523794E+04  0.32886432783E+04 0.  0.
        2    1    3    3  502    0  0.15463630472E+04 -0.58159251733E+01  0.20893169458E+03  0.15604246063E+04  0.25500000920E-02 0. -1.
       -2    1    3    3    0  502 -0.15463630472E+04  0.58159251733E+01  0.14632364690E+04  0.21289277731E+04  0.25500000920E-02 0.  1.
</event>
<event>
 5   0  0.6377741E-07  0.3476304E+04  0.7818609E-02  0.8119429E-01
       -2   -1    0    0    0  501  0.00000000000E+00  0.00000000000E+00  0.28017432042E+04  0.28017432042E+04  0.25500000920E-02 0.  1.
        2   -1    0    0  501    0  0.00000000000E+00  0.00000000000E+00 -0.10783188862E+04  0.10783188862E+04  0.25500000920E-02 0. -1.
    10030    2    1    2    0    0  0.00000000000E+00  0.00000000000E+00  0.17234243180E+04  0.38800620904E+04  0.34763041359E+04 0.  0.
        1    1    3    3  502    0 -0.10390548137E+04 -0.11512098612E+04 -0.14482559885E+02  0.15508477665E+04  0.50400001928E-02 0.  1.
       -1    1    3    3    0  502  0.10390548137E+04  0.11512098612E+04  0.17379068779E+04  0.23292143239E+04  0.50400001928E-02 0. -1.
</event>
<event>
 5   0  0.2080828E-07  0.3304657E+04  0.7818609E-02  0.8161711E-01
       -1   -1    0    0    0  501  0.00000000000E+00  0.00000000000E+00  0.12738073439E+04  0.12738073440E+04  0.50400001928E-02 0.  1.
        1   -1    0    0  501    0  0.00000000000E+00  0.00000000000E+00 -0.21433305974E+04  0.21433305974E+04  0.50400001928E-02 0. -1.
    10030    2    1    2    0    0  0.00000000000E+00  0.00000000000E+00 -0.86952325344E+03  0.34171379413E+04  0.33046574742E+04 0.  0.
        1    1    3    3  502    0 -0.50767801853E+03 -0.12113976078E+04  0.60184126861E+03  0.14447955037E+04  0.50400001928E-02 0. -1.
       -1    1    3    3    0  502  0.50767801853E+03  0.12113976078E+04 -0.14713645220E+04  0.19723424377E+04  0.50400001928E-02 0.  1.
</event>
<event>
 5   0  0.6424183E-07  0.3287753E+04  0.7818609E-02  0.8166019E-01
       -2   -1    0    0    0  501  0.00000000000E+00  0.00000000000E+00  0.14986786091E+04  0.14986786091E+04  0.25500000920E-02 0. -1.
        2   -1    0    0  501    0  0.00000000000E+00  0.00000000000E+00 -0.18031413354E+04  0.18031413354E+04  0.25500000920E-02 0.  1.
    10030    2    1    2    0    0  0.00000000000E+00  0.00000000000E+00 -0.30446272621E+03  0.33018199445E+04  0.32877526358E+04 0.  0.
        2    1    3    3  502    0  0.97122592059E+03  0.10316858227E+04 -0.98926854497E+03  0.17280936548E+04  0.25500000920E-02 0.  1.
       -2    1    3    3    0  502 -0.97122592059E+03 -0.10316858227E+04  0.68480581876E+03  0.15737262897E+04  0.25500000920E-02 0. -1.
</event>
<event>
 5   0  0.2087665E-07  0.3306795E+04  0.7818609E-02  0.8161168E-01
       -1   -1    0    0    0  501  0.00000000000E+00  0.00000000000E+00  0.10621901197E+04  0.10621901197E+04  0.50400001928E-02 0.  1.
        1   -1    0    0  501    0  0.00000000000E+00  0.00000000000E+00 -0.25736671768E+04  0.25736671768E+04  0.50400001928E-02 0. -1.
    10030    2    1    2    0    0  0.00000000000E+00  0.00000000000E+00 -0.15114770571E+04  0.36358572965E+04  0.33067953348E+04 0.  0.
        5    1    3    3  502    0 -0.29038299468E+03 -0.61388246297E+02 -0.25441296423E+04  0.25613880080E+04  0.46999998093E+01 0. -1.
       -5    1    3    3    0  502  0.29038299468E+03  0.61388246297E+02  0.10326525852E+04  0.10744692886E+04  0.46999998093E+01 0.  1.
</event>
<event>
 5   0  0.6258718E-07  0.3275483E+04  0.7818609E-02  0.8169162E-01
        2   -1    0    0  501    0  0.00000000000E+00  0.00000000000E+00  0.23566136224E+04  0.23566136224E+04  0.25500000920E-02 0. -1.
       -2   -1    0    0    0  501  0.00000000000E+00  0.00000000000E+00 -0.11381575236E+04  0.11381575236E+04  0.25500000920E-02 0.  1.
    10030    2    1    2    0    0  0.00000000000E+00  0.00000000000E+00  0.12184560988E+04  0.34947711459E+04  0.32754831854E+04 0.  0.
        5    1    3    3  502    0 -0.54702497351E+03 -0.15011078932E+04  0.99335048007E+03  0.18813103133E+04  0.46999998093E+01 0. -1.
       -5    1    3    3    0  502  0.54702497351E+03  0.15011078932E+04  0.22510561874E+03  0.16134608326E+04  0.46999998093E+01 0.  1.
</event>
<event>
 5   0  0.2080770E-07  0.3318451E+04  0.7818609E-02  0.8158216E-01
        1   -1    0    0  501    0  0.00000000000E+00  0.00000000000E+00  0.24407294700E+04  0.24407294700E+04  0.50400001928E-02 0.  1.
       -1   -1    0    0    0  501  0.00000000000E+00  0.00000000000E+00 -0.11279536294E+04  0.11279536294E+04  0.50400001928E-02 0. -1.
    10030    2    1    2    0    0  0.00000000000E+00  0.00000000000E+00  0.13127758407E+04  0.35686830994E+04  0.33184512436E+04 0.  0.
        4    1    3    3  502    0  0.10895861098E+04 -0.53393434686E+03 -0.56064900306E+03  0.13366423212E+04  0.12699999809E+01 0. -1.
       -4    1    3    3    0  502 -0.10895861098E+04  0.53393434686E+03  0.18734248437E+04  0.22320407782E+04  0.12699999809E+01 0.  1.
</event>
<event>
 5   0  0.6426079E-07  0.3305705E+04  0.7818609E-02  0.8161445E-01
       -2   -1    0    0    0  501  0.00000000000E+00  0.00000000000E+00  0.16596265777E+04  0.16596265777E+04  0.25500000920E-02 0. -1.
        2   -1    0    0  501    0  0.00000000000E+00  0.00000000000E+00 -0.16461057188E+04  0.16461057188E+04  0.25500000920E-02 0.  1.
    10030    2    1    2    0    0  0.00000000000E+00  0.00000000000E+00  0.13520858898E+02  0.33057322964E+04  0.33057046453E+04 0.  0.
        4    1    3    3  502    0  0.11089674746E+04 -0.63385704001E+03 -0.10422171626E+04  0.16485756985E+04  0.12699999809E+01 0.  1.
       -4    1    3    3    0  502 -0.11089674746E+04  0.63385704001E+03  0.10557380215E+04  0.16571565979E+04  0.12699999809E+01 0. -1.
</event>
<event>
 5   0  0.2080828E-07  0.3293090E+04  0.7818609E-02  0.8164656E-01
        1   -1    0    0  501    0  0.00000000000E+00  0.00000000000E+00  0.14229663523E+04  0.14229663523E+04  0.50400001928E-02 0. -1.
       -1   -1    0    0    0  501  0.00000000000E+00  0.00000000000E+00 -0.19052525942E+04  0.19052525942E+04  0.50400001928E-02 0.  1.
    10030    2    1    2    0    0  0.00000000000E+00  0.00000000000E+00 -0.48228624184E+03  0.33282189465E+04  0.32930899375E+04 0.  0.
        1    1    3    3  502    0  0.19434227413E+03  0.83399384839E+03  0.11802002495E+04  0.14581451531E+04  0.50400001928E-02 0. -1.
       -1    1    3    3    0  502 -0.19434227413E+03 -0.83399384839E+03 -0.16624864913E+04  0.18700737933E+04  0.50400001928E-02 0.  1.
</event>
<event>
 5   0  0.6377741E-07  0.3292661E+04  0.7818609E-02  0.8164765E-01
       -2   -1    0    0    0  501  0.00000000000E+00  0.00000000000E+00  0.15422439571E+04  0.15422439571E+04  0.25500000920E-02 0. -1.
        2   -1    0    0  501    0  0.00000000000E+00  0.00000000000E+00 -0.17574414323E+04  0.17574414323E+04  0.25500000920E-02 0.  1.
    10030    2    1    2    0    0  0.00000000000E+00  0.00000000000E+00 -0.21519747529E+03  0.32996853894E+04  0.32926605831E+04 0.  0.
        1    1    3    3  502    0  0.51303691954E+03  0.29814871471E+03 -0.16465520791E+04  0.17502094978E+04  0.50400001928E-02 0.  1.
       -1    1    3    3    0  502 -0.51303691954E+03 -0.29814871471E+03  0.14313546038E+04  0.15494758916E+04  0.50400001928E-02 0. -1.
</event>
<event>
 5   0  0.2080770E-07  0.3291853E+04  0.7818609E-02  0.8164972E-01
        1   -1    0    0  501    0  0.00000000000E+00  0.00000000000E+00  0.15547056166E+04  0.15547056166E+04  0.50400001928E-02 0.  1.
       -1   -1    0    0    0  501  0.00000000000E+00  0.00000000000E+00 -0.17424995522E+04  0.17424995522E+04  0.50400001928E-02 0. -1.
    10030    2    1    2    0    0  0.00000000000E+00  0.00000000000E+00 -0.18779393566E+03  0.32972051688E+04  0.32918528768E+04 0.  0.
        4    1    3    3  502    0 -0.13543525688E+04 -0.90882637502E+03 -0.31524489138E+03  0.16612095638E+04  0.12699999809E+01 0. -1.
       -4    1    3    3    0  502  0.13543525688E+04  0.90882637502E+03  0.12745095572E+03  0.16359956050E+04  0.12699999809E+01 0.  1.
</event>
<event>
 5   0  0.6351753E-07  0.3286026E+04  0.7818609E-02  0.8166460E-01
       -2   -1    0    0    0  501  0.00000000000E+00  0.00000000000E+00  0.14922191356E+04  0.14922191356E+04  0.25500000920E-02 0.  1.
        2   -1    0    0  501    0  0.00000000000E+00  0.00000000000E+00 -0.18090452806E+04  0.18090452806E+04  0.25500000920E-02 0. -1.
    10030    2    1    2    0    0  0.00000000000E+00  0.00000000000E+00 -0.31682614510E+03  0.33012644162E+04  0.32860261623E+04 0.  0.
        3    1    3    3  502    0 -0.88165605560E+03 -0.17565528554E+03  0.12232170012E+04  0.15180355799E+04  0.10100000352E+00 0.  1.
       -3    1    3    3    0  502  0.88165605560E+03  0.17565528554E+03 -0.15400431463E+04  0.17832288362E+04  0.10100000352E+00 0. -1.
</event>
<event>
 5   0  0.2037333E-07  0.3321586E+04  0.7818609E-02  0.8157425E-01
        1   -1    0    0  501    0  0.00000000000E+00  0.00000000000E+00  0.31396570210E+04  0.31396570210E+04  0.50400001928E-02 0.  1.
       -1   -1    0    0    0  501  0.00000000000E+00  0.00000000000E+00 -0.87851398370E+03  0.87851398371E+03  0.50400001928E-02 0. -1.
    10030    2    1    2    0    0  0.00000000000E+00  0.00000000000E+00  0.22611430373E+04  0.40181710047E+04  0.33215855232E+04 0.  0.
        3    1    3    3  502    0  0.86068911102E+03  0.68560436955E+03  0.26353873761E+04  0.28558896564E+04  0.10100000352E+00 0.  1.
       -3    1    3    3    0  502 -0.86068911102E+03 -0.68560436955E+03 -0.37424433876E+03  0.11622813483E+04  0.10100000352E+00 0. -1.
</event>
<event>
 5   0  0.6377741E-07  0.3307963E+04  0.7818609E-02  0.8160872E-01
        2   -1    0    0  501    0  0.00000000000E+00  0.00000000000E+00  0.10734220498E+04  0.10734220498E+04  0.25500000920E-02 0. -1.
       -2   -1    0    0    0  501  0.00000000000E+00  0.00000000000E+00 -0.25485364717E+04  0.25485364718E+04  0.25500000920E-02 0.  1.
    10030    2    1    2    0    0  0.00000000000E+00  0.00000000000E+00 -0.14751144220E+04  0.36219585215E+04  0.33079632667E+04 0.  0.
        1    1    3    3  502    0  0.12391058079E+04  0.39295823925E+02  0.46123274914E+03  0.13227482806E+04  0.50400001928E-02 0. -1.
       -1    1    3    3    0  502 -0.12391058079E+04 -0.39295823925E+02 -0.19363471711E+04  0.22992102409E+04  0.50400001928E-02 0.  1.
</event>
<event>
 5   0  0.2080770E-07  0.3319671E+04  0.7818609E-02  0.8157908E-01
       -1   -1    0    0    0  501  0.00000000000E+00  0.00000000000E+00  0.98206633542E+03  0.98206633544E+03  0.50400001928E-02 0.  1.
        1   -1    0    0  501    0  0.00000000000E+00  0.00000000000E+00 -0.28053636542E+04  0.28053636543E+04  0.50400001928E-02 0. -1.
    10030    2    1    2    0    0  0.00000000000E+00  0.00000000000E+00 -0.18232973188E+04  0.37874299897E+04  0.33196705882E+04 0.  0.
        4    1    3    3  502    0 -0.23359853247E+03 -0.12876173059E+04 -0.20765599646E+04  0.24545120697E+04  0.12699999809E+01 0. -1.
       -4    1    3    3    0  502  0.23359853247E+03  0.12876173059E+04  0.25326264574E+03  0.13329179200E+04  0.12699999809E+01 0.  1.
</event>
<event>
 5   0  0.6351753E-07  0.3328548E+04  0.7818609E-02  0.8155669E-01
        2   -1    0    0  501    0  0.00000000000E+00  0.00000000000E+00  0.17587053900E+04  0.17587053900E+04  0.25500000920E-02 0.  1.
       -2   -1    0    0    0  501  0.00000000000E+00  0.00000000000E+00 -0.15749134483E+04  0.15749134483E+04  0.25500000920E-02 0. -1.
    10030    2    1    2    0    0  0.00000000000E+00  0.00000000000E+00  0.18379194163E+03  0.33336188383E+04  0.33285484947E+04 0.  0.
        3    1    3    3  502    0  0.10582000942E+04  0.13450693972E+02  0.13783137092E+04  0.17377333086E+04  0.10100000352E+00 0.  1.
       -3    1    3    3    0  502 -0.10582000942E+04 -0.13450693972E+02 -0.11945217676E+04  0.15958855297E+04  0.10100000352E+00 0. -1.
</event>
<event>
 5   0  0.2080770E-07  0.3290023E+04  0.7818609E-02  0.8165439E-01
        1   -1    0    0  501    0  0.00000000000E+00  0.00000000000E+00  0.24677448024E+04  0.24677448024E+04  0.50400001928E-02 0. -1.
       -1   -1    0    0    0  501  0.00000000000E+00  0.00000000000E+00 -0.10965730987E+04  0.10965730987E+04  0.50400001928E-02 0.  1.
    10030    2    1    2    0    0  0.00000000000E+00  0.00000000000E+00  0.13711717037E+04  0.35643179011E+04  0.32900228357E+04 0.  0.
        4    1    3    3  502    0  0.71054093373E+03  0.15795554683E+03 -0.91261431244E+03  0.11673409397E+04  0.12699999809E+01 0.  1.
       -4    1    3    3    0  502 -0.71054093373E+03 -0.15795554683E+03  0.22837860162E+04  0.23969769615E+04  0.12699999809E+01 0. -1.
</event>
<event>
 5   0  0.1994250E-07  0.3301213E+04  0.7818609E-02  0.8162587E-01
       -3   -1    0    0    0  501  0.00000000000E+00  0.00000000000E+00  0.17532303352E+04  0.17532303381E+04  0.10100000352E+00 0.  1.
        3   -1    0    0  501    0  0.00000000000E+00  0.00000000000E+00 -0.15539899108E+04  0.15539899141E+04  0.10100000352E+00 0. -1.
    10030    2    1    2    0    0  0.00000000000E+00  0.00000000000E+00  0.19924042436E+03  0.33072202522E+04  0.33012132693E+04 0.  0.
        5    1    3    3  502    0  0.16198800365E+04 -0.30899866919E+03  0.28861228463E+02  0.16493473166E+04  0.46999998093E+01 0.  1.
       -5    1    3    3    0  502 -0.16198800365E+04  0.30899866919E+03  0.17037919590E+03  0.16578729356E+04  0.46999998093E+01 0. -1.
</event>
<event>
 5   0  0.2080770E-07  0.3297423E+04  0.7818609E-02  0.8163551E-01
       -1   -1    0    0    0  501  0.00000000000E+00  0.00000000000E+00  0.13445352603E+04  0.13445352603E+04  0.50400001928E-02 0.  1.
        1   -1    0    0  501    0  0.00000000000E+00  0.00000000000E+00 -0.20217025949E+04  0.20217025949E+04  0.50400001928E-02 0. -1.
    10030    2    1    2    0    0  0.00000000000E+00  0.00000000000E+00 -0.67716733460E+03  0.33662378553E+04  0.32974234941E+04 0.  0.
        4    1    3    3  502    0 -0.46806738508E+03 -0.55760866277E+03  0.11715555416E+04  0.13793326276E+04  0.12699999809E+01 0.  1.
       -4    1    3    3    0  502  0.46806738508E+03  0.55760866277E+03 -0.18487228762E+04  0.19869052276E+04  0.12699999809E+01 0. -1.
</event>
<event>
 5   0  0.2087665E-07  0.3286012E+04  0.7818609E-02  0.8166464E-01
        1   -1    0    0  501    0  0.00000000000E+00  0.00000000000E+00  0.13460090779E+04  0.13460090779E+04  0.50400001928E-02 0.  1.
       -1   -1    0    0    0  501  0.00000000000E+00  0.00000000000E+00 -0.20055353329E+04  0.20055353329E+04  0.50400001928E-02 0. -1.
    10030    2    1    2    0    0  0.00000000000E+00  0.00000000000E+00 -0.65952625498E+03  0.33515444108E+04  0.32860120293E+04 0.  0.
        5    1    3    3  502    0 -0.42046470257E+03  0.13888816357E+04 -0.11156248822E+04  0.18304162729E+04  0.46999998093E+01 0. -1.
       -5    1    3    3    0  502  0.42046470257E+03 -0.13888816357E+04  0.45609862727E+03  0.15211281379E+04  0.46999998093E+01 0.  1.
</event>
<event>
 5   0  0.6424183E-07  0.3306885E+04  0.7818609E-02  0.8161146E-01
        2   -1    0    0  501    0  0.00000000000E+00  0.00000000000E+00  0.27843882974E+04  0.27843882974E+04  0.25500000920E-02 0.  1.
       -2   -1    0    0    0  501  0.00000000000E+00  0.00000000000E+00 -0.98185712242E+03  0.98185712243E+03  0.25500000920E-02 0. -1.
    10030    2    1    2    0    0  0.00000000000E+00  0.00000000000E+00  0.18025311750E+04  0.37662454199E+04  0.33068846254E+04 0.  0.
        2    1    3    3  502    0  0.11279628976E+03 -0.16370881094E+04  0.11321331572E+04  0.19936163038E+04  0.25500000920E-02 0.  1.
       -2    1    3    3    0  502 -0.11279628976E+03  0.16370881094E+04  0.67039801777E+03  0.17726291161E+04  0.25500000920E-02 0. -1.
</event>
<event>
 5   0  0.6426079E-07  0.3305049E+04  0.7818609E-02  0.8161612E-01
       -2   -1    0    0    0  501  0.00000000000E+00  0.00000000000E+00  0.11640402095E+04  0.11640402095E+04  0.25500000920E-02 0.  1.
        2   -1    0    0  501    0  0.00000000000E+00  0.00000000000E+00 -0.23459996734E+04  0.23459996734E+04  0.25500000920E-02 0. -1.
    10030    2    1    2    0    0  0.00000000000E+00  0.00000000000E+00 -0.11819594639E+04  0.35100398829E+04  0.33050494407E+04 0.  0.
        4    1    3    3  502    0 -0.49863691245E+03 -0.85087450106E+03  0.81723694196E+03  0.12808216188E+04  0.12699999809E+01 0.  1.
       -4    1    3    3    0  502  0.49863691245E+03  0.85087450106E+03 -0.19991964059E+04  0.22292182641E+04  0.12699999809E+01 0. -1.
</event>
<event>
 5   0  0.6258718E-07  0.3256549E+04  0.7818609E-02  0.8174040E-01
       -2   -1    0    0    0  501  0.00000000000E+00  0.00000000000E+00  0.10284284823E+04  0.10284284823E+04  0.25500000920E-02 0. -1.
        2   -1    0    0  501    0  0.00000000000E+00  0.00000000000E+00 -0.25779899852E+04  0.25779899852E+04  0.25500000920E-02 0.  1.
    10030    2    1    2    0    0  0.00000000000E+00  0.00000000000E+00 -0.15495615029E+04  0.36064184674E+04  0.32565492950E+04 0.  0.
        5    1    3    3  502    0 -0.49533990348E+03 -0.15016482336E+04 -0.34452073162E+03  0.16183404036E+04  0.46999998093E+01 0. -1.
       -5    1    3    3    0  502  0.49533990348E+03  0.15016482336E+04 -0.12050407713E+04  0.19880780638E+04  0.46999998093E+01 0.  1.
</event>
<event>
 5   0  0.2057130E-07  0.3292451E+04  0.7818609E-02  0.8164819E-01
       -1   -1    0    0    0  501  0.00000000000E+00  0.00000000000E+00  0.11143878386E+04  0.11143878386E+04  0.50400001928E-02 0. -1.
        1   -1    0    0  501    0  0.00000000000E+00  0.00000000000E+00 -0.24318812527E+04  0.24318812527E+04  0.50400001928E-02 0.  1.
    10030    2    1    2    0    0  0.00000000000E+00  0.00000000000E+00 -0.13174934141E+04  0.35462690913E+04  0.32924513014E+04 0.  0.
        2    1    3    3  502    0 -0.15736673003E+04  0.29625911976E+02 -0.11783829513E+04  0.19661873885E+04  0.25500000920E-02 0.  1.
       -2    1    3    3    0  502  0.15736673003E+04 -0.29625911976E+02 -0.13911046278E+03  0.15800817028E+04  0.25500000920E-02 0. -1.
</event>
<event>
 5   0  0.2080770E-07  0.3273150E+04  0.7818609E-02  0.8169761E-01
       -1   -1    0    0    0  501  0.00000000000E+00  0.00000000000E+00  0.20499768259E+04  0.20499768259E+04  0.50400001928E-02 0. -1.
        1   -1    0    0  501    0  0.00000000000E+00  0.00000000000E+00 -0.13065404122E+04  0.13065404122E+04  0.50400001928E-02 0.  1.
    10030    2    1    2    0    0  0.00000000000E+00  0.00000000000E+00  0.74343641372E+03  0.33565172381E+04  0.32731499001E+04 0.  0.
        4    1    3    3  502    0 -0.16355170522E+04 -0.15185846840E+02  0.42999266844E+03  0.16911658540E+04  0.12699999809E+01 0. -1.
       -4    1    3    3    0  502  0.16355170522E+04  0.15185846840E+02  0.31344374528E+03  0.16653513841E+04  0.12699999809E+01 0.  1.
</event>
<event>
 5   0  0.2080828E-07  0.3297054E+04  0.7818609E-02  0.8163645E-01
        1   -1    0    0  501    0  0.00000000000E+00  0.00000000000E+00  0.21513599749E+04  0.21513599749E+04  0.50400001928E-02 0. -1.
       -1   -1    0    0    0  501  0.00000000000E+00  0.00000000000E+00 -0.12632200643E+04  0.12632200643E+04  0.50400001928E-02 0.  1.
    10030    2    1    2    0    0  0.00000000000E+00  0.00000000000E+00  0.88813991057E+03  0.34145800392E+04  0.32970538884E+04 0.  0.
        1    1    3    3  502    0 -0.84045103907E+03  0.13835123763E+04  0.12122634594E+03  0.16233176742E+04  0.50400001928E-02 0.  1.
       -1    1    3    3    0  502  0.84045103907E+03 -0.13835123763E+04  0.76691356463E+03  0.17912623650E+04  0.50400001928E-02 0. -1.
</event>
<event>
 5   0  0.6351753E-07  0.3311372E+04  0.7818609E-02  0.8160008E-01
       -2   -1    0    0    0  501  0.00000000000E+00  0.00000000000E+00  0.15544753000E+04  0.15544753000E+04  0.25500000920E-02 0. -1.
        2   -1    0    0  501    0  0.00000000000E+00  0.00000000000E+00 -0.17634861083E+04  0.17634861083E+04  0.25500000920E-02 0.  1.
    10030    2    1    2    0    0  0.00000000000E+00  0.00000000000E+00 -0.20901080833E+03  0.33179614084E+04  0.33113716779E+04 0.  0.
        3    1    3    3  502    0  0.11463865193E+04 -0.11161835306E+04  0.32205042699E+03  0.16321103558E+04  0.10100000352E+00 0. -1.
       -3    1    3    3    0  502 -0.11463865193E+04  0.11161835306E+04 -0.53106123532E+03  0.16858510526E+04  0.10100000352E+00 0.  1.
</event>
<event>
 5   0  0.6377741E-07  0.3297151E+04  0.7818609E-02  0.8163621E-01
        2   -1    0    0  501    0  0.00000000000E+00  0.00000000000E+00  0.19049728943E+04  0.19049728943E+04  0.25500000920E-02 0.  1.
       -2   -1    0    0    0  501  0.00000000000E+00  0.00000000000E+00 -0.14266878196E+04  0.14266878196E+04  0.25500000920E-02 0. -1.
    10030    2    1    2    0    0  0.00000000000E+00  0.00000000000E+00  0.47828507477E+03  0.33316607139E+04  0.32971512704E+04 0.  0.
        1    1    3    3  502    0  0.24265717523E+03  0.79567418633E+03  0.16773532045E+04  0.18722963676E+04  0.50400001928E-02 0.  1.
       -1    1    3    3    0  502 -0.24265717523E+03 -0.79567418633E+03 -0.11990681297E+04  0.14593643463E+04  0.50400001928E-02 0. -1.
</event>
<event>
 5   0  0.6258718E-07  0.3296034E+04  0.7818609E-02  0.8163905E-01
       -2   -1    0    0    0  501  0.00000000000E+00  0.00000000000E+00  0.13715521095E+04  0.13715521095E+04  0.25500000920E-02 0.  1.
        2   -1    0    0  501    0  0.00000000000E+00  0.00000000000E+00 -0.19802087999E+04  0.19802087999E+04  0.25500000920E-02 0. -1.
    10030    2    1    2    0    0  0.00000000000E+00  0.00000000000E+00 -0.60865669036E+03  0.33517609094E+04  0.32960337115E+04 0.  0.
        5    1    3    3  502    0  0.92204835846E+03  0.12621080419E+04  0.22685132057E+03  0.15794218868E+04  0.46999998093E+01 0.  1.
       -5    1    3    3    0  502 -0.92204835846E+03 -0.12621080419E+04 -0.83550801093E+03  0.17723390226E+04  0.46999998093E+01 0. -1.
</event>
<event>
 5   0  0.2087665E-07  0.3301366E+04  0.7818609E-02  0.8162548E-01
       -1   -1    0    0    0  501  0.00000000000E+00  0.00000000000E+00  0.21919084039E+04  0.21919084039E+04  0.50400001928E-02 0. -1.
        1   -1    0    0  501    0  0.00000000000E+00  0.00000000000E+00 -0.12430965572E+04  0.12430965572E+04  0.50400001928E-02 0.  1.
    10030    2    1    2    0    0  0.00000000000E+00  0.00000000000E+00  0.94881184669E+03  0.34350049611E+04  0.33013656512E+04 0.  0.
        5    1    3    3  502    0  0.55311264372E+02  0.12222631292E+04  0.16272959017E+04  0.20359519972E+04  0.46999998093E+01 0. -1.
       -5    1    3    3    0  502 -0.55311264372E+02 -0.12222631292E+04 -0.67848405504E+03  0.13990529640E+04  0.46999998093E+01 0.  1.
</event>
<event>
 5   0  0.6424183E-07  0.3288348E+04  0.7818609E-02  0.8165867E-01
        2   -1    0    0  501    0  0.00000000000E+00  0.00000000000E+00  0.14076397234E+04  0.14076397234E+04  0.25500000920E-02 0. -1.
       -2   -1    0    0    0  501  0.00000000000E+00  0.00000000000E+00 -0.19204544051E+04  0.19204544051E+04  0.25500000920E-02 0.  1.
    10030    2    1    2    0    0  0.00000000000E+00  0.00000000000E+00 -0.51281468167E+03  0.33280941286E+04  0.32883478573E+04 0.  0.
        2    1    3    3  502    0  0.15523075424E+03  0.49911903190E+03  0.13213098665E+04  0.14209419969E+04  0.25500000920E-02 0. -1.
       -2    1    3    3    0  502 -0.15523075424E+03 -0.49911903190E+03 -0.18341245482E+04  0.19071521317E+04  0.25500000920E-02 0.  1.
</event>
<event>
 5   0  0.2080828E-07  0.3297196E+04  0.7818609E-02  0.8163609E-01
       -1   -1    0    0    0  501  0.00000000000E+00  0.00000000000E+00  0.92040650616E+03  0.92040650617E+03  0.50400001928E-02 0.  1.
        1   -1    0    0  501    0  0.00000000000E+00  0.00000000000E+00 -0.29529081562E+04  0.29529081562E+04  0.50400001928E-02 0. -1.
    10030    2    1    2    0    0  0.00000000000E+00  0.00000000000E+00 -0.20325016500E+04  0.38733146623E+04  0.32971963115E+04 0.  0.
        1    1    3    3  502    0 -0.90895179940E+03  0.79021970126E+03 -0.23386623045E+04  0.26305858519E+04  0.50400001928E-02 0. -1.
       -1    1    3    3    0  502  0.90895179940E+03 -0.79021970126E+03  0.30616065448E+03  0.12427288104E+04  0.50400001928E-02 0.  1.
</event>
<event>
 5   0  0.6351753E-07  0.3295986E+04  0.7818609E-02  0.8163917E-01
        2   -1    0    0  501    0  0.00000000000E+00  0.00000000000E+00  0.22241665155E+04  0.22241665155E+04  0.25500000920E-02 0.  1.
       -2   -1    0    0    0  501  0.00000000000E+00  0.00000000000E+00 -0.12210783643E+04  0.12210783643E+04  0.25500000920E-02 0. -1.
    10030    2    1    2    0    0  0.00000000000E+00  0.00000000000E+00  0.10030881512E+04  0.34452448798E+04  0.32959864142E+04 0.  0.
        3    1    3    3  502    0 -0.13901761038E+04  0.83123137802E+03  0.81919100457E+03  0.18151058139E+04  0.10100000352E+00 0.  1.
       -3    1    3    3    0  502  0.13901761038E+04 -0.83123137802E+03  0.18389714664E+03  0.16301390659E+04  0.10100000352E+00 0. -1.
</event>
<event>
 5   0  0.6424183E-07  0.3316925E+04  0.7818609E-02  0.8158602E-01
       -2   -1    0    0    0  501  0.00000000000E+00  0.00000000000E+00  0.94825071304E+03  0.94825071304E+03  0.25500000920E-02 0. -1.
        2   -1    0    0  501    0  0.00000000000E+00  0.00000000000E+00 -0.29006023631E+04  0.29006023631E+04  0.25500000920E-02 0.  1.
    10030    2    1    2    0    0  0.00000000000E+00  0.00000000000E+00 -0.19523516501E+04  0.38488530762E+04  0.33169252383E+04 0.  0.
        2    1    3    3  502    0 -0.13214209931E+03  0.68826888654E+03  0.76797797912E+03  0.10396950375E+04  0.25500000920E-02 0. -1.
       -2    1    3    3    0  502  0.13214209931E+03 -0.68826888654E+03 -0.27203296292E+04  0.28091580387E+04  0.25500000920E-02 0.  1.
</event>
<event>
 5   0  0.2037333E-07  0.3299316E+04  0.7818609E-02  0.8163069E-01
        1   -1    0    0  501    0  0.00000000000E+00  0.00000000000E+00  0.30091091564E+04  0.30091091564E+04  0.50400001928E-02 0.  1.
       -1   -1    0    0    0  501  0.00000000000E+00  0.00000000000E+00 -0.90437784652E+03  0.90437784653E+03  0.50400001928E-02 0. -1.
    10030    2    1    2    0    0  0.00000000000E+00  0.00000000000E+00  0.21047313099E+04  0.39134870029E+04  0.32993160860E+04 0.  0.
        3    1    3    3  502    0  0.90685954210E+03 -0.40467404125E+01  0.26869148612E+04  0.28358282894E+04  0.10100000352E+00 0.  1.
       -3    1    3    3    0  502 -0.90685954210E+03  0.40467404125E+01 -0.58218355135E+03  0.10776587135E+04  0.10100000352E+00 0. -1.
</event>
<event>
 5   0  0.6258718E-07  0.3316276E+04  0.7818609E-02  0.8158766E-01
       -2   -1    0    0    0  501  0.00000000000E+00  0.00000000000E+00  0.10209665579E+04  0.10209665579E+04  0.25500000920E-02 0. -1.
        2   -1    0    0  501    0  0.00000000000E+00  0.00000000000E+00 -0.26929591435E+04  0.26929591435E+04  0.25500000920E-02 0.  1.
    10030    2    1    2    0    0  0.00000000000E+00  0.00000000000E+00 -0.16719925856E+04  0.37139257015E+04  0.33162757590E+04 0.  0.
        5    1    3    3  502    0  0.12298032599E+04  0.46961475065E+03  0.29308322940E+03  0.13486563466E+04  0.46999998093E+01 0. -1.
       -5    1    3    3    0  502 -0.12298032599E+04 -0.46961475065E+03 -0.19650758150E+04  0.23652693548E+04  0.46999998093E+01 0.  1.
</event>
<event>
 5   0  0.6424183E-07  0.3239542E+04  0.7818609E-02  0.8178451E-01
        2   -1    0    0  501    0  0.00000000000E+00  0.00000000000E+00  0.22875797961E+04  0.22875797961E+04  0.25500000920E-02 0. -1.
       -2   -1    0    0    0  501  0.00000000000E+00  0.00000000000E+00 -0.11469146432E+04  0.11469146432E+04  0.25500000920E-02 0.  1.
    10030    2    1    2    0    0  0.00000000000E+00  0.00000000000E+00  0.11406651528E+04  0.34344944393E+04  0.32395424156E+04 0.  0.
        2    1    3    3  502    0  0.70049417896E+03  0.74440284719E+02 -0.97601211713E+03  0.12036748330E+04  0.25500000920E-02 0.  1.
       -2    1    3    3    0  502 -0.70049417896E+03 -0.74440284719E+02  0.21166772700E+04  0.22308196063E+04  0.25500000920E-02 0. -1.
</event>
<event>
 5   0  0.2057130E-07  0.3300508E+04  0.7818609E-02  0.8162766E-01
       -1   -1    0    0    0  501  0.00000000000E+00  0.00000000000E+00  0.10183783597E+04  0.10183783597E+04  0.50400001928E-02 0.  1.
        1   -1    0    0  501    0  0.00000000000E+00  0.00000000000E+00 -0.26741911297E+04  0.26741911297E+04  0.50400001928E-02 0. -1.
    10030    2    1    2    0    0  0.00000000000E+00  0.00000000000E+00 -0.16558127700E+04  0.36925694894E+04  0.33005080677E+04 0.  0.
        2    1    3    3  502    0 -0.18025405893E+03  0.10510762711E+04  0.58109421740E+03  0.12144642206E+04  0.25500000920E-02 0.  1.
       -2    1    3    3    0  502  0.18025405893E+03 -0.10510762711E+04 -0.22369069874E+04  0.24781052689E+04  0.25500000920E-02 0. -1.
</event>
<event>
 5   0  0.2080828E-07  0.3299732E+04  0.7818609E-02  0.8162964E-01
       -1   -1    0    0    0  501  0.00000000000E+00  0.00000000000E+00  0.91057454126E+03  0.91057454127E+03  0.50400001928E-02 0. -1.
        1   -1    0    0  501    0  0.00000000000E+00  0.00000000000E+00 -0.29893844779E+04  0.29893844779E+04  0.50400001928E-02 0.  1.
    10030    2    1    2    0    0  0.00000000000E+00  0.00000000000E+00 -0.20788099367E+04  0.38999590192E+04  0.32997317465E+04 0.  0.
        1    1    3    3  502    0 -0.13002635753E+04  0.13519620420E+03  0.15020962865E+03  0.13158747324E+04  0.50400001928E-02 0. -1.
       -1    1    3    3    0  502  0.13002635753E+04 -0.13519620420E+03 -0.22290195653E+04  0.25840842868E+04  0.50400001928E-02 0.  1.
</event>
<event>
 5   0  0.6426079E-07  0.3257052E+04  0.7818609E-02  0.8173910E-01
       -2   -1    0    0    0  501  0.00000000000E+00  0.00000000000E+00  0.14206745983E+04  0.14206745983E+04  0.25500000920E-02 0. -1.
        2   -1    0    0  501    0  0.00000000000E+00  0.00000000000E+00 -0.18667865670E+04  0.18667865670E+04  0.25500000920E-02 0.  1.
    10030    2    1    2    0    0  0.00000000000E+00  0.00000000000E+00 -0.44611196871E+03  0.32874611654E+04  0.32570515847E+04 0.  0.
        4    1    3    3  502    0  0.60626353066E+03 -0.46053937361E+03 -0.16760949341E+04  0.18409095101E+04  0.12699999809E+01 0.  1.
       -4    1    3    3    0  502 -0.60626353066E+03  0.46053937361E+03  0.12299829654E+04  0.14465516553E+04  0.12699999809E+01 0. -1.
</event>
<event>
 5   0  0.6351753E-07  0.3307867E+04  0.7818609E-02  0.8160896E-01
        2   -1    0    0  501    0  0.00000000000E+00  0.00000000000E+00  0.22653482096E+04  0.22653482096E+04  0.25500000920E-02 0.  1.
       -2   -1    0    0    0  501  0.00000000000E+00  0.00000000000E+00 -0.12075390631E+04  0.12075390631E+04  0.25500000920E-02 0. -1.
    10030    2    1    2    0    0  0.00000000000E+00  0.00000000000E+00  0.10578091465E+04  0.34728872728E+04  0.33078672614E+04 0.  0.
        3    1    3    3  502    0  0.14516830202E+04 -0.74068425898E+03  0.82492747303E+03  0.18266094570E+04  0.10100000352E+00 0.  1.
       -3    1    3    3    0  502 -0.14516830202E+04  0.74068425898E+03  0.23288167351E+03  0.16462778157E+04  0.10100000352E+00 0. -1.
</event>
<event>
 5   0  0.2057130E-07  0.3288675E+04  0.7818609E-02  0.8165783E-01
       -1   -1    0    0    0  501  0.00000000000E+00  0.00000000000E+00  0.29949952994E+04  0.29949952994E+04  0.50400001928E-02 0. -1.
        1   -1    0    0  501    0  0.00000000000E+00  0.00000000000E+00 -0.90278824429E+03  0.90278824430E+03  0.50400001928E-02 0.  1.
    10030    2    1    2    0    0  0.00000000000E+00  0.00000000000E+00  0.20922070551E+04  0.38977835437E+04  0.32886754465E+04 0.  0.
        2    1    3    3  502    0  0.20875948248E+03  0.60071823857E+03  0.28433362103E+04  0.29135894921E+04  0.25500000920E-02 0. -1.
       -2    1    3    3    0  502 -0.20875948248E+03 -0.60071823857E+03 -0.75112915512E+03  0.98419405168E+03  0.25500000920E-02 0.  1.
</event>
<event>
 5   0  0.6351753E-07  0.3298798E+04  0.7818609E-02  0.8163201E-01
       -2   -1    0    0    0  501  0.00000000000E+00  0.00000000000E+00  0.14128296667E+04  0.14128296667E+04  0.25500000920E-02 0. -1.
        2   -1    0    0  501    0  0.00000000000E+00  0.00000000000E+00 -0.19255805847E+04  0.19255805847E+04  0.25500000920E-02 0.  1.
    10030    2    1    2    0    0  0.00000000000E+00  0.00000000000E+00 -0.51275091793E+03  0.33384102514E+04  0.32987981907E+04 0.  0.
        3    1    3    3  502    0  0.47185675429E+03 -0.76685764334E+03  0.11421734734E+04  0.14544001153E+04  0.10100000352E+00 0. -1.
       -3    1    3    3    0  502 -0.47185675429E+03  0.76685764334E+03 -0.16549243914E+04  0.18840101361E+04  0.10100000352E+00 0.  1.
</event>
<event>
 5   0  0.2037333E-07  0.3300697E+04  0.7818609E-02  0.8162718E-01
       -1   -1    0    0    0  501  0.00000000000E+00  0.00000000000E+00  0.16071043798E+04  0.16071043798E+04  0.50400001928E-02 0. -1.
        1   -1    0    0  501    0  0.00000000000E+00  0.00000000000E+00 -0.16947563002E+04  0.16947563002E+04  0.50400001928E-02 0.  1.
    10030    2    1    2    0    0  0.00000000000E+00  0.00000000000E+00 -0.87651920412E+02  0.33018606800E+04  0.33006970614E+04 0.  0.
        3    1    3    3  502    0  0.11267205602E+04  0.96533993475E+03  0.67911121283E+03  0.16317390907E+04  0.10100000352E+00 0.  1.
       -3    1    3    3    0  502 -0.11267205602E+04 -0.96533993475E+03 -0.76676313324E+03  0.16701215893E+04  0.10100000352E+00 0. -1.
</event>
<event>
 5   0  0.2037333E-07  0.3319020E+04  0.7818609E-02  0.8158072E-01
       -1   -1    0    0    0  501  0.00000000000E+00  0.00000000000E+00  0.15927020114E+04  0.15927020114E+04  0.50400001928E-02 0. -1.
        1   -1    0    0  501    0  0.00000000000E+00  0.00000000000E+00 -0.17291206237E+04  0.17291206237E+04  0.50400001928E-02 0.  1.
    10030    2    1    2    0    0  0.00000000000E+00  0.00000000000E+00 -0.13641861232E+03  0.33218226351E+04  0.33190202744E+04 0.  0.
        3    1    3    3  502    0  0.16503368039E+04  0.30576700518E+02 -0.23989826461E+03  0.16679621364E+04  0.10100000352E+00 0.  1.
       -3    1    3    3    0  502 -0.16503368039E+04 -0.30576700518E+02  0.10347965229E+03  0.16538604988E+04  0.10100000352E+00 0. -1.
</event>
<event>
 5   0  0.6426079E-07  0.3305626E+04  0.7818609E-02  0.8161465E-01
       -2   -1    0    0    0  501  0.00000000000E+00  0.00000000000E+00  0.15706667478E+04  0.15706667478E+04  0.25500000920E-02 0. -1.
        2   -1    0    0  501    0  0.00000000000E+00  0.00000000000E+00 -0.17392555703E+04  0.17392555703E+04  0.25500000920E-02 0.  1.
    10030    2    1    2    0    0  0.00000000000E+00  0.00000000000E+00 -0.16858882246E+03  0.33099223181E+04  0.33056260468E+04 0.  0.
        4    1    3    3  502    0 -0.12582485414E+04 -0.86344755188E+03 -0.71998819646E+03  0.16873398243E+04  0.12699999809E+01 0.  1.
       -4    1    3    3    0  502  0.12582485414E+04  0.86344755188E+03  0.55139937400E+03  0.16225824938E+04  0.12699999809E+01 0. -1.
</event>
<event>
 5   0  0.2087665E-07  0.3294235E+04  0.7818609E-02  0.8164364E-01
       -1   -1    0    0    0  501  0.00000000000E+00  0.00000000000E+00  0.11958637837E+04  0.11958637837E+04  0.50400001928E-02 0.  1.
        1   -1    0    0  501    0  0.00000000000E+00  0.00000000000E+00 -0.22686495846E+04  0.22686495846E+04  0.50400001928E-02 0. -1.
    10030    2    1    2    0    0  0.00000000000E+00  0.00000000000E+00 -0.10727858008E+04  0.34645133683E+04  0.32942348891E+04 0.  0.
        5    1    3    3  502    0  0.41300498419E+03  0.20716296284E+03  0.11263031869E+04  0.12174032072E+04  0.46999998093E+01 0.  1.
       -5    1    3    3    0  502 -0.41300498419E+03 -0.20716296284E+03 -0.21990889877E+04  0.22471101611E+04  0.46999998093E+01 0. -1.
</event>
<event>
 5   0  0.2087665E-07  0.3286291E+04  0.7818609E-02  0.8166392E-01
        1   -1    0    0  501    0  0.00000000000E+00  0.00000000000E+00  0.24625888111E+04  0.24625888111E+04  0.50400001928E-02 0.  1.
       -1   -1    0    0    0  501  0.00000000000E+00  0.00000000000E+00 -0.10963776347E+04  0.10963776347E+04  0.50400001928E-02 0. -1.
    10030    2    1    2    0    0  0.00000000000E+00  0.00000000000E+00  0.13662111764E+04  0.35589664458E+04  0.32862910985E+04 0.  0.
        5    1    3    3  502    0  0.94050971938E+03 -0.64762124021E+03 -0.59642364552E+03  0.12882992890E+04  0.46999998093E+01 0. -1.
       -5    1    3    3    0  502 -0.94050971938E+03  0.64762124021E+03  0.19626348219E+04  0.22706671569E+04  0.46999998093E+01 0.  1.
</event>
<event>
 5   0  0.2037333E-07  0.3297877E+04  0.7818609E-02  0.8163436E-01
       -1   -1    0    0    0  501  0.00000000000E+00  0.00000000000E+00  0.10349991503E+04  0.10349991503E+04  0.50400001928E-02 0. -1.
        1   -1    0    0  501    0  0.00000000000E+00  0.00000000000E+00 -0.26270542293E+04  0.26270542293E+04  0.50400001928E-02 0.  1.
    10030    2    1    2    0    0  0.00000000000E+00  0.00000000000E+00 -0.15920550789E+04  0.36620533796E+04  0.32978774357E+04 0.  0.
        3    1    3    3  502    0 -0.12407213551E+04  0.10841541659E+04 -0.72389976008E+03  0.17996695834E+04  0.10100000352E+00 0. -1.
       -3    1    3    3    0  502  0.12407213551E+04 -0.10841541659E+04 -0.86815531887E+03  0.18623837962E+04  0.10100000352E+00 0.  1.
</event>
<event>
 5   0  0.6351753E-07  0.3295284E+04  0.7818609E-02  0.8164096E-01
        2   -1    0    0  501    0  0.00000000000E+00  0.00000000000E+00  0.14024810973E+04  0.14024810973E+04  0.25500000920E-02 0. -1.
       -2   -1    0    0    0  501  0.00000000000E+00  0.00000000000E+00 -0.19356584465E+04  0.19356584465E+04  0.25500000920E-02 0.  1.
    10030    2    1    2    0    0  0.00000000000E+00  0.00000000000E+00 -0.53317734922E+03  0.33381395437E+04  0.32952841346E+04 0.  0.
        3    1    3    3  502    0 -0.95183530585E+03 -0.12750876373E+04  0.16662403069E+03  0.15998757796E+04  0.10100000352E+00 0. -1.
       -3    1    3    3    0  502  0.95183530585E+03  0.12750876373E+04 -0.69980137991E+03  0.17382637642E+04  0.10100000352E+00 0.  1.
</event>
<event>
 5   0  0.2057130E-07  0.3310894E+04  0.7818609E-02  0.8160129E-01
       -1   -1    0    0    0  501  0.00000000000E+00  0.00000000000E+00  0.12444704221E+04  0.12444704221E+04  0.50400001928E-02 0.  1.
        1   -1    0    0  501    0  0.00000000000E+00  0.00000000000E+00 -0.22021448062E+04  0.22021448062E+04  0.50400001928E-02 0. -1.
    10030    2    1    2    0    0  0.00000000000E+00  0.00000000000E+00 -0.95767438417E+03  0.34466152283E+04  0.33108935812E+04 0.  0.
        2    1    3    3  502    0 -0.76921969041E+03 -0.91663811519E+03 -0.16696614467E+04  0.20541893080E+04  0.25500000920E-02 0. -1.
       -2    1    3    3    0  502  0.76921969041E+03  0.91663811519E+03  0.71198706257E+03  0.13924259203E+04  0.25500000920E-02 0.  1.
</event>
<event>
 5   0  0.2037333E-07  0.3295632E+04  0.7818609E-02  0.8164008E-01
       -1   -1    0    0    0  501  0.00000000000E+00  0.00000000000E+00  0.14893571498E+04  0.14893571498E+04  0.50400001928E-02 0.  1.
        1   -1    0    0  501    0  0.00000000000E+00  0.00000000000E+00 -0.18231343041E+04  0.18231343041E+04  0.50400001928E-02 0. -1.
    10030    2    1    2    0    0  0.00000000000E+00  0.00000000000E+00 -0.33377715432E+03  0.33124914539E+04  0.32956323283E+04 0.  0.
        3    1    3    3  502    0  0.89114665404E+03 -0.13421751086E+04  0.18088972673E+03  0.16212024810E+04  0.10100000352E+00 0. -1.
       -3    1    3    3    0  502 -0.89114665404E+03  0.13421751086E+04 -0.51466688105E+03  0.16912889728E+04  0.10100000352E+00 0.  1.
</event>
<event>
 5   0  0.2057130E-07  0.3308894E+04  0.7818609E-02  0.8160636E-01
       -1   -1    0    0    0  501  0.00000000000E+00  0.00000000000E+00  0.10731247780E+04  0.10731247780E+04  0.50400001928E-02 0. -1.
        1   -1    0    0  501    0  0.00000000000E+00  0.00000000000E+00 -0.25506765852E+04  0.25506765852E+04  0.50400001928E-02 0.  1.
    10030    2    1    2    0    0  0.00000000000E+00  0.00000000000E+00 -0.14775518071E+04  0.36238013632E+04  0.33088936183E+04 0.  0.
        2    1    3    3  502    0 -0.20462624830E+03  0.15515762096E+04 -0.13264381073E+04  0.20515113181E+04  0.25500000920E-02 0. -1.
       -2    1    3    3    0  502  0.20462624830E+03 -0.15515762096E+04 -0.15111369984E+03  0.15722900451E+04  0.25500000920E-02 0.  1.
</event>
<event>
 5   0  0.2037333E-07  0.3301851E+04  0.7818609E-02  0.8162425E-01
       -1   -1    0    0    0  501  0.00000000000E+00  0.00000000000E+00  0.13771886836E+04  0.13771886836E+04  0.50400001928E-02 0. -1.
        1   -1    0    0  501    0  0.00000000000E+00  0.00000000000E+00 -0.19790716973E+04  0.19790716973E+04  0.50400001928E-02 0.  1.
    10030    2    1    2    0    0  0.00000000000E+00  0.00000000000E+00 -0.60188301365E+03  0.33562603809E+04  0.33018510842E+04 0.  0.
        3    1    3    3  502    0 -0.97610047816E+03  0.13364750094E+03  0.10456224671E+04  0.14366489313E+04  0.10100000352E+00 0. -1.
       -3    1    3    3    0  502  0.97610047816E+03 -0.13364750094E+03 -0.16475054808E+04  0.19196114496E+04  0.10100000352E+00 0.  1.
</event>
<event>
 5   0  0.6258718E-07  0.3424370E+04  0.7818609E-02  0.8131951E-01
        2   -1    0    0  501    0  0.00000000000E+00  0.00000000000E+00  0.16331426866E+04  0.16331426866E+04  0.25500000920E-02 0.  1.
       -2   -1    0    0    0  501  0.00000000000E+00  0.00000000000E+00 -0.17950524812E+04  0.17950524812E+04  0.25500000920E-02 0. -1.
    10030    2    1    2    0    0  0.00000000000E+00  0.00000000000E+00 -0.16190979457E+03  0.34281951678E+04  0.34243696247E+04 0.  0.
        5    1    3    3  502    0  0.92299171226E+03 -0.14021947638E+04 -0.41821533091E+03  0.17300260141E+04  0.46999998093E+01 0.  1.
       -5    1    3    3    0  502 -0.92299171226E+03  0.14021947638E+04  0.25630553633E+03  0.16981691537E+04  0.46999998093E+01 0. -1.
</event>
<event>
 5   0  0.6377741E-07  0.3303048E+04  0.7818609E-02  0.8162120E-01
        2   -1    0    0  501    0  0.00000000000E+00  0.00000000000E+00  0.98283700065E+03  0.98283700065E+03  0.25500000920E-02 0. -1.
       -2   -1    0    0    0  501  0.00000000000E+00  0.00000000000E+00 -0.27751619196E+04  0.27751619196E+04  0.25500000920E-02 0.  1.
    10030    2    1    2    0    0  0.00000000000E+00  0.00000000000E+00 -0.17923249189E+04  0.37579989202E+04  0.33030481785E+04 0.  0.
        1    1    3    3  502    0  0.10044963137E+04  0.11801004457E+04 -0.24667335500E+03  0.15692347339E+04  0.50400001928E-02 0. -1.
       -1    1    3    3    0  502 -0.10044963137E+04 -0.11801004457E+04 -0.15456515639E+04  0.21887641863E+04  0.50400001928E-02 0.  1.
</event>
<event>
 5   0  0.2080828E-07  0.3289238E+04  0.7818609E-02  0.8165639E-01
       -1   -1    0    0    0  501  0.00000000000E+00  0.00000000000E+00  0.14638403649E+04  0.14638403649E+04  0.50400001928E-02 0.  1.
        1   -1    0    0  501    0  0.00000000000E+00  0.00000000000E+00 -0.18477235317E+04  0.18477235317E+04  0.50400001928E-02 0. -1.
    10030    2    1    2    0    0  0.00000000000E+00  0.00000000000E+00 -0.38388316676E+03  0.33115638966E+04  0.32892383854E+04 0.  0.
        1    1    3    3  502    0  0.10783490900E+04 -0.41716814043E+03 -0.13694552590E+04  0.17922817088E+04  0.50400001928E-02 0. -1.
       -1    1    3    3    0  502 -0.10783490900E+04  0.41716814043E+03  0.98557209224E+03  0.15192821878E+04  0.50400001928E-02 0.  1.
</event>
<event>
 5   0  0.6424183E-07  0.3305581E+04  0.7818609E-02  0.8161477E-01
        2   -1    0    0  501    0  0.00000000000E+00  0.00000000000E+00  0.21509418604E+04  0.21509418604E+04  0.25500000920E-02 0. -1.
       -2   -1    0    0    0  501  0.00000000000E+00  0.00000000000E+00 -0.12700090487E+04  0.12700090487E+04  0.25500000920E-02 0.  1.
    10030    2    1    2    0    0  0.00000000000E+00  0.00000000000E+00  0.88093281174E+03  0.34209509091E+04  0.33055805093E+04 0.  0.
        2    1    3    3  502    0  0.50391408285E+02  0.12294749371E+04 -0.70147984793E+03  0.14164116252E+04  0.25500000920E-02 0.  1.
       -2    1    3    3    0  502 -0.50391408285E+02 -0.12294749371E+04  0.15824126597E+04  0.20045392839E+04  0.25500000920E-02 0. -1.
</event>
<event>
 5   0  0.6258718E-07  0.3314690E+04  0.7818609E-02  0.8159167E-01
        2   -1    0    0  501    0  0.00000000000E+00  0.00000000000E+00  0.24173937734E+04  0.24173937734E+04  0.25500000920E-02 0. -1.
       -2   -1    0    0    0  501  0.00000000000E+00  0.00000000000E+00 -0.11362621649E+04  0.11362621649E+04  0.25500000920E-02 0.  1.
    10030    2    1    2    0    0  0.00000000000E+00  0.00000000000E+00  0.12811316085E+04  0.35536559383E+04  0.33146903821E+04 0.  0.
        5    1    3    3  502    0  0.14565174602E+03  0.90325289296E+03 -0.84097608126E+03  0.12427160090E+04  0.46999998093E+01 0.  1.
       -5    1    3    3    0  502 -0.14565174602E+03 -0.90325289296E+03  0.21221076898E+04  0.23109399293E+04  0.46999998093E+01 0. -1.
</event>
<event>
 5   0  0.2057130E-07  0.3308866E+04  0.7818609E-02  0.8160643E-01
       -1   -1    0    0    0  501  0.00000000000E+00  0.00000000000E+00  0.12862342254E+04  0.12862342254E+04  0.50400001928E-02 0. -1.
        1   -1    0    0  501    0  0.00000000000E+00  0.00000000000E+00 -0.21280330623E+04  0.21280330623E+04  0.50400001928E-02 0.  1.
    10030    2    1    2    0    0  0.00000000000E+00  0.00000000000E+00 -0.84179883692E+03  0.34142672877E+04  0.33088662455E+04 0.  0.
        2    1    3    3  502    0 -0.14755202403E+04 -0.50884383406E+03 -0.98707330211E+03  0.18467256783E+04  0.25500000920E-02 0.  1.
       -2    1    3    3    0  502  0.14755202403E+04  0.50884383406E+03  0.14527446519E+03  0.15675416094E+04  0.25500000920E-02 0. -1.
</event>
<event>
 5   0  0.6424183E-07  0.3309137E+04  0.7818609E-02  0.8160574E-01
       -2   -1    0    0    0  501  0.00000000000E+00  0.00000000000E+00  0.11321282446E+04  0.11321282446E+04  0.25500000920E-02 0.  1.
        2   -1    0    0  501    0  0.00000000000E+00  0.00000000000E+00 -0.24180974186E+04  0.24180974186E+04  0.25500000920E-02 0. -1.
    10030    2    1    2    0    0  0.00000000000E+00  0.00000000000E+00 -0.12859691741E+04  0.35502256632E+04  0.33091366764E+04 0.  0.
        2    1    3    3  502    0 -0.14474281299E+04 -0.75241909308E+03 -0.34641481970E+03  0.16676887930E+04  0.25500000920E-02 0. -1.
       -2    1    3    3    0  502  0.14474281299E+04  0.75241909308E+03 -0.93955435436E+03  0.18825368702E+04  0.25500000920E-02 0.  1.
</event>
<event>
 5   0  0.6351753E-07  0.3284474E+04  0.7818609E-02  0.8166857E-01
       -2   -1    0    0    0  501  0.00000000000E+00  0.00000000000E+00  0.24989739553E+04  0.24989739553E+04  0.25500000920E-02 0. -1.
        2   -1    0    0  501    0  0.00000000000E+00  0.00000000000E+00 -0.10792196180E+04  0.10792196180E+04  0.25500000920E-02 0.  1.
    10030    2    1    2    0    0  0.00000000000E+00  0.00000000000E+00  0.14197543373E+04  0.35781935733E+04  0.32844736062E+04 0.  0.
        3    1    3    3  502    0  0.88651782518E+03 -0.12469221130E+04  0.59668138540E+02  0.15311070855E+04  0.10100000352E+00 0.  1.
       -3    1    3    3    0  502 -0.88651782518E+03  0.12469221130E+04  0.13600861988E+04  0.20470864878E+04  0.10100000352E+00 0. -1.
</event>
<event>
 5   0  0.1994250E-07  0.3321902E+04  0.7818609E-02  0.8157345E-01
        3   -1    0    0  501    0  0.00000000000E+00  0.00000000000E+00  0.23964368742E+04  0.23964368763E+04  0.10100000352E+00 0. -1.
       -3   -1    0    0    0  501  0.00000000000E+00  0.00000000000E+00 -0.11511917771E+04  0.11511917815E+04  0.10100000352E+00 0.  1.
    10030    2    1    2    0    0  0.00000000000E+00  0.00000000000E+00  0.12452450971E+04  0.35476286578E+04  0.33219021271E+04 0.  0.
        5    1    3    3  502    0  0.83452363125E+03 -0.30538646802E+03  0.21212001126E+04  0.22998266442E+04  0.46999998093E+01 0. -1.
       -5    1    3    3    0  502 -0.83452363125E+03  0.30538646802E+03 -0.87595501550E+03  0.12478020136E+04  0.46999998093E+01 0.  1.
</event>
<event>
 5   0  0.2087665E-07  0.3299625E+04  0.7818609E-02  0.8162991E-01
       -1   -1    0    0    0  501  0.00000000000E+00  0.00000000000E+00  0.95765242791E+03  0.95765242792E+03  0.50400001928E-02 0.  1.
        1   -1    0    0  501    0  0.00000000000E+00  0.00000000000E+00 -0.28422432569E+04  0.28422432569E+04  0.50400001928E-02 0. -1.
    10030    2    1    2    0    0  0.00000000000E+00  0.00000000000E+00 -0.18845908290E+04  0.37998956848E+04  0.32996249215E+04 0.  0.
        5    1    3    3  502    0  0.24841586420E+03 -0.68991314636E+03 -0.26442586187E+04  0.27440510789E+04  0.46999998093E+01 0. -1.
       -5    1    3    3    0  502 -0.24841586420E+03  0.68991314636E+03  0.75966778971E+03  0.10558446059E+04  0.46999998093E+01 0.  1.
</event>
<event>
 5   0  0.6377741E-07  0.3336400E+04  0.7818609E-02  0.8153695E-01
       -2   -1    0    0    0  501  0.00000000000E+00  0.00000000000E+00  0.14760991541E+04  0.14760991541E+04  0.25500000920E-02 0. -1.
        2   -1    0    0  501    0  0.00000000000E+00  0.00000000000E+00 -0.18853005281E+04  0.18853005281E+04  0.25500000920E-02 0.  1.
    10030    2    1    2    0    0  0.00000000000E+00  0.00000000000E+00 -0.40920137395E+03  0.33613996822E+04  0.33363995652E+04 0.  0.
        1    1    3    3  502    0 -0.15742407398E+04 -0.48595511259E+03 -0.46829503027E+03  0.17128007805E+04  0.50400001928E-02 0. -1.
       -1    1    3    3    0  502  0.15742407398E+04  0.48595511259E+03  0.59093656324E+02  0.16485989017E+04  0.50400001928E-02 0.  1.
</event>
<event>
 5   0  0.2080770E-07  0.3302896E+04  0.7818609E-02  0.8162159E-01
        1   -1    0    0  501    0  0.00000000000E+00  0.00000000000E+00  0.15180187437E+04  0.15180187437E+04  0.50400001928E-02 0.  1.
       -1   -1    0    0    0  501  0.00000000000E+00  0.00000000000E+00 -0.17966050562E+04  0.17966050562E+04  0.50400001928E-02 0. -1.
    10030    2    1    2    0    0  0.00000000000E+00  0.00000000000E+00 -0.27858631256E+03  0.33146237999E+04  0.33028957903E+04 0.  0.
        4    1    3    3  502    0  0.84584306555E+03  0.13858662186E+04 -0.44236362857E+03  0.16827842583E+04  0.12699999809E+01 0. -1.
       -4    1    3    3    0  502 -0.84584306555E+03 -0.13858662186E+04  0.16377731601E+03  0.16318395416E+04  0.12699999809E+01 0.  1.
</event>
<event>
 5   0  0.2057130E-07  0.3246055E+04  0.7818609E-02  0.8176759E-01
        1   -1    0    0  501    0  0.00000000000E+00  0.00000000000E+00  0.14069949444E+04  0.14069949444E+04  0.50400001928E-02 0.  1.
       -1   -1    0    0    0  501  0.00000000000E+00  0.00000000000E+00 -0.18722299491E+04  0.18722299491E+04  0.50400001928E-02 0. -1.
    10030    2    1    2    0    0  0.00000000000E+00  0.00000000000E+00 -0.46523500469E+03  0.32792248935E+04  0.32460548814E+04 0.  0.
        2    1    3    3  502    0  0.68689991640E+03 -0.82526523677E+03  0.99691596371E+03  0.14651742712E+04  0.25500000920E-02 0.  1.
       -2    1    3    3    0  502 -0.68689991640E+03  0.82526523677E+03 -0.14621509684E+04  0.18140506224E+04  0.25500000920E-02 0. -1.
</event>
<event>
 5   0  0.6426079E-07  0.3272344E+04  0.7818609E-02  0.8169968E-01
       -2   -1    0    0    0  501  0.00000000000E+00  0.00000000000E+00  0.12767020993E+04  0.12767020993E+04  0.25500000920E-02 0.  1.
        2   -1    0    0  501    0  0.00000000000E+00  0.00000000000E+00 -0.20968543041E+04  0.20968543041E+04  0.25500000920E-02 0. -1.
    10030    2    1    2    0    0  0.00000000000E+00  0.00000000000E+00 -0.82015220477E+03  0.33735564034E+04  0.32723436812E+04 0.  0.
        4    1    3    3  502    0 -0.75370825969E+02 -0.15932948728E+04 -0.78574690622E+03  0.17781083000E+04  0.12699999809E+01 0. -1.
       -4    1    3    3    0  502  0.75370825969E+02  0.15932948728E+04 -0.34405298551E+02  0.15954481034E+04  0.12699999809E+01 0.  1.
</event>
<event>
 5   0  0.6424183E-07  0.3303422E+04  0.7818609E-02  0.8162025E-01
       -2   -1    0    0    0  501  0.00000000000E+00  0.00000000000E+00  0.22501968848E+04  0.22501968848E+04  0.25500000920E-02 0.  1.
        2   -1    0    0  501    0  0.00000000000E+00  0.00000000000E+00 -0.12124047038E+04  0.12124047038E+04  0.25500000920E-02 0. -1.
    10030    2    1    2    0    0  0.00000000000E+00  0.00000000000E+00  0.10377921809E+04  0.34626015886E+04  0.33034220364E+04 0.  0.
        2    1    3    3  502    0 -0.39800657910E+03 -0.20010294890E+03 -0.11482469929E+04  0.12316337052E+04  0.25500000920E-02 0. -1.
       -2    1    3    3    0  502  0.39800657910E+03  0.20010294890E+03  0.21860391738E+04  0.22309678834E+04  0.25500000920E-02 0.  1.
</event>
<event>
 5   0  0.6258718E-07  0.3311864E+04  0.7818609E-02  0.8159883E-01
       -2   -1    0    0    0  501  0.00000000000E+00  0.00000000000E+00  0.23587926048E+04  0.23587926048E+04  0.25500000920E-02 0. -1.
        2   -1    0    0  501    0  0.00000000000E+00  0.00000000000E+00 -0.11625063750E+04  0.11625063750E+04  0.25500000920E-02 0.  1.
    10030    2    1    2    0    0  0.00000000000E+00  0.00000000000E+00  0.11962862298E+04  0.35212989798E+04  0.33118643937E+04 0.  0.
        5    1    3    3  502    0 -0.12543357967E+04 -0.10503844423E+04  0.32618782127E+03  0.16682584789E+04  0.46999998093E+01 0. -1.
       -5    1    3    3    0  502  0.12543357967E+04  0.10503844423E+04  0.87009840850E+03  0.18530405009E+04  0.46999998093E+01 0.  1.
</event>
<event>
 5   0  0.2057130E-07  0.3304511E+04  0.7818609E-02  0.8161748E-01
        1   -1    0    0  501    0  0.00000000000E+00  0.00000000000E+00  0.20201087829E+04  0.20201087829E+04  0.50400001928E-02 0.  1.
       -1   -1    0    0    0  501  0.00000000000E+00  0.00000000000E+00 -0.13513869467E+04  0.13513869467E+04  0.50400001928E-02 0. -1.
    10030    2    1    2    0    0  0.00000000000E+00  0.00000000000E+00  0.66872183616E+03  0.33714957296E+04  0.33045112438E+04 0.  0.
        2    1    3    3  502    0 -0.11027525114E+04  0.90216195389E+03 -0.51925222936E+03  0.15164373281E+04  0.25500000920E-02 0. -1.
       -2    1    3    3    0  502  0.11027525114E+04 -0.90216195389E+03  0.11879740655E+04  0.18550584014E+04  0.25500000920E-02 0.  1.
</event>
<event>
 5   0  0.6426079E-07  0.3318476E+04  0.7818609E-02  0.8158210E-01
        2   -1    0    0  501    0  0.00000000000E+00  0.00000000000E+00  0.22031051831E+04  0.22031051831E+04  0.25500000920E-02 0.  1.
       -2   -1    0    0    0  501  0.00000000000E+00  0.00000000000E+00 -0.12496318043E+04  0.12496318043E+04  0.25500000920E-02 0. -1.
    10030    2    1    2    0    0  0.00000000000E+00  0.00000000000E+00  0.95347337876E+03  0.34527369874E+04  0.33184757375E+04 0.  0.
        4    1    3    3  502    0  0.75488504591E+03 -0.60642484733E+03 -0.92516942540E+03  0.13392320959E+04  0.12699999809E+01 0. -1.
       -4    1    3    3    0  502 -0.75488504591E+03  0.60642484733E+03  0.18786428042E+04  0.21135048915E+04  0.12699999809E+01 0.  1.
</event>
<event>
 5   0  0.6351753E-07  0.3269061E+04  0.7818609E-02  0.8170813E-01
       -2   -1    0    0    0  501  0.00000000000E+00  0.00000000000E+00  0.11865403207E+04  0.11865403207E+04  0.25500000920E-02 0.  1.
        2   -1    0    0  501    0  0.00000000000E+00  0.00000000000E+00 -0.22516633638E+04  0.22516633638E+04  0.25500000920E-02 0. -1.
    10030    2    1    2    0    0  0.00000000000E+00  0.00000000000E+00 -0.10651230431E+04  0.34382036844E+04  0.32690606416E+04 0.  0.
        3    1    3    3  502    0 -0.96271282808E+03  0.69338161265E+03 -0.17150544014E+04  0.20854269731E+04  0.10100000352E+00 0. -1.
       -3    1    3    3    0  502  0.96271282808E+03 -0.69338161265E+03  0.64993135827E+03  0.13527767114E+04  0.10100000352E+00 0.  1.
</event>
<event>
 5   0  0.2087665E-07  0.3297190E+04  0.7818609E-02  0.8163611E-01
        1   -1    0    0  501    0  0.00000000000E+00  0.00000000000E+00  0.97289058685E+03  0.97289058687E+03  0.50400001928E-02 0. -1.
       -1   -1    0    0    0  501  0.00000000000E+00  0.00000000000E+00 -0.27935974411E+04  0.27935974412E+04  0.50400001928E-02 0.  1.
    10030    2    1    2    0    0  0.00000000000E+00  0.00000000000E+00 -0.18207068543E+04  0.37664880280E+04  0.32971895026E+04 0.  0.
        5    1    3    3  502    0  0.36092867475E+03  0.82368835962E+03 -0.24887212576E+04  0.26462213834E+04  0.46999998093E+01 0.  1.
       -5    1    3    3    0  502 -0.36092867475E+03 -0.82368835962E+03  0.66801440329E+03  0.11202666446E+04  0.46999998093E+01 0. -1.
</event>
<event>
 5   0  0.6351753E-07  0.3301615E+04  0.7818609E-02  0.8162485E-01
        2   -1    0    0  501    0  0.00000000000E+00  0.00000000000E+00  0.18940835376E+04  0.18940835376E+04  0.25500000920E-02 0.  1.
       -2   -1    0    0    0  501  0.00000000000E+00  0.00000000000E+00 -0.14387778805E+04  0.14387778805E+04  0.25500000920E-02 0. -1.
    10030    2    1    2    0    0  0.00000000000E+00  0.00000000000E+00  0.45530565711E+03  0.33328614181E+04  0.33016150580E+04 0.  0.
        3    1    3    3  502    0 -0.18476658499E+03 -0.15928593623E+04  0.62357104018E+03  0.17205175068E+04  0.10100000352E+00 0.  1.
       -3    1    3    3    0  502  0.18476658499E+03  0.15928593623E+04 -0.16826538308E+03  0.16123439113E+04  0.10100000352E+00 0. -1.
</event>
<event>
 5   0  0.2057130E-07  0.3337009E+04  0.7818609E-02  0.8153542E-01
       -1   -1    0    0    0  501  0.00000000000E+00  0.00000000000E+00  0.15677903437E+04  0.15677903437E+04  0.50400001928E-02 0. -1.
        1   -1    0    0  501    0  0.00000000000E+00  0.00000000000E+00 -0.17756882965E+04  0.17756882966E+04  0.50400001928E-02 0.  1.
    10030    2    1    2    0    0  0.00000000000E+00  0.00000000000E+00 -0.20789795283E+03  0.33434786403E+04  0.33370088192E+04 0.  0.
        2    1    3    3  502    0  0.79248364671E+03  0.26547442903E+03 -0.15508401898E+04  0.17617072109E+04  0.25500000920E-02 0.  1.
       -2    1    3    3    0  502 -0.79248364671E+03 -0.26547442903E+03  0.13429422370E+04  0.15817714293E+04  0.25500000920E-02 0. -1.
</event>
<event>
 5   0  0.2080828E-07  0.3247571E+04  0.7818609E-02  0.8176365E-01
        1   -1    0    0  501    0  0.00000000000E+00  0.00000000000E+00  0.28772177704E+04  0.28772177704E+04  0.50400001928E-02 0.  1.
       -1   -1    0    0    0  501  0.00000000000E+00  0.00000000000E+00 -0.91639913227E+03  0.91639913229E+03  0.50400001928E-02 0. -1.
    10030    2    1    2    0    0  0.00000000000E+00  0.00000000000E+00  0.19608186381E+04  0.37936169027E+04  0.32475713191E+04 0.  0.
        1    1    3    3  502    0 -0.56401799529E+03 -0.78458107448E+03  0.25048186623E+04  0.26847346782E+04  0.50400001928E-02 0.  1.
       -1    1    3    3    0  502  0.56401799529E+03  0.78458107448E+03 -0.54400002416E+03  0.11088822245E+04  0.50400001928E-02 0. -1.
</event>
<event>
 5   0  0.6426079E-07  0.3335675E+04  0.7818609E-02  0.8153877E-01
       -2   -1    0    0    0  501  0.00000000000E+00  0.00000000000E+00  0.24504963468E+04  0.24504963468E+04  0.25500000920E-02 0.  1.
        2   -1    0    0  501    0  0.00000000000E+00  0.00000000000E+00 -0.11351507412E+04  0.11351507412E+04  0.25500000920E-02 0. -1.
    10030    2    1    2    0    0  0.00000000000E+00  0.00000000000E+00  0.13153456056E+04  0.35856470880E+04  0.33356754904E+04 0.  0.
        4    1    3    3  502    0 -0.81082606710E+02  0.56356681172E+03  0.23427912792E+04  0.24109862154E+04  0.12699999809E+01 0.  1.
       -4    1    3    3    0  502  0.81082606710E+02 -0.56356681172E+03 -0.10274456736E+04  0.11746608725E+04  0.12699999809E+01 0. -1.
</event>
<event>
 5   0  0.6426079E-07  0.3289308E+04  0.7818609E-02  0.8165621E-01
        2   -1    0    0  501    0  0.00000000000E+00  0.00000000000E+00  0.26900145833E+04  0.26900145833E+04  0.25500000920E-02 0.  1.
       -2   -1    0    0    0  501  0.00000000000E+00  0.00000000000E+00 -0.10055284307E+04  0.10055284307E+04  0.25500000920E-02 0. -1.
    10030    2    1    2    0    0  0.00000000000E+00  0.00000000000E+00  0.16844861526E+04  0.36955430140E+04  0.32893076125E+04 0.  0.
        4    1    3    3  502    0  0.67287128645E+03 -0.10845076445E+04  0.20076410062E+04  0.23789780625E+04  0.12699999809E+01 0.  1.
       -4    1    3    3    0  502 -0.67287128645E+03  0.10845076445E+04 -0.32315485362E+03  0.13165649515E+04  0.12699999809E+01 0. -1.
</event>
<event>
 5   0  0.6426079E-07  0.3308302E+04  0.7818609E-02  0.8160786E-01
        2   -1    0    0  501    0  0.00000000000E+00  0.00000000000E+00  0.17642010544E+04  0.17642010544E+04  0.25500000920E-02 0. -1.
       -2   -1    0    0    0  501  0.00000000000E+00  0.00000000000E+00 -0.15509660194E+04  0.15509660194E+04  0.25500000920E-02 0.  1.
    10030    2    1    2    0    0  0.00000000000E+00  0.00000000000E+00  0.21323503496E+03  0.33151670738E+04  0.33083022152E+04 0.  0.
        4    1    3    3  502    0  0.63301360454E+02  0.57094128902E+03  0.16610401358E+04  0.17575656356E+04  0.12699999809E+01 0. -1.
       -4    1    3    3    0  502 -0.63301360454E+02 -0.57094128902E+03 -0.14478051008E+04  0.15576014383E+04  0.12699999809E+01 0.  1.
</event>
<event>
 5   0  0.2037333E-07  0.3301789E+04  0.7818609E-02  0.8162440E-01
        1   -1    0    0  501    0  0.00000000000E+00  0.00000000000E+00  0.16269726407E+04  0.16269726407E+04  0.50400001928E-02 0. -1.
       -1   -1    0    0    0  501  0.00000000000E+00  0.00000000000E+00 -0.16751677346E+04  0.16751677346E+04  0.50400001928E-02 0.  1.
    10030    2    1    2    0    0  0.00000000000E+00  0.00000000000E+00 -0.48195093968E+02  0.33021403753E+04  0.33017886503E+04 0.  0.
        3    1    3    3  502    0 -0.12950873814E+04  0.19665932659E+03 -0.10289562129E+04  0.16657362080E+04  0.10100000352E+00 0.  1.
       -3    1    3    3    0  502  0.12950873814E+04 -0.19665932659E+03  0.98076111893E+03  0.16364041673E+04  0.10100000352E+00 0. -1.
</event>
<event>
 5   0  0.6258718E-07  0.3325771E+04  0.7818609E-02  0.8156369E-01
       -2   -1    0    0    0  501  0.00000000000E+00  0.00000000000E+00  0.13984790867E+04  0.13984790867E+04  0.25500000920E-02 0. -1.
        2   -1    0    0  501    0  0.00000000000E+00  0.00000000000E+00 -0.19772825986E+04  0.19772825986E+04  0.25500000920E-02 0.  1.
    10030    2    1    2    0    0  0.00000000000E+00  0.00000000000E+00 -0.57880351189E+03  0.33757616853E+04  0.33257711061E+04 0.  0.
        5    1    3    3  502    0  0.29973342374E+03 -0.47557708094E+03 -0.18779022179E+04  0.19602429735E+04  0.46999998093E+01 0.  1.
       -5    1    3    3    0  502 -0.29973342374E+03  0.47557708094E+03  0.12990987060E+04  0.14155187117E+04  0.46999998093E+01 0. -1.
</event>
<event>
 5   0  0.6351753E-07  0.3304112E+04  0.7818609E-02  0.8161850E-01
        2   -1    0    0  501    0  0.00000000000E+00  0.00000000000E+00  0.18617536864E+04  0.18617536864E+04  0.25500000920E-02 0. -1.
       -2   -1    0    0    0  501  0.00000000000E+00  0.00000000000E+00 -0.14659778178E+04  0.14659778178E+04  0.25500000920E-02 0.  1.
    10030    2    1    2    0    0  0.00000000000E+00  0.00000000000E+00  0.39577586869E+03  0.33277315042E+04  0.33041123507E+04 0.  0.
        3    1    3    3  502    0 -0.25998115022E+03  0.16205882649E+04  0.38736323757E+03  0.16864005487E+04  0.10100000352E+00 0.  1.
       -3    1    3    3    0  502  0.25998115022E+03 -0.16205882649E+04  0.84126311270E+01  0.16413309555E+04  0.10100000352E+00 0. -1.
</event>
<event>
 5   0  0.2057130E-07  0.3291513E+04  0.7818609E-02  0.8165058E-01
        1   -1    0    0  501    0  0.00000000000E+00  0.00000000000E+00  0.11451664615E+04  0.11451664615E+04  0.50400001928E-02 0.  1.
       -1   -1    0    0    0  501  0.00000000000E+00  0.00000000000E+00 -0.23651714361E+04  0.23651714361E+04  0.50400001928E-02 0. -1.
    10030    2    1    2    0    0  0.00000000000E+00  0.00000000000E+00 -0.12200049746E+04  0.35103378975E+04  0.32915133323E+04 0.  0.
        2    1    3    3  502    0  0.15284166987E+04  0.21057786570E+02  0.40475985009E+02  0.15290975576E+04  0.25500000920E-02 0.  1.
       -2    1    3    3    0  502 -0.15284166987E+04 -0.21057786570E+02 -0.12604809596E+04  0.19812403400E+04  0.25500000920E-02 0. -1.
</event>
<event>
 5   0  0.2080828E-07  0.3367567E+04  0.7818609E-02  0.8145913E-01
        1   -1    0    0  501    0  0.00000000000E+00  0.00000000000E+00  0.10948168687E+04  0.10948168687E+04  0.50400001928E-02 0. -1.
       -1   -1    0    0    0  501  0.00000000000E+00  0.00000000000E+00 -0.25895905446E+04  0.25895905446E+04  0.50400001928E-02 0.  1.
    10030    2    1    2    0    0  0.00000000000E+00  0.00000000000E+00 -0.14947736759E+04  0.36844074133E+04  0.33675673185E+04 0.  0.
        1    1    3    3  502    0 -0.22331312707E+03 -0.13932792932E+04  0.25776270857E+03  0.14344119198E+04  0.50400001928E-02 0. -1.
       -1    1    3    3    0  502  0.22331312707E+03  0.13932792932E+04 -0.17525363845E+04  0.22499954935E+04  0.50400001928E-02 0.  1.
</event>
<event>
 5   0  0.2057130E-07  0.3317132E+04  0.7818609E-02  0.8158550E-01
       -1   -1    0    0    0  501  0.00000000000E+00  0.00000000000E+00  0.18844090550E+04  0.18844090550E+04  0.50400001928E-02 0.  1.
        1   -1    0    0  501    0  0.00000000000E+00  0.00000000000E+00 -0.14597899514E+04  0.14597899514E+04  0.50400001928E-02 0. -1.
    10030    2    1    2    0    0  0.00000000000E+00  0.00000000000E+00  0.42461910364E+03  0.33441990064E+04  0.33171321365E+04 0.  0.
        2    1    3    3  502    0  0.11198816454E+03  0.43765842675E+02  0.18800094832E+04  0.18838504333E+04  0.25500000920E-02 0.  1.
       -2    1    3    3    0  502 -0.11198816454E+03 -0.43765842675E+02 -0.14553903796E+04  0.14603485731E+04  0.25500000920E-02 0. -1.
</event>
<event>
 5   0  0.6351753E-07  0.3284860E+04  0.7818609E-02  0.8166759E-01
        2   -1    0    0  501    0  0.00000000000E+00  0.00000000000E+00  0.13995316859E+04  0.13995316859E+04  0.25500000920E-02 0.  1.
       -2   -1    0    0    0  501  0.00000000000E+00  0.00000000000E+00 -0.19274847139E+04  0.19274847139E+04  0.25500000920E-02 0. -1.
    10030    2    1    2    0    0  0.00000000000E+00  0.00000000000E+00 -0.52795302802E+03  0.33270163999E+04  0.32848597725E+04 0.  0.
        3    1    3    3  502    0  0.73438215221E+03 -0.81162102788E+03  0.97629194196E+03  0.14666941755E+04  0.10100000352E+00 0.  1.
       -3    1    3    3    0  502 -0.73438215221E+03  0.81162102788E+03 -0.15042449700E+04  0.18603222243E+04  0.10100000352E+00 0. -1.
</event>
<event>
 5   0  0.2057130E-07  0.3297871E+04  0.7818609E-02  0.8163437E-01
       -1   -1    0    0    0  501  0.00000000000E+00  0.00000000000E+00  0.94074127631E+03  0.94074127632E+03  0.50400001928E-02 0.  1.
        1   -1    0    0  501    0  0.00000000000E+00  0.00000000000E+00 -0.28902609060E+04  0.28902609060E+04  0.50400001928E-02 0. -1.
    10030    2    1    2    0    0  0.00000000000E+00  0.00000000000E+00 -0.19495196297E+04  0.38310021824E+04  0.32978706667E+04 0.  0.
        2    1    3    3  502    0 -0.14147828149E+04  0.42844175184E+03 -0.18234988180E+04  0.23474072265E+04  0.25500000920E-02 0.  1.
       -2    1    3    3    0  502  0.14147828149E+04 -0.42844175184E+03 -0.12602081176E+03  0.14835949558E+04  0.25500000920E-02 0. -1.
</event>
<event>
 5   0  0.6426079E-07  0.3303329E+04  0.7818609E-02  0.8162049E-01
        2   -1    0    0  501    0  0.00000000000E+00  0.00000000000E+00  0.13632324262E+04  0.13632324262E+04  0.25500000920E-02 0. -1.
       -2   -1    0    0    0  501  0.00000000000E+00  0.00000000000E+00 -0.20011228625E+04  0.20011228625E+04  0.25500000920E-02 0.  1.
    10030    2    1    2    0    0  0.00000000000E+00  0.00000000000E+00 -0.63789043634E+03  0.33643552887E+04  0.33033289724E+04 0.  0.
        4    1    3    3  502    0  0.15705489588E+04 -0.42114715621E+03 -0.61413587107E+03  0.17381465532E+04  0.12699999809E+01 0.  1.
       -4    1    3    3    0  502 -0.15705489588E+04  0.42114715621E+03 -0.23754565274E+02  0.16262087355E+04  0.12699999809E+01 0. -1.
</event>
<event>
 5   0  0.2037333E-07  0.3283643E+04  0.7818609E-02  0.8167070E-01
       -1   -1    0    0    0  501  0.00000000000E+00  0.00000000000E+00  0.14196353246E+04  0.14196353246E+04  0.50400001928E-02 0. -1.
        1   -1    0    0  501    0  0.00000000000E+00  0.00000000000E+00 -0.18987814201E+04  0.18987814202E+04  0.50400001928E-02 0.  1.
    10030    2    1    2    0    0  0.00000000000E+00  0.00000000000E+00 -0.47914609555E+03  0.33184167448E+04  0.32836425979E+04 0.  0.
        3    1    3    3  502    0 -0.56590577691E+03 -0.14647447350E+04 -0.72407768949E+03  0.17291659833E+04  0.10100000352E+00 0.  1.
       -3    1    3    3    0  502  0.56590577691E+03  0.14647447350E+04  0.24493159394E+03  0.15892507615E+04  0.10100000352E+00 0. -1.
</event>
<event>
 5   0  0.2080828E-07  0.3308215E+04  0.7818609E-02  0.8160808E-01
       -1   -1    0    0    0  501  0.00000000000E+00  0.00000000000E+00  0.25629505889E+04  0.25629505889E+04  0.50400001928E-02 0.  1.
        1   -1    0    0  501    0  0.00000000000E+00  0.00000000000E+00 -0.10675475069E+04  0.10675475069E+04  0.50400001928E-02 0. -1.
    10030    2    1    2    0    0  0.00000000000E+00  0.00000000000E+00  0.14954030820E+04  0.36304980958E+04  0.33082149335E+04 0.  0.
        1    1    3    3  502    0  0.14719118786E+03 -0.12620092621E+04  0.19100019312E+04  0.22940008720E+04  0.50400001928E-02 0.  1.
       -1    1    3    3    0  502 -0.14719118786E+03  0.12620092621E+04 -0.41459884928E+03  0.13364972238E+04  0.50400001928E-02 0. -1.
</event>
<event>
 5   0  0.6426079E-07  0.3300002E+04  0.7818609E-02  0.8162895E-01
       -2   -1    0    0    0  501  0.00000000000E+00  0.00000000000E+00  0.10978499508E+04  0.10978499508E+04  0.25500000920E-02 0.  1.
        2   -1    0    0  501    0  0.00000000000E+00  0.00000000000E+00 -0.24798494566E+04  0.24798494566E+04  0.25500000920E-02 0. -1.
    10030    2    1    2    0    0  0.00000000000E+00  0.00000000000E+00 -0.13819995058E+04  0.35776994074E+04  0.33000015782E+04 0.  0.
        4    1    3    3  502    0  0.12438018346E+03  0.59464508937E+03 -0.23541831431E+04  0.24313068700E+04  0.12699999809E+01 0. -1.
       -4    1    3    3    0  502 -0.12438018346E+03 -0.59464508937E+03  0.97218363724E+03  0.11463925374E+04  0.12699999809E+01 0.  1.
</event>
<event>
 5   0  0.6258718E-07  0.3313002E+04  0.7818609E-02  0.8159595E-01
       -2   -1    0    0    0  501  0.00000000000E+00  0.00000000000E+00  0.24342733118E+04  0.24342733118E+04  0.25500000920E-02 0.  1.
        2   -1    0    0  501    0  0.00000000000E+00  0.00000000000E+00 -0.11272342203E+04  0.11272342203E+04  0.25500000920E-02 0. -1.
    10030    2    1    2    0    0  0.00000000000E+00  0.00000000000E+00  0.13070390915E+04  0.35615075321E+04  0.33130023717E+04 0.  0.
        5    1    3    3  502    0  0.11164000677E+04  0.93183408537E+03  0.15063142819E+04  0.20937212516E+04  0.46999998093E+01 0.  1.
       -5    1    3    3    0  502 -0.11164000677E+04 -0.93183408537E+03 -0.19927519035E+03  0.14677862805E+04  0.46999998093E+01 0. -1.
</event>
<event>
 5   0  0.2057130E-07  0.3306163E+04  0.7818609E-02  0.8161329E-01
       -1   -1    0    0    0  501  0.00000000000E+00  0.00000000000E+00  0.20702051006E+04  0.20702051006E+04  0.50400001928E-02 0. -1.
        1   -1    0    0  501    0  0.00000000000E+00  0.00000000000E+00 -0.13200035561E+04  0.13200035561E+04  0.50400001928E-02 0.  1.
    10030    2    1    2    0    0  0.00000000000E+00  0.00000000000E+00  0.75020154448E+03  0.33902086567E+04  0.33061627877E+04 0.  0.
        2    1    3    3  502    0 -0.10631318352E+03 -0.20858199226E+03  0.20531197625E+04  0.20664243755E+04  0.25500000920E-02 0. -1.
       -2    1    3    3    0  502  0.10631318352E+03  0.20858199226E+03 -0.13029182180E+04  0.13237842813E+04  0.25500000920E-02 0.  1.
</event>
<event>
 5   0  0.2080770E-07  0.3293347E+04  0.7818609E-02  0.8164590E-01
        1   -1    0    0  501    0  0.00000000000E+00  0.00000000000E+00  0.85435732633E+03  0.85435732635E+03  0.50400001928E-02 0. -1.
       -1   -1    0    0    0  501  0.00000000000E+00  0.00000000000E+00 -0.31737696061E+04  0.31737696061E+04  0.50400001928E-02 0.  1.
    10030    2    1    2    0    0  0.00000000000E+00  0.00000000000E+00 -0.23194122798E+04  0.40281269325E+04  0.32933468175E+04 0.  0.
        4    1    3    3  502    0 -0.95281978210E+03  0.13128043382E+04 -0.81330248328E+03  0.18146027967E+04  0.12699999809E+01 0. -1.
       -4    1    3    3    0  502  0.95281978210E+03 -0.13128043382E+04 -0.15061097965E+04  0.22135241358E+04  0.12699999809E+01 0.  1.
</event>
<event>
 5   0  0.2080828E-07  0.3303426E+04  0.7818609E-02  0.8162024E-01
       -1   -1    0    0    0  501  0.00000000000E+00  0.00000000000E+00  0.11615745432E+04  0.11615745432E+04  0.50400001928E-02 0.  1.
        1   -1    0    0  501    0  0.00000000000E+00  0.00000000000E+00 -0.23486701660E+04  0.23486701660E+04  0.50400001928E-02 0. -1.
    10030    2    1    2    0    0  0.00000000000E+00  0.00000000000E+00 -0.11870956228E+04  0.35102447093E+04  0.33034257826E+04 0.  0.
        1    1    3    3  502    0  0.15821341938E+03  0.16139634238E+04 -0.92661388806E+03  0.18677587417E+04  0.50400001928E-02 0.  1.
       -1    1    3    3    0  502 -0.15821341938E+03 -0.16139634238E+04 -0.26048173479E+03  0.16424859676E+04  0.50400001928E-02 0. -1.
</event>
<event>
 5   0  0.2087665E-07  0.3322687E+04  0.7818609E-02  0.8157147E-01
       -1   -1    0    0    0  501  0.00000000000E+00  0.00000000000E+00  0.12994674062E+04  0.12994674063E+04  0.50400001928E-02 0.  1.
        1   -1    0    0  501    0  0.00000000000E+00  0.00000000000E+00 -0.21239945830E+04  0.21239945830E+04  0.50400001928E-02 0. -1.
    10030    2    1    2    0    0  0.00000000000E+00  0.00000000000E+00 -0.82452717676E+03  0.34234619893E+04  0.33226867031E+04 0.  0.
        5    1    3    3  502    0 -0.15342615686E+04  0.50173492144E+03 -0.81704428713E+03  0.18092208128E+04  0.46999998093E+01 0. -1.
       -5    1    3    3    0  502  0.15342615686E+04 -0.50173492144E+03 -0.74828896285E+01  0.16142411765E+04  0.46999998093E+01 0.  1.
</event>
<event>
 5   0  0.2037333E-07  0.3315591E+04  0.7818609E-02  0.8158940E-01
        1   -1    0    0  501    0  0.00000000000E+00  0.00000000000E+00  0.16770936255E+04  0.16770936255E+04  0.50400001928E-02 0. -1.
       -1   -1    0    0    0  501  0.00000000000E+00  0.00000000000E+00 -0.16387193794E+04  0.16387193794E+04  0.50400001928E-02 0.  1.
    10030    2    1    2    0    0  0.00000000000E+00  0.00000000000E+00  0.38374246116E+02  0.33158130049E+04  0.33155909430E+04 0.  0.
        3    1    3    3  502    0  0.17704834712E+03  0.13049557046E+04 -0.98787103856E+03  0.16462517144E+04  0.10100000352E+00 0.  1.
       -3    1    3    3    0  502 -0.17704834712E+03 -0.13049557046E+04  0.10262452847E+04  0.16695612905E+04  0.10100000352E+00 0. -1.
</event>
<event>
 5   0  0.6377741E-07  0.3294176E+04  0.7818609E-02  0.8164379E-01
        2   -1    0    0  501    0  0.00000000000E+00  0.00000000000E+00  0.20039627853E+04  0.20039627853E+04  0.25500000920E-02 0. -1.
       -2   -1    0    0    0  501  0.00000000000E+00  0.00000000000E+00 -0.13537669106E+04  0.13537669106E+04  0.25500000920E-02 0.  1.
    10030    2    1    2    0    0  0.00000000000E+00  0.00000000000E+00  0.65019587474E+03  0.33577296959E+04  0.32941757748E+04 0.  0.
        1    1    3    3  502    0 -0.94218964977E+03 -0.12674123359E+04 -0.15173410827E+03  0.15865303669E+04  0.50400001928E-02 0.  1.
       -1    1    3    3    0  502  0.94218964977E+03  0.12674123359E+04  0.80192998301E+03  0.17711993290E+04  0.50400001928E-02 0. -1.
</event>
<event>
 5   0  0.2087665E-07  0.3245352E+04  0.7818609E-02  0.8176942E-01
        1   -1    0    0  501    0  0.00000000000E+00  0.00000000000E+00  0.14161243624E+04  0.14161243624E+04  0.50400001928E-02 0.  1.
       -1   -1    0    0    0  501  0.00000000000E+00  0.00000000000E+00 -0.18593541758E+04  0.18593541758E+04  0.50400001928E-02 0. -1.
    10030    2    1    2    0    0  0.00000000000E+00  0.00000000000E+00 -0.44322981339E+03  0.32754785381E+04  0.32453515967E+04 0.  0.
        5    1    3    3  502    0 -0.28329409470E+01  0.23622122035E+03  0.13986683893E+04  0.14184864623E+04  0.46999998093E+01 0.  1.
       -5    1    3    3    0  502  0.28329409470E+01 -0.23622122035E+03 -0.18418982027E+04  0.18569920758E+04  0.46999998093E+01 0. -1.
</event>
<event>
 5   0  0.2080828E-07  0.3294919E+04  0.7818609E-02  0.8164189E-01
       -1   -1    0    0    0  501  0.00000000000E+00  0.00000000000E+00  0.26244631408E+04  0.26244631408E+04  0.50400001928E-02 0.  1.
        1   -1    0    0  501    0  0.00000000000E+00  0.00000000000E+00 -0.10341633137E+04  0.10341633137E+04  0.50400001928E-02 0. -1.
    10030    2    1    2    0    0  0.00000000000E+00  0.00000000000E+00  0.15902998271E+04  0.36586264545E+04  0.32949194215E+04 0.  0.
        1    1    3    3  502    0  0.88766406590E+03  0.12764951976E+04  0.19028498730E+03  0.15663958184E+04  0.50400001928E-02 0. -1.
       -1    1    3    3    0  502 -0.88766406590E+03 -0.12764951976E+04  0.14000148398E+04  0.20922306362E+04  0.50400001928E-02 0.  1.
</event>
<event>
 5   0  0.2037333E-07  0.3311958E+04  0.7818609E-02  0.8159859E-01
        1   -1    0    0  501    0  0.00000000000E+00  0.00000000000E+00  0.14823993366E+04  0.14823993366E+04  0.50400001928E-02 0. -1.
       -1   -1    0    0    0  501  0.00000000000E+00  0.00000000000E+00 -0.18498839734E+04  0.18498839734E+04  0.50400001928E-02 0.  1.
    10030    2    1    2    0    0  0.00000000000E+00  0.00000000000E+00 -0.36748463676E+03  0.33322833100E+04  0.33119581972E+04 0.  0.
        3    1    3    3  502    0  0.56567958991E+03 -0.61463788786E+03 -0.16223751012E+04  0.18247942654E+04  0.10100000352E+00 0.  1.
       -3    1    3    3    0  502 -0.56567958991E+03  0.61463788786E+03  0.12548904645E+04  0.15074890446E+04  0.10100000352E+00 0. -1.
</event>
<event>
 5   0  0.2080770E-07  0.3290549E+04  0.7818609E-02  0.8165304E-01
        1   -1    0    0  501    0  0.00000000000E+00  0.00000000000E+00  0.21978651456E+04  0.21978651456E+04  0.50400001928E-02 0. -1.
       -1   -1    0    0    0  501  0.00000000000E+00  0.00000000000E+00 -0.12316172780E+04  0.12316172780E+04  0.50400001928E-02 0.  1.
    10030    2    1    2    0    0  0.00000000000E+00  0.00000000000E+00  0.96624786763E+03  0.34294824236E+04  0.32905493085E+04 0.  0.
        4    1    3    3  502    0 -0.46793526564E+03  0.65235212263E+03  0.19798649751E+04  0.21364441573E+04  0.12699999809E+01 0. -1.
       -4    1    3    3    0  502  0.46793526564E+03 -0.65235212263E+03 -0.10136171075E+04  0.12930382663E+04  0.12699999809E+01 0.  1.
</event>
<event>
 5   0  0.2037333E-07  0.3310555E+04  0.7818609E-02  0.8160215E-01
        1   -1    0    0  501    0  0.00000000000E+00  0.00000000000E+00  0.19800825532E+04  0.19800825532E+04  0.50400001928E-02 0. -1.
       -1   -1    0    0    0  501  0.00000000000E+00  0.00000000000E+00 -0.13837519173E+04  0.13837519173E+04  0.50400001928E-02 0.  1.
    10030    2    1    2    0    0  0.00000000000E+00  0.00000000000E+00  0.59633063594E+03  0.33638344706E+04  0.33105546541E+04 0.  0.
        3    1    3    3  502    0  0.90382273429E+03 -0.24927809180E+03 -0.10879402126E+04  0.14361925423E+04  0.10100000352E+00 0.  1.
       -3    1    3    3    0  502 -0.90382273429E+03  0.24927809180E+03  0.16842708486E+04  0.19276419283E+04  0.10100000352E+00 0. -1.
</event>
<event>
 5   0  0.6377741E-07  0.3306928E+04  0.7818609E-02  0.8161135E-01
       -2   -1    0    0    0  501  0.00000000000E+00  0.00000000000E+00  0.13988816433E+04  0.13988816433E+04  0.25500000920E-02 0.  1.
        2   -1    0    0  501    0  0.00000000000E+00  0.00000000000E+00 -0.19543779078E+04  0.19543779078E+04  0.25500000920E-02 0. -1.
    10030    2    1    2    0    0  0.00000000000E+00  0.00000000000E+00 -0.55549626450E+03  0.33532595510E+04  0.33069281088E+04 0.  0.
        1    1    3    3  502    0  0.37299343059E+03 -0.53791119276E+03 -0.18173989334E+04  0.19316861634E+04  0.50400001928E-02 0. -1.
       -1    1    3    3    0  502 -0.37299343059E+03  0.53791119276E+03  0.12619026689E+04  0.14215733876E+04  0.50400001928E-02 0.  1.
</event>
<event>
 5   0  0.6258718E-07  0.3247633E+04  0.7818609E-02  0.8176350E-01
        2   -1    0    0  501    0  0.00000000000E+00  0.00000000000E+00  0.11953354586E+04  0.11953354586E+04  0.25500000920E-02 0.  1.
       -2   -1    0    0    0  501  0.00000000000E+00  0.00000000000E+00 -0.22058906210E+04  0.22058906210E+04  0.25500000920E-02 0. -1.
    10030    2    1    2    0    0  0.00000000000E+00  0.00000000000E+00 -0.10105551623E+04  0.34012260796E+04  0.32476325390E+04 0.  0.
        5    1    3    3  502    0  0.13415808989E+04  0.90723365823E+03 -0.62850705597E+03  0.17372263607E+04  0.46999998093E+01 0. -1.
       -5    1    3    3    0  502 -0.13415808989E+04 -0.90723365823E+03 -0.38204810636E+03  0.16639997189E+04  0.46999998093E+01 0.  1.
</event>
<event>
 5   0  0.2037333E-07  0.3279547E+04  0.7818609E-02  0.8168119E-01
       -1   -1    0    0    0  501  0.00000000000E+00  0.00000000000E+00  0.26327265086E+04  0.26327265087E+04  0.50400001928E-02 0.  1.
        1   -1    0    0  501    0  0.00000000000E+00  0.00000000000E+00 -0.10213205136E+04  0.10213205136E+04  0.50400001928E-02 0. -1.
    10030    2    1    2    0    0  0.00000000000E+00  0.00000000000E+00  0.16114059951E+04  0.36540470222E+04  0.32795472797E+04 0.  0.
        3    1    3    3  502    0  0.12752882820E+04 -0.88057905148E+03  0.20872252612E+03  0.15637598189E+04  0.10100000352E+00 0. -1.
       -3    1    3    3    0  502 -0.12752882820E+04  0.88057905148E+03  0.14026834690E+04  0.20902872033E+04  0.10100000352E+00 0.  1.
</event>
<event>
 5   0  0.2057130E-07  0.3287936E+04  0.7818609E-02  0.8165972E-01
       -1   -1    0    0    0  501  0.00000000000E+00  0.00000000000E+00  0.12956242360E+04  0.12956242360E+04  0.50400001928E-02 0. -1.
        1   -1    0    0  501    0  0.00000000000E+00  0.00000000000E+00 -0.20859685110E+04  0.20859685110E+04  0.50400001928E-02 0.  1.
    10030    2    1    2    0    0  0.00000000000E+00  0.00000000000E+00 -0.79034427501E+03  0.33815927470E+04  0.32879363488E+04 0.  0.
        2    1    3    3  502    0 -0.13682258205E+04 -0.88500039920E+03 -0.61900351619E+03  0.17431101386E+04  0.25500000920E-02 0.  1.
       -2    1    3    3    0  502  0.13682258205E+04  0.88500039920E+03 -0.17134075882E+03  0.16384826084E+04  0.25500000920E-02 0. -1.
</event>
<event>
 5   0  0.2080770E-07  0.3311108E+04  0.7818609E-02  0.8160075E-01
        1   -1    0    0  501    0  0.00000000000E+00  0.00000000000E+00  0.23806536373E+04  0.23806536374E+04  0.50400001928E-02 0. -1.
       -1   -1    0    0    0  501  0.00000000000E+00  0.00000000000E+00 -0.11513049340E+04  0.11513049340E+04  0.50400001928E-02 0.  1.
    10030    2    1    2    0    0  0.00000000000E+00  0.00000000000E+00  0.12293487034E+04  0.35319585713E+04  0.33111075360E+04 0.  0.
        4    1    3    3  502    0  0.10802128141E+03  0.11957765865E+04  0.18305750501E+04  0.21891909165E+04  0.12699999809E+01 0. -1.
       -4    1    3    3    0  502 -0.10802128141E+03 -0.11957765865E+04 -0.60122634670E+03  0.13427676548E+04  0.12699999809E+01 0.  1.
</event>
<event>
 5   0  0.2057130E-07  0.3276938E+04  0.7818609E-02  0.8168789E-01
       -1   -1    0    0    0  501  0.00000000000E+00  0.00000000000E+00  0.19860305305E+04  0.19860305305E+04  0.50400001928E-02 0.  1.
        1   -1    0    0  501    0  0.00000000000E+00  0.00000000000E+00 -0.13517315027E+04  0.13517315027E+04  0.50400001928E-02 0. -1.
    10030    2    1    2    0    0  0.00000000000E+00  0.00000000000E+00  0.63429902781E+03  0.33377620332E+04  0.32769376152E+04 0.  0.
        2    1    3    3  502    0  0.24941205119E+03  0.27306597701E+03  0.19429625416E+04  0.19778460095E+04  0.25500000920E-02 0.  1.
       -2    1    3    3    0  502 -0.24941205119E+03 -0.27306597701E+03 -0.13086635138E+04  0.13599160237E+04  0.25500000920E-02 0. -1.
</event>
<event>
 5   0  0.2080828E-07  0.3322186E+04  0.7818609E-02  0.8157273E-01
       -1   -1    0    0    0  501  0.00000000000E+00  0.00000000000E+00  0.13294289207E+04  0.13294289207E+04  0.50400001928E-02 0. -1.
        1   -1    0    0  501    0  0.00000000000E+00  0.00000000000E+00 -0.20754997433E+04  0.20754997433E+04  0.50400001928E-02 0.  1.
    10030    2    1    2    0    0  0.00000000000E+00  0.00000000000E+00 -0.74607082260E+03  0.34049286640E+04  0.33221856562E+04 0.  0.
        1    1    3    3  502    0  0.79242812565E+03  0.69283376493E+03  0.94398636778E+03  0.14138851519E+04  0.50400001928E-02 0. -1.
       -1    1    3    3    0  502 -0.79242812565E+03 -0.69283376493E+03 -0.16900571904E+04  0.19910435121E+04  0.50400001928E-02 0.  1.
</event>
<event>
 5   0  0.2087665E-07  0.3298283E+04  0.7818609E-02  0.8163332E-01
        1   -1    0    0  501    0  0.00000000000E+00  0.00000000000E+00  0.17394423827E+04  0.17394423827E+04  0.50400001928E-02 0.  1.
       -1   -1    0    0    0  501  0.00000000000E+00  0.00000000000E+00 -0.15635281505E+04  0.15635281505E+04  0.50400001928E-02 0. -1.
    10030    2    1    2    0    0  0.00000000000E+00  0.00000000000E+00  0.17591423219E+03  0.33029705332E+04  0.32982826632E+04 0.  0.
        5    1    3    3  502    0 -0.15906014157E+04  0.12746352321E+03  0.50494446073E+03  0.16736937628E+04  0.46999998093E+01 0.  1.
       -5    1    3    3    0  502  0.15906014157E+04 -0.12746352321E+03 -0.32903022854E+03  0.16292767704E+04  0.46999998093E+01 0. -1.
</event>
<event>
 5   0  0.6258718E-07  0.3289905E+04  0.7818609E-02  0.8165469E-01
       -2   -1    0    0    0  501  0.00000000000E+00  0.00000000000E+00  0.12607453542E+04  0.12607453542E+04  0.25500000920E-02 0.  1.
        2   -1    0    0  501    0  0.00000000000E+00  0.00000000000E+00 -0.21462447762E+04  0.21462447762E+04  0.25500000920E-02 0. -1.
    10030    2    1    2    0    0  0.00000000000E+00  0.00000000000E+00 -0.88549942200E+03  0.34069901303E+04  0.32899046372E+04 0.  0.
        5    1    3    3  502    0  0.91383218142E+03  0.13049684737E+04 -0.18519348841E+02  0.15932347691E+04  0.46999998093E+01 0.  1.
       -5    1    3    3    0  502 -0.91383218142E+03 -0.13049684737E+04 -0.86698007316E+03  0.18137553612E+04  0.46999998093E+01 0. -1.
</event>
<event>
 5   0  0.6426079E-07  0.3295049E+04  0.7818609E-02  0.8164156E-01
       -2   -1    0    0    0  501  0.00000000000E+00  0.00000000000E+00  0.14313729304E+04  0.14313729304E+04  0.25500000920E-02 0.  1.
        2   -1    0    0  501    0  0.00000000000E+00  0.00000000000E+00 -0.18963176661E+04  0.18963176661E+04  0.25500000920E-02 0. -1.
    10030    2    1    2    0    0  0.00000000000E+00  0.00000000000E+00 -0.46494473570E+03  0.33276905966E+04  0.32950494836E+04 0.  0.
        4    1    3    3  502    0  0.37209886805E+03 -0.10161183224E+04  0.10221636034E+04  0.14885476337E+04  0.12699999809E+01 0.  1.
       -4    1    3    3    0  502 -0.37209886805E+03  0.10161183224E+04 -0.14871083391E+04  0.18391429629E+04  0.12699999809E+01 0. -1.
</event>
<event>
 5   0  0.2087665E-07  0.3299502E+04  0.7818609E-02  0.8163022E-01
        1   -1    0    0  501    0  0.00000000000E+00  0.00000000000E+00  0.15353669411E+04  0.15353669411E+04  0.50400001928E-02 0. -1.
       -1   -1    0    0    0  501  0.00000000000E+00  0.00000000000E+00 -0.17726566016E+04  0.17726566016E+04  0.50400001928E-02 0.  1.
    10030    2    1    2    0    0  0.00000000000E+00  0.00000000000E+00 -0.23728966046E+03  0.33080235427E+04  0.32995019891E+04 0.  0.
        5    1    3    3  502    0 -0.49714985008E+03  0.33051924041E+03 -0.16605554885E+04  0.17646154148E+04  0.46999998093E+01 0.  1.
       -5    1    3    3    0  502  0.49714985008E+03 -0.33051924041E+03  0.14232658281E+04  0.15434081278E+04  0.46999998093E+01 0. -1.
</event>
<event>
 5   0  0.6351753E-07  0.3304939E+04  0.7818609E-02  0.8161640E-01
        2   -1    0    0  501    0  0.00000000000E+00  0.00000000000E+00  0.18720443284E+04  0.18720443284E+04  0.25500000920E-02 0.  1.
       -2   -1    0    0    0  501  0.00000000000E+00  0.00000000000E+00 -0.14586488929E+04  0.14586488929E+04  0.25500000920E-02 0. -1.
    10030    2    1    2    0    0  0.00000000000E+00  0.00000000000E+00  0.41339543553E+03  0.33306932213E+04  0.33049389628E+04 0.  0.
        3    1    3    3  502    0  0.77540707714E+03  0.11818901517E+04 -0.65585441525E+03  0.15582892832E+04  0.10100000352E+00 0. -1.
       -3    1    3    3    0  502 -0.77540707714E+03 -0.11818901517E+04  0.10692498508E+04  0.17724039380E+04  0.10100000352E+00 0.  1.
</event>
<event>
 5   0  0.6426079E-07  0.3312998E+04  0.7818609E-02  0.8159596E-01
        2   -1    0    0  501    0  0.00000000000E+00  0.00000000000E+00  0.15284217877E+04  0.15284217877E+04  0.25500000920E-02 0.  1.
       -2   -1    0    0    0  501  0.00000000000E+00  0.00000000000E+00 -0.17953082400E+04  0.17953082400E+04  0.25500000920E-02 0. -1.
    10030    2    1    2    0    0  0.00000000000E+00  0.00000000000E+00 -0.26688645221E+03  0.33237300277E+04  0.33129975730E+04 0.  0.
        4    1    3    3  502    0 -0.15950058510E+04  0.51009997049E+02  0.31222657887E+03  0.16260789445E+04  0.12699999809E+01 0.  1.
       -4    1    3    3    0  502  0.15950058510E+04 -0.51009997049E+02 -0.57911303108E+03  0.16976510832E+04  0.12699999809E+01 0. -1.
</event>
<event>
 5   0  0.6426079E-07  0.3273475E+04  0.7818609E-02  0.8169678E-01
        2   -1    0    0  501    0  0.00000000000E+00  0.00000000000E+00  0.11671906871E+04  0.11671906871E+04  0.25500000920E-02 0. -1.
       -2   -1    0    0    0  501  0.00000000000E+00  0.00000000000E+00 -0.22951773765E+04  0.22951773765E+04  0.25500000920E-02 0.  1.
    10030    2    1    2    0    0  0.00000000000E+00  0.00000000000E+00 -0.11279866894E+04  0.34623680636E+04  0.32734750093E+04 0.  0.
        4    1    3    3  502    0  0.10274969776E+04  0.12210461250E+04 -0.17941298117E+03  0.16058936169E+04  0.12699999809E+01 0. -1.
       -4    1    3    3    0  502 -0.10274969776E+04 -0.12210461250E+04 -0.94857370821E+03  0.18564744466E+04  0.12699999809E+01 0.  1.
</event>
<event>
 5   0  0.2080828E-07  0.3303818E+04  0.7818609E-02  0.8161925E-01
        1   -1    0    0  501    0  0.00000000000E+00  0.00000000000E+00  0.13721153939E+04  0.13721153940E+04  0.50400001928E-02 0.  1.
       -1   -1    0    0    0  501  0.00000000000E+00  0.00000000000E+00 -0.19887560248E+04  0.19887560248E+04  0.50400001928E-02 0. -1.
    10030    2    1    2    0    0  0.00000000000E+00  0.00000000000E+00 -0.61664063081E+03  0.33608714187E+04  0.33038176441E+04 0.  0.
        1    1    3    3  502    0  0.12910228899E+03 -0.17193959277E+03 -0.19744604789E+04  0.19861331293E+04  0.50400001928E-02 0. -1.
       -1    1    3    3    0  502 -0.12910228899E+03  0.17193959277E+03  0.13578198481E+04  0.13747382894E+04  0.50400001928E-02 0.  1.
</event>
<event>
 5   0  0.2087665E-07  0.3270185E+04  0.7818609E-02  0.8170524E-01
        1   -1    0    0  501    0  0.00000000000E+00  0.00000000000E+00  0.19860358262E+04  0.19860358262E+04  0.50400001928E-02 0.  1.
       -1   -1    0    0    0  501  0.00000000000E+00  0.00000000000E+00 -0.13461623756E+04  0.13461623756E+04  0.50400001928E-02 0. -1.
    10030    2    1    2    0    0  0.00000000000E+00  0.00000000000E+00  0.63987345067E+03  0.33321982018E+04  0.32701845243E+04 0.  0.
        5    1    3    3  502    0  0.84350741234E+03 -0.19717033289E+03  0.17330018540E+04  0.19374463633E+04  0.46999998093E+01 0.  1.
       -5    1    3    3    0  502 -0.84350741234E+03  0.19717033289E+03 -0.10931284033E+04  0.13947518385E+04  0.46999998093E+01 0. -1.
</event>
<event>
 5   0  0.2037333E-07  0.3318280E+04  0.7818609E-02  0.8158259E-01
       -1   -1    0    0    0  501  0.00000000000E+00  0.00000000000E+00  0.17710334807E+04  0.17710334807E+04  0.50400001928E-02 0. -1.
        1   -1    0    0  501    0  0.00000000000E+00  0.00000000000E+00 -0.15543161790E+04  0.15543161790E+04  0.50400001928E-02 0.  1.
    10030    2    1    2    0    0  0.00000000000E+00  0.00000000000E+00  0.21671730172E+03  0.33253496597E+04  0.33182802730E+04 0.  0.
        3    1    3    3  502    0 -0.59691550171E+03  0.14576641296E+03 -0.14360898540E+04  0.15620211402E+04  0.10100000352E+00 0.  1.
       -3    1    3    3    0  502  0.59691550171E+03 -0.14576641296E+03  0.16528071558E+04  0.17633285195E+04  0.10100000352E+00 0. -1.
</event>
<event>
 5   0  0.6377741E-07  0.3297874E+04  0.7818609E-02  0.8163437E-01
       -2   -1    0    0    0  501  0.00000000000E+00  0.00000000000E+00  0.11986970325E+04  0.11986970325E+04  0.25500000920E-02 0.  1.
        2   -1    0    0  501    0  0.00000000000E+00  0.00000000000E+00 -0.22682909039E+04  0.22682909039E+04  0.25500000920E-02 0. -1.
    10030    2    1    2    0    0  0.00000000000E+00  0.00000000000E+00 -0.10695938714E+04  0.34669879364E+04  0.32978742095E+04 0.  0.
        1    1    3    3  502    0 -0.87340451465E+03 -0.13982687711E+04 -0.56808405765E+03  0.17437633151E+04  0.50400001928E-02 0. -1.
       -1    1    3    3    0  502  0.87340451465E+03  0.13982687711E+04 -0.50150981371E+03  0.17232246214E+04  0.50400001928E-02 0.  1.
</event>
<event>
 5   0  0.2080828E-07  0.3301298E+04  0.7818609E-02  0.8162565E-01
       -1   -1    0    0    0  501  0.00000000000E+00  0.00000000000E+00  0.25028602404E+04  0.25028602404E+04  0.50400001928E-02 0. -1.
        1   -1    0    0  501    0  0.00000000000E+00  0.00000000000E+00 -0.10886113940E+04  0.10886113940E+04  0.50400001928E-02 0.  1.
    10030    2    1    2    0    0  0.00000000000E+00  0.00000000000E+00  0.14142488464E+04  0.35914716345E+04  0.33012980328E+04 0.  0.
        1    1    3    3  502    0 -0.93134938444E+03 -0.56226197899E+02 -0.77420165074E+03  0.12124195880E+04  0.50400001928E-02 0.  1.
       -1    1    3    3    0  502  0.93134938444E+03  0.56226197899E+02  0.21884504972E+04  0.23790520465E+04  0.50400001928E-02 0. -1.
</event>
<event>
 5   0  0.6351753E-07  0.3300363E+04  0.7818609E-02  0.8162803E-01
       -2   -1    0    0    0  501  0.00000000000E+00  0.00000000000E+00  0.23724092703E+04  0.23724092703E+04  0.25500000920E-02 0.  1.
        2   -1    0    0  501    0  0.00000000000E+00  0.00000000000E+00 -0.11478201220E+04  0.11478201220E+04  0.25500000920E-02 0. -1.
    10030    2    1    2    0    0  0.00000000000E+00  0.00000000000E+00  0.12245891483E+04  0.35202293923E+04  0.33003630697E+04 0.  0.
        3    1    3    3  502    0 -0.74091571800E+03  0.14668641520E+04  0.77211859186E+03  0.18157129927E+04  0.10100000352E+00 0. -1.
       -3    1    3    3    0  502  0.74091571800E+03 -0.14668641520E+04  0.45247055648E+03  0.17045163996E+04  0.10100000352E+00 0.  1.
</event>
<event>
 5   0  0.2087665E-07  0.3323008E+04  0.7818609E-02  0.8157066E-01
       -1   -1    0    0    0  501  0.00000000000E+00  0.00000000000E+00  0.23401101799E+04  0.23401101799E+04  0.50400001928E-02 0. -1.
        1   -1    0    0  501    0  0.00000000000E+00  0.00000000000E+00 -0.11796862447E+04  0.11796862447E+04  0.50400001928E-02 0.  1.
    10030    2    1    2    0    0  0.00000000000E+00  0.00000000000E+00  0.11604239351E+04  0.35197964246E+04  0.33230081495E+04 0.  0.
        5    1    3    3  502    0  0.79518411908E+03 -0.14169565306E+04  0.21253888548E+03  0.16386819278E+04  0.46999998093E+01 0.  1.
       -5    1    3    3    0  502 -0.79518411908E+03  0.14169565306E+04  0.94788504965E+03  0.18811144968E+04  0.46999998093E+01 0. -1.
</event>
<event>
 5   0  0.6351753E-07  0.3307933E+04  0.7818609E-02  0.8160880E-01
       -2   -1    0    0    0  501  0.00000000000E+00  0.00000000000E+00  0.15798124178E+04  0.15798124178E+04  0.25500000920E-02 0. -1.
        2   -1    0    0  501    0  0.00000000000E+00  0.00000000000E+00 -0.17316012261E+04  0.17316012261E+04  0.25500000920E-02 0.  1.
    10030    2    1    2    0    0  0.00000000000E+00  0.00000000000E+00 -0.15178880829E+03  0.33114136439E+04  0.33079329616E+04 0.  0.
        3    1    3    3  502    0  0.76511313686E+03  0.29521437507E+02 -0.15434982407E+04  0.17229789484E+04  0.10100000352E+00 0.  1.
       -3    1    3    3    0  502 -0.76511313686E+03 -0.29521437507E+02  0.13917094324E+04  0.15884346955E+04  0.10100000352E+00 0. -1.
</event>
<event>
 5   0  0.6377741E-07  0.3300625E+04  0.7818609E-02  0.8162736E-01
       -2   -1    0    0    0  501  0.00000000000E+00  0.00000000000E+00  0.15788637196E+04  0.15788637196E+04  0.25500000920E-02 0. -1.
        2   -1    0    0  501    0  0.00000000000E+00  0.00000000000E+00 -0.17249947130E+04  0.17249947130E+04  0.25500000920E-02 0.  1.
    10030    2    1    2    0    0  0.00000000000E+00  0.00000000000E+00 -0.14613099338E+03  0.33038584326E+04  0.33006251341E+04 0.  0.
        1    1    3    3  502    0  0.16244071930E+03 -0.55025496415E+03 -0.16219545827E+04  0.17204372064E+04  0.50400001928E-02 0.  1.
       -1    1    3    3    0  502 -0.16244071930E+03  0.55025496415E+03  0.14758235893E+04  0.15834212262E+04  0.50400001928E-02 0. -1.
</event>
<event>
 5   0  0.2087665E-07  0.3298270E+04  0.7818609E-02  0.8163336E-01
       -1   -1    0    0    0  501  0.00000000000E+00  0.00000000000E+00  0.99283205592E+03  0.99283205593E+03  0.50400001928E-02 0. -1.
        1   -1    0    0  501    0  0.00000000000E+00  0.00000000000E+00 -0.27392817104E+04  0.27392817104E+04  0.50400001928E-02 0.  1.
    10030    2    1    2    0    0  0.00000000000E+00  0.00000000000E+00 -0.17464496545E+04  0.37321137663E+04  0.32982702693E+04 0.  0.
        5    1    3    3  502    0  0.63874232006E+02  0.15149089501E+04 -0.13938551330E+03  0.15226553964E+04  0.46999998093E+01 0. -1.
       -5    1    3    3    0  502 -0.63874232006E+02 -0.15149089501E+04 -0.16070641412E+04  0.22094583700E+04  0.46999998093E+01 0.  1.
</event>
<event>
 5   0  0.2080770E-07  0.3309173E+04  0.7818609E-02  0.8160565E-01
        1   -1    0    0  501    0  0.00000000000E+00  0.00000000000E+00  0.18594192798E+04  0.18594192798E+04  0.50400001928E-02 0. -1.
       -1   -1    0    0    0  501  0.00000000000E+00  0.00000000000E+00 -0.14723176366E+04  0.14723176366E+04  0.50400001928E-02 0.  1.
    10030    2    1    2    0    0  0.00000000000E+00  0.00000000000E+00  0.38710164319E+03  0.33317369164E+04  0.33091725851E+04 0.  0.
        4    1    3    3  502    0 -0.37395111445E+03  0.21259698059E+02 -0.14290720351E+04  0.14773421760E+04  0.12699999809E+01 0.  1.
       -4    1    3    3    0  502  0.37395111445E+03 -0.21259698059E+02  0.18161736783E+04  0.18543947404E+04  0.12699999809E+01 0. -1.
</event>
<event>
 5   0  0.6424183E-07  0.3301203E+04  0.7818609E-02  0.8162589E-01
        2   -1    0    0  501    0  0.00000000000E+00  0.00000000000E+00  0.29518883185E+04  0.29518883185E+04  0.25500000920E-02 0.  1.
       -2   -1    0    0    0  501  0.00000000000E+00  0.00000000000E+00 -0.92296336017E+03  0.92296336017E+03  0.25500000920E-02 0. -1.
    10030    2    1    2    0    0  0.00000000000E+00  0.00000000000E+00  0.20289249583E+04  0.38748516787E+04  0.33012026665E+04 0.  0.
        2    1    3    3  502    0  0.34692596777E+03 -0.15304256681E+04  0.16151808063E+04  0.22519701130E+04  0.25500000920E-02 0.  1.
       -2    1    3    3    0  502 -0.34692596777E+03  0.15304256681E+04  0.41374415198E+03  0.16228815656E+04  0.25500000920E-02 0. -1.
</event>
<event>
 5   0  0.6424183E-07  0.3306860E+04  0.7818609E-02  0.8161152E-01
       -2   -1    0    0    0  501  0.00000000000E+00  0.00000000000E+00  0.12500870719E+04  0.12500870719E+04  0.25500000920E-02 0.  1.
        2   -1    0    0  501    0  0.00000000000E+00  0.00000000000E+00 -0.21869118951E+04  0.21869118951E+04  0.25500000920E-02 0. -1.
    10030    2    1    2    0    0  0.00000000000E+00  0.00000000000E+00 -0.93682482320E+03  0.34369989669E+04  0.33068597112E+04 0.  0.
        2    1    3    3  502    0 -0.32810129073E+03  0.14787931889E+04 -0.11573330737E+04  0.19062789922E+04  0.25500000920E-02 0. -1.
       -2    1    3    3    0  502  0.32810129073E+03 -0.14787931889E+04  0.22050825046E+03  0.15307199748E+04  0.25500000920E-02 0.  1.
</event>
<event>
 5   0  0.2037333E-07  0.3291695E+04  0.7818609E-02  0.8165012E-01
        1   -1    0    0  501    0  0.00000000000E+00  0.00000000000E+00  0.18058465163E+04  0.18058465164E+04  0.50400001928E-02 0. -1.
       -1   -1    0    0    0  501  0.00000000000E+00  0.00000000000E+00 -0.15000242771E+04  0.15000242771E+04  0.50400001928E-02 0.  1.
    10030    2    1    2    0    0  0.00000000000E+00  0.00000000000E+00  0.30582223925E+03  0.33058707935E+04  0.32916947703E+04 0.  0.
        3    1    3    3  502    0 -0.70677851636E+03  0.92436338536E+03  0.13218955611E+04  0.17610767797E+04  0.10100000352E+00 0. -1.
       -3    1    3    3    0  502  0.70677851636E+03 -0.92436338536E+03 -0.10160733218E+04  0.15447940138E+04  0.10100000352E+00 0.  1.
</event>
<event>
 5   0  0.2057130E-07  0.3288476E+04  0.7818609E-02  0.8165834E-01
       -1   -1    0    0    0  501  0.00000000000E+00  0.00000000000E+00  0.22094401646E+04  0.22094401646E+04  0.50400001928E-02 0. -1.
        1   -1    0    0  501    0  0.00000000000E+00  0.00000000000E+00 -0.12236212960E+04  0.12236212960E+04  0.50400001928E-02 0.  1.
    10030    2    1    2    0    0  0.00000000000E+00  0.00000000000E+00  0.98581886859E+03  0.34330614605E+04  0.32884756575E+04 0.  0.
        2    1    3    3  502    0 -0.14903475787E+04 -0.64873099015E+03  0.75186856760E+03  0.17908919972E+04  0.25500000920E-02 0. -1.
       -2    1    3    3    0  502  0.14903475787E+04  0.64873099015E+03  0.23395030099E+03  0.16421694633E+04  0.25500000920E-02 0.  1.
</event>
<event>
 5   0  0.6377741E-07  0.3276796E+04  0.7818609E-02  0.8168825E-01
        2   -1    0    0  501    0  0.00000000000E+00  0.00000000000E+00  0.19199792059E+04  0.19199792059E+04  0.25500000920E-02 0.  1.
       -2   -1    0    0    0  501  0.00000000000E+00  0.00000000000E+00 -0.13981134817E+04  0.13981134817E+04  0.25500000920E-02 0. -1.
    10030    2    1    2    0    0  0.00000000000E+00  0.00000000000E+00  0.52186572420E+03  0.33180926877E+04  0.32767964920E+04 0.  0.
        1    1    3    3  502    0 -0.51947867356E+03 -0.12093660174E+02 -0.13124653768E+04  0.14115841152E+04  0.50400001928E-02 0. -1.
       -1    1    3    3    0  502  0.51947867356E+03  0.12093660174E+02  0.18343311010E+04  0.19065085725E+04  0.50400001928E-02 0.  1.
</event>
<event>
 5   0  0.2080770E-07  0.3272020E+04  0.7818609E-02  0.8170052E-01
        1   -1    0    0  501    0  0.00000000000E+00  0.00000000000E+00  0.15357202324E+04  0.15357202324E+04  0.50400001928E-02 0.  1.
       -1   -1    0    0    0  501  0.00000000000E+00  0.00000000000E+00 -0.17428492846E+04  0.17428492846E+04  0.50400001928E-02 0. -1.
    10030    2    1    2    0    0  0.00000000000E+00  0.00000000000E+00 -0.20712905220E+03  0.32785695170E+04  0.32720201151E+04 0.  0.
        4    1    3    3  502    0 -0.10912241886E+04 -0.11984974140E+04  0.11905357242E+03  0.16252204919E+04  0.12699999809E+01 0.  1.
       -4    1    3    3    0  502  0.10912241886E+04  0.11984974140E+04 -0.32618262462E+03  0.16533490251E+04  0.12699999809E+01 0. -1.
</event>
<event>
 5   0  0.6377741E-07  0.3309855E+04  0.7818609E-02  0.8160392E-01
       -2   -1    0    0    0  501  0.00000000000E+00  0.00000000000E+00  0.29618813037E+04  0.29618813037E+04  0.25500000920E-02 0. -1.
        2   -1    0    0  501    0  0.00000000000E+00  0.00000000000E+00 -0.92467743164E+03  0.92467743164E+03  0.25500000920E-02 0.  1.
    10030    2    1    2    0    0  0.00000000000E+00  0.00000000000E+00  0.20372038721E+04  0.38865587354E+04  0.33098548589E+04 0.  0.
        1    1    3    3  502    0 -0.72250813482E+03  0.14791213728E+04  0.12184528868E+04  0.20480345402E+04  0.50400001928E-02 0. -1.
       -1    1    3    3    0  502  0.72250813482E+03 -0.14791213728E+04  0.81875098529E+03  0.18385241952E+04  0.50400001928E-02 0.  1.
</event>
<event>
 5   0  0.2080828E-07  0.3269064E+04  0.7818609E-02  0.8170812E-01
       -1   -1    0    0    0  501  0.00000000000E+00  0.00000000000E+00  0.10098307818E+04  0.10098307818E+04  0.50400001928E-02 0.  1.
        1   -1    0    0  501    0  0.00000000000E+00  0.00000000000E+00 -0.26456848978E+04  0.26456848978E+04  0.50400001928E-02 0. -1.
    10030    2    1    2    0    0  0.00000000000E+00  0.00000000000E+00 -0.16358541161E+04  0.36555156796E+04  0.32690635042E+04 0.  0.
        1    1    3    3  502    0 -0.10524902143E+04  0.39010976705E+02  0.57981324363E+03  0.12022649064E+04  0.50400001928E-02 0.  1.
       -1    1    3    3    0  502  0.10524902143E+04 -0.39010976705E+02 -0.22156673597E+04  0.24532507732E+04  0.50400001928E-02 0. -1.
</event>
<event>
 5   0  0.6426079E-07  0.3316451E+04  0.7818609E-02  0.8158722E-01
       -2   -1    0    0    0  501  0.00000000000E+00  0.00000000000E+00  0.94262223248E+03  0.94262223249E+03  0.25500000920E-02 0.  1.
        2   -1    0    0  501    0  0.00000000000E+00  0.00000000000E+00 -0.29170869941E+04  0.29170869941E+04  0.25500000920E-02 0. -1.
    10030    2    1    2    0    0  0.00000000000E+00  0.00000000000E+00 -0.19744647616E+04  0.38597092266E+04  0.33164505452E+04 0.  0.
        4    1    3    3  502    0  0.15167840363E+03  0.15289732146E+04 -0.26141960591E+03  0.15585593515E+04  0.12699999809E+01 0.  1.
       -4    1    3    3    0  502 -0.15167840363E+03 -0.15289732146E+04 -0.17130451557E+04  0.23011498750E+04  0.12699999809E+01 0. -1.
</event>
<event>
 5   0  0.6351753E-07  0.3280217E+04  0.7818609E-02  0.8167947E-01
       -2   -1    0    0    0  501  0.00000000000E+00  0.00000000000E+00  0.14412617335E+04  0.14412617335E+04  0.25500000920E-02 0.  1.
        2   -1    0    0  501    0  0.00000000000E+00  0.00000000000E+00 -0.18663897352E+04  0.18663897352E+04  0.25500000920E-02 0. -1.
    10030    2    1    2    0    0  0.00000000000E+00  0.00000000000E+00 -0.42512800164E+03  0.33076514687E+04  0.32802171301E+04 0.  0.
        3    1    3    3  502    0  0.48941719104E+03  0.12347696979E+04 -0.11827809671E+04  0.17785264182E+04  0.10100000352E+00 0. -1.
       -3    1    3    3    0  502 -0.48941719104E+03 -0.12347696979E+04  0.75765296549E+03  0.15291250505E+04  0.10100000352E+00 0.  1.
</event>
<event>
 5   0  0.6424183E-07  0.3303157E+04  0.7818609E-02  0.8162093E-01
        2   -1    0    0  501    0  0.00000000000E+00  0.00000000000E+00  0.19700322753E+04  0.19700322753E+04  0.25500000920E-02 0. -1.
       -2   -1    0    0    0  501  0.00000000000E+00  0.00000000000E+00 -0.13846023434E+04  0.13846023434E+04  0.25500000920E-02 0.  1.
    10030    2    1    2    0    0  0.00000000000E+00  0.00000000000E+00  0.58542993189E+03  0.33546346187E+04  0.33031568567E+04 0.  0.
        2    1    3    3  502    0 -0.57588763158E+03  0.31166411145E+03  0.18325667545E+04  0.19460426491E+04  0.25500000920E-02 0. -1.
       -2    1    3    3    0  502  0.57588763158E+03 -0.31166411145E+03 -0.12471368226E+04  0.14085919696E+04  0.25500000920E-02 0.  1.
</event>
<event>
 5   0  0.6377741E-07  0.3312751E+04  0.7818609E-02  0.8159659E-01
        2   -1    0    0  501    0  0.00000000000E+00  0.00000000000E+00  0.23099635436E+04  0.23099635436E+04  0.25500000920E-02 0.  1.
       -2   -1    0    0    0  501  0.00000000000E+00  0.00000000000E+00 -0.11877152787E+04  0.11877152787E+04  0.25500000920E-02 0. -1.
    10030    2    1    2    0    0  0.00000000000E+00  0.00000000000E+00  0.11222482648E+04  0.34976788223E+04  0.33127505152E+04 0.  0.
        1    1    3    3  502    0 -0.25709215396E+03 -0.54153043137E+03  0.21914147739E+04  0.22719265602E+04  0.50400001928E-02 0.  1.
       -1    1    3    3    0  502  0.25709215396E+03  0.54153043137E+03 -0.10691665091E+04  0.12257522620E+04  0.50400001928E-02 0. -1.
</event>
<event>
 5   0  0.2080770E-07  0.3294860E+04  0.7818609E-02  0.8164204E-01
       -1   -1    0    0    0  501  0.00000000000E+00  0.00000000000E+00  0.18936287893E+04  0.18936287893E+04  0.50400001928E-02 0.  1.
        1   -1    0    0  501    0  0.00000000000E+00  0.00000000000E+00 -0.14332406457E+04  0.14332406457E+04  0.50400001928E-02 0. -1.
    10030    2    1    2    0    0  0.00000000000E+00  0.00000000000E+00  0.46038814363E+03  0.33268694351E+04  0.32948600873E+04 0.  0.
        4    1    3    3  502    0  0.12843808910E+04 -0.71360066635E+03 -0.52213771015E+03  0.15593234384E+04  0.12699999809E+01 0. -1.
       -4    1    3    3    0  502 -0.12843808910E+04  0.71360066635E+03  0.98252585379E+03  0.17675459967E+04  0.12699999809E+01 0.  1.
</event>
<event>
 5   0  0.6424183E-07  0.3299537E+04  0.7818609E-02  0.8163013E-01
       -2   -1    0    0    0  501  0.00000000000E+00  0.00000000000E+00  0.19043257099E+04  0.19043257099E+04  0.25500000920E-02 0. -1.
        2   -1    0    0  501    0  0.00000000000E+00  0.00000000000E+00 -0.14292388724E+04  0.14292388724E+04  0.25500000920E-02 0.  1.
    10030    2    1    2    0    0  0.00000000000E+00  0.00000000000E+00  0.47508683753E+03  0.33335645823E+04  0.32995371374E+04 0.  0.
        2    1    3    3  502    0 -0.41748624915E+03  0.13395085576E+04  0.11143403286E+04  0.17917400235E+04  0.25500000920E-02 0. -1.
       -2    1    3    3    0  502  0.41748624915E+03 -0.13395085576E+04 -0.63925349108E+03  0.15418245587E+04  0.25500000920E-02 0.  1.
</event>
<event>
 5   0  0.2087665E-07  0.3292790E+04  0.7818609E-02  0.8164732E-01
       -1   -1    0    0    0  501  0.00000000000E+00  0.00000000000E+00  0.12688829418E+04  0.12688829418E+04  0.50400001928E-02 0.  1.
        1   -1    0    0  501    0  0.00000000000E+00  0.00000000000E+00 -0.21362222629E+04  0.21362222629E+04  0.50400001928E-02 0. -1.
    10030    2    1    2    0    0  0.00000000000E+00  0.00000000000E+00 -0.86733932107E+03  0.34051052047E+04  0.32927896922E+04 0.  0.
        5    1    3    3  502    0  0.31102635624E+03  0.28999917123E+03 -0.20784425647E+04  0.21215047722E+04  0.46999998093E+01 0. -1.
       -5    1    3    3    0  502 -0.31102635624E+03 -0.28999917123E+03  0.12111032436E+04  0.12836004325E+04  0.46999998093E+01 0.  1.
</event>
<event>
 5   0  0.2080770E-07  0.3297658E+04  0.7818609E-02  0.8163492E-01
       -1   -1    0    0    0  501  0.00000000000E+00  0.00000000000E+00  0.10712025841E+04  0.10712025841E+04  0.50400001928E-02 0. -1.
        1   -1    0    0  501    0  0.00000000000E+00  0.00000000000E+00 -0.25379291823E+04  0.25379291823E+04  0.50400001928E-02 0.  1.
    10030    2    1    2    0    0  0.00000000000E+00  0.00000000000E+00 -0.14667265982E+04  0.36091317665E+04  0.32976575313E+04 0.  0.
        4    1    3    3  502    0  0.12840127751E+04  0.97913079952E+03 -0.10984069248E+04  0.19529171295E+04  0.12699999809E+01 0.  1.
       -4    1    3    3    0  502 -0.12840127751E+04 -0.97913079952E+03 -0.36831967338E+03  0.16562146370E+04  0.12699999809E+01 0. -1.
</event>
<event>
 5   0  0.2080770E-07  0.3298617E+04  0.7818609E-02  0.8163247E-01
        1   -1    0    0  501    0  0.00000000000E+00  0.00000000000E+00  0.17634391190E+04  0.17634391190E+04  0.50400001928E-02 0.  1.
       -1   -1    0    0    0  501  0.00000000000E+00  0.00000000000E+00 -0.15425648814E+04  0.15425648814E+04  0.50400001928E-02 0. -1.
    10030    2    1    2    0    0  0.00000000000E+00  0.00000000000E+00  0.22087423758E+03  0.33060040004E+04  0.32986174409E+04 0.  0.
        4    1    3    3  502    0 -0.80397781735E+03  0.20237311575E+03 -0.13185475040E+04  0.15575314899E+04  0.12699999809E+01 0. -1.
       -4    1    3    3    0  502  0.80397781735E+03 -0.20237311575E+03  0.15394217415E+04  0.17484725105E+04  0.12699999809E+01 0.  1.
</event>
<event>
 5   0  0.2087665E-07  0.3296891E+04  0.7818609E-02  0.8163687E-01
       -1   -1    0    0    0  501  0.00000000000E+00  0.00000000000E+00  0.17861686620E+04  0.17861686620E+04  0.50400001928E-02 0. -1.
        1   -1    0    0  501    0  0.00000000000E+00  0.00000000000E+00 -0.15213414622E+04  0.15213414622E+04  0.50400001928E-02 0.  1.
    10030    2    1    2    0    0  0.00000000000E+00  0.00000000000E+00  0.26482719978E+03  0.33075101243E+04  0.32968909257E+04 0.  0.
        5    1    3    3  502    0  0.14169850556E+04  0.59084421619E+03 -0.46985899559E+03  0.16055320306E+04  0.46999998093E+01 0. -1.
       -5    1    3    3    0  502 -0.14169850556E+04 -0.59084421619E+03  0.73468619537E+03  0.17019780936E+04  0.46999998093E+01 0.  1.
</event>
<event>
 5   0  0.6351753E-07  0.3291682E+04  0.7818609E-02  0.8165015E-01
        2   -1    0    0  501    0  0.00000000000E+00  0.00000000000E+00  0.15253323189E+04  0.15253323189E+04  0.25500000920E-02 0. -1.
       -2   -1    0    0    0  501  0.00000000000E+00  0.00000000000E+00 -0.17758701083E+04  0.17758701083E+04  0.25500000920E-02 0.  1.
    10030    2    1    2    0    0  0.00000000000E+00  0.00000000000E+00 -0.25053778943E+03  0.33012024272E+04  0.32916816799E+04 0.  0.
        3    1    3    3  502    0  0.12901387037E+04 -0.76504733798E+03  0.55421326153E+03  0.15990333497E+04  0.10100000352E+00 0. -1.
       -3    1    3    3    0  502 -0.12901387037E+04  0.76504733798E+03 -0.80475105096E+03  0.17021690775E+04  0.10100000352E+00 0.  1.
</event>
<event>
 5   0  0.6426079E-07  0.3304748E+04  0.7818609E-02  0.8161688E-01
       -2   -1    0    0    0  501  0.00000000000E+00  0.00000000000E+00  0.18733730142E+04  0.18733730142E+04  0.25500000920E-02 0.  1.
        2   -1    0    0  501    0  0.00000000000E+00  0.00000000000E+00 -0.14574455736E+04  0.14574455736E+04  0.25500000920E-02 0. -1.
    10030    2    1    2    0    0  0.00000000000E+00  0.00000000000E+00  0.41592744060E+03  0.33308185878E+04  0.33047476196E+04 0.  0.
        4    1    3    3  502    0 -0.13283410718E+04 -0.40662441217E+03 -0.69380357981E+03  0.15528034118E+04  0.12699999809E+01 0. -1.
       -4    1    3    3    0  502  0.13283410718E+04  0.40662441217E+03  0.11097310204E+04  0.17780151760E+04  0.12699999809E+01 0.  1.
</event>
<event>
 5   0  0.6258718E-07  0.3313660E+04  0.7818609E-02  0.8159428E-01
        2   -1    0    0  501    0  0.00000000000E+00  0.00000000000E+00  0.11320452850E+04  0.11320452850E+04  0.25500000920E-02 0.  1.
       -2   -1    0    0    0  501  0.00000000000E+00  0.00000000000E+00 -0.24248899136E+04  0.24248899136E+04  0.25500000920E-02 0. -1.
    10030    2    1    2    0    0  0.00000000000E+00  0.00000000000E+00 -0.12928446286E+04  0.35569351986E+04  0.33136597250E+04 0.  0.
        5    1    3    3  502    0  0.55867462922E+03  0.15351695102E+04 -0.35011219075E+03  0.16707673095E+04  0.46999998093E+01 0.  1.
       -5    1    3    3    0  502 -0.55867462922E+03 -0.15351695102E+04 -0.94273243789E+03  0.18861678891E+04  0.46999998093E+01 0. -1.
</event>
<event>
 5   0  0.2057130E-07  0.3294427E+04  0.7818609E-02  0.8164315E-01
        1   -1    0    0  501    0  0.00000000000E+00  0.00000000000E+00  0.11955339401E+04  0.11955339401E+04  0.50400001928E-02 0.  1.
       -1   -1    0    0    0  501  0.00000000000E+00  0.00000000000E+00 -0.22695408264E+04  0.22695408264E+04  0.50400001928E-02 0. -1.
    10030    2    1    2    0    0  0.00000000000E+00  0.00000000000E+00 -0.10740068863E+04  0.34650747665E+04  0.32944274686E+04 0.  0.
        2    1    3    3  502    0  0.15827750931E+03  0.54734205128E+02  0.11865560318E+04  0.11983166608E+04  0.25500000920E-02 0.  1.
       -2    1    3    3    0  502 -0.15827750931E+03 -0.54734205128E+02 -0.22605629181E+04  0.22667581057E+04  0.25500000920E-02 0. -1.
</event>
<event>
 5   0  0.2057130E-07  0.3304881E+04  0.7818609E-02  0.8161655E-01
       -1   -1    0    0    0  501  0.00000000000E+00  0.00000000000E+00  0.10671465478E+04  0.10671465478E+04  0.50400001928E-02 0. -1.
        1   -1    0    0  501    0  0.00000000000E+00  0.00000000000E+00 -0.25587484860E+04  0.25587484860E+04  0.50400001928E-02 0.  1.
    10030    2    1    2    0    0  0.00000000000E+00  0.00000000000E+00 -0.14916019381E+04  0.36258950338E+04  0.33048810046E+04 0.  0.
        2    1    3    3  502    0  0.11927233527E+04  0.50308907650E+03 -0.18726332572E+04  0.22764979532E+04  0.25500000920E-02 0.  1.
       -2    1    3    3    0  502 -0.11927233527E+04 -0.50308907650E+03  0.38103131911E+03  0.13493970806E+04  0.25500000920E-02 0. -1.
</event>
<event>
 5   0  0.2080770E-07  0.3280022E+04  0.7818609E-02  0.8167997E-01
        1   -1    0    0  501    0  0.00000000000E+00  0.00000000000E+00  0.17793960997E+04  0.17793960997E+04  0.50400001928E-02 0. -1.
       -1   -1    0    0    0  501  0.00000000000E+00  0.00000000000E+00 -0.15115447823E+04  0.15115447823E+04  0.50400001928E-02 0.  1.
    10030    2    1    2    0    0  0.00000000000E+00  0.00000000000E+00  0.26785131741E+03  0.32909408820E+04  0.32800224939E+04 0.  0.
        4    1    3    3  502    0 -0.83929286401E+03 -0.12477049239E+04  0.79066942916E+03  0.16989231436E+04  0.12699999809E+01 0. -1.
       -4    1    3    3    0  502  0.83929286401E+03  0.12477049239E+04 -0.52281811176E+03  0.15920177384E+04  0.12699999809E+01 0.  1.
</event>
<event>
 5   0  0.2037333E-07  0.3289594E+04  0.7818609E-02  0.8165548E-01
        1   -1    0    0  501    0  0.00000000000E+00  0.00000000000E+00  0.16270457002E+04  0.16270457002E+04  0.50400001928E-02 0. -1.
       -1   -1    0    0    0  501  0.00000000000E+00  0.00000000000E+00 -0.16627415385E+04  0.16627415385E+04  0.50400001928E-02 0.  1.
    10030    2    1    2    0    0  0.00000000000E+00  0.00000000000E+00 -0.35695838313E+02  0.32897872386E+04  0.32895935741E+04 0.  0.
        3    1    3    3  502    0  0.12028087090E+04 -0.38777023733E+03  0.10349447506E+04  0.16334702919E+04  0.10100000352E+00 0. -1.
       -3    1    3    3    0  502 -0.12028087090E+04  0.38777023733E+03 -0.10706405889E+04  0.16563169468E+04  0.10100000352E+00 0.  1.
</event>
<event>
 5   0  0.6426079E-07  0.3301275E+04  0.7818609E-02  0.8162571E-01
       -2   -1    0    0    0  501  0.00000000000E+00  0.00000000000E+00  0.15276625895E+04  0.15276625895E+04  0.25500000920E-02 0. -1.
        2   -1    0    0  501    0  0.00000000000E+00  0.00000000000E+00 -0.17835121254E+04  0.17835121254E+04  0.25500000920E-02 0.  1.
    10030    2    1    2    0    0  0.00000000000E+00  0.00000000000E+00 -0.25584953590E+03  0.33111747149E+04  0.33012753607E+04 0.  0.
        4    1    3    3  502    0  0.15098522121E+04  0.42799010727E+03 -0.64109744120E+03  0.16952394452E+04  0.12699999809E+01 0.  1.
       -4    1    3    3    0  502 -0.15098522121E+04 -0.42799010727E+03  0.38524790529E+03  0.16159352697E+04  0.12699999809E+01 0. -1.
</event>
<event>
 5   0  0.6258718E-07  0.3307837E+04  0.7818609E-02  0.8160904E-01
       -2   -1    0    0    0  501  0.00000000000E+00  0.00000000000E+00  0.13701810631E+04  0.13701810631E+04  0.25500000920E-02 0. -1.
        2   -1    0    0  501    0  0.00000000000E+00  0.00000000000E+00 -0.19964128146E+04  0.19964128146E+04  0.25500000920E-02 0.  1.
    10030    2    1    2    0    0  0.00000000000E+00  0.00000000000E+00 -0.62623175144E+03  0.33665938777E+04  0.33078373797E+04 0.  0.
        5    1    3    3  502    0  0.47500485574E+02 -0.16383693250E+04 -0.88020880855E+02  0.16414262416E+04  0.46999998093E+01 0.  1.
       -5    1    3    3    0  502 -0.47500485574E+02  0.16383693250E+04 -0.53821087058E+03  0.17251676360E+04  0.46999998093E+01 0. -1.
</event>
<event>
 5   0  0.2087665E-07  0.3295969E+04  0.7818609E-02  0.8163922E-01
        1   -1    0    0  501    0  0.00000000000E+00  0.00000000000E+00  0.19593750377E+04  0.19593750377E+04  0.50400001928E-02 0. -1.
       -1   -1    0    0    0  501  0.00000000000E+00  0.00000000000E+00 -0.13860808254E+04  0.13860808254E+04  0.50400001928E-02 0.  1.
    10030    2    1    2    0    0  0.00000000000E+00  0.00000000000E+00  0.57329421228E+03  0.33454558631E+04  0.32959685493E+04 0.  0.
        5    1    3    3  502    0  0.14599738641E+04  0.64151740312E+03 -0.13523987837E+03  0.16004312472E+04  0.46999998093E+01 0.  1.
       -5    1    3    3    0  502 -0.14599738641E+04 -0.64151740312E+03  0.70853409064E+03  0.17450246159E+04  0.46999998093E+01 0. -1.
</event>
<event>
 5   0  0.6377741E-07  0.3302150E+04  0.7818609E-02  0.8162349E-01
        2   -1    0    0  501    0  0.00000000000E+00  0.00000000000E+00  0.18914980012E+04  0.18914980012E+04  0.25500000920E-02 0. -1.
       -2   -1    0    0    0  501  0.00000000000E+00  0.00000000000E+00 -0.14412111841E+04  0.14412111841E+04  0.25500000920E-02 0.  1.
    10030    2    1    2    0    0  0.00000000000E+00  0.00000000000E+00  0.45028681714E+03  0.33327091853E+04  0.33021496477E+04 0.  0.
        1    1    3    3  502    0  0.10771186301E+04  0.10908108203E+04  0.84400263065E+03  0.17499694939E+04  0.50400001928E-02 0. -1.
       -1    1    3    3    0  502 -0.10771186301E+04 -0.10908108203E+04 -0.39371581351E+03  0.15827396914E+04  0.50400001928E-02 0.  1.
</event>
<event>
 5   0  0.6424183E-07  0.3327477E+04  0.7818609E-02  0.8155939E-01
        2   -1    0    0  501    0  0.00000000000E+00  0.00000000000E+00  0.22053958757E+04  0.22053958757E+04  0.25500000920E-02 0. -1.
       -2   -1    0    0    0  501  0.00000000000E+00  0.00000000000E+00 -0.12551151156E+04  0.12551151156E+04  0.25500000920E-02 0.  1.
    10030    2    1    2    0    0  0.00000000000E+00  0.00000000000E+00  0.95028076015E+03  0.34605109913E+04  0.33274769417E+04 0.  0.
        2    1    3    3  502    0  0.15857278145E+04 -0.35365686153E+03  0.10245598361E+03  0.16279137281E+04  0.25500000920E-02 0.  1.
       -2    1    3    3    0  502 -0.15857278145E+04  0.35365686153E+03  0.84782477654E+03  0.18325972632E+04  0.25500000920E-02 0. -1.
</event>
<event>
 5   0  0.6424183E-07  0.3308142E+04  0.7818609E-02  0.8160827E-01
        2   -1    0    0  501    0  0.00000000000E+00  0.00000000000E+00  0.18140281638E+04  0.18140281638E+04  0.25500000920E-02 0.  1.
       -2   -1    0    0    0  501  0.00000000000E+00  0.00000000000E+00 -0.15082188789E+04  0.15082188789E+04  0.25500000920E-02 0. -1.
    10030    2    1    2    0    0  0.00000000000E+00  0.00000000000E+00  0.30580928489E+03  0.33222470427E+04  0.33081423933E+04 0.  0.
        2    1    3    3  502    0 -0.99823471239E+03  0.26881517970E+03  0.14496175787E+04  0.17804845594E+04  0.25500000920E-02 0.  1.
       -2    1    3    3    0  502  0.99823471239E+03 -0.26881517970E+03 -0.11438082938E+04  0.15417624833E+04  0.25500000920E-02 0. -1.
</event>
<event>
 5   0  0.2080770E-07  0.3294398E+04  0.7818609E-02  0.8164322E-01
       -1   -1    0    0    0  501  0.00000000000E+00  0.00000000000E+00  0.14937129035E+04  0.14937129035E+04  0.50400001928E-02 0. -1.
        1   -1    0    0  501    0  0.00000000000E+00  0.00000000000E+00 -0.18164565176E+04  0.18164565176E+04  0.50400001928E-02 0.  1.
    10030    2    1    2    0    0  0.00000000000E+00  0.00000000000E+00 -0.32274361413E+03  0.33101694212E+04  0.32943979960E+04 0.  0.
        4    1    3    3  502    0 -0.31473407138E+03  0.16161029021E+04 -0.21076812068E+03  0.16599008824E+04  0.12699999809E+01 0.  1.
       -4    1    3    3    0  502  0.31473407138E+03 -0.16161029021E+04 -0.11197549346E+03  0.16502685387E+04  0.12699999809E+01 0. -1.
</event>
<event>
 5   0  0.2080828E-07  0.3274409E+04  0.7818609E-02  0.8169438E-01
       -1   -1    0    0    0  501  0.00000000000E+00  0.00000000000E+00  0.17347400483E+04  0.17347400483E+04  0.50400001928E-02 0. -1.
        1   -1    0    0  501    0  0.00000000000E+00  0.00000000000E+00 -0.15451528857E+04  0.15451528857E+04  0.50400001928E-02 0.  1.
    10030    2    1    2    0    0  0.00000000000E+00  0.00000000000E+00  0.18958716255E+03  0.32798929340E+04  0.32744090102E+04 0.  0.
        1    1    3    3  502    0 -0.59635887313E+03  0.96553095948E+03 -0.10872440568E+04  0.15716213215E+04  0.50400001928E-02 0.  1.
       -1    1    3    3    0  502  0.59635887313E+03 -0.96553095948E+03  0.12768312193E+04  0.17082716125E+04  0.50400001928E-02 0. -1.
</event>
<event>
 5   0  0.6258718E-07  0.3300546E+04  0.7818609E-02  0.8162756E-01
        2   -1    0    0  501    0  0.00000000000E+00  0.00000000000E+00  0.20926068198E+04  0.20926068198E+04  0.25500000920E-02 0.  1.
       -2   -1    0    0    0  501  0.00000000000E+00  0.00000000000E+00 -0.13014395920E+04  0.13014395920E+04  0.25500000920E-02 0. -1.
    10030    2    1    2    0    0  0.00000000000E+00  0.00000000000E+00  0.79116722776E+03  0.33940464118E+04  0.33005462371E+04 0.  0.
        5    1    3    3  502    0  0.11373127364E+04  0.64103679829E+03  0.14336206126E+04  0.19389942207E+04  0.46999998093E+01 0.  1.
       -5    1    3    3    0  502 -0.11373127364E+04 -0.64103679829E+03 -0.64245338485E+03  0.14550521911E+04  0.46999998093E+01 0. -1.
</event>
<event>
 5   0  0.2087665E-07  0.3304332E+04  0.7818609E-02  0.8161794E-01
       -1   -1    0    0    0  501  0.00000000000E+00  0.00000000000E+00  0.11734337910E+04  0.11734337910E+04  0.50400001928E-02 0. -1.
        1   -1    0    0  501    0  0.00000000000E+00  0.00000000000E+00 -0.23262090735E+04  0.23262090735E+04  0.50400001928E-02 0.  1.
    10030    2    1    2    0    0  0.00000000000E+00  0.00000000000E+00 -0.11527752825E+04  0.34996428646E+04  0.33043319034E+04 0.  0.
        5    1    3    3  502    0 -0.88006796795E+03 -0.13518791752E+04 -0.19816120726E+03  0.16252344098E+04  0.46999998093E+01 0. -1.
       -5    1    3    3    0  502  0.88006796795E+03  0.13518791752E+04 -0.95461407525E+03  0.18744084548E+04  0.46999998093E+01 0.  1.
</event>
<event>
 5   0  0.6424183E-07  0.3342485E+04  0.7818609E-02  0.8152168E-01
        2   -1    0    0  501    0  0.00000000000E+00  0.00000000000E+00  0.19267573014E+04  0.19267573014E+04  0.25500000920E-02 0. -1.
       -2   -1    0    0    0  501  0.00000000000E+00  0.00000000000E+00 -0.14496128365E+04  0.14496128365E+04  0.25500000920E-02 0.  1.
    10030    2    1    2    0    0  0.00000000000E+00  0.00000000000E+00  0.47714446497E+03  0.33763701379E+04  0.33424853729E+04 0.  0.
        2    1    3    3  502    0 -0.16925965825E+03  0.12187948074E+04  0.13809402749E+04  0.18496231122E+04  0.25500000920E-02 0. -1.
       -2    1    3    3    0  502  0.16925965825E+03 -0.12187948074E+04 -0.90379580995E+03  0.15267470257E+04  0.25500000920E-02 0.  1.
</event>
<event>
 5   0  0.6426079E-07  0.3301591E+04  0.7818609E-02  0.8162491E-01
       -2   -1    0    0    0  501  0.00000000000E+00  0.00000000000E+00  0.13104033356E+04  0.13104033356E+04  0.25500000920E-02 0.  1.
        2   -1    0    0  501    0  0.00000000000E+00  0.00000000000E+00 -0.20796081584E+04  0.20796081584E+04  0.25500000920E-02 0. -1.
    10030    2    1    2    0    0  0.00000000000E+00  0.00000000000E+00 -0.76920482283E+03  0.33900114940E+04  0.33015908090E+04 0.  0.
        4    1    3    3  502    0  0.75238516966E+03 -0.11573041600E+04 -0.13142151749E+04  0.19059379584E+04  0.12699999809E+01 0. -1.
       -4    1    3    3    0  502 -0.75238516966E+03  0.11573041600E+04  0.54501035209E+03  0.14840735356E+04  0.12699999809E+01 0.  1.
</event>
<event>
 5   0  0.2080770E-07  0.3315058E+04  0.7818609E-02  0.8159074E-01
       -1   -1    0    0    0  501  0.00000000000E+00  0.00000000000E+00  0.13613333170E+04  0.13613333170E+04  0.50400001928E-02 0.  1.
        1   -1    0    0  501    0  0.00000000000E+00  0.00000000000E+00 -0.20181703789E+04  0.20181703789E+04  0.50400001928E-02 0. -1.
    10030    2    1    2    0    0  0.00000000000E+00  0.00000000000E+00 -0.65683706191E+03  0.33795036958E+04  0.33150581148E+04 0.  0.
        4    1    3    3  502    0 -0.45306462357E+03  0.15748984617E+04 -0.74931794416E+02  0.16404844116E+04  0.12699999809E+01 0.  1.
       -4    1    3    3    0  502  0.45306462357E+03 -0.15748984617E+04 -0.58190526749E+03  0.17390192843E+04  0.12699999809E+01 0. -1.
</event>
<event>
 5   0  0.6258718E-07  0.3295809E+04  0.7818609E-02  0.8163963E-01
        2   -1    0    0  501    0  0.00000000000E+00  0.00000000000E+00  0.20826358959E+04  0.20826358959E+04  0.25500000920E-02 0.  1.
       -2   -1    0    0    0  501  0.00000000000E+00  0.00000000000E+00 -0.13039193191E+04  0.13039193191E+04  0.25500000920E-02 0. -1.
    10030    2    1    2    0    0  0.00000000000E+00  0.00000000000E+00  0.77871657680E+03  0.33865552149E+04  0.32958089624E+04 0.  0.
        5    1    3    3  502    0 -0.34239770231E+02  0.14548343924E+04  0.11838563370E+04  0.18759673206E+04  0.46999998093E+01 0.  1.
       -5    1    3    3    0  502  0.34239770231E+02 -0.14548343924E+04 -0.40513976019E+03  0.15105878943E+04  0.46999998093E+01 0. -1.
</event>
<event>
 5   0  0.6351753E-07  0.3307033E+04  0.7818609E-02  0.8161108E-01
        2   -1    0    0  501    0  0.00000000000E+00  0.00000000000E+00  0.23327844950E+04  0.23327844951E+04  0.25500000920E-02 0. -1.
       -2   -1    0    0    0  501  0.00000000000E+00  0.00000000000E+00 -0.11720403574E+04  0.11720403574E+04  0.25500000920E-02 0.  1.
    10030    2    1    2    0    0  0.00000000000E+00  0.00000000000E+00  0.11607441377E+04  0.35048248524E+04  0.33070334581E+04 0.  0.
        3    1    3    3  502    0  0.75076865724E+03  0.24872397119E+03 -0.95857920830E+03  0.12427354100E+04  0.10100000352E+00 0.  1.
       -3    1    3    3    0  502 -0.75076865724E+03 -0.24872397119E+03  0.21193233460E+04  0.22620894424E+04  0.10100000352E+00 0. -1.
</event>
<event>
 5   0  0.6426079E-07  0.3314541E+04  0.7818609E-02  0.8159205E-01
       -2   -1    0    0    0  501  0.00000000000E+00  0.00000000000E+00  0.13952159480E+04  0.13952159480E+04  0.25500000920E-02 0.  1.
        2   -1    0    0  501    0  0.00000000000E+00  0.00000000000E+00 -0.19685449914E+04  0.19685449914E+04  0.25500000920E-02 0. -1.
    10030    2    1    2    0    0  0.00000000000E+00  0.00000000000E+00 -0.57332904340E+03  0.33637609395E+04  0.33145409133E+04 0.  0.
        4    1    3    3  502    0 -0.34548430382E+03 -0.49590892209E+03 -0.18527123731E+04  0.19488021484E+04  0.12699999809E+01 0. -1.
       -4    1    3    3    0  502  0.34548430382E+03  0.49590892209E+03  0.12793833297E+04  0.14149587911E+04  0.12699999809E+01 0.  1.
</event>
<event>
 5   0  0.2057130E-07  0.3300288E+04  0.7818609E-02  0.8162822E-01
       -1   -1    0    0    0  501  0.00000000000E+00  0.00000000000E+00  0.13783702710E+04  0.13783702710E+04  0.50400001928E-02 0.  1.
        1   -1    0    0  501    0  0.00000000000E+00  0.00000000000E+00 -0.19755033679E+04  0.19755033679E+04  0.50400001928E-02 0. -1.
    10030    2    1    2    0    0  0.00000000000E+00  0.00000000000E+00 -0.59713309695E+03  0.33538736389E+04  0.33002879345E+04 0.  0.
        2    1    3    3  502    0 -0.56355426235E+03  0.13991399560E+04  0.38146900385E+03  0.15558613768E+04  0.25500000920E-02 0.  1.
       -2    1    3    3    0  502  0.56355426235E+03 -0.13991399560E+04 -0.97860210080E+03  0.17980122621E+04  0.25500000920E-02 0. -1.
</event>
<event>
 5   0  0.6258718E-07  0.3276803E+04  0.7818609E-02  0.8168823E-01
        2   -1    0    0  501    0  0.00000000000E+00  0.00000000000E+00  0.10618560226E+04  0.10618560226E+04  0.25500000920E-02 0. -1.
       -2   -1    0    0    0  501  0.00000000000E+00  0.00000000000E+00 -0.25279879322E+04  0.25279879322E+04  0.25500000920E-02 0.  1.
    10030    2    1    2    0    0  0.00000000000E+00  0.00000000000E+00 -0.14661319096E+04  0.35898439548E+04  0.32768028387E+04 0.  0.
        5    1    3    3  502    0 -0.14181564893E+04  0.17287869103E+03 -0.16117364511E+04  0.21537807102E+04  0.46999998093E+01 0.  1.
       -5    1    3    3    0  502  0.14181564893E+04 -0.17287869103E+03  0.14560454149E+03  0.14360632446E+04  0.46999998093E+01 0. -1.
</event>
<event>
 5   0  0.2087665E-07  0.3304255E+04  0.7818609E-02  0.8161814E-01
        1   -1    0    0  501    0  0.00000000000E+00  0.00000000000E+00  0.16481377597E+04  0.16481377597E+04  0.50400001928E-02 0. -1.
       -1   -1    0    0    0  501  0.00000000000E+00  0.00000000000E+00 -0.16561266959E+04  0.16561266959E+04  0.50400001928E-02 0.  1.
    10030    2    1    2    0    0  0.00000000000E+00  0.00000000000E+00 -0.79889361696E+01  0.33042644556E+04  0.33042547979E+04 0.  0.
        5    1    3    3  502    0  0.10765025451E+03  0.17240622102E+03  0.16355805025E+04  0.16481681202E+04  0.46999998093E+01 0. -1.
       -5    1    3    3    0  502 -0.10765025451E+03 -0.17240622102E+03 -0.16435694387E+04  0.16560963354E+04  0.46999998093E+01 0.  1.
</event>
<event>
 5   0  0.6426079E-07  0.3294992E+04  0.7818609E-02  0.8164171E-01
        2   -1    0    0  501    0  0.00000000000E+00  0.00000000000E+00  0.20924941375E+04  0.20924941375E+04  0.25500000920E-02 0.  1.
       -2   -1    0    0    0  501  0.00000000000E+00  0.00000000000E+00 -0.12971330582E+04  0.12971330582E+04  0.25500000920E-02 0. -1.
    10030    2    1    2    0    0  0.00000000000E+00  0.00000000000E+00  0.79536107926E+03  0.33896271957E+04  0.32949921516E+04 0.  0.
        4    1    3    3  502    0 -0.85925106296E+02  0.43363118454E+03 -0.12349816674E+04  0.13117166081E+04  0.12699999809E+01 0. -1.
       -4    1    3    3    0  502  0.85925106296E+02 -0.43363118454E+03  0.20303427467E+04  0.20779105876E+04  0.12699999809E+01 0.  1.
</event>
<event>
 5   0  0.2080828E-07  0.3281066E+04  0.7818609E-02  0.8167730E-01
       -1   -1    0    0    0  501  0.00000000000E+00  0.00000000000E+00  0.10425241376E+04  0.10425241376E+04  0.50400001928E-02 0.  1.
        1   -1    0    0  501    0  0.00000000000E+00  0.00000000000E+00 -0.25815695192E+04  0.25815695192E+04  0.50400001928E-02 0. -1.
    10030    2    1    2    0    0  0.00000000000E+00  0.00000000000E+00 -0.15390453816E+04  0.36240936569E+04  0.32810660078E+04 0.  0.
        1    1    3    3  502    0 -0.77271593533E+03 -0.91884144065E+03 -0.20044390542E+04  0.23364792813E+04  0.50400001928E-02 0. -1.
       -1    1    3    3    0  502  0.77271593533E+03  0.91884144065E+03  0.46539367260E+03  0.12876143756E+04  0.50400001928E-02 0.  1.
</event>
<event>
 5   0  0.6258718E-07  0.3299312E+04  0.7818609E-02  0.8163070E-01
       -2   -1    0    0    0  501  0.00000000000E+00  0.00000000000E+00  0.13613415918E+04  0.13613415918E+04  0.25500000920E-02 0. -1.
        2   -1    0    0  501    0  0.00000000000E+00  0.00000000000E+00 -0.19990321926E+04  0.19990321926E+04  0.25500000920E-02 0.  1.
    10030    2    1    2    0    0  0.00000000000E+00  0.00000000000E+00 -0.63769060080E+03  0.33603737844E+04  0.32993124539E+04 0.  0.
        5    1    3    3  502    0  0.28030897811E+03  0.11037438909E+04  0.89677627174E+03  0.14495011112E+04  0.46999998093E+01 0. -1.
       -5    1    3    3    0  502 -0.28030897811E+03 -0.11037438909E+04 -0.15344668725E+04  0.19108726731E+04  0.46999998093E+01 0.  1.
</event>
<event>
 5   0  0.2087665E-07  0.3295729E+04  0.7818609E-02  0.8163983E-01
       -1   -1    0    0    0  501  0.00000000000E+00  0.00000000000E+00  0.11973286856E+04  0.11973286856E+04  0.50400001928E-02 0. -1.
        1   -1    0    0  501    0  0.00000000000E+00  0.00000000000E+00 -0.22679297994E+04  0.22679297994E+04  0.50400001928E-02 0.  1.
    10030    2    1    2    0    0  0.00000000000E+00  0.00000000000E+00 -0.10706011138E+04  0.34652584849E+04  0.32957289971E+04 0.  0.
        5    1    3    3  502    0 -0.26868725149E+03 -0.93689152059E+03 -0.19323608340E+04  0.21642548471E+04  0.46999998093E+01 0.  1.
       -5    1    3    3    0  502  0.26868725149E+03  0.93689152059E+03  0.86175972017E+03  0.13010036379E+04  0.46999998093E+01 0. -1.
</event>
<event>
 5   0  0.2087665E-07  0.3307451E+04  0.7818609E-02  0.8161002E-01
        1   -1    0    0  501    0  0.00000000000E+00  0.00000000000E+00  0.24692398089E+04  0.24692398089E+04  0.50400001928E-02 0.  1.
       -1   -1    0    0    0  501  0.00000000000E+00  0.00000000000E+00 -0.11075505999E+04  0.11075505999E+04  0.50400001928E-02 0. -1.
    10030    2    1    2    0    0  0.00000000000E+00  0.00000000000E+00  0.13616892090E+04  0.35767904088E+04  0.33074510014E+04 0.  0.
        5    1    3    3  502    0  0.47417501520E+03 -0.12640701625E+04 -0.35195082336E+03  0.13952085123E+04  0.46999998093E+01 0. -1.
       -5    1    3    3    0  502 -0.47417501520E+03  0.12640701625E+04  0.17136400324E+04  0.21815818965E+04  0.46999998093E+01 0.  1.
</event>
<event>
 5   0  0.6258718E-07  0.3282460E+04  0.7818609E-02  0.8167373E-01
       -2   -1    0    0    0  501  0.00000000000E+00  0.00000000000E+00  0.17490077860E+04  0.17490077860E+04  0.25500000920E-02 0.  1.
        2   -1    0    0  501    0  0.00000000000E+00  0.00000000000E+00 -0.15400940541E+04  0.15400940541E+04  0.25500000920E-02 0. -1.
    10030    2    1    2    0    0  0.00000000000E+00  0.00000000000E+00  0.20891373194E+03  0.32891018401E+04  0.32824603527E+04 0.  0.
        5    1    3    3  502    0 -0.16794707234E+03  0.15183432147E+04  0.70570598573E+03  0.16827404330E+04  0.46999998093E+01 0.  1.
       -5    1    3    3    0  502  0.16794707234E+03 -0.15183432147E+04 -0.49679225379E+03  0.16063614071E+04  0.46999998093E+01 0. -1.
</event>
<event>
 5   0  0.2080828E-07  0.3373928E+04  0.7818609E-02  0.8144335E-01
       -1   -1    0    0    0  501  0.00000000000E+00  0.00000000000E+00  0.15523193175E+04  0.15523193175E+04  0.50400001928E-02 0. -1.
        1   -1    0    0  501    0  0.00000000000E+00  0.00000000000E+00 -0.18332869624E+04  0.18332869624E+04  0.50400001928E-02 0.  1.
    10030    2    1    2    0    0  0.00000000000E+00  0.00000000000E+00 -0.28096764488E+03  0.33856062799E+04  0.33739275430E+04 0.  0.
        1    1    3    3  502    0 -0.88120119878E+03 -0.13866833502E+04  0.24351624550E+03  0.16609354076E+04  0.50400001928E-02 0.  1.
       -1    1    3    3    0  502  0.88120119878E+03  0.13866833502E+04 -0.52448389038E+03  0.17246708723E+04  0.50400001928E-02 0. -1.
</event>
<event>
 5   0  0.2080770E-07  0.3308129E+04  0.7818609E-02  0.8160830E-01
       -1   -1    0    0    0  501  0.00000000000E+00  0.00000000000E+00  0.16509472727E+04  0.16509472727E+04  0.50400001928E-02 0. -1.
        1   -1    0    0  501    0  0.00000000000E+00  0.00000000000E+00 -0.16571881127E+04  0.16571881127E+04  0.50400001928E-02 0.  1.
    10030    2    1    2    0    0  0.00000000000E+00  0.00000000000E+00 -0.62408400063E+01  0.33081353854E+04  0.33081294986E+04 0.  0.
        4    1    3    3  502    0  0.14369898024E+04  0.81341663545E+03  0.93535155625E+02  0.16538853507E+04  0.12699999809E+01 0. -1.
       -4    1    3    3    0  502 -0.14369898024E+04 -0.81341663545E+03 -0.99775995631E+02  0.16542500347E+04  0.12699999809E+01 0.  1.
</event>
<event>
 5   0  0.2087665E-07  0.3294561E+04  0.7818609E-02  0.8164281E-01
        1   -1    0    0  501    0  0.00000000000E+00  0.00000000000E+00  0.18942013158E+04  0.18942013158E+04  0.50400001928E-02 0. -1.
       -1   -1    0    0    0  501  0.00000000000E+00  0.00000000000E+00 -0.14325470728E+04  0.14325470728E+04  0.50400001928E-02 0.  1.
    10030    2    1    2    0    0  0.00000000000E+00  0.00000000000E+00  0.46165424294E+03  0.33267483886E+04  0.32945606993E+04 0.  0.
        5    1    3    3  502    0 -0.18096336160E+03  0.14622828662E+04 -0.51290909012E+03  0.15601656142E+04  0.46999998093E+01 0.  1.
       -5    1    3    3    0  502  0.18096336160E+03 -0.14622828662E+04  0.97456333306E+03  0.17665827745E+04  0.46999998093E+01 0. -1.
</event>
<event>
 5   0  0.2080770E-07  0.3295124E+04  0.7818609E-02  0.8164137E-01
        1   -1    0    0  501    0  0.00000000000E+00  0.00000000000E+00  0.22783460602E+04  0.22783460602E+04  0.50400001928E-02 0.  1.
       -1   -1    0    0    0  501  0.00000000000E+00  0.00000000000E+00 -0.11914174139E+04  0.11914174139E+04  0.50400001928E-02 0. -1.
    10030    2    1    2    0    0  0.00000000000E+00  0.00000000000E+00  0.10869286463E+04  0.34697634741E+04  0.32951243807E+04 0.  0.
        4    1    3    3  502    0 -0.39782421741E+03  0.19038747450E+03 -0.11281029246E+04  0.12112511382E+04  0.12699999809E+01 0. -1.
       -4    1    3    3    0  502  0.39782421741E+03 -0.19038747450E+03  0.22150315709E+04  0.22585123359E+04  0.12699999809E+01 0.  1.
</event>
<event>
 5   0  0.2080770E-07  0.3304285E+04  0.7818609E-02  0.8161806E-01
       -1   -1    0    0    0  501  0.00000000000E+00  0.00000000000E+00  0.12173436922E+04  0.12173436922E+04  0.50400001928E-02 0. -1.
        1   -1    0    0  501    0  0.00000000000E+00  0.00000000000E+00 -0.22422388169E+04  0.22422388169E+04  0.50400001928E-02 0.  1.
    10030    2    1    2    0    0  0.00000000000E+00  0.00000000000E+00 -0.10248951247E+04  0.34595825090E+04  0.33042852662E+04 0.  0.
        4    1    3    3  502    0 -0.11362295932E+04  0.10674450020E+04  0.60172834167E+02  0.15601534872E+04  0.12699999809E+01 0. -1.
       -4    1    3    3    0  502  0.11362295932E+04 -0.10674450020E+04 -0.10850679589E+04  0.18994290218E+04  0.12699999809E+01 0.  1.
</event>
<event>
 5   0  0.2080770E-07  0.3288036E+04  0.7818609E-02  0.8165946E-01
        1   -1    0    0  501    0  0.00000000000E+00  0.00000000000E+00  0.20959425888E+04  0.20959425888E+04  0.50400001928E-02 0.  1.
       -1   -1    0    0    0  501  0.00000000000E+00  0.00000000000E+00 -0.12895369687E+04  0.12895369687E+04  0.50400001928E-02 0. -1.
    10030    2    1    2    0    0  0.00000000000E+00  0.00000000000E+00  0.80640562012E+03  0.33854795574E+04  0.32880361631E+04 0.  0.
        4    1    3    3  502    0  0.10561981146E+04 -0.14866918877E+03 -0.88492741061E+03  0.13859130997E+04  0.12699999809E+01 0. -1.
       -4    1    3    3    0  502 -0.10561981146E+04  0.14866918877E+03  0.16913330307E+04  0.19995664577E+04  0.12699999809E+01 0.  1.
</event>
<event>
 5   0  0.2037333E-07  0.3303288E+04  0.7818609E-02  0.8162059E-01
        1   -1    0    0  501    0  0.00000000000E+00  0.00000000000E+00  0.24573368627E+04  0.24573368627E+04  0.50400001928E-02 0.  1.
       -1   -1    0    0    0  501  0.00000000000E+00  0.00000000000E+00 -0.11101156572E+04  0.11101156572E+04  0.50400001928E-02 0. -1.
    10030    2    1    2    0    0  0.00000000000E+00  0.00000000000E+00  0.13472212054E+04  0.35674525199E+04  0.33032881354E+04 0.  0.
        3    1    3    3  502    0  0.11996879025E+04 -0.11349063319E+04  0.70145353501E+03  0.17942409308E+04  0.10100000352E+00 0. -1.
       -3    1    3    3    0  502 -0.11996879025E+04  0.11349063319E+04  0.64576767043E+03  0.17732115892E+04  0.10100000352E+00 0.  1.
</event>
<event>
 5   0  0.6424183E-07  0.3302037E+04  0.7818609E-02  0.8162377E-01
       -2   -1    0    0    0  501  0.00000000000E+00  0.00000000000E+00  0.11795175878E+04  0.11795175878E+04  0.25500000920E-02 0.  1.
        2   -1    0    0  501    0  0.00000000000E+00  0.00000000000E+00 -0.23109974832E+04  0.23109974832E+04  0.25500000920E-02 0. -1.
    10030    2    1    2    0    0  0.00000000000E+00  0.00000000000E+00 -0.11314798953E+04  0.34905150710E+04  0.33020370542E+04 0.  0.
        2    1    3    3  502    0 -0.13870112808E+04  0.84883231060E+03 -0.86760151368E+03  0.18431085077E+04  0.25500000920E-02 0. -1.
       -2    1    3    3    0  502  0.13870112808E+04 -0.84883231060E+03 -0.26387838164E+03  0.16474065633E+04  0.25500000920E-02 0.  1.
</event>
<event>
 5   0  0.2037333E-07  0.3296363E+04  0.7818609E-02  0.8163821E-01
        1   -1    0    0  501    0  0.00000000000E+00  0.00000000000E+00  0.10043204928E+04  0.10043204928E+04  0.50400001928E-02 0.  1.
       -1   -1    0    0    0  501  0.00000000000E+00  0.00000000000E+00 -0.27048157883E+04  0.27048157883E+04  0.50400001928E-02 0. -1.
    10030    2    1    2    0    0  0.00000000000E+00  0.00000000000E+00 -0.17004952955E+04  0.37091362811E+04  0.32963627989E+04 0.  0.
        3    1    3    3  502    0  0.11361820361E+04  0.11766080789E+04 -0.62189232302E+03  0.17498760705E+04  0.10100000352E+00 0. -1.
       -3    1    3    3    0  502 -0.11361820361E+04 -0.11766080789E+04 -0.10786029725E+04  0.19592602106E+04  0.10100000352E+00 0.  1.
</event>
<event>
 5   0  0.2080828E-07  0.3293721E+04  0.7818609E-02  0.8164495E-01
       -1   -1    0    0    0  501  0.00000000000E+00  0.00000000000E+00  0.12838509976E+04  0.12838509976E+04  0.50400001928E-02 0.  1.
        1   -1    0    0  501    0  0.00000000000E+00  0.00000000000E+00 -0.21125106890E+04  0.21125106890E+04  0.50400001928E-02 0. -1.
    10030    2    1    2    0    0  0.00000000000E+00  0.00000000000E+00 -0.82865969137E+03  0.33963616866E+04  0.32937206654E+04 0.  0.
        1    1    3    3  502    0 -0.53074863065E+02  0.13534156028E+04  0.55166550320E+03  0.14624929274E+04  0.50400001928E-02 0.  1.
       -1    1    3    3    0  502  0.53074863065E+02 -0.13534156028E+04 -0.13803251946E+04  0.19338687592E+04  0.50400001928E-02 0. -1.
</event>
<event>
 5   0  0.1994250E-07  0.3304665E+04  0.7818609E-02  0.8161709E-01
        4   -1    0    0  501    0  0.00000000000E+00  0.00000000000E+00  0.17460725844E+04  0.17460730463E+04  0.12699999809E+01 0. -1.
       -4   -1    0    0    0  501  0.00000000000E+00  0.00000000000E+00 -0.15636244338E+04  0.15636249496E+04  0.12699999809E+01 0.  1.
    10030    2    1    2    0    0  0.00000000000E+00  0.00000000000E+00  0.18244815059E+03  0.33096979958E+04  0.33046654136E+04 0.  0.
        5    1    3    3  502    0 -0.82650117911E+03 -0.16422022785E+03 -0.13322457068E+04  0.15763797752E+04  0.46999998093E+01 0.  1.
       -5    1    3    3    0  502  0.82650117911E+03  0.16422022785E+03  0.15146938574E+04  0.17333182206E+04  0.46999998093E+01 0. -1.
</event>
<event>
 5   0  0.2057130E-07  0.3293608E+04  0.7818609E-02  0.8164524E-01
        1   -1    0    0  501    0  0.00000000000E+00  0.00000000000E+00  0.25187317787E+04  0.25187317787E+04  0.50400001928E-02 0.  1.
       -1   -1    0    0    0  501  0.00000000000E+00  0.00000000000E+00 -0.10767181268E+04  0.10767181268E+04  0.50400001928E-02 0. -1.
    10030    2    1    2    0    0  0.00000000000E+00  0.00000000000E+00  0.14420136520E+04  0.35954499055E+04  0.32936084543E+04 0.  0.
        2    1    3    3  502    0 -0.42251135986E+03  0.14818699270E+03 -0.10089963780E+04  0.11038790354E+04  0.25500000920E-02 0. -1.
       -2    1    3    3    0  502  0.42251135986E+03 -0.14818699270E+03  0.24510100299E+04  0.24915708701E+04  0.25500000920E-02 0.  1.
</event>
<event>
 5   0  0.2087665E-07  0.3299756E+04  0.7818609E-02  0.8162957E-01
       -1   -1    0    0    0  501  0.00000000000E+00  0.00000000000E+00  0.96618527611E+03  0.96618527612E+03  0.50400001928E-02 0. -1.
        1   -1    0    0  501    0  0.00000000000E+00  0.00000000000E+00 -0.28173663341E+04  0.28173663341E+04  0.50400001928E-02 0.  1.
    10030    2    1    2    0    0  0.00000000000E+00  0.00000000000E+00 -0.18511810580E+04  0.37835516103E+04  0.32997562755E+04 0.  0.
        5    1    3    3  502    0 -0.98764478777E+03 -0.14042220911E+03 -0.24323825072E+04  0.26290050161E+04  0.46999998093E+01 0.  1.
       -5    1    3    3    0  502  0.98764478777E+03  0.14042220911E+03  0.58120144912E+03  0.11545465942E+04  0.46999998093E+01 0. -1.
</event>
<event>
 5   0  0.2080770E-07  0.3299044E+04  0.7818609E-02  0.8163139E-01
       -1   -1    0    0    0  501  0.00000000000E+00  0.00000000000E+00  0.11400535804E+04  0.11400535804E+04  0.50400001928E-02 0. -1.
        1   -1    0    0  501    0  0.00000000000E+00  0.00000000000E+00 -0.23866621383E+04  0.23866621383E+04  0.50400001928E-02 0.  1.
    10030    2    1    2    0    0  0.00000000000E+00  0.00000000000E+00 -0.12466085578E+04  0.35267157187E+04  0.32990439318E+04 0.  0.
        4    1    3    3  502    0 -0.20949995692E+03  0.86468310520E+03 -0.21081738735E+04  0.22882232842E+04  0.12699999809E+01 0.  1.
       -4    1    3    3    0  502  0.20949995692E+03 -0.86468310520E+03  0.86156531565E+03  0.12384924345E+04  0.12699999809E+01 0. -1.
</event>
<event>
 5   0  0.2080770E-07  0.3296806E+04  0.7818609E-02  0.8163709E-01
       -1   -1    0    0    0  501  0.00000000000E+00  0.00000000000E+00  0.16806059655E+04  0.16806059655E+04  0.50400001928E-02 0.  1.
        1   -1    0    0  501    0  0.00000000000E+00  0.00000000000E+00 -0.16168168177E+04  0.16168168178E+04  0.50400001928E-02 0. -1.
    10030    2    1    2    0    0  0.00000000000E+00  0.00000000000E+00  0.63789147740E+02  0.32974227832E+04  0.32968057201E+04 0.  0.
        4    1    3    3  502    0 -0.10866274962E+04 -0.64893142278E+03  0.10881978598E+04  0.16691457401E+04  0.12699999809E+01 0.  1.
       -4    1    3    3    0  502  0.10866274962E+04  0.64893142278E+03 -0.10244087120E+04  0.16282770431E+04  0.12699999809E+01 0. -1.
</event>
<event>
 5   0  0.6426079E-07  0.3303455E+04  0.7818609E-02  0.8162017E-01
       -2   -1    0    0    0  501  0.00000000000E+00  0.00000000000E+00  0.13706656110E+04  0.13706656110E+04  0.25500000920E-02 0. -1.
        2   -1    0    0  501    0  0.00000000000E+00  0.00000000000E+00 -0.19904229834E+04  0.19904229834E+04  0.25500000920E-02 0.  1.
    10030    2    1    2    0    0  0.00000000000E+00  0.00000000000E+00 -0.61975737238E+03  0.33610885943E+04  0.33034553635E+04 0.  0.
        4    1    3    3  502    0 -0.13052502601E+04  0.98340758468E+03 -0.55371369452E+03  0.17255054875E+04  0.12699999809E+01 0.  1.
       -4    1    3    3    0  502  0.13052502601E+04 -0.98340758468E+03 -0.66043677864E+02  0.16355831068E+04  0.12699999809E+01 0. -1.
</event>
<event>
 5   0  0.2037333E-07  0.3281495E+04  0.7818609E-02  0.8167620E-01
        1   -1    0    0  501    0  0.00000000000E+00  0.00000000000E+00  0.17977288486E+04  0.17977288486E+04  0.50400001928E-02 0.  1.
       -1   -1    0    0    0  501  0.00000000000E+00  0.00000000000E+00 -0.14974741142E+04  0.14974741142E+04  0.50400001928E-02 0. -1.
    10030    2    1    2    0    0  0.00000000000E+00  0.00000000000E+00  0.30025473437E+03  0.32952029628E+04  0.32814950344E+04 0.  0.
        3    1    3    3  502    0  0.15445971032E+04 -0.13476323440E+02  0.70569303755E+03  0.16982239240E+04  0.10100000352E+00 0. -1.
       -3    1    3    3    0  502 -0.15445971032E+04  0.13476323440E+02 -0.40543830317E+03  0.15969790388E+04  0.10100000352E+00 0.  1.
</event>
<event>
 5   0  0.6424183E-07  0.3304404E+04  0.7818609E-02  0.8161776E-01
       -2   -1    0    0    0  501  0.00000000000E+00  0.00000000000E+00  0.11601272392E+04  0.11601272392E+04  0.25500000920E-02 0.  1.
        2   -1    0    0  501    0  0.00000000000E+00  0.00000000000E+00 -0.23529933685E+04  0.23529933685E+04  0.25500000920E-02 0. -1.
    10030    2    1    2    0    0  0.00000000000E+00  0.00000000000E+00 -0.11928661294E+04  0.35131206077E+04  0.33044041523E+04 0.  0.
        2    1    3    3  502    0  0.80099256011E+03  0.49642846597E+02  0.93898878517E+03  0.12352139217E+04  0.25500000920E-02 0.  1.
       -2    1    3    3    0  502 -0.80099256011E+03 -0.49642846597E+02 -0.21318549145E+04  0.22779066860E+04  0.25500000920E-02 0. -1.
</event>
<event>
 5   0  0.6258718E-07  0.3295631E+04  0.7818609E-02  0.8164008E-01
        2   -1    0    0  501    0  0.00000000000E+00  0.00000000000E+00  0.15251881619E+04  0.15251881620E+04  0.25500000920E-02 0.  1.
       -2   -1    0    0    0  501  0.00000000000E+00  0.00000000000E+00 -0.17803027673E+04  0.17803027673E+04  0.25500000920E-02 0. -1.
    10030    2    1    2    0    0  0.00000000000E+00  0.00000000000E+00 -0.25511460532E+03  0.33054909292E+04  0.32956314754E+04 0.  0.
        5    1    3    3  502    0 -0.71671111886E+03  0.75862608619E+03 -0.14065530967E+04  0.17514571278E+04  0.46999998093E+01 0. -1.
       -5    1    3    3    0  502  0.71671111886E+03 -0.75862608619E+03  0.11514384914E+04  0.15540338014E+04  0.46999998093E+01 0.  1.
</event>
<event>
 5   0  0.6351753E-07  0.3297933E+04  0.7818609E-02  0.8163422E-01
       -2   -1    0    0    0  501  0.00000000000E+00  0.00000000000E+00  0.21101843321E+04  0.21101843321E+04  0.25500000920E-02 0.  1.
        2   -1    0    0  501    0  0.00000000000E+00  0.00000000000E+00 -0.12885558574E+04  0.12885558574E+04  0.25500000920E-02 0. -1.
    10030    2    1    2    0    0  0.00000000000E+00  0.00000000000E+00  0.82162847475E+03  0.33987401895E+04  0.32979329170E+04 0.  0.
        3    1    3    3  502    0 -0.11561745988E+04  0.76475672965E+03 -0.50951008518E+03  0.14768862839E+04  0.10100000352E+00 0. -1.
       -3    1    3    3    0  502  0.11561745988E+04 -0.76475672965E+03  0.13311385599E+04  0.19218539056E+04  0.10100000352E+00 0.  1.
</event>
<event>
 5   0  0.2057130E-07  0.3306168E+04  0.7818609E-02  0.8161328E-01
        1   -1    0    0  501    0  0.00000000000E+00  0.00000000000E+00  0.16469081385E+04  0.16469081385E+04  0.50400001928E-02 0.  1.
       -1   -1    0    0    0  501  0.00000000000E+00  0.00000000000E+00 -0.16592828327E+04  0.16592828327E+04  0.50400001928E-02 0. -1.
    10030    2    1    2    0    0  0.00000000000E+00  0.00000000000E+00 -0.12374694194E+02  0.33061909713E+04  0.33061678127E+04 0.  0.
        2    1    3    3  502    0 -0.12782300634E+04  0.18733149922E+03 -0.10375631845E+04  0.16569558073E+04  0.25500000920E-02 0. -1.
       -2    1    3    3    0  502  0.12782300634E+04 -0.18733149922E+03  0.10251884903E+04  0.16492351640E+04  0.25500000920E-02 0.  1.
</event>
<event>
 5   0  0.6351753E-07  0.3256775E+04  0.7818609E-02  0.8173982E-01
       -2   -1    0    0    0  501  0.00000000000E+00  0.00000000000E+00  0.17064390002E+04  0.17064390002E+04  0.25500000920E-02 0. -1.
        2   -1    0    0  501    0  0.00000000000E+00  0.00000000000E+00 -0.15539061092E+04  0.15539061092E+04  0.25500000920E-02 0.  1.
    10030    2    1    2    0    0  0.00000000000E+00  0.00000000000E+00  0.15253289096E+03  0.32603451094E+04  0.32567750843E+04 0.  0.
        3    1    3    3  502    0  0.19152799843E+03 -0.38062353566E+03 -0.14971079662E+04  0.15565633693E+04  0.10100000352E+00 0.  1.
       -3    1    3    3    0  502 -0.19152799843E+03  0.38062353566E+03  0.16496408571E+04  0.17037817401E+04  0.10100000352E+00 0. -1.
</event>
<event>
 5   0  0.2087665E-07  0.3295881E+04  0.7818609E-02  0.8163944E-01
       -1   -1    0    0    0  501  0.00000000000E+00  0.00000000000E+00  0.15674384508E+04  0.15674384508E+04  0.50400001928E-02 0.  1.
        1   -1    0    0  501    0  0.00000000000E+00  0.00000000000E+00 -0.17325772056E+04  0.17325772056E+04  0.50400001928E-02 0. -1.
    10030    2    1    2    0    0  0.00000000000E+00  0.00000000000E+00 -0.16513875478E+03  0.33000156564E+04  0.32958811454E+04 0.  0.
        5    1    3    3  502    0  0.16086807953E+04 -0.26108683922E+03  0.16200288468E+03  0.16377689897E+04  0.46999998093E+01 0. -1.
       -5    1    3    3    0  502 -0.16086807953E+04  0.26108683922E+03 -0.32714163946E+03  0.16622466668E+04  0.46999998093E+01 0.  1.
</event>
<event>
 5   0  0.2037333E-07  0.3298354E+04  0.7818609E-02  0.8163314E-01
       -1   -1    0    0    0  501  0.00000000000E+00  0.00000000000E+00  0.28241157689E+04  0.28241157689E+04  0.50400001928E-02 0.  1.
        1   -1    0    0  501    0  0.00000000000E+00  0.00000000000E+00 -0.96305708933E+03  0.96305708934E+03  0.50400001928E-02 0. -1.
    10030    2    1    2    0    0  0.00000000000E+00  0.00000000000E+00  0.18610586796E+04  0.37871728582E+04  0.32983539606E+04 0.  0.
        3    1    3    3  502    0  0.95995388584E+03 -0.79953777273E+03 -0.30559439371E+03  0.12861415383E+04  0.10100000352E+00 0. -1.
       -3    1    3    3    0  502 -0.95995388584E+03  0.79953777273E+03  0.21666530733E+04  0.25010313199E+04  0.10100000352E+00 0.  1.
</event>
<event>
 5   0  0.2080828E-07  0.3290775E+04  0.7818609E-02  0.8165247E-01
       -1   -1    0    0    0  501  0.00000000000E+00  0.00000000000E+00  0.14436751240E+04  0.14436751240E+04  0.50400001928E-02 0.  1.
        1   -1    0    0  501    0  0.00000000000E+00  0.00000000000E+00 -0.18752831506E+04  0.18752831506E+04  0.50400001928E-02 0. -1.
    10030    2    1    2    0    0  0.00000000000E+00  0.00000000000E+00 -0.43160802653E+03  0.33189582746E+04  0.32907747629E+04 0.  0.
        1    1    3    3  502    0 -0.24834480704E+03  0.13294632428E+04 -0.11609273276E+04  0.17823860180E+04  0.50400001928E-02 0. -1.
       -1    1    3    3    0  502  0.24834480704E+03 -0.13294632428E+04  0.72931930107E+03  0.15365722567E+04  0.50400001928E-02 0.  1.
</event>
<event>
 5   0  0.6426079E-07  0.3303052E+04  0.7818609E-02  0.8162119E-01
       -2   -1    0    0    0  501  0.00000000000E+00  0.00000000000E+00  0.16907030955E+04  0.16907030955E+04  0.25500000920E-02 0.  1.
        2   -1    0    0  501    0  0.00000000000E+00  0.00000000000E+00 -0.16132569995E+04  0.16132569995E+04  0.25500000920E-02 0. -1.
    10030    2    1    2    0    0  0.00000000000E+00  0.00000000000E+00  0.77446096013E+02  0.33039600950E+04  0.33030522871E+04 0.  0.
        4    1    3    3  502    0 -0.89376113321E+03 -0.66237331924E+02  0.14263103627E+04  0.16845056281E+04  0.12699999809E+01 0.  1.
       -4    1    3    3    0  502  0.89376113321E+03  0.66237331924E+02 -0.13488642667E+04  0.16194544669E+04  0.12699999809E+01 0. -1.
</event>
<event>
 5   0  0.2080828E-07  0.3293897E+04  0.7818609E-02  0.8164450E-01
        1   -1    0    0  501    0  0.00000000000E+00  0.00000000000E+00  0.20877412229E+04  0.20877412229E+04  0.50400001928E-02 0.  1.
       -1   -1    0    0    0  501  0.00000000000E+00  0.00000000000E+00 -0.12992219134E+04  0.12992219134E+04  0.50400001928E-02 0. -1.
    10030    2    1    2    0    0  0.00000000000E+00  0.00000000000E+00  0.78851930958E+03  0.33869631363E+04  0.32938968692E+04 0.  0.
        1    1    3    3  502    0 -0.92021600350E+03  0.43974243189E+03  0.17239589669E+04  0.20030490306E+04  0.50400001928E-02 0.  1.
       -1    1    3    3    0  502  0.92021600350E+03 -0.43974243189E+03 -0.93543965729E+03  0.13839141057E+04  0.50400001928E-02 0. -1.
</event>
<event>
 5   0  0.2057130E-07  0.3293222E+04  0.7818609E-02  0.8164622E-01
       -1   -1    0    0    0  501  0.00000000000E+00  0.00000000000E+00  0.15407435776E+04  0.15407435776E+04  0.50400001928E-02 0.  1.
        1   -1    0    0  501    0  0.00000000000E+00  0.00000000000E+00 -0.17597530346E+04  0.17597530346E+04  0.50400001928E-02 0. -1.
    10030    2    1    2    0    0  0.00000000000E+00  0.00000000000E+00 -0.21900945696E+03  0.33004966122E+04  0.32932222435E+04 0.  0.
        2    1    3    3  502    0 -0.43877665824E+03  0.31742038159E+03  0.14489373578E+04  0.15468355185E+04  0.25500000920E-02 0.  1.
       -2    1    3    3    0  502  0.43877665824E+03 -0.31742038159E+03 -0.16679468148E+04  0.17536610937E+04  0.25500000920E-02 0. -1.
</event>
<event>
 5   0  0.2087665E-07  0.3295729E+04  0.7818609E-02  0.8163983E-01
        1   -1    0    0  501    0  0.00000000000E+00  0.00000000000E+00  0.20820697847E+04  0.20820697847E+04  0.50400001928E-02 0.  1.
       -1   -1    0    0    0  501  0.00000000000E+00  0.00000000000E+00 -0.13042108663E+04  0.13042108664E+04  0.50400001928E-02 0. -1.
    10030    2    1    2    0    0  0.00000000000E+00  0.00000000000E+00  0.77785891839E+03  0.33862806511E+04  0.32957293807E+04 0.  0.
        5    1    3    3  502    0 -0.12536828792E+04 -0.10129804807E+04  0.36600193505E+02  0.16122071455E+04  0.46999998093E+01 0.  1.
       -5    1    3    3    0  502  0.12536828792E+04  0.10129804807E+04  0.74125872489E+03  0.17740735056E+04  0.46999998093E+01 0. -1.
</event>
<event>
 5   0  0.6424183E-07  0.3305954E+04  0.7818609E-02  0.8161382E-01
       -2   -1    0    0    0  501  0.00000000000E+00  0.00000000000E+00  0.16681725560E+04  0.16681725560E+04  0.25500000920E-02 0. -1.
        2   -1    0    0  501    0  0.00000000000E+00  0.00000000000E+00 -0.16379195342E+04  0.16379195342E+04  0.25500000920E-02 0.  1.
    10030    2    1    2    0    0  0.00000000000E+00  0.00000000000E+00  0.30253021778E+02  0.33060920902E+04  0.33059536693E+04 0.  0.
        2    1    3    3  502    0 -0.73678911162E+03  0.98429531926E+03  0.11199971658E+04  0.16631563733E+04  0.25500000920E-02 0. -1.
       -2    1    3    3    0  502  0.73678911162E+03 -0.98429531926E+03 -0.10897441441E+04  0.16429357170E+04  0.25500000920E-02 0.  1.
</event>
<event>
 5   0  0.6426079E-07  0.3299355E+04  0.7818609E-02  0.8163060E-01
       -2   -1    0    0    0  501  0.00000000000E+00  0.00000000000E+00  0.17310990145E+04  0.17310990145E+04  0.25500000920E-02 0. -1.
        2   -1    0    0  501    0  0.00000000000E+00  0.00000000000E+00 -0.15720855907E+04  0.15720855907E+04  0.25500000920E-02 0.  1.
    10030    2    1    2    0    0  0.00000000000E+00  0.00000000000E+00  0.15901342379E+03  0.33031846052E+04  0.32993549774E+04 0.  0.
        4    1    3    3  502    0 -0.14069836358E+02 -0.15044902026E+04 -0.59784749331E+03  0.16189848573E+04  0.12699999809E+01 0.  1.
       -4    1    3    3    0  502  0.14069836358E+02  0.15044902026E+04  0.75686091710E+03  0.16841997479E+04  0.12699999809E+01 0. -1.
</event>
<event>
 5   0  0.6424183E-07  0.3278652E+04  0.7818609E-02  0.8168349E-01
        2   -1    0    0  501    0  0.00000000000E+00  0.00000000000E+00  0.17240326021E+04  0.17240326021E+04  0.25500000920E-02 0. -1.
       -2   -1    0    0    0  501  0.00000000000E+00  0.00000000000E+00 -0.15587809666E+04  0.15587809666E+04  0.25500000920E-02 0.  1.
    10030    2    1    2    0    0  0.00000000000E+00  0.00000000000E+00  0.16525163554E+03  0.32828135687E+04  0.32786516777E+04 0.  0.
        2    1    3    3  502    0  0.35513235158E+03  0.13817396501E+04  0.89115674576E+03  0.16821069507E+04  0.25500000920E-02 0. -1.
       -2    1    3    3    0  502 -0.35513235158E+03 -0.13817396501E+04 -0.72590511023E+03  0.16007066180E+04  0.25500000920E-02 0.  1.
</event>
<event>
 5   0  0.2080770E-07  0.3300029E+04  0.7818609E-02  0.8162888E-01
        1   -1    0    0  501    0  0.00000000000E+00  0.00000000000E+00  0.26964744014E+04  0.26964744014E+04  0.50400001928E-02 0.  1.
       -1   -1    0    0    0  501  0.00000000000E+00  0.00000000000E+00 -0.10096695393E+04  0.10096695393E+04  0.50400001928E-02 0. -1.
    10030    2    1    2    0    0  0.00000000000E+00  0.00000000000E+00  0.16868048621E+04  0.37061439407E+04  0.33000291311E+04 0.  0.
        4    1    3    3  502    0  0.10995870382E+03  0.28979118721E+03  0.26634857833E+04  0.26814600462E+04  0.12699999809E+01 0.  1.
       -4    1    3    3    0  502 -0.10995870382E+03 -0.28979118721E+03 -0.97668092124E+03  0.10246838944E+04  0.12699999809E+01 0. -1.
</event>
<event>
 5   0  0.6258718E-07  0.3287883E+04  0.7818609E-02  0.8165986E-01
        2   -1    0    0  501    0  0.00000000000E+00  0.00000000000E+00  0.97071370820E+03  0.97071370820E+03  0.25500000920E-02 0. -1.
       -2   -1    0    0    0  501  0.00000000000E+00  0.00000000000E+00 -0.27840783238E+04  0.27840783238E+04  0.25500000920E-02 0.  1.
    10030    2    1    2    0    0  0.00000000000E+00  0.00000000000E+00 -0.18133646156E+04  0.37547920320E+04  0.32878825974E+04 0.  0.
        5    1    3    3  502    0  0.11635995967E+04  0.44228040064E+03 -0.21329177596E+04  0.24696024444E+04  0.46999998093E+01 0.  1.
       -5    1    3    3    0  502 -0.11635995967E+04 -0.44228040064E+03  0.31955314401E+03  0.12851895876E+04  0.46999998093E+01 0. -1.
</event>
<event>
 5   0  0.2057130E-07  0.3313162E+04  0.7818609E-02  0.8159554E-01
       -1   -1    0    0    0  501  0.00000000000E+00  0.00000000000E+00  0.17121840851E+04  0.17121840851E+04  0.50400001928E-02 0. -1.
        1   -1    0    0  501    0  0.00000000000E+00  0.00000000000E+00 -0.16027836759E+04  0.16027836759E+04  0.50400001928E-02 0.  1.
    10030    2    1    2    0    0  0.00000000000E+00  0.00000000000E+00  0.10940040920E+03  0.33149677611E+04  0.33131620557E+04 0.  0.
        2    1    3    3  502    0  0.15902257567E+04  0.19502154613E+03  0.47612964513E+03  0.16713918750E+04  0.25500000920E-02 0. -1.
       -2    1    3    3    0  502 -0.15902257567E+04 -0.19502154613E+03 -0.36672923593E+03  0.16435758861E+04  0.25500000920E-02 0.  1.
</event>
<event>
 5   0  0.2080828E-07  0.3373816E+04  0.7818609E-02  0.8144363E-01
        1   -1    0    0  501    0  0.00000000000E+00  0.00000000000E+00  0.22791213852E+04  0.22791213852E+04  0.50400001928E-02 0.  1.
       -1   -1    0    0    0  501  0.00000000000E+00  0.00000000000E+00 -0.12485768183E+04  0.12485768183E+04  0.50400001928E-02 0. -1.
    10030    2    1    2    0    0  0.00000000000E+00  0.00000000000E+00  0.10305445669E+04  0.35276982036E+04  0.33738157198E+04 0.  0.
        1    1    3    3  502    0 -0.16841038503E+04 -0.97121385103E+02  0.51062128308E+03  0.17624904076E+04  0.50400001928E-02 0. -1.
       -1    1    3    3    0  502  0.16841038503E+04  0.97121385103E+02  0.51992328382E+03  0.17652077960E+04  0.50400001928E-02 0.  1.
</event>
<event>
 5   0  0.2087665E-07  0.3287371E+04  0.7818609E-02  0.8166116E-01
        1   -1    0    0  501    0  0.00000000000E+00  0.00000000000E+00  0.17143247811E+04  0.17143247811E+04  0.50400001928E-02 0.  1.
       -1   -1    0    0    0  501  0.00000000000E+00  0.00000000000E+00 -0.15759571462E+04  0.15759571462E+04  0.50400001928E-02 0. -1.
    10030    2    1    2    0    0  0.00000000000E+00  0.00000000000E+00  0.13836763493E+03  0.32902819274E+04  0.32873712232E+04 0.  0.
        5    1    3    3  502    0 -0.91830467501E+03 -0.13136307605E+04  0.43388406305E+03  0.16604778593E+04  0.46999998093E+01 0. -1.
       -5    1    3    3    0  502  0.91830467501E+03  0.13136307605E+04 -0.29551642811E+03  0.16298040681E+04  0.46999998093E+01 0.  1.
</event>
<event>
 5   0  0.2080770E-07  0.3299119E+04  0.7818609E-02  0.8163120E-01
        1   -1    0    0  501    0  0.00000000000E+00  0.00000000000E+00  0.29266447467E+04  0.29266447467E+04  0.50400001928E-02 0. -1.
       -1   -1    0    0    0  501  0.00000000000E+00  0.00000000000E+00 -0.92974959702E+03  0.92974959704E+03  0.50400001928E-02 0.  1.
    10030    2    1    2    0    0  0.00000000000E+00  0.00000000000E+00  0.19968951497E+04  0.38563943438E+04  0.32991191394E+04 0.  0.
        4    1    3    3  502    0  0.11748489284E+04  0.34519008314E+03  0.22904142769E+04  0.25971956744E+04  0.12699999809E+01 0.  1.
       -4    1    3    3    0  502 -0.11748489284E+04 -0.34519008314E+03 -0.29351912723E+03  0.12591986694E+04  0.12699999809E+01 0. -1.
</event>
<event>
 5   0  0.6377741E-07  0.3292978E+04  0.7818609E-02  0.8164684E-01
        2   -1    0    0  501    0  0.00000000000E+00  0.00000000000E+00  0.18172447840E+04  0.18172447840E+04  0.25500000920E-02 0. -1.
       -2   -1    0    0    0  501  0.00000000000E+00  0.00000000000E+00 -0.14917784898E+04  0.14917784899E+04  0.25500000920E-02 0.  1.
    10030    2    1    2    0    0  0.00000000000E+00  0.00000000000E+00  0.32546629413E+03  0.33090232738E+04  0.32929783962E+04 0.  0.
        1    1    3    3  502    0  0.79653698376E+02 -0.78650852311E+03  0.16140648005E+04  0.17972605679E+04  0.50400001928E-02 0. -1.
       -1    1    3    3    0  502 -0.79653698376E+02  0.78650852311E+03 -0.12885985064E+04  0.15117627060E+04  0.50400001928E-02 0.  1.
</event>
<event>
 5   0  0.2080828E-07  0.3286418E+04  0.7818609E-02  0.8166360E-01
        1   -1    0    0  501    0  0.00000000000E+00  0.00000000000E+00  0.14434784994E+04  0.14434784994E+04  0.50400001928E-02 0. -1.
       -1   -1    0    0    0  501  0.00000000000E+00  0.00000000000E+00 -0.18705757998E+04  0.18705757998E+04  0.50400001928E-02 0.  1.
    10030    2    1    2    0    0  0.00000000000E+00  0.00000000000E+00 -0.42709730048E+03  0.33140542992E+04  0.32864180796E+04 0.  0.
        1    1    3    3  502    0 -0.55628376475E+03 -0.12784357552E+04  0.66341165782E+03  0.15440092729E+04  0.50400001928E-02 0. -1.
       -1    1    3    3    0  502  0.55628376475E+03  0.12784357552E+04 -0.10905089583E+04  0.17700450263E+04  0.50400001928E-02 0.  1.
</event>
<event>
 5   0  0.6351753E-07  0.3321748E+04  0.7818609E-02  0.8157383E-01
        2   -1    0    0  501    0  0.00000000000E+00  0.00000000000E+00  0.10663348406E+04  0.10663348406E+04  0.25500000920E-02 0.  1.
       -2   -1    0    0    0  501  0.00000000000E+00  0.00000000000E+00 -0.25869013752E+04  0.25869013752E+04  0.25500000920E-02 0. -1.
    10030    2    1    2    0    0  0.00000000000E+00  0.00000000000E+00 -0.15205665345E+04  0.36532362158E+04  0.33217483744E+04 0.  0.
        3    1    3    3  502    0  0.57386776373E+03  0.11135919549E+04 -0.19595580888E+04  0.23257857093E+04  0.10100000352E+00 0. -1.
       -3    1    3    3    0  502 -0.57386776373E+03 -0.11135919549E+04  0.43899155423E+03  0.13274505065E+04  0.10100000352E+00 0.  1.
</event>
<event>
 5   0  0.6351753E-07  0.3287698E+04  0.7818609E-02  0.8166033E-01
       -2   -1    0    0    0  501  0.00000000000E+00  0.00000000000E+00  0.14371665347E+04  0.14371665347E+04  0.25500000920E-02 0. -1.
        2   -1    0    0  501    0  0.00000000000E+00  0.00000000000E+00 -0.18802545829E+04  0.18802545829E+04  0.25500000920E-02 0.  1.
    10030    2    1    2    0    0  0.00000000000E+00  0.00000000000E+00 -0.44308804819E+03  0.33174211176E+04  0.32876976524E+04 0.  0.
        3    1    3    3  502    0 -0.56471187805E+02 -0.12285490473E+03  0.14315459058E+04  0.14379172484E+04  0.10100000352E+00 0. -1.
       -3    1    3    3    0  502  0.56471187805E+02  0.12285490473E+03 -0.18746339540E+04  0.18795038692E+04  0.10100000352E+00 0.  1.
</event>
<event>
 5   0  0.6377741E-07  0.3338052E+04  0.7818609E-02  0.8153280E-01
       -2   -1    0    0    0  501  0.00000000000E+00  0.00000000000E+00  0.13216841038E+04  0.13216841038E+04  0.25500000920E-02 0. -1.
        2   -1    0    0  501    0  0.00000000000E+00  0.00000000000E+00 -0.21076502266E+04  0.21076502266E+04  0.25500000920E-02 0.  1.
    10030    2    1    2    0    0  0.00000000000E+00  0.00000000000E+00 -0.78596612281E+03  0.34293343303E+04  0.33380520072E+04 0.  0.
        1    1    3    3  502    0 -0.32941660339E+03 -0.66993573706E+03  0.11405931813E+04  0.13631881732E+04  0.50400001928E-02 0. -1.
       -1    1    3    3    0  502  0.32941660339E+03  0.66993573706E+03 -0.19265593041E+04  0.20661461571E+04  0.50400001928E-02 0.  1.
</event>
<event>
 5   0  0.6258718E-07  0.3313340E+04  0.7818609E-02  0.8159509E-01
        2   -1    0    0  501    0  0.00000000000E+00  0.00000000000E+00  0.18176079250E+04  0.18176079251E+04  0.25500000920E-02 0. -1.
       -2   -1    0    0    0  501  0.00000000000E+00  0.00000000000E+00 -0.15099819576E+04  0.15099819576E+04  0.25500000920E-02 0.  1.
    10030    2    1    2    0    0  0.00000000000E+00  0.00000000000E+00  0.30762596747E+03  0.33275898826E+04  0.33133398092E+04 0.  0.
        5    1    3    3  502    0 -0.34297519165E+03 -0.24940039852E+03  0.17621688538E+04  0.18124827448E+04  0.46999998093E+01 0. -1.
       -5    1    3    3    0  502  0.34297519165E+03  0.24940039852E+03 -0.14545428863E+04  0.15151071378E+04  0.46999998093E+01 0.  1.
</event>
<event>
 5   0  0.2087665E-07  0.3281525E+04  0.7818609E-02  0.8167612E-01
        1   -1    0    0  501    0  0.00000000000E+00  0.00000000000E+00  0.14812807788E+04  0.14812807788E+04  0.50400001928E-02 0. -1.
       -1   -1    0    0    0  501  0.00000000000E+00  0.00000000000E+00 -0.18174149337E+04  0.18174149337E+04  0.50400001928E-02 0.  1.
    10030    2    1    2    0    0  0.00000000000E+00  0.00000000000E+00 -0.33613415490E+03  0.32986957125E+04  0.32815251383E+04 0.  0.
        5    1    3    3  502    0  0.19775547270E+02  0.18854726377E+03 -0.18063612446E+04  0.18162885726E+04  0.46999998093E+01 0.  1.
       -5    1    3    3    0  502 -0.19775547270E+02 -0.18854726377E+03  0.14702270897E+04  0.14824071399E+04  0.46999998093E+01 0. -1.
</event>
<event>
 5   0  0.6351753E-07  0.3258499E+04  0.7818609E-02  0.8173536E-01
        2   -1    0    0  501    0  0.00000000000E+00  0.00000000000E+00  0.99498926550E+03  0.99498926551E+03  0.25500000920E-02 0.  1.
       -2   -1    0    0    0  501  0.00000000000E+00  0.00000000000E+00 -0.26678223191E+04  0.26678223191E+04  0.25500000920E-02 0. -1.
    10030    2    1    2    0    0  0.00000000000E+00  0.00000000000E+00 -0.16728330536E+04  0.36628115846E+04  0.32584993907E+04 0.  0.
        3    1    3    3  502    0  0.44015693445E+03 -0.48466492424E+03  0.84061643429E+03  0.10654924756E+04  0.10100000352E+00 0.  1.
       -3    1    3    3    0  502 -0.44015693445E+03  0.48466492424E+03 -0.25134494879E+04  0.25973191090E+04  0.10100000352E+00 0. -1.
</event>
<event>
 5   0  0.2080770E-07  0.3289320E+04  0.7818609E-02  0.8165618E-01
       -1   -1    0    0    0  501  0.00000000000E+00  0.00000000000E+00  0.14842418221E+04  0.14842418221E+04  0.50400001928E-02 0. -1.
        1   -1    0    0  501    0  0.00000000000E+00  0.00000000000E+00 -0.18224164252E+04  0.18224164252E+04  0.50400001928E-02 0.  1.
    10030    2    1    2    0    0  0.00000000000E+00  0.00000000000E+00 -0.33817460312E+03  0.33066582473E+04  0.32893200972E+04 0.  0.
        4    1    3    3  502    0 -0.84869554373E+03 -0.65733018675E+03 -0.14216638815E+04  0.17814311397E+04  0.12699999809E+01 0.  1.
       -4    1    3    3    0  502  0.84869554373E+03  0.65733018675E+03  0.10834892784E+04  0.15252271076E+04  0.12699999809E+01 0. -1.
</event>
<event>
 5   0  0.2080828E-07  0.3327131E+04  0.7818609E-02  0.8156026E-01
        1   -1    0    0  501    0  0.00000000000E+00  0.00000000000E+00  0.14514614164E+04  0.14514614164E+04  0.50400001928E-02 0.  1.
       -1   -1    0    0    0  501  0.00000000000E+00  0.00000000000E+00 -0.19066643481E+04  0.19066643481E+04  0.50400001928E-02 0. -1.
    10030    2    1    2    0    0  0.00000000000E+00  0.00000000000E+00 -0.45520293169E+03  0.33581257644E+04  0.33271307370E+04 0.  0.
        1    1    3    3  502    0  0.26858215484E+02 -0.61990743072E+03  0.13302941794E+04  0.14678859595E+04  0.50400001928E-02 0.  1.
       -1    1    3    3    0  502 -0.26858215484E+02  0.61990743072E+03 -0.17854971111E+04  0.18902398049E+04  0.50400001928E-02 0. -1.
</event>
<event>
 5   0  0.2037333E-07  0.3276964E+04  0.7818609E-02  0.8168782E-01
       -1   -1    0    0    0  501  0.00000000000E+00  0.00000000000E+00  0.19130324339E+04  0.19130324339E+04  0.50400001928E-02 0.  1.
        1   -1    0    0  501    0  0.00000000000E+00  0.00000000000E+00 -0.14033340220E+04  0.14033340220E+04  0.50400001928E-02 0. -1.
    10030    2    1    2    0    0  0.00000000000E+00  0.00000000000E+00  0.50969841196E+03  0.33163664559E+04  0.32769641436E+04 0.  0.
        3    1    3    3  502    0  0.11329108713E+04  0.87204853004E+03 -0.55519230607E+03  0.15336864699E+04  0.10100000352E+00 0. -1.
       -3    1    3    3    0  502 -0.11329108713E+04 -0.87204853004E+03  0.10648907180E+04  0.17826799860E+04  0.10100000352E+00 0.  1.
</event>
<event>
 5   0  0.2037333E-07  0.3306329E+04  0.7818609E-02  0.8161287E-01
       -1   -1    0    0    0  501  0.00000000000E+00  0.00000000000E+00  0.14002086963E+04  0.14002086963E+04  0.50400001928E-02 0. -1.
        1   -1    0    0  501    0  0.00000000000E+00  0.00000000000E+00 -0.19518184707E+04  0.19518184707E+04  0.50400001928E-02 0.  1.
    10030    2    1    2    0    0  0.00000000000E+00  0.00000000000E+00 -0.55160977443E+03  0.33520271670E+04  0.33063292010E+04 0.  0.
        3    1    3    3  502    0 -0.93042394384E+03  0.94030368633E+03  0.72940982891E+03  0.15105953947E+04  0.10100000352E+00 0. -1.
       -3    1    3    3    0  502  0.93042394384E+03 -0.94030368633E+03 -0.12810196033E+04  0.18414317723E+04  0.10100000352E+00 0.  1.
</event>
<event>
 5   0  0.6424183E-07  0.3296903E+04  0.7818609E-02  0.8163684E-01
       -2   -1    0    0    0  501  0.00000000000E+00  0.00000000000E+00  0.12937330789E+04  0.12937330789E+04  0.25500000920E-02 0. -1.
        2   -1    0    0  501    0  0.00000000000E+00  0.00000000000E+00 -0.21004268479E+04  0.21004268479E+04  0.25500000920E-02 0.  1.
    10030    2    1    2    0    0  0.00000000000E+00  0.00000000000E+00 -0.80669376902E+03  0.33941599268E+04  0.32969026027E+04 0.  0.
        2    1    3    3  502    0 -0.15369213891E+04  0.14353740355E+03 -0.99891160540E+03  0.18386284937E+04  0.25500000920E-02 0.  1.
       -2    1    3    3    0  502  0.15369213891E+04 -0.14353740355E+03  0.19221783638E+03  0.15555314331E+04  0.25500000920E-02 0. -1.
</event>
<event>
 5   0  0.2087665E-07  0.3297612E+04  0.7818609E-02  0.8163503E-01
       -1   -1    0    0    0  501  0.00000000000E+00  0.00000000000E+00  0.13996975876E+04  0.13996975876E+04  0.50400001928E-02 0. -1.
        1   -1    0    0  501    0  0.00000000000E+00  0.00000000000E+00 -0.19422484474E+04  0.19422484474E+04  0.50400001928E-02 0.  1.
    10030    2    1    2    0    0  0.00000000000E+00  0.00000000000E+00 -0.54255085981E+03  0.33419460350E+04  0.32976115395E+04 0.  0.
        5    1    3    3  502    0  0.10202962652E+04  0.11758627446E+04  0.27905448754E+03  0.15816292738E+04  0.46999998093E+01 0. -1.
       -5    1    3    3    0  502 -0.10202962652E+04 -0.11758627446E+04 -0.82160534735E+03  0.17603167612E+04  0.46999998093E+01 0.  1.
</event>
<event>
 5   0  0.6258718E-07  0.3155201E+04  0.7818609E-02  0.8200750E-01
        2   -1    0    0  501    0  0.00000000000E+00  0.00000000000E+00  0.11085934713E+04  0.11085934713E+04  0.25500000920E-02 0. -1.
       -2   -1    0    0    0  501  0.00000000000E+00  0.00000000000E+00 -0.22450277566E+04  0.22450277566E+04  0.25500000920E-02 0.  1.
    10030    2    1    2    0    0  0.00000000000E+00  0.00000000000E+00 -0.11364342853E+04  0.33536212279E+04  0.31552008582E+04 0.  0.
        5    1    3    3  502    0  0.26707513138E+03  0.24207376702E+03 -0.22006645696E+04  0.22299945005E+04  0.46999998093E+01 0.  1.
       -5    1    3    3    0  502 -0.26707513138E+03 -0.24207376702E+03  0.10642302843E+04  0.11236267274E+04  0.46999998093E+01 0. -1.
</event>
<event>
 5   0  0.2057130E-07  0.3318009E+04  0.7818609E-02  0.8158328E-01
       -1   -1    0    0    0  501  0.00000000000E+00  0.00000000000E+00  0.13603514815E+04  0.13603514815E+04  0.50400001928E-02 0.  1.
        1   -1    0    0  501    0  0.00000000000E+00  0.00000000000E+00 -0.20232240870E+04  0.20232240870E+04  0.50400001928E-02 0. -1.
    10030    2    1    2    0    0  0.00000000000E+00  0.00000000000E+00 -0.66287260548E+03  0.33835755685E+04  0.33180089718E+04 0.  0.
        2    1    3    3  502    0 -0.15900621407E+04 -0.13610338545E+03 -0.79368629392E+03  0.17823466767E+04  0.25500000920E-02 0.  1.
       -2    1    3    3    0  502  0.15900621407E+04  0.13610338545E+03  0.13081368844E+03  0.16012288918E+04  0.25500000920E-02 0. -1.
</event>
<event>
 5   0  0.2057130E-07  0.3276712E+04  0.7818609E-02  0.8168846E-01
       -1   -1    0    0    0  501  0.00000000000E+00  0.00000000000E+00  0.27201705708E+04  0.27201705708E+04  0.50400001928E-02 0.  1.
        1   -1    0    0  501    0  0.00000000000E+00  0.00000000000E+00 -0.98678012257E+03  0.98678012259E+03  0.50400001928E-02 0. -1.
    10030    2    1    2    0    0  0.00000000000E+00  0.00000000000E+00  0.17333904482E+04  0.37069506933E+04  0.32767119185E+04 0.  0.
        2    1    3    3  502    0  0.13199747446E+04  0.62467166473E+03  0.17069580989E+04  0.22463868693E+04  0.25500000920E-02 0.  1.
       -2    1    3    3    0  502 -0.13199747446E+04 -0.62467166473E+03  0.26432349259E+02  0.14605638241E+04  0.25500000920E-02 0. -1.
</event>
<event>
 5   0  0.2080828E-07  0.3303899E+04  0.7818609E-02  0.8161904E-01
        1   -1    0    0  501    0  0.00000000000E+00  0.00000000000E+00  0.20504543411E+04  0.20504543411E+04  0.50400001928E-02 0. -1.
       -1   -1    0    0    0  501  0.00000000000E+00  0.00000000000E+00 -0.13308941630E+04  0.13308941630E+04  0.50400001928E-02 0.  1.
    10030    2    1    2    0    0  0.00000000000E+00  0.00000000000E+00  0.71956017811E+03  0.33813485041E+04  0.33038993411E+04 0.  0.
        1    1    3    3  502    0 -0.10486708748E+04 -0.12743657593E+04  0.43371638506E+03  0.17064080974E+04  0.50400001928E-02 0. -1.
       -1    1    3    3    0  502  0.10486708748E+04  0.12743657593E+04  0.28584379304E+03  0.16749404067E+04  0.50400001928E-02 0.  1.
</event>
<event>
 5   0  0.2057130E-07  0.3299567E+04  0.7818609E-02  0.8163006E-01
       -1   -1    0    0    0  501  0.00000000000E+00  0.00000000000E+00  0.17900364611E+04  0.17900364611E+04  0.50400001928E-02 0. -1.
        1   -1    0    0  501    0  0.00000000000E+00  0.00000000000E+00 -0.15205196830E+04  0.15205196830E+04  0.50400001928E-02 0.  1.
    10030    2    1    2    0    0  0.00000000000E+00  0.00000000000E+00  0.26951677807E+03  0.33105561442E+04  0.32995670458E+04 0.  0.
        2    1    3    3  502    0  0.30299544935E+03  0.62747417973E+03 -0.13656335392E+04  0.15331291700E+04  0.25500000920E-02 0.  1.
       -2    1    3    3    0  502 -0.30299544935E+03 -0.62747417973E+03  0.16351503172E+04  0.17774269742E+04  0.25500000920E-02 0. -1.
</event>
<event>
 5   0  0.6377741E-07  0.3304472E+04  0.7818609E-02  0.8161758E-01
       -2   -1    0    0    0  501  0.00000000000E+00  0.00000000000E+00  0.11490675896E+04  0.11490675896E+04  0.25500000920E-02 0. -1.
        2   -1    0    0  501    0  0.00000000000E+00  0.00000000000E+00 -0.23757378092E+04  0.23757378092E+04  0.25500000920E-02 0.  1.
    10030    2    1    2    0    0  0.00000000000E+00  0.00000000000E+00 -0.12266702197E+04  0.35248053988E+04  0.33044717084E+04 0.  0.
        1    1    3    3  502    0  0.14925661294E+04 -0.60951848676E+03 -0.22782767103E+03  0.16282419611E+04  0.50400001928E-02 0. -1.
       -1    1    3    3    0  502 -0.14925661294E+04  0.60951848676E+03 -0.99884254862E+03  0.18965634377E+04  0.50400001928E-02 0.  1.
</event>
<event>
 5   0  0.6377741E-07  0.3261111E+04  0.7818609E-02  0.8172862E-01
        2   -1    0    0  501    0  0.00000000000E+00  0.00000000000E+00  0.17852011839E+04  0.17852011839E+04  0.25500000920E-02 0.  1.
       -2   -1    0    0    0  501  0.00000000000E+00  0.00000000000E+00 -0.14893065161E+04  0.14893065161E+04  0.25500000920E-02 0. -1.
    10030    2    1    2    0    0  0.00000000000E+00  0.00000000000E+00  0.29589466774E+03  0.32745077000E+04  0.32611113172E+04 0.  0.
        1    1    3    3  502    0 -0.15644907922E+04  0.43101963076E+03 -0.11773366312E+02  0.16228209924E+04  0.50400001928E-02 0.  1.
       -1    1    3    3    0  502  0.15644907922E+04 -0.43101963076E+03  0.30766803405E+03  0.16516867077E+04  0.50400001928E-02 0. -1.
</event>
<event>
 5   0  0.2080770E-07  0.3298700E+04  0.7818609E-02  0.8163226E-01
       -1   -1    0    0    0  501  0.00000000000E+00  0.00000000000E+00  0.19084814487E+04  0.19084814487E+04  0.50400001928E-02 0.  1.
        1   -1    0    0  501    0  0.00000000000E+00  0.00000000000E+00 -0.14254031700E+04  0.14254031700E+04  0.50400001928E-02 0. -1.
    10030    2    1    2    0    0  0.00000000000E+00  0.00000000000E+00  0.48307827867E+03  0.33338846187E+04  0.32987000512E+04 0.  0.
        4    1    3    3  502    0  0.25225156900E+03  0.26992848656E+03  0.18661238678E+04  0.19023438556E+04  0.12699999809E+01 0.  1.
       -4    1    3    3    0  502 -0.25225156900E+03 -0.26992848656E+03 -0.13830455892E+04  0.14315407631E+04  0.12699999809E+01 0. -1.
</event>
<event>
 5   0  0.6258718E-07  0.3299080E+04  0.7818609E-02  0.8163129E-01
        2   -1    0    0  501    0  0.00000000000E+00  0.00000000000E+00  0.21583865091E+04  0.21583865091E+04  0.25500000920E-02 0.  1.
       -2   -1    0    0    0  501  0.00000000000E+00  0.00000000000E+00 -0.12606559314E+04  0.12606559314E+04  0.25500000920E-02 0. -1.
    10030    2    1    2    0    0  0.00000000000E+00  0.00000000000E+00  0.89773057765E+03  0.34190424405E+04  0.32990803294E+04 0.  0.
        5    1    3    3  502    0 -0.62634601053E+03 -0.10612013346E+04  0.15853267108E+04  0.20079194375E+04  0.46999998093E+01 0.  1.
       -5    1    3    3    0  502  0.62634601053E+03  0.10612013346E+04 -0.68759613311E+03  0.14111230031E+04  0.46999998093E+01 0. -1.
</event>
<event>
 5   0  0.2087665E-07  0.3300058E+04  0.7818609E-02  0.8162881E-01
        1   -1    0    0  501    0  0.00000000000E+00  0.00000000000E+00  0.94112769457E+03  0.94112769459E+03  0.50400001928E-02 0.  1.
       -1   -1    0    0    0  501  0.00000000000E+00  0.00000000000E+00 -0.28929081629E+04  0.28929081629E+04  0.50400001928E-02 0. -1.
    10030    2    1    2    0    0  0.00000000000E+00  0.00000000000E+00 -0.19517804683E+04  0.38340358575E+04  0.33000581752E+04 0.  0.
        5    1    3    3  502    0  0.10716747037E+04  0.13658588377E+03  0.47308186470E+03  0.11793943001E+04  0.46999998093E+01 0.  1.
       -5    1    3    3    0  502 -0.10716747037E+04 -0.13658588377E+03 -0.24248623330E+04  0.26546415574E+04  0.46999998093E+01 0. -1.
</event>
<event>
 5   0  0.2057130E-07  0.3287425E+04  0.7818609E-02  0.8166102E-01
        1   -1    0    0  501    0  0.00000000000E+00  0.00000000000E+00  0.13923031665E+04  0.13923031666E+04  0.50400001928E-02 0. -1.
       -1   -1    0    0    0  501  0.00000000000E+00  0.00000000000E+00 -0.19405192747E+04  0.19405192747E+04  0.50400001928E-02 0.  1.
    10030    2    1    2    0    0  0.00000000000E+00  0.00000000000E+00 -0.54821610820E+03  0.33328224413E+04  0.32874252119E+04 0.  0.
        2    1    3    3  502    0  0.56236374292E+03  0.41220591319E+03 -0.17831606217E+04  0.19146353431E+04  0.25500000920E-02 0.  1.
       -2    1    3    3    0  502 -0.56236374292E+03 -0.41220591319E+03  0.12349445135E+04  0.14181870982E+04  0.25500000920E-02 0. -1.
</event>
<event>
 5   0  0.6258718E-07  0.3306844E+04  0.7818609E-02  0.8161156E-01
        2   -1    0    0  501    0  0.00000000000E+00  0.00000000000E+00  0.17608094398E+04  0.17608094398E+04  0.25500000920E-02 0.  1.
       -2   -1    0    0    0  501  0.00000000000E+00  0.00000000000E+00 -0.15525842720E+04  0.15525842720E+04  0.25500000920E-02 0. -1.
    10030    2    1    2    0    0  0.00000000000E+00  0.00000000000E+00  0.20822516774E+03  0.33133937118E+04  0.33068444428E+04 0.  0.
        5    1    3    3  502    0  0.45706826953E+03 -0.15879177691E+04  0.45784685727E+02  0.16530313282E+04  0.46999998093E+01 0.  1.
       -5    1    3    3    0  502 -0.45706826953E+03  0.15879177691E+04  0.16244048201E+03  0.16603623836E+04  0.46999998093E+01 0. -1.
</event>
<event>
 5   0  0.6377741E-07  0.3306002E+04  0.7818609E-02  0.8161370E-01
        2   -1    0    0  501    0  0.00000000000E+00  0.00000000000E+00  0.22722800889E+04  0.22722800889E+04  0.25500000920E-02 0.  1.
       -2   -1    0    0    0  501  0.00000000000E+00  0.00000000000E+00 -0.12024979275E+04  0.12024979275E+04  0.25500000920E-02 0. -1.
    10030    2    1    2    0    0  0.00000000000E+00  0.00000000000E+00  0.10697821614E+04  0.34747780164E+04  0.33060018739E+04 0.  0.
        1    1    3    3  502    0 -0.24831897125E+03  0.14403061273E+04  0.13464961253E+04  0.19872583796E+04  0.50400001928E-02 0.  1.
       -1    1    3    3    0  502  0.24831897125E+03 -0.14403061273E+04 -0.27671396389E+03  0.14875196368E+04  0.50400001928E-02 0. -1.
</event>
<event>
 5   0  0.2080770E-07  0.3298554E+04  0.7818609E-02  0.8163263E-01
       -1   -1    0    0    0  501  0.00000000000E+00  0.00000000000E+00  0.13252649317E+04  0.13252649317E+04  0.50400001928E-02 0. -1.
        1   -1    0    0  501    0  0.00000000000E+00  0.00000000000E+00 -0.20525061142E+04  0.20525061142E+04  0.50400001928E-02 0.  1.
    10030    2    1    2    0    0  0.00000000000E+00  0.00000000000E+00 -0.72724118251E+03  0.33777710459E+04  0.32985538499E+04 0.  0.
        4    1    3    3  502    0  0.26914486180E+03 -0.88446863072E+03 -0.17622135626E+04  0.19900055197E+04  0.12699999809E+01 0.  1.
       -4    1    3    3    0  502 -0.26914486180E+03  0.88446863072E+03  0.10349723801E+04  0.13877655262E+04  0.12699999809E+01 0. -1.
</event>
<event>
 5   0  0.1994250E-07  0.3300704E+04  0.7818609E-02  0.8162716E-01
       -3   -1    0    0    0  501  0.00000000000E+00  0.00000000000E+00  0.24521038931E+04  0.24521038952E+04  0.10100000352E+00 0.  1.
        3   -1    0    0  501    0  0.00000000000E+00  0.00000000000E+00 -0.11107451532E+04  0.11107451578E+04  0.10100000352E+00 0. -1.
    10030    2    1    2    0    0  0.00000000000E+00  0.00000000000E+00  0.13413587399E+04  0.35628490530E+04  0.33007044862E+04 0.  0.
        4    1    3    3  502    0 -0.50525879729E+03 -0.98657681326E+03 -0.64914845664E+03  0.12845293272E+04  0.12699999809E+01 0. -1.
       -4    1    3    3    0  502  0.50525879729E+03  0.98657681326E+03  0.19905071965E+04  0.22783197258E+04  0.12699999809E+01 0.  1.
</event>
<event>
 5   0  0.2087665E-07  0.3278885E+04  0.7818609E-02  0.8168289E-01
        1   -1    0    0  501    0  0.00000000000E+00  0.00000000000E+00  0.17297595180E+04  0.17297595180E+04  0.50400001928E-02 0.  1.
       -1   -1    0    0    0  501  0.00000000000E+00  0.00000000000E+00 -0.15538415716E+04  0.15538415716E+04  0.50400001928E-02 0. -1.
    10030    2    1    2    0    0  0.00000000000E+00  0.00000000000E+00  0.17591794642E+03  0.32836010896E+04  0.32788853277E+04 0.  0.
        5    1    3    3  502    0 -0.15154284132E+04 -0.71117498114E+02 -0.53435989674E+03  0.16084599975E+04  0.46999998093E+01 0. -1.
       -5    1    3    3    0  502  0.15154284132E+04  0.71117498114E+02  0.71027784316E+03  0.16751410922E+04  0.46999998093E+01 0.  1.
</event>
<event>
 5   0  0.2037333E-07  0.3300457E+04  0.7818609E-02  0.8162779E-01
        1   -1    0    0  501    0  0.00000000000E+00  0.00000000000E+00  0.19454213378E+04  0.19454213378E+04  0.50400001928E-02 0.  1.
       -1   -1    0    0    0  501  0.00000000000E+00  0.00000000000E+00 -0.13998273474E+04  0.13998273475E+04  0.50400001928E-02 0. -1.
    10030    2    1    2    0    0  0.00000000000E+00  0.00000000000E+00  0.54559399032E+03  0.33452486852E+04  0.33004569326E+04 0.  0.
        3    1    3    3  502    0  0.83781132380E+01  0.19981942532E+03 -0.13874985095E+04  0.14018381217E+04  0.10100000352E+00 0. -1.
       -3    1    3    3    0  502 -0.83781132380E+01 -0.19981942532E+03  0.19330924998E+04  0.19434105635E+04  0.10100000352E+00 0.  1.
</event>
<event>
 5   0  0.2087665E-07  0.3300611E+04  0.7818609E-02  0.8162740E-01
       -1   -1    0    0    0  501  0.00000000000E+00  0.00000000000E+00  0.16288405777E+04  0.16288405777E+04  0.50400001928E-02 0. -1.
        1   -1    0    0  501    0  0.00000000000E+00  0.00000000000E+00 -0.16720532102E+04  0.16720532102E+04  0.50400001928E-02 0.  1.
    10030    2    1    2    0    0  0.00000000000E+00  0.00000000000E+00 -0.43212632574E+02  0.33008937879E+04  0.33006109234E+04 0.  0.
        5    1    3    3  502    0 -0.10880040502E+04  0.33719697483E+03  0.11726615967E+04  0.16348125040E+04  0.46999998093E+01 0. -1.
       -5    1    3    3    0  502  0.10880040502E+04 -0.33719697483E+03 -0.12158742293E+04  0.16660812839E+04  0.46999998093E+01 0.  1.
</event>
<event>
 5   0  0.2080770E-07  0.3300661E+04  0.7818609E-02  0.8162727E-01
       -1   -1    0    0    0  501  0.00000000000E+00  0.00000000000E+00  0.94737021663E+03  0.94737021664E+03  0.50400001928E-02 0. -1.
        1   -1    0    0  501    0  0.00000000000E+00  0.00000000000E+00 -0.28748958693E+04  0.28748958693E+04  0.50400001928E-02 0.  1.
    10030    2    1    2    0    0  0.00000000000E+00  0.00000000000E+00 -0.19275256527E+04  0.38222660859E+04  0.33006609777E+04 0.  0.
        4    1    3    3  502    0  0.37362809261E+03 -0.11951469765E+04  0.28111450209E+03  0.12833554548E+04  0.12699999809E+01 0. -1.
       -4    1    3    3    0  502 -0.37362809261E+03  0.11951469765E+04 -0.22086401548E+04  0.25389106312E+04  0.12699999809E+01 0.  1.
</event>
<event>
 5   0  0.2087665E-07  0.3302820E+04  0.7818609E-02  0.8162178E-01
       -1   -1    0    0    0  501  0.00000000000E+00  0.00000000000E+00  0.90406024295E+03  0.90406024296E+03  0.50400001928E-02 0. -1.
        1   -1    0    0  501    0  0.00000000000E+00  0.00000000000E+00 -0.30165634714E+04  0.30165634714E+04  0.50400001928E-02 0.  1.
    10030    2    1    2    0    0  0.00000000000E+00  0.00000000000E+00 -0.21125032284E+04  0.39206237143E+04  0.33028200707E+04 0.  0.
        5    1    3    3  502    0  0.17608569707E+03  0.46167810645E+03 -0.29267479975E+04  0.29681692636E+04  0.46999998093E+01 0.  1.
       -5    1    3    3    0  502 -0.17608569707E+03 -0.46167810645E+03  0.81424476908E+03  0.95245445070E+03  0.46999998093E+01 0. -1.
</event>
<event>
 5   0  0.6426079E-07  0.3281960E+04  0.7818609E-02  0.8167501E-01
       -2   -1    0    0    0  501  0.00000000000E+00  0.00000000000E+00  0.23331514210E+04  0.23331514210E+04  0.25500000920E-02 0.  1.
        2   -1    0    0  501    0  0.00000000000E+00  0.00000000000E+00 -0.11541539940E+04  0.11541539940E+04  0.25500000920E-02 0. -1.
    10030    2    1    2    0    0  0.00000000000E+00  0.00000000000E+00  0.11789974270E+04  0.34873054150E+04  0.32819604088E+04 0.  0.
        4    1    3    3  502    0 -0.51409239016E+03 -0.11960470474E+04 -0.47200325986E+03  0.13847773162E+04  0.12699999809E+01 0. -1.
       -4    1    3    3    0  502  0.51409239016E+03  0.11960470474E+04  0.16510006868E+04  0.21025280988E+04  0.12699999809E+01 0.  1.
</event>
<event>
 5   0  0.2087665E-07  0.3308975E+04  0.7818609E-02  0.8160615E-01
       -1   -1    0    0    0  501  0.00000000000E+00  0.00000000000E+00  0.18820254203E+04  0.18820254203E+04  0.50400001928E-02 0.  1.
        1   -1    0    0  501    0  0.00000000000E+00  0.00000000000E+00 -0.14544589568E+04  0.14544589568E+04  0.50400001928E-02 0. -1.
    10030    2    1    2    0    0  0.00000000000E+00  0.00000000000E+00  0.42756646352E+03  0.33364843770E+04  0.33089749043E+04 0.  0.
        5    1    3    3  502    0  0.94754790999E+03  0.85468947272E+03 -0.84804591036E+03  0.15321700599E+04  0.46999998093E+01 0. -1.
       -5    1    3    3    0  502 -0.94754790999E+03 -0.85468947272E+03  0.12756123739E+04  0.18043143171E+04  0.46999998093E+01 0.  1.
</event>
<event>
 5   0  0.6351753E-07  0.3297110E+04  0.7818609E-02  0.8163631E-01
       -2   -1    0    0    0  501  0.00000000000E+00  0.00000000000E+00  0.15172070782E+04  0.15172070782E+04  0.25500000920E-02 0.  1.
        2   -1    0    0  501    0  0.00000000000E+00  0.00000000000E+00 -0.17912736149E+04  0.17912736149E+04  0.25500000920E-02 0. -1.
    10030    2    1    2    0    0  0.00000000000E+00  0.00000000000E+00 -0.27406653670E+03  0.33084806931E+04  0.32971096478E+04 0.  0.
        3    1    3    3  502    0  0.13636794524E+04 -0.63349910168E+03 -0.81522676472E+03  0.17104202551E+04  0.10100000352E+00 0. -1.
       -3    1    3    3    0  502 -0.13636794524E+04  0.63349910168E+03  0.54116022802E+03  0.15980604380E+04  0.10100000352E+00 0.  1.
</event>
<event>
 5   0  0.6351753E-07  0.3310287E+04  0.7818609E-02  0.8160283E-01
       -2   -1    0    0    0  501  0.00000000000E+00  0.00000000000E+00  0.13188021133E+04  0.13188021133E+04  0.25500000920E-02 0. -1.
        2   -1    0    0  501    0  0.00000000000E+00  0.00000000000E+00 -0.20772642004E+04  0.20772642004E+04  0.25500000920E-02 0.  1.
    10030    2    1    2    0    0  0.00000000000E+00  0.00000000000E+00 -0.75846208713E+03  0.33960663138E+04  0.33102872488E+04 0.  0.
        3    1    3    3  502    0  0.14751260259E+03 -0.15719513993E+04  0.13033817583E+03  0.15842282726E+04  0.10100000352E+00 0. -1.
       -3    1    3    3    0  502 -0.14751260259E+03  0.15719513993E+04 -0.88880026296E+03  0.18118380411E+04  0.10100000352E+00 0.  1.
</event>
<event>
 5   0  0.2057130E-07  0.3307358E+04  0.7818609E-02  0.8161026E-01
        1   -1    0    0  501    0  0.00000000000E+00  0.00000000000E+00  0.15392001308E+04  0.15392001308E+04  0.50400001928E-02 0. -1.
       -1   -1    0    0    0  501  0.00000000000E+00  0.00000000000E+00 -0.17766726339E+04  0.17766726339E+04  0.50400001928E-02 0.  1.
    10030    2    1    2    0    0  0.00000000000E+00  0.00000000000E+00 -0.23747250305E+03  0.33158727647E+04  0.33073583117E+04 0.  0.
        2    1    3    3  502    0 -0.62809109386E+03 -0.12972277195E+04 -0.93159879966E+03  0.17161510720E+04  0.25500000920E-02 0.  1.
       -2    1    3    3    0  502  0.62809109386E+03  0.12972277195E+04  0.69412629661E+03  0.15997216927E+04  0.25500000920E-02 0. -1.
</event>
<event>
 5   0  0.6258718E-07  0.3300207E+04  0.7818609E-02  0.8162843E-01
        2   -1    0    0  501    0  0.00000000000E+00  0.00000000000E+00  0.14935686140E+04  0.14935686140E+04  0.25500000920E-02 0.  1.
       -2   -1    0    0    0  501  0.00000000000E+00  0.00000000000E+00 -0.18230445520E+04  0.18230445520E+04  0.25500000920E-02 0. -1.
    10030    2    1    2    0    0  0.00000000000E+00  0.00000000000E+00 -0.32947593801E+03  0.33166131660E+04  0.33002073419E+04 0.  0.
        5    1    3    3  502    0  0.74109410841E+03 -0.14473344210E+04  0.11741138362E+03  0.16302775613E+04  0.46999998093E+01 0.  1.
       -5    1    3    3    0  502 -0.74109410841E+03  0.14473344210E+04 -0.44688732162E+03  0.16863356048E+04  0.46999998093E+01 0. -1.
</event>
<event>
 5   0  0.2087665E-07  0.3300322E+04  0.7818609E-02  0.8162813E-01
        1   -1    0    0  501    0  0.00000000000E+00  0.00000000000E+00  0.25842563374E+04  0.25842563374E+04  0.50400001928E-02 0.  1.
       -1   -1    0    0    0  501  0.00000000000E+00  0.00000000000E+00 -0.10537001195E+04  0.10537001195E+04  0.50400001928E-02 0. -1.
    10030    2    1    2    0    0  0.00000000000E+00  0.00000000000E+00  0.15305562179E+04  0.36379564569E+04  0.33003219307E+04 0.  0.
        5    1    3    3  502    0  0.12149066148E+04 -0.11043413350E+04  0.94787911831E+03  0.18958018830E+04  0.46999998093E+01 0. -1.
       -5    1    3    3    0  502 -0.12149066148E+04  0.11043413350E+04  0.58267709957E+03  0.17421545738E+04  0.46999998093E+01 0.  1.
</event>
<event>
 5   0  0.2080770E-07  0.3301567E+04  0.7818609E-02  0.8162497E-01
        1   -1    0    0  501    0  0.00000000000E+00  0.00000000000E+00  0.18719368844E+04  0.18719368844E+04  0.50400001928E-02 0. -1.
       -1   -1    0    0    0  501  0.00000000000E+00  0.00000000000E+00 -0.14557578778E+04  0.14557578778E+04  0.50400001928E-02 0.  1.
    10030    2    1    2    0    0  0.00000000000E+00  0.00000000000E+00  0.41617900661E+03  0.33276947622E+04  0.33015674254E+04 0.  0.
        4    1    3    3  502    0  0.14981558856E+04  0.69296707957E+03  0.18766035033E+03  0.16612924038E+04  0.12699999809E+01 0. -1.
       -4    1    3    3    0  502 -0.14981558856E+04 -0.69296707957E+03  0.22851865628E+03  0.16664023584E+04  0.12699999809E+01 0.  1.
</event>
<event>
 5   0  0.6258718E-07  0.3289391E+04  0.7818609E-02  0.8165600E-01
        2   -1    0    0  501    0  0.00000000000E+00  0.00000000000E+00  0.19015629440E+04  0.19015629440E+04  0.25500000920E-02 0.  1.
       -2   -1    0    0    0  501  0.00000000000E+00  0.00000000000E+00 -0.14225266254E+04  0.14225266254E+04  0.25500000920E-02 0. -1.
    10030    2    1    2    0    0  0.00000000000E+00  0.00000000000E+00  0.47903631861E+03  0.33240895695E+04  0.32893913831E+04 0.  0.
        5    1    3    3  502    0 -0.84948633728E+03  0.38119344558E+03  0.16095723930E+04  0.18594840302E+04  0.46999998093E+01 0.  1.
       -5    1    3    3    0  502  0.84948633728E+03 -0.38119344558E+03 -0.11305360744E+04  0.14646055393E+04  0.46999998093E+01 0. -1.
</event>
<event>
 5   0  0.6377741E-07  0.3289279E+04  0.7818609E-02  0.8165629E-01
        2   -1    0    0  501    0  0.00000000000E+00  0.00000000000E+00  0.18544936602E+04  0.18544936602E+04  0.25500000920E-02 0. -1.
       -2   -1    0    0    0  501  0.00000000000E+00  0.00000000000E+00 -0.14585321783E+04  0.14585321783E+04  0.25500000920E-02 0.  1.
    10030    2    1    2    0    0  0.00000000000E+00  0.00000000000E+00  0.39596148192E+03  0.33130258385E+04  0.32892787524E+04 0.  0.
        1    1    3    3  502    0  0.42084764575E+03 -0.13824501883E+04 -0.59289982778E+03  0.15619895870E+04  0.50400001928E-02 0.  1.
       -1    1    3    3    0  502 -0.42084764575E+03  0.13824501883E+04  0.98886130970E+03  0.17510362515E+04  0.50400001928E-02 0. -1.
</event>
<event>
 5   0  0.2080770E-07  0.3296746E+04  0.7818609E-02  0.8163724E-01
       -1   -1    0    0    0  501  0.00000000000E+00  0.00000000000E+00  0.17515390469E+04  0.17515390470E+04  0.50400001928E-02 0. -1.
        1   -1    0    0  501    0  0.00000000000E+00  0.00000000000E+00 -0.15512830525E+04  0.15512830525E+04  0.50400001928E-02 0.  1.
    10030    2    1    2    0    0  0.00000000000E+00  0.00000000000E+00  0.20025599448E+03  0.33028220994E+04  0.32967455706E+04 0.  0.
        4    1    3    3  502    0  0.93361482396E+02 -0.78520725931E+03 -0.13488657689E+04  0.15635559734E+04  0.12699999809E+01 0.  1.
       -4    1    3    3    0  502 -0.93361482396E+02  0.78520725931E+03  0.15491217634E+04  0.17392661260E+04  0.12699999809E+01 0. -1.
</event>
<event>
 5   0  0.6377741E-07  0.3301496E+04  0.7818609E-02  0.8162515E-01
        2   -1    0    0  501    0  0.00000000000E+00  0.00000000000E+00  0.21735861845E+04  0.21735861845E+04  0.25500000920E-02 0.  1.
       -2   -1    0    0    0  501  0.00000000000E+00  0.00000000000E+00 -0.12536745900E+04  0.12536745901E+04  0.25500000920E-02 0. -1.
    10030    2    1    2    0    0  0.00000000000E+00  0.00000000000E+00  0.91991159441E+03  0.34272607745E+04  0.33014964902E+04 0.  0.
        1    1    3    3  502    0 -0.76044613190E+03 -0.12643707842E+04  0.12284658610E+04  0.19199062923E+04  0.50400001928E-02 0. -1.
       -1    1    3    3    0  502  0.76044613190E+03  0.12643707842E+04 -0.30855426664E+03  0.15073544822E+04  0.50400001928E-02 0.  1.
</event>
<event>
 5   0  0.2080770E-07  0.3303046E+04  0.7818609E-02  0.8162121E-01
        1   -1    0    0  501    0  0.00000000000E+00  0.00000000000E+00  0.11393428517E+04  0.11393428517E+04  0.50400001928E-02 0.  1.
       -1   -1    0    0    0  501  0.00000000000E+00  0.00000000000E+00 -0.23939487635E+04  0.23939487635E+04  0.50400001928E-02 0. -1.
    10030    2    1    2    0    0  0.00000000000E+00  0.00000000000E+00 -0.12546059118E+04  0.35332916151E+04  0.33030461159E+04 0.  0.
        4    1    3    3  502    0  0.11967019612E+04 -0.11327892956E+04 -0.50905495671E+03  0.17246581499E+04  0.12699999809E+01 0.  1.
       -4    1    3    3    0  502 -0.11967019612E+04  0.11327892956E+04 -0.74555095509E+03  0.18086334653E+04  0.12699999809E+01 0. -1.
</event>
<event>
 5   0  0.6351753E-07  0.3297704E+04  0.7818609E-02  0.8163480E-01
        2   -1    0    0  501    0  0.00000000000E+00  0.00000000000E+00  0.21150514866E+04  0.21150514866E+04  0.25500000920E-02 0. -1.
       -2   -1    0    0    0  501  0.00000000000E+00  0.00000000000E+00 -0.12854120675E+04  0.12854120675E+04  0.25500000920E-02 0.  1.
    10030    2    1    2    0    0  0.00000000000E+00  0.00000000000E+00  0.82963941912E+03  0.34004635541E+04  0.32977038705E+04 0.  0.
        3    1    3    3  502    0 -0.76728053669E+03  0.14435047694E+04  0.63666855508E+03  0.17543580879E+04  0.10100000352E+00 0.  1.
       -3    1    3    3    0  502  0.76728053669E+03 -0.14435047694E+04  0.19297086404E+03  0.16461054662E+04  0.10100000352E+00 0. -1.
</event>
<event>
 5   0  0.2080770E-07  0.3299626E+04  0.7818609E-02  0.8162990E-01
        1   -1    0    0  501    0  0.00000000000E+00  0.00000000000E+00  0.17043841994E+04  0.17043841994E+04  0.50400001928E-02 0.  1.
       -1   -1    0    0    0  501  0.00000000000E+00  0.00000000000E+00 -0.15969893978E+04  0.15969893978E+04  0.50400001928E-02 0. -1.
    10030    2    1    2    0    0  0.00000000000E+00  0.00000000000E+00  0.10739480162E+03  0.33013735973E+04  0.32996263403E+04 0.  0.
        4    1    3    3  502    0 -0.63300768335E+03  0.83506311423E+03 -0.12212821951E+04  0.16092112804E+04  0.12699999809E+01 0. -1.
       -4    1    3    3    0  502  0.63300768335E+03 -0.83506311423E+03  0.13286769968E+04  0.16921623168E+04  0.12699999809E+01 0.  1.
</event>
<event>
 5   0  0.6351753E-07  0.3305812E+04  0.7818609E-02  0.8161418E-01
       -2   -1    0    0    0  501  0.00000000000E+00  0.00000000000E+00  0.12324171472E+04  0.12324171472E+04  0.25500000920E-02 0.  1.
        2   -1    0    0  501    0  0.00000000000E+00  0.00000000000E+00 -0.22168611842E+04  0.22168611842E+04  0.25500000920E-02 0. -1.
    10030    2    1    2    0    0  0.00000000000E+00  0.00000000000E+00 -0.98444403700E+03  0.34492783313E+04  0.33058116923E+04 0.  0.
        3    1    3    3  502    0  0.11062256685E+04 -0.93059423026E+03  0.34403219127E+03  0.14859673650E+04  0.10100000352E+00 0.  1.
       -3    1    3    3    0  502 -0.11062256685E+04  0.93059423026E+03 -0.13284762283E+04  0.19633109663E+04  0.10100000352E+00 0. -1.
</event>
<event>
 5   0  0.6426079E-07  0.3321264E+04  0.7818609E-02  0.8157506E-01
       -2   -1    0    0    0  501  0.00000000000E+00  0.00000000000E+00  0.19263484385E+04  0.19263484385E+04  0.25500000920E-02 0. -1.
        2   -1    0    0  501    0  0.00000000000E+00  0.00000000000E+00 -0.14315683436E+04  0.14315683436E+04  0.25500000920E-02 0.  1.
    10030    2    1    2    0    0  0.00000000000E+00  0.00000000000E+00  0.49478009483E+03  0.33579167821E+04  0.33212644841E+04 0.  0.
        4    1    3    3  502    0 -0.10831718609E+04  0.11407710807E+04  0.78531221738E+03  0.17582197902E+04  0.12699999809E+01 0. -1.
       -4    1    3    3    0  502  0.10831718609E+04 -0.11407710807E+04 -0.29053212255E+03  0.15996969919E+04  0.12699999809E+01 0.  1.
</event>
<event>
 5   0  0.6424183E-07  0.3300920E+04  0.7818609E-02  0.8162661E-01
       -2   -1    0    0    0  501  0.00000000000E+00  0.00000000000E+00  0.11238116525E+04  0.11238116525E+04  0.25500000920E-02 0.  1.
        2   -1    0    0  501    0  0.00000000000E+00  0.00000000000E+00 -0.24239093608E+04  0.24239093608E+04  0.25500000920E-02 0. -1.
    10030    2    1    2    0    0  0.00000000000E+00  0.00000000000E+00 -0.13000977083E+04  0.35477210132E+04  0.33009196199E+04 0.  0.
        2    1    3    3  502    0  0.35158873631E+03  0.13260010292E+04  0.33623651130E+03  0.14124264089E+04  0.25500000920E-02 0.  1.
       -2    1    3    3    0  502 -0.35158873631E+03 -0.13260010292E+04 -0.16363342196E+04  0.21352946043E+04  0.25500000920E-02 0. -1.
</event>
<event>
 5   0  0.6424183E-07  0.3277070E+04  0.7818609E-02  0.8168755E-01
       -2   -1    0    0    0  501  0.00000000000E+00  0.00000000000E+00  0.27128949254E+04  0.27128949254E+04  0.25500000920E-02 0. -1.
        2   -1    0    0  501    0  0.00000000000E+00  0.00000000000E+00 -0.98964269902E+03  0.98964269902E+03  0.25500000920E-02 0.  1.
    10030    2    1    2    0    0  0.00000000000E+00  0.00000000000E+00  0.17232522264E+04  0.37025376245E+04  0.32770698230E+04 0.  0.
        2    1    3    3  502    0  0.11056488822E+03 -0.15732674316E+04  0.13636093047E+04  0.20849041564E+04  0.25500000920E-02 0. -1.
       -2    1    3    3    0  502 -0.11056488822E+03  0.15732674316E+04  0.35964292176E+03  0.16176334680E+04  0.25500000920E-02 0.  1.
</event>
<event>
 5   0  0.2080770E-07  0.3300091E+04  0.7818609E-02  0.8162872E-01
       -1   -1    0    0    0  501  0.00000000000E+00  0.00000000000E+00  0.12152262168E+04  0.12152262168E+04  0.50400001928E-02 0. -1.
        1   -1    0    0  501    0  0.00000000000E+00  0.00000000000E+00 -0.22404467776E+04  0.22404467776E+04  0.50400001928E-02 0.  1.
    10030    2    1    2    0    0  0.00000000000E+00  0.00000000000E+00 -0.10252205608E+04  0.34556729944E+04  0.33000907027E+04 0.  0.
        4    1    3    3  502    0  0.15117996291E+04 -0.66014764766E+03 -0.55058301362E+03  0.17391021542E+04  0.12699999809E+01 0.  1.
       -4    1    3    3    0  502 -0.15117996291E+04  0.66014764766E+03 -0.47463754715E+03  0.17165708401E+04  0.12699999809E+01 0. -1.
</event>
<event>
 5   0  0.6424183E-07  0.3298001E+04  0.7818609E-02  0.8163404E-01
       -2   -1    0    0    0  501  0.00000000000E+00  0.00000000000E+00  0.98194608210E+03  0.98194608210E+03  0.25500000920E-02 0. -1.
        2   -1    0    0  501    0  0.00000000000E+00  0.00000000000E+00 -0.27691976518E+04  0.27691976518E+04  0.25500000920E-02 0.  1.
    10030    2    1    2    0    0  0.00000000000E+00  0.00000000000E+00 -0.17872515697E+04  0.37511437339E+04  0.32980010823E+04 0.  0.
        2    1    3    3  502    0  0.16143849844E+04  0.15506136291E+03 -0.12327918141E+04  0.20371692519E+04  0.25500000920E-02 0. -1.
       -2    1    3    3    0  502 -0.16143849844E+04 -0.15506136291E+03 -0.55445975561E+03  0.17139744819E+04  0.25500000920E-02 0.  1.
</event>
<event>
 5   0  0.2057130E-07  0.3329951E+04  0.7818609E-02  0.8155316E-01
       -1   -1    0    0    0  501  0.00000000000E+00  0.00000000000E+00  0.15402035623E+04  0.15402035623E+04  0.50400001928E-02 0. -1.
        1   -1    0    0  501    0  0.00000000000E+00  0.00000000000E+00 -0.17998549158E+04  0.17998549158E+04  0.50400001928E-02 0.  1.
    10030    2    1    2    0    0  0.00000000000E+00  0.00000000000E+00 -0.25965135352E+03  0.33400584781E+04  0.33299507221E+04 0.  0.
        2    1    3    3  502    0  0.13281564101E+04  0.17720779807E+03  0.86147625066E+03  0.15929668496E+04  0.25500000920E-02 0. -1.
       -2    1    3    3    0  502 -0.13281564101E+04 -0.17720779807E+03 -0.11211276042E+04  0.17470916285E+04  0.25500000920E-02 0.  1.
</event>
<event>
 5   0  0.6258718E-07  0.3293066E+04  0.7818609E-02  0.8164662E-01
        2   -1    0    0  501    0  0.00000000000E+00  0.00000000000E+00  0.15164976893E+04  0.15164976893E+04  0.25500000920E-02 0. -1.
       -2   -1    0    0    0  501  0.00000000000E+00  0.00000000000E+00 -0.17877189119E+04  0.17877189119E+04  0.25500000920E-02 0.  1.
    10030    2    1    2    0    0  0.00000000000E+00  0.00000000000E+00 -0.27122122264E+03  0.33042166012E+04  0.32930664123E+04 0.  0.
        5    1    3    3  502    0 -0.71021048239E+02 -0.13778526849E+04 -0.10372786583E+04  0.17261202495E+04  0.46999998093E+01 0.  1.
       -5    1    3    3    0  502  0.71021048239E+02  0.13778526849E+04  0.76605743568E+03  0.15780963517E+04  0.46999998093E+01 0. -1.
</event>
<event>
 5   0  0.6351753E-07  0.3303784E+04  0.7818609E-02  0.8161933E-01
       -2   -1    0    0    0  501  0.00000000000E+00  0.00000000000E+00  0.10639339209E+04  0.10639339209E+04  0.25500000920E-02 0.  1.
        2   -1    0    0  501    0  0.00000000000E+00  0.00000000000E+00 -0.25647720205E+04  0.25647720205E+04  0.25500000920E-02 0. -1.
    10030    2    1    2    0    0  0.00000000000E+00  0.00000000000E+00 -0.15008380995E+04  0.36287059414E+04  0.33037844676E+04 0.  0.
        3    1    3    3  502    0  0.13155400056E+04  0.93235075333E+03 -0.35619844889E+03  0.16513027520E+04  0.10100000352E+00 0. -1.
       -3    1    3    3    0  502 -0.13155400056E+04 -0.93235075333E+03 -0.11446396506E+04  0.19774031894E+04  0.10100000352E+00 0.  1.
</event>
<event>
 5   0  0.2087665E-07  0.3259481E+04  0.7818609E-02  0.8173283E-01
       -1   -1    0    0    0  501  0.00000000000E+00  0.00000000000E+00  0.11724640177E+04  0.11724640177E+04  0.50400001928E-02 0. -1.
        1   -1    0    0  501    0  0.00000000000E+00  0.00000000000E+00 -0.22653610211E+04  0.22653610211E+04  0.50400001928E-02 0.  1.
    10030    2    1    2    0    0  0.00000000000E+00  0.00000000000E+00 -0.10928970034E+04  0.34378250389E+04  0.32594811148E+04 0.  0.
        5    1    3    3  502    0 -0.14054328952E+04  0.55671288328E+03  0.95856170448E+02  0.15147215430E+04  0.46999998093E+01 0. -1.
       -5    1    3    3    0  502  0.14054328952E+04 -0.55671288328E+03 -0.11887531739E+04  0.19231034959E+04  0.46999998093E+01 0.  1.
</event>
<event>
 5   0  0.2080828E-07  0.3287445E+04  0.7818609E-02  0.8166097E-01
       -1   -1    0    0    0  501  0.00000000000E+00  0.00000000000E+00  0.11928335427E+04  0.11928335427E+04  0.50400001928E-02 0. -1.
        1   -1    0    0  501    0  0.00000000000E+00  0.00000000000E+00 -0.22650461223E+04  0.22650461223E+04  0.50400001928E-02 0.  1.
    10030    2    1    2    0    0  0.00000000000E+00  0.00000000000E+00 -0.10722125797E+04  0.34578796650E+04  0.32874445945E+04 0.  0.
        1    1    3    3  502    0 -0.46999217597E+03 -0.13770630782E+04  0.26814376556E+03  0.14795595445E+04  0.50400001928E-02 0. -1.
       -1    1    3    3    0  502  0.46999217597E+03  0.13770630782E+04 -0.13403563452E+04  0.19783201205E+04  0.50400001928E-02 0.  1.
</event>
<event>
 5   0  0.6351753E-07  0.3311469E+04  0.7818609E-02  0.8159983E-01
        2   -1    0    0  501    0  0.00000000000E+00  0.00000000000E+00  0.21995103227E+04  0.21995103227E+04  0.25500000920E-02 0.  1.
       -2   -1    0    0    0  501  0.00000000000E+00  0.00000000000E+00 -0.12463941076E+04  0.12463941076E+04  0.25500000920E-02 0. -1.
    10030    2    1    2    0    0  0.00000000000E+00  0.00000000000E+00  0.95311621508E+03  0.34459044303E+04  0.33114689827E+04 0.  0.
        3    1    3    3  502    0  0.73142886795E+03  0.53543606162E+03 -0.96525144507E+03  0.13241564588E+04  0.10100000352E+00 0. -1.
       -3    1    3    3    0  502 -0.73142886795E+03 -0.53543606162E+03  0.19183676602E+04  0.21217479715E+04  0.10100000352E+00 0.  1.
</event>
<event>
 5   0  0.2057130E-07  0.3196724E+04  0.7818609E-02  0.8189683E-01
       -1   -1    0    0    0  501  0.00000000000E+00  0.00000000000E+00  0.78120726751E+03  0.78120726753E+03  0.50400001928E-02 0.  1.
        1   -1    0    0  501    0  0.00000000000E+00  0.00000000000E+00 -0.32702740046E+04  0.32702740046E+04  0.50400001928E-02 0. -1.
    10030    2    1    2    0    0  0.00000000000E+00  0.00000000000E+00 -0.24890667370E+04  0.40514812721E+04  0.31967244605E+04 0.  0.
        2    1    3    3  502    0 -0.92765211306E+03 -0.18068054241E+03  0.38915413669E+03  0.10220689034E+04  0.25500000920E-02 0.  1.
       -2    1    3    3    0  502  0.92765211306E+03  0.18068054241E+03 -0.28782208737E+04  0.30294123686E+04  0.25500000920E-02 0. -1.
</event>
<event>
 5   0  0.6426079E-07  0.3304665E+04  0.7818609E-02  0.8161709E-01
        2   -1    0    0  501    0  0.00000000000E+00  0.00000000000E+00  0.18918396690E+04  0.18918396690E+04  0.25500000920E-02 0.  1.
       -2   -1    0    0    0  501  0.00000000000E+00  0.00000000000E+00 -0.14431469660E+04  0.14431469660E+04  0.25500000920E-02 0. -1.
    10030    2    1    2    0    0  0.00000000000E+00  0.00000000000E+00  0.44869270300E+03  0.33349866350E+04  0.33046649927E+04 0.  0.
        4    1    3    3  502    0  0.53366611692E+03 -0.15588075274E+04  0.98621426853E+02  0.16505781504E+04  0.12699999809E+01 0.  1.
       -4    1    3    3    0  502 -0.53366611692E+03  0.15588075274E+04  0.35007127615E+03  0.16844084846E+04  0.12699999809E+01 0. -1.
</event>
<event>
 5   0  0.2080770E-07  0.3287031E+04  0.7818609E-02  0.8166203E-01
       -1   -1    0    0    0  501  0.00000000000E+00  0.00000000000E+00  0.13835011019E+04  0.13835011019E+04  0.50400001928E-02 0. -1.
        1   -1    0    0  501    0  0.00000000000E+00  0.00000000000E+00 -0.19523968461E+04  0.19523968461E+04  0.50400001928E-02 0.  1.
    10030    2    1    2    0    0  0.00000000000E+00  0.00000000000E+00 -0.56889574418E+03  0.33358979479E+04  0.32870309934E+04 0.  0.
        4    1    3    3  502    0 -0.95123331964E+03  0.20553624132E+03  0.10596476670E+04  0.14387302617E+04  0.12699999809E+01 0. -1.
       -4    1    3    3    0  502  0.95123331964E+03 -0.20553624132E+03 -0.16285434111E+04  0.18971676863E+04  0.12699999809E+01 0.  1.
</event>
<event>
 5   0  0.6426079E-07  0.3304637E+04  0.7818609E-02  0.8161717E-01
       -2   -1    0    0    0  501  0.00000000000E+00  0.00000000000E+00  0.10432616280E+04  0.10432616280E+04  0.25500000920E-02 0. -1.
        2   -1    0    0  501    0  0.00000000000E+00  0.00000000000E+00 -0.26169429412E+04  0.26169429412E+04  0.25500000920E-02 0.  1.
    10030    2    1    2    0    0  0.00000000000E+00  0.00000000000E+00 -0.15736813132E+04  0.36602045692E+04  0.33046368353E+04 0.  0.
        4    1    3    3  502    0 -0.12531105672E+04 -0.78309328231E+03 -0.16057384196E+04  0.21821820885E+04  0.12699999809E+01 0. -1.
       -4    1    3    3    0  502  0.12531105672E+04  0.78309328231E+03  0.32057106402E+02  0.14780224807E+04  0.12699999809E+01 0.  1.
</event>
<event>
 5   0  0.6377741E-07  0.3304239E+04  0.7818609E-02  0.8161818E-01
        2   -1    0    0  501    0  0.00000000000E+00  0.00000000000E+00  0.17301398930E+04  0.17301398930E+04  0.25500000920E-02 0.  1.
       -2   -1    0    0    0  501  0.00000000000E+00  0.00000000000E+00 -0.15776169772E+04  0.15776169772E+04  0.25500000920E-02 0. -1.
    10030    2    1    2    0    0  0.00000000000E+00  0.00000000000E+00  0.15252291580E+03  0.33077568702E+04  0.33042385314E+04 0.  0.
        1    1    3    3  502    0 -0.67878209023E+03  0.74846955341E+03  0.13847669841E+04  0.17142145136E+04  0.50400001928E-02 0.  1.
       -1    1    3    3    0  502  0.67878209023E+03 -0.74846955341E+03 -0.12322440683E+04  0.15935423566E+04  0.50400001928E-02 0. -1.
</event>
<event>
 5   0  0.6424183E-07  0.3291999E+04  0.7818609E-02  0.8164934E-01
        2   -1    0    0  501    0  0.00000000000E+00  0.00000000000E+00  0.19734977826E+04  0.19734977826E+04  0.25500000920E-02 0. -1.
       -2   -1    0    0    0  501  0.00000000000E+00  0.00000000000E+00 -0.13728492990E+04  0.13728492990E+04  0.25500000920E-02 0.  1.
    10030    2    1    2    0    0  0.00000000000E+00  0.00000000000E+00  0.60064848361E+03  0.33463470816E+04  0.32919994213E+04 0.  0.
        2    1    3    3  502    0 -0.75082983450E+03  0.13818089078E+04  0.79432435207E+03  0.17618434874E+04  0.25500000920E-02 0. -1.
       -2    1    3    3    0  502  0.75082983450E+03 -0.13818089078E+04 -0.19367586846E+03  0.15845035942E+04  0.25500000920E-02 0.  1.
</event>
<event>
 5   0  0.2037333E-07  0.3306993E+04  0.7818609E-02  0.8161118E-01
        1   -1    0    0  501    0  0.00000000000E+00  0.00000000000E+00  0.12968452853E+04  0.12968452853E+04  0.50400001928E-02 0. -1.
       -1   -1    0    0    0  501  0.00000000000E+00  0.00000000000E+00 -0.21082320080E+04  0.21082320080E+04  0.50400001928E-02 0.  1.
    10030    2    1    2    0    0  0.00000000000E+00  0.00000000000E+00 -0.81138672270E+03  0.34050772933E+04  0.33069930389E+04 0.  0.
        3    1    3    3  502    0  0.48778078070E+03 -0.64671570199E+03  0.10785457339E+04  0.13488632991E+04  0.10100000352E+00 0. -1.
       -3    1    3    3    0  502 -0.48778078070E+03  0.64671570199E+03 -0.18899324566E+04  0.20562139942E+04  0.10100000352E+00 0.  1.
</event>
<event>
 5   0  0.2080828E-07  0.3298776E+04  0.7818609E-02  0.8163207E-01
       -1   -1    0    0    0  501  0.00000000000E+00  0.00000000000E+00  0.12739675558E+04  0.12739675559E+04  0.50400001928E-02 0.  1.
        1   -1    0    0  501    0  0.00000000000E+00  0.00000000000E+00 -0.21354393393E+04  0.21354393393E+04  0.50400001928E-02 0. -1.
    10030    2    1    2    0    0  0.00000000000E+00  0.00000000000E+00 -0.86147178341E+03  0.34094068951E+04  0.32987757946E+04 0.  0.
        1    1    3    3  502    0  0.42408674670E+02 -0.37769345654E+03  0.12280924997E+04  0.12855590343E+04  0.50400001928E-02 0.  1.
       -1    1    3    3    0  502 -0.42408674670E+02  0.37769345654E+03 -0.20895642831E+04  0.21238478608E+04  0.50400001928E-02 0. -1.
</event>
<event>
 5   0  0.2057130E-07  0.3305712E+04  0.7818609E-02  0.8161443E-01
        1   -1    0    0  501    0  0.00000000000E+00  0.00000000000E+00  0.10582845165E+04  0.10582845165E+04  0.50400001928E-02 0.  1.
       -1   -1    0    0    0  501  0.00000000000E+00  0.00000000000E+00 -0.25814732915E+04  0.25814732915E+04  0.50400001928E-02 0. -1.
    10030    2    1    2    0    0  0.00000000000E+00  0.00000000000E+00 -0.15231887750E+04  0.36397578080E+04  0.33057121557E+04 0.  0.
        2    1    3    3  502    0 -0.56440159844E+03  0.33014003847E+03 -0.24330143844E+04  0.25193452728E+04  0.25500000920E-02 0. -1.
       -2    1    3    3    0  502  0.56440159844E+03 -0.33014003847E+03  0.90982560938E+03  0.11204125351E+04  0.25500000920E-02 0.  1.
</event>
<event>
 5   0  0.6424183E-07  0.3295445E+04  0.7818609E-02  0.8164055E-01
       -2   -1    0    0    0  501  0.00000000000E+00  0.00000000000E+00  0.15901258218E+04  0.15901258218E+04  0.25500000920E-02 0.  1.
        2   -1    0    0  501    0  0.00000000000E+00  0.00000000000E+00 -0.17074050556E+04  0.17074050556E+04  0.25500000920E-02 0. -1.
    10030    2    1    2    0    0  0.00000000000E+00  0.00000000000E+00 -0.11727923386E+03  0.32975308774E+04  0.32954446542E+04 0.  0.
        2    1    3    3  502    0  0.66236770061E+02  0.72722319252E+03  0.14193695937E+04  0.15961988990E+04  0.25500000920E-02 0.  1.
       -2    1    3    3    0  502 -0.66236770061E+02 -0.72722319252E+03 -0.15366488276E+04  0.17013319784E+04  0.25500000920E-02 0. -1.
</event>
<event>
 5   0  0.6258718E-07  0.3284250E+04  0.7818609E-02  0.8166914E-01
       -2   -1    0    0    0  501  0.00000000000E+00  0.00000000000E+00  0.13677844463E+04  0.13677844463E+04  0.25500000920E-02 0.  1.
        2   -1    0    0  501    0  0.00000000000E+00  0.00000000000E+00 -0.19714912636E+04  0.19714912636E+04  0.25500000920E-02 0. -1.
    10030    2    1    2    0    0  0.00000000000E+00  0.00000000000E+00 -0.60370681730E+03  0.33392757099E+04  0.32842503476E+04 0.  0.
        5    1    3    3  502    0 -0.84401210901E+03  0.11812083149E+04 -0.10821376399E+04  0.18107052452E+04  0.46999998093E+01 0. -1.
       -5    1    3    3    0  502  0.84401210901E+03 -0.11812083149E+04  0.47843082263E+03  0.15285704647E+04  0.46999998093E+01 0.  1.
</event>
<event>
 5   0  0.2080828E-07  0.3307043E+04  0.7818609E-02  0.8161106E-01
        1   -1    0    0  501    0  0.00000000000E+00  0.00000000000E+00  0.18809892098E+04  0.18809892098E+04  0.50400001928E-02 0. -1.
       -1   -1    0    0    0  501  0.00000000000E+00  0.00000000000E+00 -0.14535613684E+04  0.14535613684E+04  0.50400001928E-02 0.  1.
    10030    2    1    2    0    0  0.00000000000E+00  0.00000000000E+00  0.42742784137E+03  0.33345505782E+04  0.33070429388E+04 0.  0.
        1    1    3    3  502    0 -0.82406650064E+02  0.15069905372E+04 -0.46742098730E+03  0.15799663650E+04  0.50400001928E-02 0.  1.
       -1    1    3    3    0  502  0.82406650064E+02 -0.15069905372E+04  0.89484882867E+03  0.17545842132E+04  0.50400001928E-02 0. -1.
</event>
<event>
 5   0  0.6377741E-07  0.3311740E+04  0.7818609E-02  0.8159915E-01
        2   -1    0    0  501    0  0.00000000000E+00  0.00000000000E+00  0.13803868052E+04  0.13803868052E+04  0.25500000920E-02 0. -1.
       -2   -1    0    0    0  501  0.00000000000E+00  0.00000000000E+00 -0.19863309827E+04  0.19863309827E+04  0.25500000920E-02 0.  1.
    10030    2    1    2    0    0  0.00000000000E+00  0.00000000000E+00 -0.60594417753E+03  0.33667177879E+04  0.33117397719E+04 0.  0.
        1    1    3    3  502    0 -0.47474153660E+03  0.30607443233E+03  0.12794168389E+04  0.13985594490E+04  0.50400001928E-02 0. -1.
       -1    1    3    3    0  502  0.47474153660E+03 -0.30607443233E+03 -0.18853610164E+04  0.19681583389E+04  0.50400001928E-02 0.  1.
</event>
<event>
 5   0  0.2080828E-07  0.3304766E+04  0.7818609E-02  0.8161684E-01
        1   -1    0    0  501    0  0.00000000000E+00  0.00000000000E+00  0.97030622132E+03  0.97030622134E+03  0.50400001928E-02 0. -1.
       -1   -1    0    0    0  501  0.00000000000E+00  0.00000000000E+00 -0.28139250327E+04  0.28139250327E+04  0.50400001928E-02 0.  1.
    10030    2    1    2    0    0  0.00000000000E+00  0.00000000000E+00 -0.18436188114E+04  0.37842312541E+04  0.33047656290E+04 0.  0.
        1    1    3    3  502    0  0.62781844244E+03 -0.10877380143E+04  0.30777684447E+03  0.12930802645E+04  0.50400001928E-02 0. -1.
       -1    1    3    3    0  502 -0.62781844244E+03  0.10877380143E+04 -0.21513956559E+04  0.24911509895E+04  0.50400001928E-02 0.  1.
</event>
<event>
 5   0  0.6258718E-07  0.3281851E+04  0.7818609E-02  0.8167529E-01
        2   -1    0    0  501    0  0.00000000000E+00  0.00000000000E+00  0.18745267719E+04  0.18745267719E+04  0.25500000920E-02 0. -1.
       -2   -1    0    0    0  501  0.00000000000E+00  0.00000000000E+00 -0.14364351340E+04  0.14364351340E+04  0.25500000920E-02 0.  1.
    10030    2    1    2    0    0  0.00000000000E+00  0.00000000000E+00  0.43809163785E+03  0.33109619059E+04  0.32818507673E+04 0.  0.
        5    1    3    3  502    0 -0.16288375603E+04  0.42494600891E+02  0.41492374629E+03  0.16813986423E+04  0.46999998093E+01 0.  1.
       -5    1    3    3    0  502  0.16288375603E+04 -0.42494600891E+02  0.23167891567E+02  0.16295632636E+04  0.46999998093E+01 0. -1.
</event>
<event>
 5   0  0.6377741E-07  0.3290408E+04  0.7818609E-02  0.8165340E-01
       -2   -1    0    0    0  501  0.00000000000E+00  0.00000000000E+00  0.20932562093E+04  0.20932562093E+04  0.25500000920E-02 0.  1.
        2   -1    0    0  501    0  0.00000000000E+00  0.00000000000E+00 -0.12930550135E+04  0.12930550135E+04  0.25500000920E-02 0. -1.
    10030    2    1    2    0    0  0.00000000000E+00  0.00000000000E+00  0.80020119581E+03  0.33863112229E+04  0.32904075347E+04 0.  0.
        1    1    3    3  502    0 -0.49845483969E+03 -0.23687707005E+03 -0.11949527138E+04  0.13162370462E+04  0.50400001928E-02 0. -1.
       -1    1    3    3    0  502  0.49845483969E+03  0.23687707005E+03  0.19951539097E+04  0.20700741766E+04  0.50400001928E-02 0.  1.
</event>
<event>
 5   0  0.6258718E-07  0.3295173E+04  0.7818609E-02  0.8164125E-01
        2   -1    0    0  501    0  0.00000000000E+00  0.00000000000E+00  0.10375659101E+04  0.10375659101E+04  0.25500000920E-02 0.  1.
       -2   -1    0    0    0  501  0.00000000000E+00  0.00000000000E+00 -0.26162597222E+04  0.26162597222E+04  0.25500000920E-02 0. -1.
    10030    2    1    2    0    0  0.00000000000E+00  0.00000000000E+00 -0.15786938121E+04  0.36538256324E+04  0.32951733793E+04 0.  0.
        5    1    3    3  502    0 -0.35337621375E+02 -0.68428438617E+03  0.87207613671E+03  0.11090684140E+04  0.46999998093E+01 0.  1.
       -5    1    3    3    0  502  0.35337621375E+02  0.68428438617E+03 -0.24507699488E+04  0.25447572184E+04  0.46999998093E+01 0. -1.
</event>
<event>
 5   0  0.6258718E-07  0.3258806E+04  0.7818609E-02  0.8173457E-01
       -2   -1    0    0    0  501  0.00000000000E+00  0.00000000000E+00  0.14176641296E+04  0.14176641296E+04  0.25500000920E-02 0. -1.
        2   -1    0    0  501    0  0.00000000000E+00  0.00000000000E+00 -0.18727671056E+04  0.18727671056E+04  0.25500000920E-02 0.  1.
    10030    2    1    2    0    0  0.00000000000E+00  0.00000000000E+00 -0.45510297605E+03  0.32904312352E+04  0.32588063758E+04 0.  0.
        5    1    3    3  502    0  0.85047302077E+03 -0.49090040942E+03 -0.15404177420E+04  0.18267995185E+04  0.46999998093E+01 0.  1.
       -5    1    3    3    0  502 -0.85047302077E+03  0.49090040942E+03  0.10853147659E+04  0.14636317167E+04  0.46999998093E+01 0. -1.
</event>
<event>
 5   0  0.2057130E-07  0.3303550E+04  0.7818609E-02  0.8161993E-01
        1   -1    0    0  501    0  0.00000000000E+00  0.00000000000E+00  0.12520742959E+04  0.12520742959E+04  0.50400001928E-02 0.  1.
       -1   -1    0    0    0  501  0.00000000000E+00  0.00000000000E+00 -0.21790730421E+04  0.21790730421E+04  0.50400001928E-02 0. -1.
    10030    2    1    2    0    0  0.00000000000E+00  0.00000000000E+00 -0.92699874623E+03  0.34311473380E+04  0.33035504203E+04 0.  0.
        2    1    3    3  502    0 -0.35371363865E+03 -0.57419026660E+03 -0.20295688366E+04  0.21386812438E+04  0.25500000920E-02 0. -1.
       -2    1    3    3    0  502  0.35371363865E+03  0.57419026660E+03  0.11025700903E+04  0.12924660941E+04  0.25500000920E-02 0.  1.
</event>
<event>
 5   0  0.6351753E-07  0.3160908E+04  0.7818609E-02  0.8199218E-01
       -2   -1    0    0    0  501  0.00000000000E+00  0.00000000000E+00  0.18796965712E+04  0.18796965712E+04  0.25500000920E-02 0. -1.
        2   -1    0    0  501    0  0.00000000000E+00  0.00000000000E+00 -0.13288498471E+04  0.13288498471E+04  0.25500000920E-02 0.  1.
    10030    2    1    2    0    0  0.00000000000E+00  0.00000000000E+00  0.55084672408E+03  0.32085464183E+04  0.31609077818E+04 0.  0.
        3    1    3    3  502    0  0.39150329672E+03 -0.13110021597E+04  0.10784421930E+04  0.17421363517E+04  0.10100000352E+00 0. -1.
       -3    1    3    3    0  502 -0.39150329672E+03  0.13110021597E+04 -0.52759546895E+03  0.14664100665E+04  0.10100000352E+00 0.  1.
</event>
<event>
 5   0  0.2057130E-07  0.3303637E+04  0.7818609E-02  0.8161970E-01
        1   -1    0    0  501    0  0.00000000000E+00  0.00000000000E+00  0.25102643608E+04  0.25102643608E+04  0.50400001928E-02 0. -1.
       -1   -1    0    0    0  501  0.00000000000E+00  0.00000000000E+00 -0.10869393316E+04  0.10869393316E+04  0.50400001928E-02 0.  1.
    10030    2    1    2    0    0  0.00000000000E+00  0.00000000000E+00  0.14233250292E+04  0.35972036924E+04  0.33036374296E+04 0.  0.
        2    1    3    3  502    0  0.45827166332E+03  0.76271799308E+03 -0.80367654384E+03  0.11990194500E+04  0.25500000920E-02 0.  1.
       -2    1    3    3    0  502 -0.45827166332E+03 -0.76271799308E+03  0.22270015730E+04  0.23981842424E+04  0.25500000920E-02 0. -1.
</event>
<event>
 5   0  0.6426079E-07  0.3310915E+04  0.7818609E-02  0.8160124E-01
       -2   -1    0    0    0  501  0.00000000000E+00  0.00000000000E+00  0.17749502948E+04  0.17749502948E+04  0.25500000920E-02 0. -1.
        2   -1    0    0  501    0  0.00000000000E+00  0.00000000000E+00 -0.15440092885E+04  0.15440092885E+04  0.25500000920E-02 0.  1.
    10030    2    1    2    0    0  0.00000000000E+00  0.00000000000E+00  0.23094100629E+03  0.33189595832E+04  0.33109151253E+04 0.  0.
        4    1    3    3  502    0  0.14724319332E+04 -0.37454957664E+03 -0.54354215688E+03  0.16136241423E+04  0.12699999809E+01 0. -1.
       -4    1    3    3    0  502 -0.14724319332E+04  0.37454957664E+03  0.77448316318E+03  0.17053354410E+04  0.12699999809E+01 0.  1.
</event>
<event>
 5   0  0.2037333E-07  0.3300612E+04  0.7818609E-02  0.8162740E-01
        1   -1    0    0  501    0  0.00000000000E+00  0.00000000000E+00  0.17082239822E+04  0.17082239823E+04  0.50400001928E-02 0. -1.
       -1   -1    0    0    0  501  0.00000000000E+00  0.00000000000E+00 -0.15943519988E+04  0.15943519988E+04  0.50400001928E-02 0.  1.
    10030    2    1    2    0    0  0.00000000000E+00  0.00000000000E+00  0.11387198340E+03  0.33025759811E+04  0.33006122587E+04 0.  0.
        3    1    3    3  502    0  0.96342600332E+03 -0.13266554081E+04 -0.13107490758E+03  0.16448054224E+04  0.10100000352E+00 0. -1.
       -3    1    3    3    0  502 -0.96342600332E+03  0.13266554081E+04  0.24494689099E+03  0.16577705587E+04  0.10100000352E+00 0.  1.
</event>
<event>
 5   0  0.6351753E-07  0.3288809E+04  0.7818609E-02  0.8165749E-01
       -2   -1    0    0    0  501  0.00000000000E+00  0.00000000000E+00  0.15376887821E+04  0.15376887821E+04  0.25500000920E-02 0. -1.
        2   -1    0    0  501    0  0.00000000000E+00  0.00000000000E+00 -0.17585264922E+04  0.17585264922E+04  0.25500000920E-02 0.  1.
    10030    2    1    2    0    0  0.00000000000E+00  0.00000000000E+00 -0.22083771007E+03  0.32962152742E+04  0.32888091827E+04 0.  0.
        3    1    3    3  502    0 -0.10178775572E+04  0.12510325587E+04  0.21109828540E+03  0.16265668386E+04  0.10100000352E+00 0. -1.
       -3    1    3    3    0  502  0.10178775572E+04 -0.12510325587E+04 -0.43193599547E+03  0.16696484356E+04  0.10100000352E+00 0.  1.
</event>
<event>
 5   0  0.2080770E-07  0.3245294E+04  0.7818609E-02  0.8176957E-01
       -1   -1    0    0    0  501  0.00000000000E+00  0.00000000000E+00  0.10116965895E+04  0.10116965895E+04  0.50400001928E-02 0. -1.
        1   -1    0    0  501    0  0.00000000000E+00  0.00000000000E+00 -0.26025422341E+04  0.26025422341E+04  0.50400001928E-02 0.  1.
    10030    2    1    2    0    0  0.00000000000E+00  0.00000000000E+00 -0.15908456446E+04  0.36142388236E+04  0.32452938864E+04 0.  0.
        4    1    3    3  502    0  0.12547870220E+04 -0.38108909493E+03 -0.18597141846E+04  0.22755785704E+04  0.12699999809E+01 0.  1.
       -4    1    3    3    0  502 -0.12547870220E+04  0.38108909493E+03  0.26886853995E+03  0.13386602532E+04  0.12699999809E+01 0. -1.
</event>
<event>
 5   0  0.6377741E-07  0.3287456E+04  0.7818609E-02  0.8166095E-01
        2   -1    0    0  501    0  0.00000000000E+00  0.00000000000E+00  0.28135100761E+04  0.28135100761E+04  0.25500000920E-02 0. -1.
       -2   -1    0    0    0  501  0.00000000000E+00  0.00000000000E+00 -0.96030985971E+03  0.96030985971E+03  0.25500000920E-02 0.  1.
    10030    2    1    2    0    0  0.00000000000E+00  0.00000000000E+00  0.18532002164E+04  0.37738199358E+04  0.32874558348E+04 0.  0.
        1    1    3    3  502    0 -0.90537903891E+03 -0.13458523292E+04  0.62112630374E+03  0.17369017189E+04  0.50400001928E-02 0. -1.
       -1    1    3    3    0  502  0.90537903891E+03  0.13458523292E+04  0.12320739127E+04  0.20369182169E+04  0.50400001928E-02 0.  1.
</event>
<event>
 5   0  0.2087665E-07  0.3275823E+04  0.7818609E-02  0.8169075E-01
       -1   -1    0    0    0  501  0.00000000000E+00  0.00000000000E+00  0.16446509867E+04  0.16446509867E+04  0.50400001928E-02 0.  1.
        1   -1    0    0  501    0  0.00000000000E+00  0.00000000000E+00 -0.16311997099E+04  0.16311997099E+04  0.50400001928E-02 0. -1.
    10030    2    1    2    0    0  0.00000000000E+00  0.00000000000E+00  0.13451276795E+02  0.32758506966E+04  0.32758230797E+04 0.  0.
        5    1    3    3  502    0 -0.30346807268E+03 -0.15519940779E+04 -0.41983819219E+03  0.16361737947E+04  0.46999998093E+01 0.  1.
       -5    1    3    3    0  502  0.30346807268E+03  0.15519940779E+04  0.43328946898E+03  0.16396769019E+04  0.46999998093E+01 0. -1.
</event>
<event>
 5   0  0.2080770E-07  0.3302797E+04  0.7818609E-02  0.8162184E-01
       -1   -1    0    0    0  501  0.00000000000E+00  0.00000000000E+00  0.12625742698E+04  0.12625742698E+04  0.50400001928E-02 0.  1.
        1   -1    0    0  501    0  0.00000000000E+00  0.00000000000E+00 -0.21599656316E+04  0.21599656316E+04  0.50400001928E-02 0. -1.
    10030    2    1    2    0    0  0.00000000000E+00  0.00000000000E+00 -0.89739136182E+03  0.34225399014E+04  0.33027970147E+04 0.  0.
        4    1    3    3  502    0  0.12184487525E+04 -0.10740216170E+04 -0.75779791921E+03  0.17923166840E+04  0.12699999809E+01 0. -1.
       -4    1    3    3    0  502 -0.12184487525E+04  0.10740216170E+04 -0.13959344261E+03  0.16302232174E+04  0.12699999809E+01 0.  1.
</event>
<event>
 5   0  0.6351753E-07  0.3307462E+04  0.7818609E-02  0.8160999E-01
       -2   -1    0    0    0  501  0.00000000000E+00  0.00000000000E+00  0.11229417343E+04  0.11229417343E+04  0.25500000920E-02 0.  1.
        2   -1    0    0  501    0  0.00000000000E+00  0.00000000000E+00 -0.24354119787E+04  0.24354119787E+04  0.25500000920E-02 0. -1.
    10030    2    1    2    0    0  0.00000000000E+00  0.00000000000E+00 -0.13124702444E+04  0.35583537129E+04  0.33074617162E+04 0.  0.
        3    1    3    3  502    0 -0.12166395386E+04 -0.11199992234E+04 -0.64043381796E+03  0.17733486721E+04  0.10100000352E+00 0.  1.
       -3    1    3    3    0  502  0.12166395386E+04  0.11199992234E+04 -0.67203642646E+03  0.17850050409E+04  0.10100000352E+00 0. -1.
</event>
<event>
 5   0  0.1994250E-07  0.3293482E+04  0.7818609E-02  0.8164556E-01
       -3   -1    0    0    0  501  0.00000000000E+00  0.00000000000E+00  0.17958521258E+04  0.17958521287E+04  0.10100000352E+00 0. -1.
        3   -1    0    0  501    0  0.00000000000E+00  0.00000000000E+00 -0.15100103494E+04  0.15100103528E+04  0.10100000352E+00 0.  1.
    10030    2    1    2    0    0  0.00000000000E+00  0.00000000000E+00  0.28584177639E+03  0.33058624815E+04  0.32934816267E+04 0.  0.
        2    1    3    3  502    0 -0.15251574788E+03 -0.24961135198E+03 -0.14837229791E+04  0.15122832933E+04  0.25500000920E-02 0.  1.
       -2    1    3    3    0  502  0.15251574788E+03  0.24961135198E+03  0.17695647555E+04  0.17935791882E+04  0.25500000920E-02 0. -1.
</event>
<event>
 5   0  0.2037333E-07  0.3286366E+04  0.7818609E-02  0.8166373E-01
        1   -1    0    0  501    0  0.00000000000E+00  0.00000000000E+00  0.15627388535E+04  0.15627388535E+04  0.50400001928E-02 0.  1.
       -1   -1    0    0    0  501  0.00000000000E+00  0.00000000000E+00 -0.17277684225E+04  0.17277684225E+04  0.50400001928E-02 0. -1.
    10030    2    1    2    0    0  0.00000000000E+00  0.00000000000E+00 -0.16502956898E+03  0.32905072760E+04  0.32863662874E+04 0.  0.
        3    1    3    3  502    0 -0.51885928692E+02 -0.47232938996E+03  0.14924464708E+04  0.15662642436E+04  0.10100000352E+00 0.  1.
       -3    1    3    3    0  502  0.51885928692E+02  0.47232938996E+03 -0.16574760398E+04  0.17242430324E+04  0.10100000352E+00 0. -1.
</event>
<event>
 5   0  0.2057130E-07  0.3288215E+04  0.7818609E-02  0.8165901E-01
        1   -1    0    0  501    0  0.00000000000E+00  0.00000000000E+00  0.20313664639E+04  0.20313664639E+04  0.50400001928E-02 0.  1.
       -1   -1    0    0    0  501  0.00000000000E+00  0.00000000000E+00 -0.13306750403E+04  0.13306750403E+04  0.50400001928E-02 0. -1.
    10030    2    1    2    0    0  0.00000000000E+00  0.00000000000E+00  0.70069142356E+03  0.33620415042E+04  0.32882145011E+04 0.  0.
        2    1    3    3  502    0 -0.92205705635E+03 -0.25156514264E+03 -0.10174544944E+04  0.13959541126E+04  0.25500000920E-02 0. -1.
       -2    1    3    3    0  502  0.92205705635E+03  0.25156514264E+03  0.17181459180E+04  0.19660873917E+04  0.25500000920E-02 0.  1.
</event>
<event>
 5   0  0.6424183E-07  0.3231368E+04  0.7818609E-02  0.8180582E-01
       -2   -1    0    0    0  501  0.00000000000E+00  0.00000000000E+00  0.12073659178E+04  0.12073659178E+04  0.25500000920E-02 0. -1.
        2   -1    0    0  501    0  0.00000000000E+00  0.00000000000E+00 -0.21620913516E+04  0.21620913516E+04  0.25500000920E-02 0.  1.
    10030    2    1    2    0    0  0.00000000000E+00  0.00000000000E+00 -0.95472543379E+03  0.33694572694E+04  0.32313683845E+04 0.  0.
        2    1    3    3  502    0  0.12069392048E+04  0.74160219485E+03  0.33286186643E+03  0.14551539718E+04  0.25500000920E-02 0. -1.
       -2    1    3    3    0  502 -0.12069392048E+04 -0.74160219485E+03 -0.12875873002E+04  0.19143032976E+04  0.25500000920E-02 0.  1.
</event>
<event>
 5   0  0.2080770E-07  0.3253756E+04  0.7818609E-02  0.8174763E-01
       -1   -1    0    0    0  501  0.00000000000E+00  0.00000000000E+00  0.21374838526E+04  0.21374838526E+04  0.50400001928E-02 0. -1.
        1   -1    0    0  501    0  0.00000000000E+00  0.00000000000E+00 -0.12382464538E+04  0.12382464538E+04  0.50400001928E-02 0.  1.
    10030    2    1    2    0    0  0.00000000000E+00  0.00000000000E+00  0.89923739881E+03  0.33757303065E+04  0.32537558609E+04 0.  0.
        4    1    3    3  502    0 -0.87531941420E+02 -0.51415532489E+03 -0.11491598475E+04  0.12619776174E+04  0.12699999809E+01 0.  1.
       -4    1    3    3    0  502  0.87531941420E+02  0.51415532489E+03  0.20483972463E+04  0.21137526891E+04  0.12699999809E+01 0. -1.
</event>
<event>
 5   0  0.2057130E-07  0.3295810E+04  0.7818609E-02  0.8163962E-01
       -1   -1    0    0    0  501  0.00000000000E+00  0.00000000000E+00  0.15877567961E+04  0.15877567961E+04  0.50400001928E-02 0.  1.
        1   -1    0    0  501    0  0.00000000000E+00  0.00000000000E+00 -0.17103319594E+04  0.17103319594E+04  0.50400001928E-02 0. -1.
    10030    2    1    2    0    0  0.00000000000E+00  0.00000000000E+00 -0.12257516324E+03  0.32980887555E+04  0.32958101840E+04 0.  0.
        2    1    3    3  502    0  0.13126654444E+04 -0.89816948873E+03  0.37004660196E+03  0.16330136212E+04  0.25500000920E-02 0.  1.
       -2    1    3    3    0  502 -0.13126654444E+04  0.89816948873E+03 -0.49262176520E+03  0.16650751343E+04  0.25500000920E-02 0. -1.
</event>
<event>
 5   0  0.2037333E-07  0.3307644E+04  0.7818609E-02  0.8160953E-01
        1   -1    0    0  501    0  0.00000000000E+00  0.00000000000E+00  0.18942988426E+04  0.18942988426E+04  0.50400001928E-02 0. -1.
       -1   -1    0    0    0  501  0.00000000000E+00  0.00000000000E+00 -0.14438729317E+04  0.14438729317E+04  0.50400001928E-02 0.  1.
    10030    2    1    2    0    0  0.00000000000E+00  0.00000000000E+00  0.45042591096E+03  0.33381717743E+04  0.33076437676E+04 0.  0.
        3    1    3    3  502    0 -0.19239350205E+03 -0.14025175568E+04 -0.63769662420E+03  0.15526518449E+04  0.10100000352E+00 0.  1.
       -3    1    3    3    0  502  0.19239350205E+03  0.14025175568E+04  0.10881225352E+04  0.17855199294E+04  0.10100000352E+00 0. -1.
</event>
<event>
 5   0  0.6377741E-07  0.3302717E+04  0.7818609E-02  0.8162204E-01
        2   -1    0    0  501    0  0.00000000000E+00  0.00000000000E+00  0.22939023545E+04  0.22939023545E+04  0.25500000920E-02 0.  1.
       -2   -1    0    0    0  501  0.00000000000E+00  0.00000000000E+00 -0.11887971537E+04  0.11887971537E+04  0.25500000920E-02 0. -1.
    10030    2    1    2    0    0  0.00000000000E+00  0.00000000000E+00  0.11051052007E+04  0.34826995082E+04  0.33027168149E+04 0.  0.
        1    1    3    3  502    0  0.14344119208E+04 -0.53844941025E+03 -0.97070679036E+02  0.15352159596E+04  0.50400001928E-02 0. -1.
       -1    1    3    3    0  502 -0.14344119208E+04  0.53844941025E+03  0.12021758798E+04  0.19474835486E+04  0.50400001928E-02 0.  1.
</event>
<event>
 5   0  0.6426079E-07  0.3391123E+04  0.7818609E-02  0.8140088E-01
       -2   -1    0    0    0  501  0.00000000000E+00  0.00000000000E+00  0.14091959454E+04  0.14091959454E+04  0.25500000920E-02 0.  1.
        2   -1    0    0  501    0  0.00000000000E+00  0.00000000000E+00 -0.20401201345E+04  0.20401201345E+04  0.25500000920E-02 0. -1.
    10030    2    1    2    0    0  0.00000000000E+00  0.00000000000E+00 -0.63092418913E+03  0.34493160800E+04  0.33911231306E+04 0.  0.
        4    1    3    3  502    0  0.97876298698E+02 -0.16764900077E+04 -0.77505488464E+02  0.16811327221E+04  0.12699999809E+01 0. -1.
       -4    1    3    3    0  502 -0.97876298698E+02  0.16764900077E+04 -0.55341870066E+03  0.17681833578E+04  0.12699999809E+01 0.  1.
</event>
<event>
 5   0  0.2037333E-07  0.3284414E+04  0.7818609E-02  0.8166873E-01
        1   -1    0    0  501    0  0.00000000000E+00  0.00000000000E+00  0.21103827952E+04  0.21103827952E+04  0.50400001928E-02 0. -1.
       -1   -1    0    0    0  501  0.00000000000E+00  0.00000000000E+00 -0.12778932311E+04  0.12778932311E+04  0.50400001928E-02 0.  1.
    10030    2    1    2    0    0  0.00000000000E+00  0.00000000000E+00  0.83248956406E+03  0.33882760263E+04  0.32844140354E+04 0.  0.
        3    1    3    3  502    0 -0.12198963127E+04 -0.10952939696E+04  0.31822441940E+03  0.16700546951E+04  0.10100000352E+00 0. -1.
       -3    1    3    3    0  502  0.12198963127E+04  0.10952939696E+04  0.51426514466E+03  0.17182213311E+04  0.10100000352E+00 0.  1.
</event>
<event>
 5   0  0.6377741E-07  0.3285952E+04  0.7818609E-02  0.8166479E-01
       -2   -1    0    0    0  501  0.00000000000E+00  0.00000000000E+00  0.16398855966E+04  0.16398855966E+04  0.25500000920E-02 0. -1.
        2   -1    0    0  501    0  0.00000000000E+00  0.00000000000E+00 -0.16460723162E+04  0.16460723162E+04  0.25500000920E-02 0.  1.
    10030    2    1    2    0    0  0.00000000000E+00  0.00000000000E+00 -0.61867196126E+01  0.32859579129E+04  0.32859520888E+04 0.  0.
        1    1    3    3  502    0  0.90626617372E+03  0.84137238463E+03  0.10786406940E+04  0.16409422945E+04  0.50400001928E-02 0.  1.
       -1    1    3    3    0  502 -0.90626617372E+03 -0.84137238463E+03 -0.10848274136E+04  0.16450156183E+04  0.50400001928E-02 0. -1.
</event>
<event>
 5   0  0.6426079E-07  0.3303471E+04  0.7818609E-02  0.8162013E-01
        2   -1    0    0  501    0  0.00000000000E+00  0.00000000000E+00  0.16958851441E+04  0.16958851441E+04  0.25500000920E-02 0.  1.
       -2   -1    0    0    0  501  0.00000000000E+00  0.00000000000E+00 -0.16087355835E+04  0.16087355835E+04  0.25500000920E-02 0. -1.
    10030    2    1    2    0    0  0.00000000000E+00  0.00000000000E+00  0.87149560570E+02  0.33046207277E+04  0.33034713723E+04 0.  0.
        4    1    3    3  502    0  0.69271702830E+03 -0.62949847394E+03 -0.13178189759E+04  0.16164076454E+04  0.12699999809E+01 0. -1.
       -4    1    3    3    0  502 -0.69271702830E+03  0.62949847394E+03  0.14049685364E+04  0.16882130823E+04  0.12699999809E+01 0.  1.
</event>
<event>
 5   0  0.6258718E-07  0.3307814E+04  0.7818609E-02  0.8160910E-01
       -2   -1    0    0    0  501  0.00000000000E+00  0.00000000000E+00  0.16915094723E+04  0.16915094723E+04  0.25500000920E-02 0.  1.
        2   -1    0    0  501    0  0.00000000000E+00  0.00000000000E+00 -0.16171400474E+04  0.16171400474E+04  0.25500000920E-02 0. -1.
    10030    2    1    2    0    0  0.00000000000E+00  0.00000000000E+00  0.74369424900E+02  0.33086495198E+04  0.33078136032E+04 0.  0.
        5    1    3    3  502    0 -0.12734106092E+04 -0.64194839249E+03 -0.80071027166E+03  0.16354911640E+04  0.46999998093E+01 0.  1.
       -5    1    3    3    0  502  0.12734106092E+04  0.64194839249E+03  0.87507969656E+03  0.16731583558E+04  0.46999998093E+01 0. -1.
</event>
<event>
 5   0  0.6377741E-07  0.3302754E+04  0.7818609E-02  0.8162195E-01
        2   -1    0    0  501    0  0.00000000000E+00  0.00000000000E+00  0.15058011789E+04  0.15058011789E+04  0.25500000920E-02 0.  1.
       -2   -1    0    0    0  501  0.00000000000E+00  0.00000000000E+00 -0.18110265855E+04  0.18110265855E+04  0.25500000920E-02 0. -1.
    10030    2    1    2    0    0  0.00000000000E+00  0.00000000000E+00 -0.30522540667E+03  0.33168277644E+04  0.33027539826E+04 0.  0.
        1    1    3    3  502    0  0.45540458959E+03  0.96330855190E+03 -0.14196104377E+04  0.17750071834E+04  0.50400001928E-02 0. -1.
       -1    1    3    3    0  502 -0.45540458959E+03 -0.96330855190E+03  0.11143850310E+04  0.15418205809E+04  0.50400001928E-02 0.  1.
</event>
<event>
 5   0  0.6258718E-07  0.3297242E+04  0.7818609E-02  0.8163597E-01
       -2   -1    0    0    0  501  0.00000000000E+00  0.00000000000E+00  0.12933220002E+04  0.12933220002E+04  0.25500000920E-02 0.  1.
        2   -1    0    0  501    0  0.00000000000E+00  0.00000000000E+00 -0.21015274555E+04  0.21015274555E+04  0.25500000920E-02 0. -1.
    10030    2    1    2    0    0  0.00000000000E+00  0.00000000000E+00 -0.80820545532E+03  0.33948494557E+04  0.32972422976E+04 0.  0.
        5    1    3    3  502    0  0.14630039515E+04  0.58319789473E+03  0.97588807426E+02  0.15779879632E+04  0.46999998093E+01 0.  1.
       -5    1    3    3    0  502 -0.14630039515E+04 -0.58319789473E+03 -0.90579426274E+03  0.18168614925E+04  0.46999998093E+01 0. -1.
</event>
<event>
 5   0  0.6377741E-07  0.3290163E+04  0.7818609E-02  0.8165403E-01
        2   -1    0    0  501    0  0.00000000000E+00  0.00000000000E+00  0.16983774447E+04  0.16983774447E+04  0.25500000920E-02 0.  1.
       -2   -1    0    0    0  501  0.00000000000E+00  0.00000000000E+00 -0.15934583362E+04  0.15934583362E+04  0.25500000920E-02 0. -1.
    10030    2    1    2    0    0  0.00000000000E+00  0.00000000000E+00  0.10491910852E+03  0.32918357809E+04  0.32901633377E+04 0.  0.
        1    1    3    3  502    0  0.94532791630E+03  0.11089174159E+04  0.81635993394E+03  0.16702653221E+04  0.50400001928E-02 0.  1.
       -1    1    3    3    0  502 -0.94532791630E+03 -0.11089174159E+04 -0.71144082542E+03  0.16215704587E+04  0.50400001928E-02 0. -1.
</event>
<event>
 5   0  0.2080770E-07  0.3302700E+04  0.7818609E-02  0.8162209E-01
        1   -1    0    0  501    0  0.00000000000E+00  0.00000000000E+00  0.10523033869E+04  0.10523033869E+04  0.50400001928E-02 0. -1.
       -1   -1    0    0    0  501  0.00000000000E+00  0.00000000000E+00 -0.25914176402E+04  0.25914176402E+04  0.50400001928E-02 0.  1.
    10030    2    1    2    0    0  0.00000000000E+00  0.00000000000E+00 -0.15391142533E+04  0.36437210271E+04  0.33027004465E+04 0.  0.
        4    1    3    3  502    0  0.40172206787E+03 -0.12438345576E+04  0.34382946332E+03  0.13515640344E+04  0.12699999809E+01 0. -1.
       -4    1    3    3    0  502 -0.40172206787E+03  0.12438345576E+04 -0.18829437166E+04  0.22921569927E+04  0.12699999809E+01 0.  1.
</event>
<event>
 5   0  0.2037333E-07  0.3256127E+04  0.7818609E-02  0.8174149E-01
       -1   -1    0    0    0  501  0.00000000000E+00  0.00000000000E+00  0.13743623722E+04  0.13743623722E+04  0.50400001928E-02 0. -1.
        1   -1    0    0  501    0  0.00000000000E+00  0.00000000000E+00 -0.19285967767E+04  0.19285967768E+04  0.50400001928E-02 0.  1.
    10030    2    1    2    0    0  0.00000000000E+00  0.00000000000E+00 -0.55423440456E+03  0.33029591490E+04  0.32561270498E+04 0.  0.
        3    1    3    3  502    0 -0.14856308413E+03  0.10683609126E+04 -0.15141339187E+04  0.18590501778E+04  0.10100000352E+00 0.  1.
       -3    1    3    3    0  502  0.14856308413E+03 -0.10683609126E+04  0.95989951412E+03  0.14439089712E+04  0.10100000352E+00 0. -1.
</event>
<event>
 5   0  0.6377741E-07  0.3297850E+04  0.7818609E-02  0.8163443E-01
       -2   -1    0    0    0  501  0.00000000000E+00  0.00000000000E+00  0.16224127067E+04  0.16224127067E+04  0.25500000920E-02 0. -1.
        2   -1    0    0  501    0  0.00000000000E+00  0.00000000000E+00 -0.16758707785E+04  0.16758707785E+04  0.25500000920E-02 0.  1.
    10030    2    1    2    0    0  0.00000000000E+00  0.00000000000E+00 -0.53458071803E+02  0.32982834851E+04  0.32978502366E+04 0.  0.
        1    1    3    3  502    0  0.51553850776E+03  0.10377180235E+04 -0.12000478509E+04  0.16681587136E+04  0.50400001928E-02 0.  1.
       -1    1    3    3    0  502 -0.51553850776E+03 -0.10377180235E+04  0.11465897791E+04  0.16301247715E+04  0.50400001928E-02 0. -1.
</event>
<event>
 5   0  0.2057130E-07  0.3289059E+04  0.7818609E-02  0.8165685E-01
       -1   -1    0    0    0  501  0.00000000000E+00  0.00000000000E+00  0.10503234170E+04  0.10503234170E+04  0.50400001928E-02 0. -1.
        1   -1    0    0  501    0  0.00000000000E+00  0.00000000000E+00 -0.25748989578E+04  0.25748989578E+04  0.50400001928E-02 0.  1.
    10030    2    1    2    0    0  0.00000000000E+00  0.00000000000E+00 -0.15245755408E+04  0.36252223748E+04  0.32890586323E+04 0.  0.
        2    1    3    3  502    0  0.15325964566E+04 -0.58258566350E+03 -0.62191874224E+03  0.17535794467E+04  0.25500000920E-02 0.  1.
       -2    1    3    3    0  502 -0.15325964566E+04  0.58258566350E+03 -0.90265679854E+03  0.18716429280E+04  0.25500000920E-02 0. -1.
</event>
<event>
 5   0  0.6424183E-07  0.3305073E+04  0.7818609E-02  0.8161606E-01
       -2   -1    0    0    0  501  0.00000000000E+00  0.00000000000E+00  0.18375587803E+04  0.18375587803E+04  0.25500000920E-02 0. -1.
        2   -1    0    0  501    0  0.00000000000E+00  0.00000000000E+00 -0.14861441963E+04  0.14861441963E+04  0.25500000920E-02 0.  1.
    10030    2    1    2    0    0  0.00000000000E+00  0.00000000000E+00  0.35141458398E+03  0.33237029765E+04  0.33050732619E+04 0.  0.
        2    1    3    3  502    0 -0.92421304947E+03  0.13102847007E+04 -0.22637332435E+03  0.16193395690E+04  0.25500000920E-02 0.  1.
       -2    1    3    3    0  502  0.92421304947E+03 -0.13102847007E+04  0.57778790834E+03  0.17043634075E+04  0.25500000920E-02 0. -1.
</event>
<event>
 5   0  0.2080770E-07  0.3296934E+04  0.7818609E-02  0.8163676E-01
        1   -1    0    0  501    0  0.00000000000E+00  0.00000000000E+00  0.11883231079E+04  0.11883231079E+04  0.50400001928E-02 0.  1.
       -1   -1    0    0    0  501  0.00000000000E+00  0.00000000000E+00 -0.22867881321E+04  0.22867881321E+04  0.50400001928E-02 0. -1.
    10030    2    1    2    0    0  0.00000000000E+00  0.00000000000E+00 -0.10984650243E+04  0.34751112400E+04  0.32969338363E+04 0.  0.
        4    1    3    3  502    0 -0.74034685201E+03  0.38715027259E+03 -0.20471029676E+04  0.22110248682E+04  0.12699999809E+01 0. -1.
       -4    1    3    3    0  502  0.74034685201E+03 -0.38715027259E+03  0.94863794339E+03  0.12640863718E+04  0.12699999809E+01 0.  1.
</event>
<event>
 5   0  0.6258718E-07  0.3297148E+04  0.7818609E-02  0.8163622E-01
       -2   -1    0    0    0  501  0.00000000000E+00  0.00000000000E+00  0.13991025220E+04  0.13991025220E+04  0.25500000920E-02 0.  1.
        2   -1    0    0  501    0  0.00000000000E+00  0.00000000000E+00 -0.19425277867E+04  0.19425277867E+04  0.25500000920E-02 0. -1.
    10030    2    1    2    0    0  0.00000000000E+00  0.00000000000E+00 -0.54342526467E+03  0.33416303087E+04  0.32971475705E+04 0.  0.
        5    1    3    3  502    0  0.97114969610E+03 -0.82707405913E+03 -0.13301150232E+04  0.18429355107E+04  0.46999998093E+01 0. -1.
       -5    1    3    3    0  502 -0.97114969610E+03  0.82707405913E+03  0.78668975855E+03  0.14986947981E+04  0.46999998093E+01 0.  1.
</event>
<event>
 5   0  0.2080828E-07  0.3300617E+04  0.7818609E-02  0.8162738E-01
       -1   -1    0    0    0  501  0.00000000000E+00  0.00000000000E+00  0.15528913642E+04  0.15528913642E+04  0.50400001928E-02 0.  1.
        1   -1    0    0  501    0  0.00000000000E+00  0.00000000000E+00 -0.17538369060E+04  0.17538369060E+04  0.50400001928E-02 0. -1.
    10030    2    1    2    0    0  0.00000000000E+00  0.00000000000E+00 -0.20094554186E+03  0.33067282702E+04  0.33006170245E+04 0.  0.
        1    1    3    3  502    0  0.96676615761E+03  0.12405454563E+04 -0.60132675914E+03  0.16838003753E+04  0.50400001928E-02 0.  1.
       -1    1    3    3    0  502 -0.96676615761E+03 -0.12405454563E+04  0.40038121728E+03  0.16229278949E+04  0.50400001928E-02 0. -1.
</event>
<event>
 5   0  0.6377741E-07  0.3308048E+04  0.7818609E-02  0.8160851E-01
        2   -1    0    0  501    0  0.00000000000E+00  0.00000000000E+00  0.16629170963E+04  0.16629170963E+04  0.25500000920E-02 0. -1.
       -2   -1    0    0    0  501  0.00000000000E+00  0.00000000000E+00 -0.16451786664E+04  0.16451786664E+04  0.25500000920E-02 0.  1.
    10030    2    1    2    0    0  0.00000000000E+00  0.00000000000E+00  0.17738429917E+02  0.33080957627E+04  0.33080482045E+04 0.  0.
        1    1    3    3  502    0  0.51229389194E+03  0.15069459938E+04  0.45883620535E+03  0.16564606616E+04  0.50400001928E-02 0. -1.
       -1    1    3    3    0  502 -0.51229389194E+03 -0.15069459938E+04 -0.44109777543E+03  0.16516351012E+04  0.50400001928E-02 0.  1.
</event>
<event>
 5   0  0.2057130E-07  0.3297750E+04  0.7818609E-02  0.8163468E-01
        1   -1    0    0  501    0  0.00000000000E+00  0.00000000000E+00  0.27119314490E+04  0.27119314490E+04  0.50400001928E-02 0. -1.
       -1   -1    0    0    0  501  0.00000000000E+00  0.00000000000E+00 -0.10025286471E+04  0.10025286471E+04  0.50400001928E-02 0.  1.
    10030    2    1    2    0    0  0.00000000000E+00  0.00000000000E+00  0.17094028019E+04  0.37144600961E+04  0.32977501219E+04 0.  0.
        2    1    3    3  502    0 -0.67456792394E+03  0.10916851145E+04 -0.31148885463E+03  0.13205466974E+04  0.25500000920E-02 0.  1.
       -2    1    3    3    0  502  0.67456792394E+03 -0.10916851145E+04  0.20208916566E+04  0.23939133988E+04  0.25500000920E-02 0. -1.
</event>
<event>
 5   0  0.2057130E-07  0.3296971E+04  0.7818609E-02  0.8163667E-01
       -1   -1    0    0    0  501  0.00000000000E+00  0.00000000000E+00  0.11515923014E+04  0.11515923014E+04  0.50400001928E-02 0. -1.
        1   -1    0    0  501    0  0.00000000000E+00  0.00000000000E+00 -0.23597800725E+04  0.23597800725E+04  0.50400001928E-02 0.  1.
    10030    2    1    2    0    0  0.00000000000E+00  0.00000000000E+00 -0.12081877711E+04  0.35113723740E+04  0.32969710733E+04 0.  0.
        2    1    3    3  502    0  0.95625667112E+03  0.12770803819E+04 -0.16221119268E+03  0.16036438488E+04  0.25500000920E-02 0.  1.
       -2    1    3    3    0  502 -0.95625667112E+03 -0.12770803819E+04 -0.10459765784E+04  0.19077285251E+04  0.25500000920E-02 0. -1.
</event>
<event>
 5   0  0.2087665E-07  0.3300340E+04  0.7818609E-02  0.8162809E-01
       -1   -1    0    0    0  501  0.00000000000E+00  0.00000000000E+00  0.11751128803E+04  0.11751128803E+04  0.50400001928E-02 0.  1.
        1   -1    0    0  501    0  0.00000000000E+00  0.00000000000E+00 -0.23172763427E+04  0.23172763427E+04  0.50400001928E-02 0. -1.
    10030    2    1    2    0    0  0.00000000000E+00  0.00000000000E+00 -0.11421634624E+04  0.34923892230E+04  0.33003401507E+04 0.  0.
        5    1    3    3  502    0  0.64250577012E+02 -0.15313078540E+04  0.76066815324E+02  0.15345488362E+04  0.46999998093E+01 0.  1.
       -5    1    3    3    0  502 -0.64250577012E+02  0.15313078540E+04 -0.12182302778E+04  0.19578403868E+04  0.46999998093E+01 0. -1.
</event>
<event>
 5   0  0.2087665E-07  0.3265978E+04  0.7818609E-02  0.8171607E-01
       -1   -1    0    0    0  501  0.00000000000E+00  0.00000000000E+00  0.95436430886E+03  0.95436430887E+03  0.50400001928E-02 0. -1.
        1   -1    0    0  501    0  0.00000000000E+00  0.00000000000E+00 -0.27941675325E+04  0.27941675325E+04  0.50400001928E-02 0.  1.
    10030    2    1    2    0    0  0.00000000000E+00  0.00000000000E+00 -0.18398032236E+04  0.37485318413E+04  0.32659784237E+04 0.  0.
        5    1    3    3  502    0  0.54703557188E+03 -0.13157205990E+04 -0.18354182668E+04  0.23236073067E+04  0.46999998093E+01 0.  1.
       -5    1    3    3    0  502 -0.54703557188E+03  0.13157205990E+04 -0.43849568036E+01  0.14249245346E+04  0.46999998093E+01 0. -1.
</event>
<event>
 5   0  0.2080770E-07  0.3304674E+04  0.7818609E-02  0.8161707E-01
       -1   -1    0    0    0  501  0.00000000000E+00  0.00000000000E+00  0.18992629292E+04  0.18992629292E+04  0.50400001928E-02 0. -1.
        1   -1    0    0  501    0  0.00000000000E+00  0.00000000000E+00 -0.14375140943E+04  0.14375140943E+04  0.50400001928E-02 0.  1.
    10030    2    1    2    0    0  0.00000000000E+00  0.00000000000E+00  0.46174883487E+03  0.33367770236E+04  0.33046737991E+04 0.  0.
        4    1    3    3  502    0 -0.97975304702E+03 -0.56297605766E+03  0.14481385447E+04  0.18368355757E+04  0.12699999809E+01 0. -1.
       -4    1    3    3    0  502  0.97975304702E+03  0.56297605766E+03 -0.98638970978E+03  0.14999414479E+04  0.12699999809E+01 0.  1.
</event>
<event>
 5   0  0.6426079E-07  0.3295238E+04  0.7818609E-02  0.8164108E-01
       -2   -1    0    0    0  501  0.00000000000E+00  0.00000000000E+00  0.14809785362E+04  0.14809785362E+04  0.25500000920E-02 0.  1.
        2   -1    0    0  501    0  0.00000000000E+00  0.00000000000E+00 -0.18330096736E+04  0.18330096736E+04  0.25500000920E-02 0. -1.
    10030    2    1    2    0    0  0.00000000000E+00  0.00000000000E+00 -0.35203113744E+03  0.33139882097E+04  0.32952377657E+04 0.  0.
        4    1    3    3  502    0 -0.13006801423E+04  0.15274321943E+01 -0.11931433773E+04  0.17650393473E+04  0.12699999809E+01 0. -1.
       -4    1    3    3    0  502  0.13006801423E+04 -0.15274321943E+01  0.84111223991E+03  0.15489488625E+04  0.12699999809E+01 0.  1.
</event>
<event>
 5   0  0.6377741E-07  0.3302015E+04  0.7818609E-02  0.8162383E-01
        2   -1    0    0  501    0  0.00000000000E+00  0.00000000000E+00  0.18970027702E+04  0.18970027702E+04  0.25500000920E-02 0.  1.
       -2   -1    0    0    0  501  0.00000000000E+00  0.00000000000E+00 -0.14369122423E+04  0.14369122423E+04  0.25500000920E-02 0. -1.
    10030    2    1    2    0    0  0.00000000000E+00  0.00000000000E+00  0.46009052799E+03  0.33339150125E+04  0.33020154477E+04 0.  0.
        1    1    3    3  502    0  0.15956950465E+04  0.19197057366E+03  0.61149275539E+03  0.17195984335E+04  0.50400001928E-02 0.  1.
       -1    1    3    3    0  502 -0.15956950465E+04 -0.19197057366E+03 -0.15140222740E+03  0.16143165790E+04  0.50400001928E-02 0. -1.
</event>
<event>
 5   0  0.6258718E-07  0.3309556E+04  0.7818609E-02  0.8160468E-01
        2   -1    0    0  501    0  0.00000000000E+00  0.00000000000E+00  0.25129160773E+04  0.25129160773E+04  0.25500000920E-02 0. -1.
       -2   -1    0    0    0  501  0.00000000000E+00  0.00000000000E+00 -0.10896866093E+04  0.10896866093E+04  0.25500000920E-02 0.  1.
    10030    2    1    2    0    0  0.00000000000E+00  0.00000000000E+00  0.14232294679E+04  0.36026026866E+04  0.33095564656E+04 0.  0.
        5    1    3    3  502    0 -0.67524039918E+03  0.13380390348E+04  0.14751274261E+04  0.21029315416E+04  0.46999998093E+01 0.  1.
       -5    1    3    3    0  502  0.67524039918E+03 -0.13380390348E+04 -0.51897958145E+02  0.14996711451E+04  0.46999998093E+01 0. -1.
</event>
<event>
 5   0  0.6424183E-07  0.3254261E+04  0.7818609E-02  0.8174632E-01
       -2   -1    0    0    0  501  0.00000000000E+00  0.00000000000E+00  0.10273380206E+04  0.10273380206E+04  0.25500000920E-02 0. -1.
        2   -1    0    0  501    0  0.00000000000E+00  0.00000000000E+00 -0.25771008152E+04  0.25771008152E+04  0.25500000920E-02 0.  1.
    10030    2    1    2    0    0  0.00000000000E+00  0.00000000000E+00 -0.15497627946E+04  0.36044388357E+04  0.32542609915E+04 0.  0.
        2    1    3    3  502    0  0.71511253961E+01  0.11300846119E+04  0.52173271018E+03  0.12447278376E+04  0.25500000920E-02 0. -1.
       -2    1    3    3    0  502 -0.71511253961E+01 -0.11300846119E+04 -0.20714955048E+04  0.23597109982E+04  0.25500000920E-02 0.  1.
</event>
<event>
 5   0  0.2057130E-07  0.3299233E+04  0.7818609E-02  0.8163090E-01
       -1   -1    0    0    0  501  0.00000000000E+00  0.00000000000E+00  0.10476624959E+04  0.10476624959E+04  0.50400001928E-02 0.  1.
        1   -1    0    0  501    0  0.00000000000E+00  0.00000000000E+00 -0.25974348908E+04  0.25974348908E+04  0.50400001928E-02 0. -1.
    10030    2    1    2    0    0  0.00000000000E+00  0.00000000000E+00 -0.15497723949E+04  0.36450973867E+04  0.32992333175E+04 0.  0.
        2    1    3    3  502    0  0.18154162365E+03 -0.53983861288E+03 -0.24853611483E+04  0.25497849178E+04  0.25500000920E-02 0. -1.
       -2    1    3    3    0  502 -0.18154162365E+03  0.53983861288E+03  0.93558875349E+03  0.10953124690E+04  0.25500000920E-02 0.  1.
</event>
<event>
 5   0  0.2080828E-07  0.3298793E+04  0.7818609E-02  0.8163203E-01
       -1   -1    0    0    0  501  0.00000000000E+00  0.00000000000E+00  0.18250546702E+04  0.18250546702E+04  0.50400001928E-02 0.  1.
        1   -1    0    0  501    0  0.00000000000E+00  0.00000000000E+00 -0.14906451439E+04  0.14906451439E+04  0.50400001928E-02 0. -1.
    10030    2    1    2    0    0  0.00000000000E+00  0.00000000000E+00  0.33440952631E+03  0.33156998141E+04  0.32987930408E+04 0.  0.
        1    1    3    3  502    0  0.12932081921E+04  0.56710528638E+03 -0.68952103420E+03  0.15714436326E+04  0.50400001928E-02 0.  1.
       -1    1    3    3    0  502 -0.12932081921E+04 -0.56710528638E+03  0.10239305605E+04  0.17442561815E+04  0.50400001928E-02 0. -1.
</event>
<event>
 5   0  0.6258718E-07  0.3270185E+04  0.7818609E-02  0.8170523E-01
       -2   -1    0    0    0  501  0.00000000000E+00  0.00000000000E+00  0.14807007146E+04  0.14807007146E+04  0.25500000920E-02 0. -1.
        2   -1    0    0  501    0  0.00000000000E+00  0.00000000000E+00 -0.18055827422E+04  0.18055827422E+04  0.25500000920E-02 0.  1.
    10030    2    1    2    0    0  0.00000000000E+00  0.00000000000E+00 -0.32488202761E+03  0.32862834568E+04  0.32701851059E+04 0.  0.
        5    1    3    3  502    0 -0.56968634306E+03 -0.75346447183E+02  0.13758741769E+04  0.14910638676E+04  0.46999998093E+01 0. -1.
       -5    1    3    3    0  502  0.56968634306E+03  0.75346447183E+02 -0.17007562045E+04  0.17952195893E+04  0.46999998093E+01 0.  1.
</event>
<event>
 5   0  0.6377741E-07  0.3308730E+04  0.7818609E-02  0.8160678E-01
       -2   -1    0    0    0  501  0.00000000000E+00  0.00000000000E+00  0.18841130525E+04  0.18841130525E+04  0.25500000920E-02 0.  1.
        2   -1    0    0  501    0  0.00000000000E+00  0.00000000000E+00 -0.14526320223E+04  0.14526320223E+04  0.25500000920E-02 0. -1.
    10030    2    1    2    0    0  0.00000000000E+00  0.00000000000E+00  0.43148103016E+03  0.33367450748E+04  0.33087296376E+04 0.  0.
        1    1    3    3  502    0 -0.38281476567E+03 -0.80396046397E+03 -0.11903474417E+04  0.14865485543E+04  0.50400001928E-02 0. -1.
       -1    1    3    3    0  502  0.38281476567E+03  0.80396046397E+03  0.16218284718E+04  0.18501965205E+04  0.50400001928E-02 0.  1.
</event>
<event>
 5   0  0.1994250E-07  0.3299982E+04  0.7818609E-02  0.8162900E-01
        3   -1    0    0  501    0  0.00000000000E+00  0.00000000000E+00  0.22625993320E+04  0.22625993342E+04  0.10100000352E+00 0. -1.
       -3   -1    0    0    0  501  0.00000000000E+00  0.00000000000E+00 -0.12032486069E+04  0.12032486112E+04  0.10100000352E+00 0.  1.
    10030    2    1    2    0    0  0.00000000000E+00  0.00000000000E+00  0.10593507250E+04  0.34658479454E+04  0.32999815184E+04 0.  0.
        2    1    3    3  502    0  0.10479518600E+03  0.11154894981E+04 -0.74247461210E+03  0.13440860839E+04  0.25500000920E-02 0.  1.
       -2    1    3    3    0  502 -0.10479518600E+03 -0.11154894981E+04  0.18018253372E+04  0.21217618615E+04  0.25500000920E-02 0. -1.
</event>
<event>
 5   0  0.2037333E-07  0.3310727E+04  0.7818609E-02  0.8160171E-01
        1   -1    0    0  501    0  0.00000000000E+00  0.00000000000E+00  0.12469383739E+04  0.12469383739E+04  0.50400001928E-02 0.  1.
       -1   -1    0    0    0  501  0.00000000000E+00  0.00000000000E+00 -0.21975655194E+04  0.21975655194E+04  0.50400001928E-02 0. -1.
    10030    2    1    2    0    0  0.00000000000E+00  0.00000000000E+00 -0.95062714547E+03  0.34445038933E+04  0.33107272768E+04 0.  0.
        3    1    3    3  502    0 -0.46728875269E+03 -0.81108743263E+03 -0.18957672045E+04  0.21142740848E+04  0.10100000352E+00 0. -1.
       -3    1    3    3    0  502  0.46728875269E+03  0.81108743263E+03  0.94514005908E+03  0.13302298084E+04  0.10100000352E+00 0.  1.
</event>
<event>
 5   0  0.6258718E-07  0.3298321E+04  0.7818609E-02  0.8163323E-01
       -2   -1    0    0    0  501  0.00000000000E+00  0.00000000000E+00  0.18759544642E+04  0.18759544642E+04  0.25500000920E-02 0. -1.
        2   -1    0    0  501    0  0.00000000000E+00  0.00000000000E+00 -0.14497850800E+04  0.14497850800E+04  0.25500000920E-02 0.  1.
    10030    2    1    2    0    0  0.00000000000E+00  0.00000000000E+00  0.42616938420E+03  0.33257395442E+04  0.32983212657E+04 0.  0.
        5    1    3    3  502    0  0.61501178718E+02  0.15535278713E+04  0.76763607038E+03  0.17339315062E+04  0.46999998093E+01 0. -1.
       -5    1    3    3    0  502 -0.61501178718E+02 -0.15535278713E+04 -0.34146668617E+03  0.15918080379E+04  0.46999998093E+01 0.  1.
</event>
<event>
 5   0  0.2037333E-07  0.3299268E+04  0.7818609E-02  0.8163082E-01
        1   -1    0    0  501    0  0.00000000000E+00  0.00000000000E+00  0.18367262948E+04  0.18367262948E+04  0.50400001928E-02 0. -1.
       -1   -1    0    0    0  501  0.00000000000E+00  0.00000000000E+00 -0.14815990139E+04  0.14815990139E+04  0.50400001928E-02 0.  1.
    10030    2    1    2    0    0  0.00000000000E+00  0.00000000000E+00  0.35512728089E+03  0.33183253088E+04  0.32992677171E+04 0.  0.
        3    1    3    3  502    0 -0.11537223450E+04 -0.15592397236E+03 -0.99790633763E+03  0.15333638197E+04  0.10100000352E+00 0.  1.
       -3    1    3    3    0  502  0.11537223450E+04  0.15592397236E+03  0.13530336185E+04  0.17849614891E+04  0.10100000352E+00 0. -1.
</event>
<event>
 5   0  0.6258718E-07  0.3385790E+04  0.7818609E-02  0.8141403E-01
       -2   -1    0    0    0  501  0.00000000000E+00  0.00000000000E+00  0.15751310867E+04  0.15751310867E+04  0.25500000920E-02 0.  1.
        2   -1    0    0  501    0  0.00000000000E+00  0.00000000000E+00 -0.18194631364E+04  0.18194631364E+04  0.25500000920E-02 0. -1.
    10030    2    1    2    0    0  0.00000000000E+00  0.00000000000E+00 -0.24433204967E+03  0.33945942231E+04  0.33857896847E+04 0.  0.
        5    1    3    3  502    0 -0.37388038837E+03  0.57983814257E+03 -0.16721071957E+04  0.18088569265E+04  0.46999998093E+01 0. -1.
       -5    1    3    3    0  502  0.37388038837E+03 -0.57983814257E+03  0.14277751461E+04  0.15857372967E+04  0.46999998093E+01 0.  1.
</event>
<event>
 5   0  0.2057130E-07  0.3300197E+04  0.7818609E-02  0.8162845E-01
       -1   -1    0    0    0  501  0.00000000000E+00  0.00000000000E+00  0.10456437762E+04  0.10456437762E+04  0.50400001928E-02 0. -1.
        1   -1    0    0  501    0  0.00000000000E+00  0.00000000000E+00 -0.26039707053E+04  0.26039707053E+04  0.50400001928E-02 0.  1.
    10030    2    1    2    0    0  0.00000000000E+00  0.00000000000E+00 -0.15583269291E+04  0.36496144815E+04  0.33001974253E+04 0.  0.
        2    1    3    3  502    0 -0.14959218821E+04 -0.33030041451E+03 -0.10110163652E+03  0.15352857005E+04  0.25500000920E-02 0. -1.
       -2    1    3    3    0  502  0.14959218821E+04  0.33030041451E+03 -0.14572252925E+04  0.21143287810E+04  0.25500000920E-02 0.  1.
</event>
<event>
 5   0  0.6377741E-07  0.3302869E+04  0.7818609E-02  0.8162166E-01
       -2   -1    0    0    0  501  0.00000000000E+00  0.00000000000E+00  0.13436072513E+04  0.13436072513E+04  0.25500000920E-02 0.  1.
        2   -1    0    0  501    0  0.00000000000E+00  0.00000000000E+00 -0.20297868669E+04  0.20297868669E+04  0.25500000920E-02 0. -1.
    10030    2    1    2    0    0  0.00000000000E+00  0.00000000000E+00 -0.68617961563E+03  0.33733941182E+04  0.33028692696E+04 0.  0.
        1    1    3    3  502    0 -0.15503703501E+04  0.44106931759E+03  0.23810394892E+02  0.16120661588E+04  0.50400001928E-02 0. -1.
       -1    1    3    3    0  502  0.15503703501E+04 -0.44106931759E+03 -0.70999001052E+03  0.17613279594E+04  0.50400001928E-02 0.  1.
</event>
<event>
 5   0  0.2057130E-07  0.3220506E+04  0.7818609E-02  0.8183423E-01
        1   -1    0    0  501    0  0.00000000000E+00  0.00000000000E+00  0.25487083020E+04  0.25487083020E+04  0.50400001928E-02 0. -1.
       -1   -1    0    0    0  501  0.00000000000E+00  0.00000000000E+00 -0.10173444021E+04  0.10173444021E+04  0.50400001928E-02 0.  1.
    10030    2    1    2    0    0  0.00000000000E+00  0.00000000000E+00  0.15313638999E+04  0.35660527040E+04  0.32205056271E+04 0.  0.
        2    1    3    3  502    0 -0.10612921049E+04 -0.88034298508E+03  0.16865164577E+04  0.21784587362E+04  0.25500000920E-02 0. -1.
       -2    1    3    3    0  502  0.10612921049E+04  0.88034298508E+03 -0.15515255779E+03  0.13875939678E+04  0.25500000920E-02 0.  1.
</event>
<event>
 5   0  0.6426079E-07  0.3317130E+04  0.7818609E-02  0.8158550E-01
        2   -1    0    0  501    0  0.00000000000E+00  0.00000000000E+00  0.23978961773E+04  0.23978961773E+04  0.25500000920E-02 0.  1.
       -2   -1    0    0    0  501  0.00000000000E+00  0.00000000000E+00 -0.11471879307E+04  0.11471879307E+04  0.25500000920E-02 0. -1.
    10030    2    1    2    0    0  0.00000000000E+00  0.00000000000E+00  0.12507082465E+04  0.35450841080E+04  0.33171298158E+04 0.  0.
        4    1    3    3  502    0  0.55867231400E+02  0.15294989600E+03 -0.11386241199E+04  0.11502092494E+04  0.12699999809E+01 0. -1.
       -4    1    3    3    0  502 -0.55867231400E+02 -0.15294989600E+03  0.23893323664E+04  0.23948748586E+04  0.12699999809E+01 0.  1.
</event>
<event>
 5   0  0.2080770E-07  0.3310842E+04  0.7818609E-02  0.8160142E-01
       -1   -1    0    0    0  501  0.00000000000E+00  0.00000000000E+00  0.11156780951E+04  0.11156780951E+04  0.50400001928E-02 0.  1.
        1   -1    0    0  501    0  0.00000000000E+00  0.00000000000E+00 -0.24562806776E+04  0.24562806776E+04  0.50400001928E-02 0. -1.
    10030    2    1    2    0    0  0.00000000000E+00  0.00000000000E+00 -0.13406025825E+04  0.35719587727E+04  0.33108419155E+04 0.  0.
        4    1    3    3  502    0  0.12727667269E+04 -0.58278731351E+03  0.28304180350E+03  0.14281773242E+04  0.12699999809E+01 0.  1.
       -4    1    3    3    0  502 -0.12727667269E+04  0.58278731351E+03 -0.16236443860E+04  0.21437814485E+04  0.12699999809E+01 0. -1.
</event>
<event>
 5   0  0.2057130E-07  0.3404267E+04  0.7818609E-02  0.8136860E-01
       -1   -1    0    0    0  501  0.00000000000E+00  0.00000000000E+00  0.18265168304E+04  0.18265168304E+04  0.50400001928E-02 0.  1.
        1   -1    0    0  501    0  0.00000000000E+00  0.00000000000E+00 -0.15862203417E+04  0.15862203417E+04  0.50400001928E-02 0. -1.
    10030    2    1    2    0    0  0.00000000000E+00  0.00000000000E+00  0.24029648868E+03  0.34127371721E+04  0.34042668232E+04 0.  0.
        2    1    3    3  502    0  0.11465499175E+04 -0.10066101684E+02 -0.11409882760E+04  0.16175698705E+04  0.25500000920E-02 0. -1.
       -2    1    3    3    0  502 -0.11465499175E+04  0.10066101684E+02  0.13812847647E+04  0.17951673017E+04  0.25500000920E-02 0.  1.
</event>
<event>
 5   0  0.2087665E-07  0.3242641E+04  0.7818609E-02  0.8177646E-01
       -1   -1    0    0    0  501  0.00000000000E+00  0.00000000000E+00  0.11073909235E+04  0.11073909235E+04  0.50400001928E-02 0.  1.
        1   -1    0    0  501    0  0.00000000000E+00  0.00000000000E+00 -0.23737601736E+04  0.23737601736E+04  0.50400001928E-02 0. -1.
    10030    2    1    2    0    0  0.00000000000E+00  0.00000000000E+00 -0.12663692501E+04  0.34811510971E+04  0.32426411894E+04 0.  0.
        5    1    3    3  502    0  0.12511749938E+04  0.10186220814E+04 -0.46132012679E+03  0.16780548737E+04  0.46999998093E+01 0.  1.
       -5    1    3    3    0  502 -0.12511749938E+04 -0.10186220814E+04 -0.80504912330E+03  0.18030962234E+04  0.46999998093E+01 0. -1.
</event>
<event>
 5   0  0.2057130E-07  0.3316154E+04  0.7818609E-02  0.8158797E-01
       -1   -1    0    0    0  501  0.00000000000E+00  0.00000000000E+00  0.13160876976E+04  0.13160876976E+04  0.50400001928E-02 0.  1.
        1   -1    0    0  501    0  0.00000000000E+00  0.00000000000E+00 -0.20889328711E+04  0.20889328712E+04  0.50400001928E-02 0. -1.
    10030    2    1    2    0    0  0.00000000000E+00  0.00000000000E+00 -0.77284517359E+03  0.34050205687E+04  0.33161537074E+04 0.  0.
        2    1    3    3  502    0 -0.89020673984E+03 -0.13549295401E+04 -0.74347200390E+03  0.17835505933E+04  0.25500000920E-02 0. -1.
       -2    1    3    3    0  502  0.89020673984E+03  0.13549295401E+04 -0.29373169688E+02  0.16214699754E+04  0.25500000920E-02 0.  1.
</event>
<event>
 5   0  0.2037333E-07  0.3309396E+04  0.7818609E-02  0.8160509E-01
        1   -1    0    0  501    0  0.00000000000E+00  0.00000000000E+00  0.19265745508E+04  0.19265745508E+04  0.50400001928E-02 0.  1.
       -1   -1    0    0    0  501  0.00000000000E+00  0.00000000000E+00 -0.14211886675E+04  0.14211886675E+04  0.50400001928E-02 0. -1.
    10030    2    1    2    0    0  0.00000000000E+00  0.00000000000E+00  0.50538588332E+03  0.33477632184E+04  0.33093962705E+04 0.  0.
        3    1    3    3  502    0 -0.82274274005E+03 -0.12733619933E+04 -0.41807012724E+03  0.15726217040E+04  0.10100000352E+00 0.  1.
       -3    1    3    3    0  502  0.82274274005E+03  0.12733619933E+04  0.92345601056E+03  0.17751415144E+04  0.10100000352E+00 0. -1.
</event>
<event>
 5   0  0.2087665E-07  0.3301822E+04  0.7818609E-02  0.8162432E-01
       -1   -1    0    0    0  501  0.00000000000E+00  0.00000000000E+00  0.16292683234E+04  0.16292683234E+04  0.50400001928E-02 0.  1.
        1   -1    0    0  501    0  0.00000000000E+00  0.00000000000E+00 -0.16728414757E+04  0.16728414757E+04  0.50400001928E-02 0. -1.
    10030    2    1    2    0    0  0.00000000000E+00  0.00000000000E+00 -0.43573152234E+02  0.33021097991E+04  0.33018223007E+04 0.  0.
        5    1    3    3  502    0  0.13187056118E+04 -0.99027899712E+03  0.54695919382E+02  0.16500456710E+04  0.46999998093E+01 0. -1.
       -5    1    3    3    0  502 -0.13187056118E+04  0.99027899712E+03 -0.98269071617E+02  0.16520641281E+04  0.46999998093E+01 0.  1.
</event>
<event>
 5   0  0.2087665E-07  0.3284912E+04  0.7818609E-02  0.8166745E-01
        1   -1    0    0  501    0  0.00000000000E+00  0.00000000000E+00  0.29047055165E+04  0.29047055165E+04  0.50400001928E-02 0.  1.
       -1   -1    0    0    0  501  0.00000000000E+00  0.00000000000E+00 -0.92872113117E+03  0.92872113118E+03  0.50400001928E-02 0. -1.
    10030    2    1    2    0    0  0.00000000000E+00  0.00000000000E+00  0.19759843853E+04  0.38334266477E+04  0.32849118058E+04 0.  0.
        5    1    3    3  502    0 -0.10284184755E+04  0.11577870193E+04  0.34931820530E+03  0.15875013831E+04  0.46999998093E+01 0. -1.
       -5    1    3    3    0  502  0.10284184755E+04 -0.11577870193E+04  0.16266661800E+04  0.22459252646E+04  0.46999998093E+01 0.  1.
</event>
<event>
 5   0  0.2087665E-07  0.3278885E+04  0.7818609E-02  0.8168289E-01
       -1   -1    0    0    0  501  0.00000000000E+00  0.00000000000E+00  0.19608862500E+04  0.19608862500E+04  0.50400001928E-02 0.  1.
        1   -1    0    0  501    0  0.00000000000E+00  0.00000000000E+00 -0.13706922246E+04  0.13706922246E+04  0.50400001928E-02 0. -1.
    10030    2    1    2    0    0  0.00000000000E+00  0.00000000000E+00  0.59019402539E+03  0.33315784746E+04  0.32788848935E+04 0.  0.
        5    1    3    3  502    0 -0.92607416723E+03  0.19749555303E+02 -0.10793224116E+04  0.14223088154E+04  0.46999998093E+01 0. -1.
       -5    1    3    3    0  502  0.92607416723E+03 -0.19749555303E+02  0.16695164370E+04  0.19092696592E+04  0.46999998093E+01 0.  1.
</event>
<event>
 5   0  0.6426079E-07  0.3328038E+04  0.7818609E-02  0.8155798E-01
        2   -1    0    0  501    0  0.00000000000E+00  0.00000000000E+00  0.17594464368E+04  0.17594464368E+04  0.25500000920E-02 0. -1.
       -2   -1    0    0    0  501  0.00000000000E+00  0.00000000000E+00 -0.15737670661E+04  0.15737670661E+04  0.25500000920E-02 0.  1.
    10030    2    1    2    0    0  0.00000000000E+00  0.00000000000E+00  0.18567937072E+03  0.33332135029E+04  0.33280377743E+04 0.  0.
        4    1    3    3  502    0 -0.34702816476E+03  0.14560506975E+04  0.82091248767E+03  0.17071646394E+04  0.12699999809E+01 0. -1.
       -4    1    3    3    0  502  0.34702816476E+03 -0.14560506975E+04 -0.63523311696E+03  0.16260488635E+04  0.12699999809E+01 0.  1.
</event>
<event>
 5   0  0.2080770E-07  0.3299645E+04  0.7818609E-02  0.8162986E-01
       -1   -1    0    0    0  501  0.00000000000E+00  0.00000000000E+00  0.12294116468E+04  0.12294116468E+04  0.50400001928E-02 0.  1.
        1   -1    0    0  501    0  0.00000000000E+00  0.00000000000E+00 -0.22139973985E+04  0.22139973985E+04  0.50400001928E-02 0. -1.
    10030    2    1    2    0    0  0.00000000000E+00  0.00000000000E+00 -0.98458575172E+03  0.34434090453E+04  0.32996449432E+04 0.  0.
        4    1    3    3  502    0 -0.23003625914E+03  0.89054210058E+03  0.93702819661E+03  0.13130138490E+04  0.12699999809E+01 0.  1.
       -4    1    3    3    0  502  0.23003625914E+03 -0.89054210058E+03 -0.19216139483E+04  0.21303951964E+04  0.12699999809E+01 0. -1.
</event>
<event>
 5   0  0.6351753E-07  0.3300325E+04  0.7818609E-02  0.8162813E-01
        2   -1    0    0  501    0  0.00000000000E+00  0.00000000000E+00  0.20491493840E+04  0.20491493840E+04  0.25500000920E-02 0.  1.
       -2   -1    0    0    0  501  0.00000000000E+00  0.00000000000E+00 -0.13288621323E+04  0.13288621323E+04  0.25500000920E-02 0. -1.
    10030    2    1    2    0    0  0.00000000000E+00  0.00000000000E+00  0.72028725166E+03  0.33780115163E+04  0.33003254505E+04 0.  0.
        3    1    3    3  502    0  0.15066235695E+04  0.19726437193E+03 -0.29859666342E+03  0.15485437644E+04  0.10100000352E+00 0. -1.
       -3    1    3    3    0  502 -0.15066235695E+04 -0.19726437193E+03  0.10188839151E+04  0.18294677519E+04  0.10100000352E+00 0.  1.
</event>
<event>
 5   0  0.6377741E-07  0.3337207E+04  0.7818609E-02  0.8153492E-01
       -2   -1    0    0    0  501  0.00000000000E+00  0.00000000000E+00  0.10162671378E+04  0.10162671378E+04  0.25500000920E-02 0. -1.
        2   -1    0    0  501    0  0.00000000000E+00  0.00000000000E+00 -0.27396705773E+04  0.27396705773E+04  0.25500000920E-02 0.  1.
    10030    2    1    2    0    0  0.00000000000E+00  0.00000000000E+00 -0.17234034395E+04  0.37559377152E+04  0.33372067219E+04 0.  0.
        1    1    3    3  502    0  0.45623528459E+03 -0.11982779188E+04  0.34008927711E+03  0.13265298044E+04  0.50400001928E-02 0. -1.
       -1    1    3    3    0  502 -0.45623528459E+03  0.11982779188E+04 -0.20634927166E+04  0.24294079108E+04  0.50400001928E-02 0.  1.
</event>
<event>
 5   0  0.2080770E-07  0.3297119E+04  0.7818609E-02  0.8163629E-01
        1   -1    0    0  501    0  0.00000000000E+00  0.00000000000E+00  0.19174063701E+04  0.19174063701E+04  0.50400001928E-02 0.  1.
       -1   -1    0    0    0  501  0.00000000000E+00  0.00000000000E+00 -0.14174084942E+04  0.14174084942E+04  0.50400001928E-02 0. -1.
    10030    2    1    2    0    0  0.00000000000E+00  0.00000000000E+00  0.49999787589E+03  0.33348148643E+04  0.32971187881E+04 0.  0.
        4    1    3    3  502    0  0.73131350113E+03 -0.14359625180E+04 -0.10173942136E+03  0.16146703419E+04  0.12699999809E+01 0. -1.
       -4    1    3    3    0  502 -0.73131350113E+03  0.14359625180E+04  0.60173729725E+03  0.17201445224E+04  0.12699999809E+01 0.  1.
</event>
<event>
 5   0  0.6377741E-07  0.3292259E+04  0.7818609E-02  0.8164868E-01
       -2   -1    0    0    0  501  0.00000000000E+00  0.00000000000E+00  0.13424010850E+04  0.13424010850E+04  0.25500000920E-02 0.  1.
        2   -1    0    0  501    0  0.00000000000E+00  0.00000000000E+00 -0.20185790501E+04  0.20185790501E+04  0.25500000920E-02 0. -1.
    10030    2    1    2    0    0  0.00000000000E+00  0.00000000000E+00 -0.67617796511E+03  0.33609801352E+04  0.32922592286E+04 0.  0.
        1    1    3    3  502    0  0.44816646702E+03 -0.42096402163E+03 -0.18969460114E+04  0.19941083370E+04  0.50400001928E-02 0. -1.
       -1    1    3    3    0  502 -0.44816646702E+03  0.42096402163E+03  0.12207680463E+04  0.13668717981E+04  0.50400001928E-02 0.  1.
</event>
<event>
 5   0  0.6351753E-07  0.3293506E+04  0.7818609E-02  0.8164550E-01
       -2   -1    0    0    0  501  0.00000000000E+00  0.00000000000E+00  0.11047470953E+04  0.11047470953E+04  0.25500000920E-02 0. -1.
        2   -1    0    0  501    0  0.00000000000E+00  0.00000000000E+00 -0.24546756126E+04  0.24546756126E+04  0.25500000920E-02 0.  1.
    10030    2    1    2    0    0  0.00000000000E+00  0.00000000000E+00 -0.13499285172E+04  0.35594227079E+04  0.32935061882E+04 0.  0.
        3    1    3    3  502    0 -0.47587349801E+03  0.75429836947E+03 -0.21710663579E+04  0.23471154119E+04  0.10100000352E+00 0.  1.
       -3    1    3    3    0  502  0.47587349801E+03 -0.75429836947E+03  0.82113784065E+03  0.12123072960E+04  0.10100000352E+00 0. -1.
</event>
<event>
 5   0  0.2057130E-07  0.3299484E+04  0.7818609E-02  0.8163027E-01
       -1   -1    0    0    0  501  0.00000000000E+00  0.00000000000E+00  0.18391933882E+04  0.18391933882E+04  0.50400001928E-02 0.  1.
        1   -1    0    0  501    0  0.00000000000E+00  0.00000000000E+00 -0.14798059626E+04  0.14798059627E+04  0.50400001928E-02 0. -1.
    10030    2    1    2    0    0  0.00000000000E+00  0.00000000000E+00  0.35938742558E+03  0.33189993509E+04  0.32994844097E+04 0.  0.
        2    1    3    3  502    0  0.76053439832E+02 -0.94437480070E+03 -0.11788576353E+04  0.15123932075E+04  0.25500000920E-02 0. -1.
       -2    1    3    3    0  502 -0.76053439832E+02  0.94437480070E+03  0.15382450609E+04  0.18066061434E+04  0.25500000920E-02 0.  1.
</event>
<event>
 5   0  0.6351753E-07  0.3302946E+04  0.7818609E-02  0.8162146E-01
        2   -1    0    0  501    0  0.00000000000E+00  0.00000000000E+00  0.23142858669E+04  0.23142858669E+04  0.25500000920E-02 0.  1.
       -2   -1    0    0    0  501  0.00000000000E+00  0.00000000000E+00 -0.11784899984E+04  0.11784899984E+04  0.25500000920E-02 0. -1.
    10030    2    1    2    0    0  0.00000000000E+00  0.00000000000E+00  0.11357958685E+04  0.34927758654E+04  0.33029458050E+04 0.  0.
        3    1    3    3  502    0  0.10287600037E+04  0.36742223686E+03 -0.74183963123E+03  0.13204818416E+04  0.10100000352E+00 0. -1.
       -3    1    3    3    0  502 -0.10287600037E+04 -0.36742223686E+03  0.18776354998E+04  0.21722940237E+04  0.10100000352E+00 0.  1.
</event>
<event>
 5   0  0.2080828E-07  0.3292012E+04  0.7818609E-02  0.8164931E-01
       -1   -1    0    0    0  501  0.00000000000E+00  0.00000000000E+00  0.14501815635E+04  0.14501815636E+04  0.50400001928E-02 0. -1.
        1   -1    0    0  501    0  0.00000000000E+00  0.00000000000E+00 -0.18682739420E+04  0.18682739420E+04  0.50400001928E-02 0.  1.
    10030    2    1    2    0    0  0.00000000000E+00  0.00000000000E+00 -0.41809237849E+03  0.33184555056E+04  0.32920124097E+04 0.  0.
        1    1    3    3  502    0  0.16179214173E+04  0.30057923859E+03 -0.24565366599E+03  0.16638399307E+04  0.50400001928E-02 0.  1.
       -1    1    3    3    0  502 -0.16179214173E+04 -0.30057923859E+03 -0.17243871249E+03  0.16546155749E+04  0.50400001928E-02 0. -1.
</event>
<event>
 5   0  0.2057130E-07  0.3303038E+04  0.7818609E-02  0.8162123E-01
        1   -1    0    0  501    0  0.00000000000E+00  0.00000000000E+00  0.26736058967E+04  0.26736058967E+04  0.50400001928E-02 0.  1.
       -1   -1    0    0    0  501  0.00000000000E+00  0.00000000000E+00 -0.10201631429E+04  0.10201631429E+04  0.50400001928E-02 0. -1.
    10030    2    1    2    0    0  0.00000000000E+00  0.00000000000E+00  0.16534427538E+04  0.36937690396E+04  0.33030375078E+04 0.  0.
        2    1    3    3  502    0 -0.59619461385E+03  0.40134244974E+03 -0.83611555370E+03  0.11025484110E+04  0.25500000920E-02 0. -1.
       -2    1    3    3    0  502  0.59619461385E+03 -0.40134244974E+03  0.24895583075E+04  0.25912206286E+04  0.25500000920E-02 0.  1.
</event>
<event>
 5   0  0.2080828E-07  0.3281643E+04  0.7818609E-02  0.8167582E-01
       -1   -1    0    0    0  501  0.00000000000E+00  0.00000000000E+00  0.16187029013E+04  0.16187029013E+04  0.50400001928E-02 0.  1.
        1   -1    0    0  501    0  0.00000000000E+00  0.00000000000E+00 -0.16632425287E+04  0.16632425287E+04  0.50400001928E-02 0. -1.
    10030    2    1    2    0    0  0.00000000000E+00  0.00000000000E+00 -0.44539627380E+02  0.32819454301E+04  0.32816431902E+04 0.  0.
        1    1    3    3  502    0 -0.61223257004E+02  0.36762577634E+03  0.15758130586E+04  0.16192849639E+04  0.50400001928E-02 0.  1.
       -1    1    3    3    0  502  0.61223257004E+02 -0.36762577634E+03 -0.16203526860E+04  0.16626604661E+04  0.50400001928E-02 0. -1.
</event>
<event>
 5   0  0.6377741E-07  0.3319962E+04  0.7818609E-02  0.8157835E-01
       -2   -1    0    0    0  501  0.00000000000E+00  0.00000000000E+00  0.22128525781E+04  0.22128525781E+04  0.25500000920E-02 0. -1.
        2   -1    0    0  501    0  0.00000000000E+00  0.00000000000E+00 -0.12452419235E+04  0.12452419235E+04  0.25500000920E-02 0.  1.
    10030    2    1    2    0    0  0.00000000000E+00  0.00000000000E+00  0.96761065464E+03  0.34580945016E+04  0.33199619279E+04 0.  0.
        1    1    3    3  502    0  0.13516078333E+03 -0.86032820664E+03  0.19557926390E+04  0.21409245449E+04  0.50400001928E-02 0. -1.
       -1    1    3    3    0  502 -0.13516078333E+03  0.86032820664E+03 -0.98818198431E+03  0.13171699566E+04  0.50400001928E-02 0.  1.
</event>
<event>
 5   0  0.2080828E-07  0.3305676E+04  0.7818609E-02  0.8161453E-01
       -1   -1    0    0    0  501  0.00000000000E+00  0.00000000000E+00  0.21184592385E+04  0.21184592385E+04  0.50400001928E-02 0.  1.
        1   -1    0    0  501    0  0.00000000000E+00  0.00000000000E+00 -0.12895565660E+04  0.12895565660E+04  0.50400001928E-02 0. -1.
    10030    2    1    2    0    0  0.00000000000E+00  0.00000000000E+00  0.82890267249E+03  0.34080158044E+04  0.33056757377E+04 0.  0.
        1    1    3    3  502    0 -0.34832786811E+03  0.13101587182E+04  0.13892527382E+04  0.19411005490E+04  0.50400001928E-02 0.  1.
       -1    1    3    3    0  502  0.34832786811E+03 -0.13101587182E+04 -0.56035006570E+03  0.14669152555E+04  0.50400001928E-02 0. -1.
</event>
<event>
 5   0  0.2080770E-07  0.3285628E+04  0.7818609E-02  0.8166562E-01
        1   -1    0    0  501    0  0.00000000000E+00  0.00000000000E+00  0.22752276819E+04  0.22752276819E+04  0.50400001928E-02 0. -1.
       -1   -1    0    0    0  501  0.00000000000E+00  0.00000000000E+00 -0.11861839892E+04  0.11861839892E+04  0.50400001928E-02 0.  1.
    10030    2    1    2    0    0  0.00000000000E+00  0.00000000000E+00  0.10890436927E+04  0.34614116711E+04  0.32856284927E+04 0.  0.
        4    1    3    3  502    0  0.59917075294E+03  0.35833777141E+03 -0.10221244373E+04  0.12378010857E+04  0.12699999809E+01 0.  1.
       -4    1    3    3    0  502 -0.59917075294E+03 -0.35833777141E+03  0.21111681300E+04  0.22236105854E+04  0.12699999809E+01 0. -1.
</event>
<event>
 5   0  0.6424183E-07  0.3333105E+04  0.7818609E-02  0.8154522E-01
       -2   -1    0    0    0  501  0.00000000000E+00  0.00000000000E+00  0.18766181904E+04  0.18766181905E+04  0.25500000920E-02 0.  1.
        2   -1    0    0  501    0  0.00000000000E+00  0.00000000000E+00 -0.14800014610E+04  0.14800014610E+04  0.25500000920E-02 0. -1.
    10030    2    1    2    0    0  0.00000000000E+00  0.00000000000E+00  0.39661672942E+03  0.33566196515E+04  0.33331052571E+04 0.  0.
        2    1    3    3  502    0  0.83584157269E+03  0.12427833716E+04  0.93439310868E+03  0.17652852814E+04  0.25500000920E-02 0.  1.
       -2    1    3    3    0  502 -0.83584157269E+03 -0.12427833716E+04 -0.53777637927E+03  0.15913343701E+04  0.25500000920E-02 0. -1.
</event>
<event>
 5   0  0.6424183E-07  0.3276703E+04  0.7818609E-02  0.8168849E-01
        2   -1    0    0  501    0  0.00000000000E+00  0.00000000000E+00  0.11273242429E+04  0.11273242429E+04  0.25500000920E-02 0. -1.
       -2   -1    0    0    0  501  0.00000000000E+00  0.00000000000E+00 -0.23810331137E+04  0.23810331137E+04  0.25500000920E-02 0.  1.
    10030    2    1    2    0    0  0.00000000000E+00  0.00000000000E+00 -0.12537088709E+04  0.35083573566E+04  0.32767034362E+04 0.  0.
        2    1    3    3  502    0  0.24618314607E+03  0.57352699429E+03  0.99505117274E+03  0.11745919253E+04  0.25500000920E-02 0. -1.
       -2    1    3    3    0  502 -0.24618314607E+03 -0.57352699429E+03 -0.22487600436E+04  0.23337654313E+04  0.25500000920E-02 0.  1.
</event>
<event>
 5   0  0.2057130E-07  0.3323081E+04  0.7818609E-02  0.8157047E-01
       -1   -1    0    0    0  501  0.00000000000E+00  0.00000000000E+00  0.17766729226E+04  0.17766729226E+04  0.50400001928E-02 0. -1.
        1   -1    0    0  501    0  0.00000000000E+00  0.00000000000E+00 -0.15538687641E+04  0.15538687641E+04  0.50400001928E-02 0.  1.
    10030    2    1    2    0    0  0.00000000000E+00  0.00000000000E+00  0.22280415846E+03  0.33305416867E+04  0.33230808347E+04 0.  0.
        2    1    3    3  502    0 -0.11118416022E+04  0.58456609867E+03 -0.97860912921E+03  0.15923520653E+04  0.25500000920E-02 0.  1.
       -2    1    3    3    0  502  0.11118416022E+04 -0.58456609867E+03  0.12014132877E+04  0.17381896214E+04  0.25500000920E-02 0. -1.
</event>
<event>
 5   0  0.6377741E-07  0.3302297E+04  0.7818609E-02  0.8162311E-01
       -2   -1    0    0    0  501  0.00000000000E+00  0.00000000000E+00  0.13688261107E+04  0.13688261107E+04  0.25500000920E-02 0. -1.
        2   -1    0    0  501    0  0.00000000000E+00  0.00000000000E+00 -0.19916999072E+04  0.19916999072E+04  0.25500000920E-02 0.  1.
    10030    2    1    2    0    0  0.00000000000E+00  0.00000000000E+00 -0.62287379649E+03  0.33605260179E+04  0.33022966782E+04 0.  0.
        1    1    3    3  502    0  0.98252326510E+03 -0.13243929689E+04 -0.22677047535E+03  0.16645700799E+04  0.50400001928E-02 0.  1.
       -1    1    3    3    0  502 -0.98252326510E+03  0.13243929689E+04 -0.39610332115E+03  0.16959559380E+04  0.50400001928E-02 0. -1.
</event>
<event>
 5   0  0.2037333E-07  0.3306933E+04  0.7818609E-02  0.8161133E-01
        1   -1    0    0  501    0  0.00000000000E+00  0.00000000000E+00  0.14109851450E+04  0.14109851450E+04  0.50400001928E-02 0. -1.
       -1   -1    0    0    0  501  0.00000000000E+00  0.00000000000E+00 -0.19376192120E+04  0.19376192120E+04  0.50400001928E-02 0.  1.
    10030    2    1    2    0    0  0.00000000000E+00  0.00000000000E+00 -0.52663406696E+03  0.33486043570E+04  0.33069332771E+04 0.  0.
        3    1    3    3  502    0  0.89988806891E+03  0.12038563888E+04 -0.96111836887E+03  0.17840451986E+04  0.10100000352E+00 0.  1.
       -3    1    3    3    0  502 -0.89988806891E+03 -0.12038563888E+04  0.43448430191E+03  0.15645591584E+04  0.10100000352E+00 0. -1.
</event>
<event>
 5   0  0.6426079E-07  0.3297434E+04  0.7818609E-02  0.8163549E-01
       -2   -1    0    0    0  501  0.00000000000E+00  0.00000000000E+00  0.21091573161E+04  0.21091573161E+04  0.25500000920E-02 0.  1.
        2   -1    0    0  501    0  0.00000000000E+00  0.00000000000E+00 -0.12887929865E+04  0.12887929865E+04  0.25500000920E-02 0. -1.
    10030    2    1    2    0    0  0.00000000000E+00  0.00000000000E+00  0.82036432967E+03  0.33979503026E+04  0.32974336423E+04 0.  0.
        4    1    3    3  502    0  0.75210778532E+02 -0.16074012873E+04  0.40254471062E+02  0.16096638143E+04  0.12699999809E+01 0. -1.
       -4    1    3    3    0  502 -0.75210778532E+02  0.16074012873E+04  0.78010985861E+03  0.17882864883E+04  0.12699999809E+01 0.  1.
</event>
<event>
 5   0  0.1994250E-07  0.3309358E+04  0.7818609E-02  0.8160518E-01
        4   -1    0    0  501    0  0.00000000000E+00  0.00000000000E+00  0.14129807227E+04  0.14129812934E+04  0.12699999809E+01 0. -1.
       -4   -1    0    0    0  501  0.00000000000E+00  0.00000000000E+00 -0.19377202314E+04  0.19377206476E+04  0.12699999809E+01 0.  1.
    10030    2    1    2    0    0  0.00000000000E+00  0.00000000000E+00 -0.52473950874E+03  0.33507019411E+04  0.33093582378E+04 0.  0.
        3    1    3    3  502    0  0.37088284806E+03 -0.15649349296E+04 -0.65631612456E+03  0.17370452747E+04  0.10100000352E+00 0.  1.
       -3    1    3    3    0  502 -0.37088284806E+03  0.15649349296E+04  0.13157661582E+03  0.16136566664E+04  0.10100000352E+00 0. -1.
</event>
<event>
 5   0  0.6351753E-07  0.3302818E+04  0.7818609E-02  0.8162179E-01
        2   -1    0    0  501    0  0.00000000000E+00  0.00000000000E+00  0.16586641028E+04  0.16586641028E+04  0.25500000920E-02 0.  1.
       -2   -1    0    0    0  501  0.00000000000E+00  0.00000000000E+00 -0.16441856109E+04  0.16441856109E+04  0.25500000920E-02 0. -1.
    10030    2    1    2    0    0  0.00000000000E+00  0.00000000000E+00  0.14478491965E+02  0.33028497137E+04  0.33028179794E+04 0.  0.
        3    1    3    3  502    0  0.64968326267E+03 -0.44073415992E+03  0.14601182025E+04  0.16577937498E+04  0.10100000352E+00 0.  1.
       -3    1    3    3    0  502 -0.64968326267E+03  0.44073415992E+03 -0.14456397105E+04  0.16450559639E+04  0.10100000352E+00 0. -1.
</event>
<event>
 5   0  0.2080828E-07  0.3288919E+04  0.7818609E-02  0.8165721E-01
        1   -1    0    0  501    0  0.00000000000E+00  0.00000000000E+00  0.12362521110E+04  0.12362521110E+04  0.50400001928E-02 0.  1.
       -1   -1    0    0    0  501  0.00000000000E+00  0.00000000000E+00 -0.21874553004E+04  0.21874553004E+04  0.50400001928E-02 0. -1.
    10030    2    1    2    0    0  0.00000000000E+00  0.00000000000E+00 -0.95120318934E+03  0.34237074114E+04  0.32889185048E+04 0.  0.
        1    1    3    3  502    0 -0.10637616651E+04 -0.11896164513E+04 -0.62513655395E+02  0.15970861400E+04  0.50400001928E-02 0. -1.
       -1    1    3    3    0  502  0.10637616651E+04  0.11896164513E+04 -0.88868953394E+03  0.18266212714E+04  0.50400001928E-02 0.  1.
</event>
<event>
 5   0  0.2057130E-07  0.3280825E+04  0.7818609E-02  0.8167792E-01
       -1   -1    0    0    0  501  0.00000000000E+00  0.00000000000E+00  0.14599227796E+04  0.14599227796E+04  0.50400001928E-02 0. -1.
        1   -1    0    0  501    0  0.00000000000E+00  0.00000000000E+00 -0.18432161257E+04  0.18432161257E+04  0.50400001928E-02 0.  1.
    10030    2    1    2    0    0  0.00000000000E+00  0.00000000000E+00 -0.38329334613E+03  0.33031389054E+04  0.32808250241E+04 0.  0.
        2    1    3    3  502    0 -0.12685889686E+04 -0.91354726223E+03 -0.69208529714E+03  0.17096399124E+04  0.25500000920E-02 0.  1.
       -2    1    3    3    0  502  0.12685889686E+04  0.91354726223E+03  0.30879195101E+03  0.15934989930E+04  0.25500000920E-02 0. -1.
</event>
<event>
 5   0  0.2057130E-07  0.3296135E+04  0.7818609E-02  0.8163879E-01
       -1   -1    0    0    0  501  0.00000000000E+00  0.00000000000E+00  0.11472469371E+04  0.11472469371E+04  0.50400001928E-02 0. -1.
        1   -1    0    0  501    0  0.00000000000E+00  0.00000000000E+00 -0.23675173393E+04  0.23675173393E+04  0.50400001928E-02 0.  1.
    10030    2    1    2    0    0  0.00000000000E+00  0.00000000000E+00 -0.12202704022E+04  0.35147642763E+04  0.32961353224E+04 0.  0.
        2    1    3    3  502    0 -0.46369939440E+03 -0.61248855776E+03  0.94464677225E+03  0.12175865005E+04  0.25500000920E-02 0. -1.
       -2    1    3    3    0  502  0.46369939440E+03  0.61248855776E+03 -0.21649171745E+04  0.22971777759E+04  0.25500000920E-02 0.  1.
</event>
<event>
 5   0  0.6424183E-07  0.3298466E+04  0.7818609E-02  0.8163286E-01
        2   -1    0    0  501    0  0.00000000000E+00  0.00000000000E+00  0.32740634379E+04  0.32740634379E+04  0.25500000920E-02 0.  1.
       -2   -1    0    0    0  501  0.00000000000E+00  0.00000000000E+00 -0.83076239943E+03  0.83076239944E+03  0.25500000920E-02 0. -1.
    10030    2    1    2    0    0  0.00000000000E+00  0.00000000000E+00  0.24433010384E+04  0.41048258373E+04  0.32984655812E+04 0.  0.
        2    1    3    3  502    0  0.73897441279E+03 -0.26923690830E+03  0.30256518065E+04  0.31262022567E+04  0.25500000920E-02 0.  1.
       -2    1    3    3    0  502 -0.73897441279E+03  0.26923690830E+03 -0.58235076804E+03  0.97862358064E+03  0.25500000920E-02 0. -1.
</event>
<event>
 5   0  0.6426079E-07  0.3306860E+04  0.7818609E-02  0.8161152E-01
       -2   -1    0    0    0  501  0.00000000000E+00  0.00000000000E+00  0.10824203768E+04  0.10824203768E+04  0.25500000920E-02 0.  1.
        2   -1    0    0  501    0  0.00000000000E+00  0.00000000000E+00 -0.25256642891E+04  0.25256642891E+04  0.25500000920E-02 0. -1.
    10030    2    1    2    0    0  0.00000000000E+00  0.00000000000E+00 -0.14432439123E+04  0.36080846659E+04  0.33068598346E+04 0.  0.
        4    1    3    3  502    0 -0.10594064938E+04  0.12205664222E+04 -0.11022615982E+04  0.19562992496E+04  0.12699999809E+01 0. -1.
       -4    1    3    3    0  502  0.10594064938E+04 -0.12205664222E+04 -0.34098231408E+03  0.16517854163E+04  0.12699999809E+01 0.  1.
</event>
<event>
 5   0  0.6258718E-07  0.3322901E+04  0.7818609E-02  0.8157092E-01
       -2   -1    0    0    0  501  0.00000000000E+00  0.00000000000E+00  0.15669883374E+04  0.15669883374E+04  0.25500000920E-02 0. -1.
        2   -1    0    0  501    0  0.00000000000E+00  0.00000000000E+00 -0.17616073719E+04  0.17616073719E+04  0.25500000920E-02 0.  1.
    10030    2    1    2    0    0  0.00000000000E+00  0.00000000000E+00 -0.19461903447E+03  0.33285957093E+04  0.33229012666E+04 0.  0.
        5    1    3    3  502    0 -0.65956982796E+03  0.13113816359E+04  0.68225415239E+03  0.16187176936E+04  0.46999998093E+01 0. -1.
       -5    1    3    3    0  502  0.65956982796E+03 -0.13113816359E+04 -0.87687318686E+03  0.17098780158E+04  0.46999998093E+01 0.  1.
</event>
<event>
 5   0  0.2080828E-07  0.3288571E+04  0.7818609E-02  0.8165810E-01
        1   -1    0    0  501    0  0.00000000000E+00  0.00000000000E+00  0.16170278614E+04  0.16170278614E+04  0.50400001928E-02 0. -1.
       -1   -1    0    0    0  501  0.00000000000E+00  0.00000000000E+00 -0.16720024483E+04  0.16720024483E+04  0.50400001928E-02 0.  1.
    10030    2    1    2    0    0  0.00000000000E+00  0.00000000000E+00 -0.54974586891E+02  0.32890303097E+04  0.32885708405E+04 0.  0.
        1    1    3    3  502    0  0.15687949670E+04 -0.44203445595E+03  0.18971218632E+03  0.16408847682E+04  0.50400001928E-02 0. -1.
       -1    1    3    3    0  502 -0.15687949670E+04  0.44203445595E+03 -0.24468677321E+03  0.16481455415E+04  0.50400001928E-02 0.  1.
</event>
<event>
 5   0  0.2080770E-07  0.3181242E+04  0.7818609E-02  0.8193789E-01
       -1   -1    0    0    0  501  0.00000000000E+00  0.00000000000E+00  0.10666608598E+04  0.10666608598E+04  0.50400001928E-02 0.  1.
        1   -1    0    0  501    0  0.00000000000E+00  0.00000000000E+00 -0.23719586032E+04  0.23719586032E+04  0.50400001928E-02 0. -1.
    10030    2    1    2    0    0  0.00000000000E+00  0.00000000000E+00 -0.13052977434E+04  0.34386194630E+04  0.31812421493E+04 0.  0.
        4    1    3    3  502    0 -0.54743146992E+03  0.61578517658E+03 -0.21233153714E+04  0.22775737918E+04  0.12699999809E+01 0. -1.
       -4    1    3    3    0  502  0.54743146992E+03 -0.61578517658E+03  0.81801762801E+03  0.11610456712E+04  0.12699999809E+01 0.  1.
</event>
<event>
 5   0  0.6424183E-07  0.3300943E+04  0.7818609E-02  0.8162655E-01
       -2   -1    0    0    0  501  0.00000000000E+00  0.00000000000E+00  0.11933234208E+04  0.11933234208E+04  0.25500000920E-02 0.  1.
        2   -1    0    0  501    0  0.00000000000E+00  0.00000000000E+00 -0.22827476009E+04  0.22827476009E+04  0.25500000920E-02 0. -1.
    10030    2    1    2    0    0  0.00000000000E+00  0.00000000000E+00 -0.10894241801E+04  0.34760710217E+04  0.33009430022E+04 0.  0.
        2    1    3    3  502    0 -0.58820107132E+03  0.12141177621E+03 -0.21635868276E+04  0.22454018082E+04  0.25500000920E-02 0. -1.
       -2    1    3    3    0  502  0.58820107132E+03 -0.12141177621E+03  0.10741626475E+04  0.12306692135E+04  0.25500000920E-02 0.  1.
</event>
<event>
 5   0  0.6377741E-07  0.3300425E+04  0.7818609E-02  0.8162787E-01
       -2   -1    0    0    0  501  0.00000000000E+00  0.00000000000E+00  0.85922330829E+03  0.85922330830E+03  0.25500000920E-02 0.  1.
        2   -1    0    0  501    0  0.00000000000E+00  0.00000000000E+00 -0.31693752273E+04  0.31693752273E+04  0.25500000920E-02 0. -1.
    10030    2    1    2    0    0  0.00000000000E+00  0.00000000000E+00 -0.23101519190E+04  0.40285985356E+04  0.33004248623E+04 0.  0.
        1    1    3    3  502    0 -0.49316661604E+03  0.90102773148E+03  0.42144580244E+03  0.11102616126E+04  0.50400001928E-02 0.  1.
       -1    1    3    3    0  502  0.49316661604E+03 -0.90102773148E+03 -0.27315977214E+04  0.29183369229E+04  0.50400001928E-02 0. -1.
</event>
<event>
 5   0  0.6377741E-07  0.3301439E+04  0.7818609E-02  0.8162529E-01
        2   -1    0    0  501    0  0.00000000000E+00  0.00000000000E+00  0.23288200537E+04  0.23288200537E+04  0.25500000920E-02 0.  1.
       -2   -1    0    0    0  501  0.00000000000E+00  0.00000000000E+00 -0.11700665313E+04  0.11700665313E+04  0.25500000920E-02 0. -1.
    10030    2    1    2    0    0  0.00000000000E+00  0.00000000000E+00  0.11587535224E+04  0.34988865851E+04  0.33014387181E+04 0.  0.
        1    1    3    3  502    0  0.95049888046E+02 -0.16178560858E+04  0.24695948953E+03  0.16393540755E+04  0.50400001928E-02 0.  1.
       -1    1    3    3    0  502 -0.95049888046E+02  0.16178560858E+04  0.91179403288E+03  0.18595325095E+04  0.50400001928E-02 0. -1.
</event>
<event>
 5   0  0.2057130E-07  0.3364959E+04  0.7818609E-02  0.8146560E-01
       -1   -1    0    0    0  501  0.00000000000E+00  0.00000000000E+00  0.20944455611E+04  0.20944455611E+04  0.50400001928E-02 0. -1.
        1   -1    0    0  501    0  0.00000000000E+00  0.00000000000E+00 -0.13515450498E+04  0.13515450498E+04  0.50400001928E-02 0.  1.
    10030    2    1    2    0    0  0.00000000000E+00  0.00000000000E+00  0.74290051126E+03  0.34459906109E+04  0.33649591559E+04 0.  0.
        2    1    3    3  502    0 -0.20857549155E+03 -0.13190107610E+04  0.14195431671E+04  0.19489473894E+04  0.25500000920E-02 0. -1.
       -2    1    3    3    0  502  0.20857549155E+03  0.13190107610E+04 -0.67664265588E+03  0.14970432215E+04  0.25500000920E-02 0.  1.
</event>
<event>
 5   0  0.6258718E-07  0.3302638E+04  0.7818609E-02  0.8162224E-01
        2   -1    0    0  501    0  0.00000000000E+00  0.00000000000E+00  0.22854040569E+04  0.22854040569E+04  0.25500000920E-02 0. -1.
       -2   -1    0    0    0  501  0.00000000000E+00  0.00000000000E+00 -0.11931607931E+04  0.11931607931E+04  0.25500000920E-02 0.  1.
    10030    2    1    2    0    0  0.00000000000E+00  0.00000000000E+00  0.10922432639E+04  0.34785648500E+04  0.33026380468E+04 0.  0.
        5    1    3    3  502    0 -0.21083111961E+03 -0.13980068349E+04 -0.35253286132E+03  0.14571116566E+04  0.46999998093E+01 0.  1.
       -5    1    3    3    0  502  0.21083111961E+03  0.13980068349E+04  0.14447761252E+04  0.20214531935E+04  0.46999998093E+01 0. -1.
</event>
<event>
 5   0  0.2080770E-07  0.3258562E+04  0.7818609E-02  0.8173520E-01
       -1   -1    0    0    0  501  0.00000000000E+00  0.00000000000E+00  0.18064193886E+04  0.18064193886E+04  0.50400001928E-02 0. -1.
        1   -1    0    0  501    0  0.00000000000E+00  0.00000000000E+00 -0.14695130967E+04  0.14695130967E+04  0.50400001928E-02 0.  1.
    10030    2    1    2    0    0  0.00000000000E+00  0.00000000000E+00  0.33690629193E+03  0.32759324853E+04  0.32585622288E+04 0.  0.
        4    1    3    3  502    0  0.99880623653E+03  0.77610352008E+03  0.12008669153E+04  0.17441426356E+04  0.12699999809E+01 0. -1.
       -4    1    3    3    0  502 -0.99880623653E+03 -0.77610352008E+03 -0.86396062340E+03  0.15317898497E+04  0.12699999809E+01 0.  1.
</event>
<event>
 5   0  0.2080828E-07  0.3308080E+04  0.7818609E-02  0.8160843E-01
       -1   -1    0    0    0  501  0.00000000000E+00  0.00000000000E+00  0.21407652357E+04  0.21407652357E+04  0.50400001928E-02 0.  1.
        1   -1    0    0  501    0  0.00000000000E+00  0.00000000000E+00 -0.12779764230E+04  0.12779764230E+04  0.50400001928E-02 0. -1.
    10030    2    1    2    0    0  0.00000000000E+00  0.00000000000E+00  0.86278881268E+03  0.34187416587E+04  0.33080795023E+04 0.  0.
        1    1    3    3  502    0 -0.73384392647E+02 -0.24166598824E+03  0.21207202683E+04  0.21357064815E+04  0.50400001928E-02 0.  1.
       -1    1    3    3    0  502  0.73384392647E+02  0.24166598824E+03 -0.12579314556E+04  0.12830351772E+04  0.50400001928E-02 0. -1.
</event>
<event>
 5   0  0.2080828E-07  0.3326990E+04  0.7818609E-02  0.8156062E-01
       -1   -1    0    0    0  501  0.00000000000E+00  0.00000000000E+00  0.90001428202E+03  0.90001428204E+03  0.50400001928E-02 0. -1.
        1   -1    0    0  501    0  0.00000000000E+00  0.00000000000E+00 -0.30746355505E+04  0.30746355505E+04  0.50400001928E-02 0.  1.
    10030    2    1    2    0    0  0.00000000000E+00  0.00000000000E+00 -0.21746212685E+04  0.39746498326E+04  0.33269901758E+04 0.  0.
        1    1    3    3  502    0 -0.14913578165E+04 -0.51483691746E+03 -0.17172200867E+04  0.23319626958E+04  0.50400001928E-02 0.  1.
       -1    1    3    3    0  502  0.14913578165E+04  0.51483691746E+03 -0.45740118184E+03  0.16426871368E+04  0.50400001928E-02 0. -1.
</event>
<event>
 5   0  0.2057130E-07  0.3302313E+04  0.7818609E-02  0.8162307E-01
       -1   -1    0    0    0  501  0.00000000000E+00  0.00000000000E+00  0.14253205376E+04  0.14253205376E+04  0.50400001928E-02 0. -1.
        1   -1    0    0  501    0  0.00000000000E+00  0.00000000000E+00 -0.19127754000E+04  0.19127754000E+04  0.50400001928E-02 0.  1.
    10030    2    1    2    0    0  0.00000000000E+00  0.00000000000E+00 -0.48745486235E+03  0.33380959376E+04  0.33023131659E+04 0.  0.
        2    1    3    3  502    0 -0.14472130685E+04  0.33351756827E+03  0.48565787400E+03  0.15625374250E+04  0.25500000920E-02 0.  1.
       -2    1    3    3    0  502  0.14472130685E+04 -0.33351756827E+03 -0.97311273635E+03  0.17755585126E+04  0.25500000920E-02 0. -1.
</event>
<event>
 5   0  0.2037333E-07  0.3288637E+04  0.7818609E-02  0.8165793E-01
        1   -1    0    0  501    0  0.00000000000E+00  0.00000000000E+00  0.14675434066E+04  0.14675434066E+04  0.50400001928E-02 0.  1.
       -1   -1    0    0    0  501  0.00000000000E+00  0.00000000000E+00 -0.18423871416E+04  0.18423871416E+04  0.50400001928E-02 0. -1.
    10030    2    1    2    0    0  0.00000000000E+00  0.00000000000E+00 -0.37484373499E+03  0.33099305482E+04  0.32886368617E+04 0.  0.
        3    1    3    3  502    0 -0.15946706344E+04 -0.29018766138E+03  0.91136830581E+02  0.16234189980E+04  0.10100000352E+00 0.  1.
       -3    1    3    3    0  502  0.15946706344E+04  0.29018766138E+03 -0.46598056557E+03  0.16865115502E+04  0.10100000352E+00 0. -1.
</event>
<event>
 5   0  0.6351753E-07  0.3313096E+04  0.7818609E-02  0.8159571E-01
       -2   -1    0    0    0  501  0.00000000000E+00  0.00000000000E+00  0.21254636645E+04  0.21254636645E+04  0.25500000920E-02 0. -1.
        2   -1    0    0  501    0  0.00000000000E+00  0.00000000000E+00 -0.12910836734E+04  0.12910836735E+04  0.25500000920E-02 0.  1.
    10030    2    1    2    0    0  0.00000000000E+00  0.00000000000E+00  0.83437999106E+03  0.34165473380E+04  0.33130960963E+04 0.  0.
        3    1    3    3  502    0  0.51829221811E+03  0.11544561383E+04  0.15195668695E+04  0.19774931808E+04  0.10100000352E+00 0. -1.
       -3    1    3    3    0  502 -0.51829221811E+03 -0.11544561383E+04 -0.68518687849E+03  0.14390541572E+04  0.10100000352E+00 0.  1.
</event>
<event>
 5   0  0.2037333E-07  0.3288846E+04  0.7818609E-02  0.8165739E-01
       -1   -1    0    0    0  501  0.00000000000E+00  0.00000000000E+00  0.10234539841E+04  0.10234539841E+04  0.50400001928E-02 0.  1.
        1   -1    0    0  501    0  0.00000000000E+00  0.00000000000E+00 -0.26421578394E+04  0.26421578394E+04  0.50400001928E-02 0. -1.
    10030    2    1    2    0    0  0.00000000000E+00  0.00000000000E+00 -0.16187038553E+04  0.36656118235E+04  0.32888459784E+04 0.  0.
        3    1    3    3  502    0  0.29003898131E+03  0.89843844098E+02  0.99193918484E+03  0.10373706587E+04  0.10100000352E+00 0.  1.
       -3    1    3    3    0  502 -0.29003898131E+03 -0.89843844098E+02 -0.26106430401E+04  0.26282411648E+04  0.10100000352E+00 0. -1.
</event>
<event>
 5   0  0.6426079E-07  0.3315855E+04  0.7818609E-02  0.8158873E-01
       -2   -1    0    0    0  501  0.00000000000E+00  0.00000000000E+00  0.20379781887E+04  0.20379781887E+04  0.25500000920E-02 0.  1.
        2   -1    0    0  501    0  0.00000000000E+00  0.00000000000E+00 -0.13487500596E+04  0.13487500596E+04  0.25500000920E-02 0. -1.
    10030    2    1    2    0    0  0.00000000000E+00  0.00000000000E+00  0.68922812906E+03  0.33867282483E+04  0.33158547637E+04 0.  0.
        4    1    3    3  502    0  0.10288407243E+04 -0.11886854331E+04 -0.19317146318E+03  0.15839201753E+04  0.12699999809E+01 0. -1.
       -4    1    3    3    0  502 -0.10288407243E+04  0.11886854331E+04  0.88239959224E+03  0.18028080730E+04  0.12699999809E+01 0.  1.
</event>
<event>
 5   0  0.6351753E-07  0.3305739E+04  0.7818609E-02  0.8161437E-01
       -2   -1    0    0    0  501  0.00000000000E+00  0.00000000000E+00  0.15636164644E+04  0.15636164644E+04  0.25500000920E-02 0.  1.
        2   -1    0    0  501    0  0.00000000000E+00  0.00000000000E+00 -0.17472176715E+04  0.17472176715E+04  0.25500000920E-02 0. -1.
    10030    2    1    2    0    0  0.00000000000E+00  0.00000000000E+00 -0.18360120712E+03  0.33108341359E+04  0.33057394441E+04 0.  0.
        3    1    3    3  502    0 -0.37493829691E+03  0.85175177468E+03 -0.14598920867E+04  0.17312841267E+04  0.10100000352E+00 0. -1.
       -3    1    3    3    0  502  0.37493829691E+03 -0.85175177468E+03  0.12762908796E+04  0.15795500093E+04  0.10100000352E+00 0.  1.
</event>
<event>
 5   0  0.6424183E-07  0.3256593E+04  0.7818609E-02  0.8174029E-01
        2   -1    0    0  501    0  0.00000000000E+00  0.00000000000E+00  0.14772595563E+04  0.14772595563E+04  0.25500000920E-02 0. -1.
       -2   -1    0    0    0  501  0.00000000000E+00  0.00000000000E+00 -0.17947754179E+04  0.17947754179E+04  0.25500000920E-02 0.  1.
    10030    2    1    2    0    0  0.00000000000E+00  0.00000000000E+00 -0.31751586156E+03  0.32720349742E+04  0.32565927823E+04 0.  0.
        2    1    3    3  502    0 -0.58694823110E+03 -0.10291083937E+04  0.96357818622E+03  0.15271068178E+04  0.25500000920E-02 0. -1.
       -2    1    3    3    0  502  0.58694823110E+03  0.10291083937E+04 -0.12810940478E+04  0.17449281564E+04  0.25500000920E-02 0.  1.
</event>
<event>
 5   0  0.2087665E-07  0.3299871E+04  0.7818609E-02  0.8162928E-01
        1   -1    0    0  501    0  0.00000000000E+00  0.00000000000E+00  0.21652324715E+04  0.21652324715E+04  0.50400001928E-02 0.  1.
       -1   -1    0    0    0  501  0.00000000000E+00  0.00000000000E+00 -0.12572727813E+04  0.12572727813E+04  0.50400001928E-02 0. -1.
    10030    2    1    2    0    0  0.00000000000E+00  0.00000000000E+00  0.90795969023E+03  0.34225052528E+04  0.32998714227E+04 0.  0.
        5    1    3    3  502    0 -0.80409047935E+03  0.56090555182E+03  0.18303580441E+04  0.20763933145E+04  0.46999998093E+01 0.  1.
       -5    1    3    3    0  502  0.80409047935E+03 -0.56090555182E+03 -0.92239835387E+03  0.13461119382E+04  0.46999998093E+01 0. -1.
</event>
<event>
 5   0  0.2080828E-07  0.3253693E+04  0.7818609E-02  0.8174779E-01
       -1   -1    0    0    0  501  0.00000000000E+00  0.00000000000E+00  0.25842516064E+04  0.25842516064E+04  0.50400001928E-02 0.  1.
        1   -1    0    0  501    0  0.00000000000E+00  0.00000000000E+00 -0.10241377668E+04  0.10241377669E+04  0.50400001928E-02 0. -1.
    10030    2    1    2    0    0  0.00000000000E+00  0.00000000000E+00  0.15601138396E+04  0.36083893733E+04  0.32536930828E+04 0.  0.
        1    1    3    3  502    0 -0.96170471582E+03 -0.16383947686E+03 -0.66375351092E+03  0.11799525659E+04  0.50400001928E-02 0. -1.
       -1    1    3    3    0  502  0.96170471582E+03  0.16383947686E+03  0.22238673505E+04  0.24284368073E+04  0.50400001928E-02 0.  1.
</event>
<event>
 5   0  0.6377741E-07  0.3299611E+04  0.7818609E-02  0.8162994E-01
        2   -1    0    0  501    0  0.00000000000E+00  0.00000000000E+00  0.17359548051E+04  0.17359548051E+04  0.25500000920E-02 0.  1.
       -2   -1    0    0    0  501  0.00000000000E+00  0.00000000000E+00 -0.15679316766E+04  0.15679316766E+04  0.25500000920E-02 0. -1.
    10030    2    1    2    0    0  0.00000000000E+00  0.00000000000E+00  0.16802312856E+03  0.33038864817E+04  0.32996112062E+04 0.  0.
        1    1    3    3  502    0 -0.26343661179E+03 -0.13174555490E+04 -0.87471039602E+03  0.16031862802E+04  0.50400001928E-02 0. -1.
       -1    1    3    3    0  502  0.26343661179E+03  0.13174555490E+04  0.10427335246E+04  0.17007002015E+04  0.50400001928E-02 0.  1.
</event>
<event>
 5   0  0.6426079E-07  0.3299580E+04  0.7818609E-02  0.8163002E-01
        2   -1    0    0  501    0  0.00000000000E+00  0.00000000000E+00  0.18229369921E+04  0.18229369921E+04  0.25500000920E-02 0.  1.
       -2   -1    0    0    0  501  0.00000000000E+00  0.00000000000E+00 -0.14930887095E+04  0.14930887095E+04  0.25500000920E-02 0. -1.
    10030    2    1    2    0    0  0.00000000000E+00  0.00000000000E+00  0.32984828259E+03  0.33160257016E+04  0.32995797557E+04 0.  0.
        4    1    3    3  502    0  0.82683810724E+03 -0.14000031946E+04  0.44584344720E+03  0.16859561657E+04  0.12699999809E+01 0.  1.
       -4    1    3    3    0  502 -0.82683810724E+03  0.14000031946E+04 -0.11599516461E+03  0.16300695358E+04  0.12699999809E+01 0. -1.
</event>
<event>
 5   0  0.2057130E-07  0.3306683E+04  0.7818609E-02  0.8161197E-01
        1   -1    0    0  501    0  0.00000000000E+00  0.00000000000E+00  0.26727147399E+04  0.26727147399E+04  0.50400001928E-02 0.  1.
       -1   -1    0    0    0  501  0.00000000000E+00  0.00000000000E+00 -0.10227572520E+04  0.10227572520E+04  0.50400001928E-02 0. -1.
    10030    2    1    2    0    0  0.00000000000E+00  0.00000000000E+00  0.16499574879E+04  0.36954719919E+04  0.33066831615E+04 0.  0.
        2    1    3    3  502    0  0.15006202712E+04 -0.37557363744E+03  0.17272971553E+03  0.15565192932E+04  0.25500000920E-02 0. -1.
       -2    1    3    3    0  502 -0.15006202712E+04  0.37557363744E+03  0.14772277723E+04  0.21389526986E+04  0.25500000920E-02 0.  1.
</event>
<event>
 5   0  0.6351753E-07  0.3297330E+04  0.7818609E-02  0.8163575E-01
        2   -1    0    0  501    0  0.00000000000E+00  0.00000000000E+00  0.24607223875E+04  0.24607223875E+04  0.25500000920E-02 0.  1.
       -2   -1    0    0    0  501  0.00000000000E+00  0.00000000000E+00 -0.11045926078E+04  0.11045926078E+04  0.25500000920E-02 0. -1.
    10030    2    1    2    0    0  0.00000000000E+00  0.00000000000E+00  0.13561297797E+04  0.35653149953E+04  0.32973296827E+04 0.  0.
        3    1    3    3  502    0  0.14267544211E+04 -0.47918009536E+03  0.14057016661E+04  0.20594268441E+04  0.10100000352E+00 0.  1.
       -3    1    3    3    0  502 -0.14267544211E+04  0.47918009536E+03 -0.49571886352E+02  0.15058881513E+04  0.10100000352E+00 0. -1.
</event>
<event>
 5   0  0.6426079E-07  0.3310546E+04  0.7818609E-02  0.8160217E-01
       -2   -1    0    0    0  501  0.00000000000E+00  0.00000000000E+00  0.19136666553E+04  0.19136666553E+04  0.25500000920E-02 0.  1.
        2   -1    0    0  501    0  0.00000000000E+00  0.00000000000E+00 -0.14317686691E+04  0.14317686691E+04  0.25500000920E-02 0. -1.
    10030    2    1    2    0    0  0.00000000000E+00  0.00000000000E+00  0.48189798627E+03  0.33454353244E+04  0.33105455503E+04 0.  0.
        4    1    3    3  502    0  0.13408040588E+04  0.78113930133E+03 -0.34131109327E+03  0.15888451805E+04  0.12699999809E+01 0.  1.
       -4    1    3    3    0  502 -0.13408040588E+04 -0.78113930133E+03  0.82320907953E+03  0.17565901439E+04  0.12699999809E+01 0. -1.
</event>
<event>
 5   0  0.2087665E-07  0.3375149E+04  0.7818609E-02  0.8144033E-01
        1   -1    0    0  501    0  0.00000000000E+00  0.00000000000E+00  0.23614391706E+04  0.23614391706E+04  0.50400001928E-02 0. -1.
       -1   -1    0    0    0  501  0.00000000000E+00  0.00000000000E+00 -0.12060048444E+04  0.12060048444E+04  0.50400001928E-02 0.  1.
    10030    2    1    2    0    0  0.00000000000E+00  0.00000000000E+00  0.11554343261E+04  0.35674440150E+04  0.33751486364E+04 0.  0.
        5    1    3    3  502    0 -0.73454125668E+03  0.53232776993E+03  0.20818030091E+04  0.22708697829E+04  0.46999998093E+01 0. -1.
       -5    1    3    3    0  502  0.73454125668E+03 -0.53232776993E+03 -0.92636868295E+03  0.12965742320E+04  0.46999998093E+01 0.  1.
</event>
<event>
 5   0  0.2057130E-07  0.3325347E+04  0.7818609E-02  0.8156476E-01
       -1   -1    0    0    0  501  0.00000000000E+00  0.00000000000E+00  0.16647465060E+04  0.16647465060E+04  0.50400001928E-02 0. -1.
        1   -1    0    0  501    0  0.00000000000E+00  0.00000000000E+00 -0.16606034393E+04  0.16606034393E+04  0.50400001928E-02 0.  1.
    10030    2    1    2    0    0  0.00000000000E+00  0.00000000000E+00  0.41430666723E+01  0.33253499453E+04  0.33253473643E+04 0.  0.
        2    1    3    3  502    0 -0.34112267255E+03  0.15349025013E+04  0.54262112477E+03  0.16633484455E+04  0.25500000920E-02 0.  1.
       -2    1    3    3    0  502  0.34112267255E+03 -0.15349025013E+04 -0.53847805810E+03  0.16620014998E+04  0.25500000920E-02 0. -1.
</event>
<event>
 5   0  0.6426079E-07  0.3290804E+04  0.7818609E-02  0.8165239E-01
        2   -1    0    0  501    0  0.00000000000E+00  0.00000000000E+00  0.24652044493E+04  0.24652044493E+04  0.25500000920E-02 0. -1.
       -2   -1    0    0    0  501  0.00000000000E+00  0.00000000000E+00 -0.10982247375E+04  0.10982247375E+04  0.25500000920E-02 0.  1.
    10030    2    1    2    0    0  0.00000000000E+00  0.00000000000E+00  0.13669797118E+04  0.35634291869E+04  0.32908044666E+04 0.  0.
        4    1    3    3  502    0 -0.54638097886E+03 -0.15013625495E+04  0.11094280696E+04  0.19451102626E+04  0.12699999809E+01 0. -1.
       -4    1    3    3    0  502  0.54638097886E+03  0.15013625495E+04  0.25755164213E+03  0.16183189242E+04  0.12699999809E+01 0.  1.
</event>
<event>
 5   0  0.6351753E-07  0.3302672E+04  0.7818609E-02  0.8162216E-01
       -2   -1    0    0    0  501  0.00000000000E+00  0.00000000000E+00  0.17694169961E+04  0.17694169961E+04  0.25500000920E-02 0. -1.
        2   -1    0    0  501    0  0.00000000000E+00  0.00000000000E+00 -0.15411352425E+04  0.15411352425E+04  0.25500000920E-02 0.  1.
    10030    2    1    2    0    0  0.00000000000E+00  0.00000000000E+00  0.22828175358E+03  0.33105522387E+04  0.33026721857E+04 0.  0.
        3    1    3    3  502    0 -0.41737749921E+03  0.93710196144E+03 -0.11829894806E+04  0.15658314674E+04  0.10100000352E+00 0.  1.
       -3    1    3    3    0  502  0.41737749921E+03 -0.93710196144E+03  0.14112712342E+04  0.17447207712E+04  0.10100000352E+00 0. -1.
</event>
<event>
 5   0  0.6424183E-07  0.3286656E+04  0.7818609E-02  0.8166299E-01
       -2   -1    0    0    0  501  0.00000000000E+00  0.00000000000E+00  0.11926762929E+04  0.11926762929E+04  0.25500000920E-02 0.  1.
        2   -1    0    0  501    0  0.00000000000E+00  0.00000000000E+00 -0.22642585126E+04  0.22642585126E+04  0.25500000920E-02 0. -1.
    10030    2    1    2    0    0  0.00000000000E+00  0.00000000000E+00 -0.10715822197E+04  0.34569348054E+04  0.32866563245E+04 0.  0.
        2    1    3    3  502    0 -0.13133123241E+04 -0.92495658095E+03 -0.90044210864E+03  0.18415020848E+04  0.25500000920E-02 0. -1.
       -2    1    3    3    0  502  0.13133123241E+04  0.92495658095E+03 -0.17114011106E+03  0.16154327206E+04  0.25500000920E-02 0.  1.
</event>
<event>
 5   0  0.6426079E-07  0.3284644E+04  0.7818609E-02  0.8166814E-01
       -2   -1    0    0    0  501  0.00000000000E+00  0.00000000000E+00  0.11667656686E+04  0.11667656686E+04  0.25500000920E-02 0. -1.
        2   -1    0    0  501    0  0.00000000000E+00  0.00000000000E+00 -0.23117080580E+04  0.23117080580E+04  0.25500000920E-02 0.  1.
    10030    2    1    2    0    0  0.00000000000E+00  0.00000000000E+00 -0.11449423894E+04  0.34784737265E+04  0.32846440281E+04 0.  0.
        4    1    3    3  502    0 -0.14801937256E+03  0.13445097361E+04  0.41394716081E+03  0.14145564782E+04  0.12699999809E+01 0.  1.
       -4    1    3    3    0  502  0.14801937256E+03 -0.13445097361E+04 -0.15588895502E+04  0.20639172483E+04  0.12699999809E+01 0. -1.
</event>
<event>
 5   0  0.2080828E-07  0.3302258E+04  0.7818609E-02  0.8162321E-01
       -1   -1    0    0    0  501  0.00000000000E+00  0.00000000000E+00  0.16793130136E+04  0.16793130136E+04  0.50400001928E-02 0. -1.
        1   -1    0    0  501    0  0.00000000000E+00  0.00000000000E+00 -0.16234176553E+04  0.16234176553E+04  0.50400001928E-02 0.  1.
    10030    2    1    2    0    0  0.00000000000E+00  0.00000000000E+00  0.55895358340E+02  0.33027306690E+04  0.33022576490E+04 0.  0.
        1    1    3    3  502    0 -0.95038782135E+03 -0.61225675975E+03  0.12315032195E+04  0.16717342882E+04  0.50400001928E-02 0. -1.
       -1    1    3    3    0  502  0.95038782135E+03  0.61225675975E+03 -0.11756078611E+04  0.16309963807E+04  0.50400001928E-02 0.  1.
</event>
<event>
 5   0  0.6424183E-07  0.3291345E+04  0.7818609E-02  0.8165101E-01
        2   -1    0    0  501    0  0.00000000000E+00  0.00000000000E+00  0.25492124288E+04  0.25492124288E+04  0.25500000920E-02 0. -1.
       -2   -1    0    0    0  501  0.00000000000E+00  0.00000000000E+00 -0.10623819345E+04  0.10623819345E+04  0.25500000920E-02 0.  1.
    10030    2    1    2    0    0  0.00000000000E+00  0.00000000000E+00  0.14868304943E+04  0.36115943632E+04  0.32913445468E+04 0.  0.
        2    1    3    3  502    0  0.12948051109E+04 -0.76053784055E+03  0.14822002499E+04  0.21099420994E+04  0.25500000920E-02 0.  1.
       -2    1    3    3    0  502 -0.12948051109E+04  0.76053784055E+03  0.46302443849E+01  0.15016522638E+04  0.25500000920E-02 0. -1.
</event>
<event>
 5   0  0.2087665E-07  0.3300693E+04  0.7818609E-02  0.8162719E-01
       -1   -1    0    0    0  501  0.00000000000E+00  0.00000000000E+00  0.20219956505E+04  0.20219956505E+04  0.50400001928E-02 0. -1.
        1   -1    0    0  501    0  0.00000000000E+00  0.00000000000E+00 -0.13470076061E+04  0.13470076061E+04  0.50400001928E-02 0.  1.
    10030    2    1    2    0    0  0.00000000000E+00  0.00000000000E+00  0.67498804444E+03  0.33690032566E+04  0.33006929701E+04 0.  0.
        5    1    3    3  502    0  0.15866622519E+03 -0.87376411048E+03 -0.10823310802E+04  0.14000361956E+04  0.46999998093E+01 0.  1.
       -5    1    3    3    0  502 -0.15866622519E+03  0.87376411048E+03  0.17573191246E+04  0.19689670610E+04  0.46999998093E+01 0. -1.
</event>
<event>
 5   0  0.2037333E-07  0.3307688E+04  0.7818609E-02  0.8160942E-01
        1   -1    0    0  501    0  0.00000000000E+00  0.00000000000E+00  0.13198130984E+04  0.13198130984E+04  0.50400001928E-02 0. -1.
       -1   -1    0    0    0  501  0.00000000000E+00  0.00000000000E+00 -0.20724145998E+04  0.20724145998E+04  0.50400001928E-02 0.  1.
    10030    2    1    2    0    0  0.00000000000E+00  0.00000000000E+00 -0.75260150137E+03  0.33922276982E+04  0.33076879745E+04 0.  0.
        3    1    3    3  502    0  0.88097274396E+03 -0.83098617972E+03 -0.15313860885E+04  0.19523817169E+04  0.10100000352E+00 0.  1.
       -3    1    3    3    0  502 -0.88097274396E+03  0.83098617972E+03  0.77878458709E+03  0.14398459813E+04  0.10100000352E+00 0. -1.
</event>
<event>
 5   0  0.1994250E-07  0.3304724E+04  0.7818609E-02  0.8161695E-01
       -4   -1    0    0    0  501  0.00000000000E+00  0.00000000000E+00  0.17586948445E+04  0.17586953030E+04  0.12699999809E+01 0.  1.
        4   -1    0    0  501    0  0.00000000000E+00  0.00000000000E+00 -0.15524568511E+04  0.15524573705E+04  0.12699999809E+01 0. -1.
    10030    2    1    2    0    0  0.00000000000E+00  0.00000000000E+00  0.20623799339E+03  0.33111526736E+04  0.33047235766E+04 0.  0.
        4    1    3    3  502    0  0.13005463443E+04  0.34471712612E+03  0.10641759285E+04  0.17154365947E+04  0.12699999809E+01 0.  1.
       -4    1    3    3    0  502 -0.13005463443E+04 -0.34471712612E+03 -0.85793793512E+03  0.15957160788E+04  0.12699999809E+01 0. -1.
</event>
<event>
 5   0  0.2087665E-07  0.3295543E+04  0.7818609E-02  0.8164030E-01
       -1   -1    0    0    0  501  0.00000000000E+00  0.00000000000E+00  0.13208794109E+04  0.13208794109E+04  0.50400001928E-02 0.  1.
        1   -1    0    0  501    0  0.00000000000E+00  0.00000000000E+00 -0.20555634039E+04  0.20555634039E+04  0.50400001928E-02 0. -1.
    10030    2    1    2    0    0  0.00000000000E+00  0.00000000000E+00 -0.73468399296E+03  0.33764428148E+04  0.32955432803E+04 0.  0.
        5    1    3    3  502    0  0.15459613109E+04  0.27935234808E+03  0.14194726022E+03  0.15774045847E+04  0.46999998093E+01 0.  1.
       -5    1    3    3    0  502 -0.15459613109E+04 -0.27935234808E+03 -0.87663125318E+03  0.17990382301E+04  0.46999998093E+01 0. -1.
</event>
<event>
 5   0  0.6351753E-07  0.3286268E+04  0.7818609E-02  0.8166398E-01
       -2   -1    0    0    0  501  0.00000000000E+00  0.00000000000E+00  0.14055984122E+04  0.14055984122E+04  0.25500000920E-02 0.  1.
        2   -1    0    0  501    0  0.00000000000E+00  0.00000000000E+00 -0.19208113349E+04  0.19208113349E+04  0.25500000920E-02 0. -1.
    10030    2    1    2    0    0  0.00000000000E+00  0.00000000000E+00 -0.51521292273E+03  0.33264097471E+04  0.32862680125E+04 0.  0.
        3    1    3    3  502    0  0.10628439760E+04  0.50260497290E+03 -0.14195130000E+04  0.18431674486E+04  0.10100000352E+00 0. -1.
       -3    1    3    3    0  502 -0.10628439760E+04 -0.50260497290E+03  0.90430007730E+03  0.14832422985E+04  0.10100000352E+00 0.  1.
</event>
<event>
 5   0  0.2080828E-07  0.3302394E+04  0.7818609E-02  0.8162286E-01
        1   -1    0    0  501    0  0.00000000000E+00  0.00000000000E+00  0.16871787023E+04  0.16871787023E+04  0.50400001928E-02 0.  1.
       -1   -1    0    0    0  501  0.00000000000E+00  0.00000000000E+00 -0.16159827294E+04  0.16159827294E+04  0.50400001928E-02 0. -1.
    10030    2    1    2    0    0  0.00000000000E+00  0.00000000000E+00  0.71195972855E+02  0.33031614317E+04  0.33023940675E+04 0.  0.
        1    1    3    3  502    0  0.70184944863E+03 -0.37236652639E+03  0.14834156498E+04  0.16827868162E+04  0.50400001928E-02 0.  1.
       -1    1    3    3    0  502 -0.70184944863E+03  0.37236652639E+03 -0.14122196770E+04  0.16203746155E+04  0.50400001928E-02 0. -1.
</event>
<event>
 5   0  0.2087665E-07  0.3311606E+04  0.7818609E-02  0.8159949E-01
       -1   -1    0    0    0  501  0.00000000000E+00  0.00000000000E+00  0.11432961818E+04  0.11432961818E+04  0.50400001928E-02 0.  1.
        1   -1    0    0  501    0  0.00000000000E+00  0.00000000000E+00 -0.23980518176E+04  0.23980518176E+04  0.50400001928E-02 0. -1.
    10030    2    1    2    0    0  0.00000000000E+00  0.00000000000E+00 -0.12547556358E+04  0.35413479995E+04  0.33116059469E+04 0.  0.
        5    1    3    3  502    0 -0.14682958823E+04  0.71956278477E+03 -0.90623254725E+03  0.18694766430E+04  0.46999998093E+01 0. -1.
       -5    1    3    3    0  502  0.14682958823E+04 -0.71956278477E+03 -0.34852308860E+03  0.16718713564E+04  0.46999998093E+01 0.  1.
</event>
<event>
 5   0  0.6351753E-07  0.3298207E+04  0.7818609E-02  0.8163352E-01
       -2   -1    0    0    0  501  0.00000000000E+00  0.00000000000E+00  0.10240675166E+04  0.10240675166E+04  0.25500000920E-02 0.  1.
        2   -1    0    0  501    0  0.00000000000E+00  0.00000000000E+00 -0.26556273075E+04  0.26556273075E+04  0.25500000920E-02 0. -1.
    10030    2    1    2    0    0  0.00000000000E+00  0.00000000000E+00 -0.16315597909E+04  0.36796948241E+04  0.32982065804E+04 0.  0.
        3    1    3    3  502    0  0.44341858588E+03 -0.90180169372E+03  0.64300335650E+03  0.11930296156E+04  0.10100000352E+00 0.  1.
       -3    1    3    3    0  502 -0.44341858588E+03  0.90180169372E+03 -0.22745631474E+04  0.24866652084E+04  0.10100000352E+00 0. -1.
</event>
<event>
 5   0  0.6258718E-07  0.3286575E+04  0.7818609E-02  0.8166320E-01
       -2   -1    0    0    0  501  0.00000000000E+00  0.00000000000E+00  0.10273948105E+04  0.10273948105E+04  0.25500000920E-02 0. -1.
        2   -1    0    0  501    0  0.00000000000E+00  0.00000000000E+00 -0.26283888552E+04  0.26283888552E+04  0.25500000920E-02 0.  1.
    10030    2    1    2    0    0  0.00000000000E+00  0.00000000000E+00 -0.16009940446E+04  0.36557836657E+04  0.32865745510E+04 0.  0.
        5    1    3    3  502    0  0.74627116277E+03  0.11360370367E+04  0.22675845504E+03  0.13780211479E+04  0.46999998093E+01 0. -1.
       -5    1    3    3    0  502 -0.74627116277E+03 -0.11360370367E+04 -0.18277524997E+04  0.22777625178E+04  0.46999998093E+01 0.  1.
</event>
<event>
 5   0  0.6258718E-07  0.3308037E+04  0.7818609E-02  0.8160853E-01
       -2   -1    0    0    0  501  0.00000000000E+00  0.00000000000E+00  0.30387861114E+04  0.30387861114E+04  0.25500000920E-02 0. -1.
        2   -1    0    0  501    0  0.00000000000E+00  0.00000000000E+00 -0.90028645367E+03  0.90028645367E+03  0.25500000920E-02 0.  1.
    10030    2    1    2    0    0  0.00000000000E+00  0.00000000000E+00  0.21384996577E+04  0.39390725650E+04  0.33080374675E+04 0.  0.
        5    1    3    3  502    0 -0.11133823871E+04  0.70067093757E+03  0.22630974261E+04  0.26176692214E+04  0.46999998093E+01 0. -1.
       -5    1    3    3    0  502  0.11133823871E+04 -0.70067093757E+03 -0.12459776836E+03  0.13214033437E+04  0.46999998093E+01 0.  1.
</event>
<event>
 5   0  0.2080770E-07  0.3308856E+04  0.7818609E-02  0.8160646E-01
        1   -1    0    0  501    0  0.00000000000E+00  0.00000000000E+00  0.15836476642E+04  0.15836476642E+04  0.50400001928E-02 0. -1.
       -1   -1    0    0    0  501  0.00000000000E+00  0.00000000000E+00 -0.17283719713E+04  0.17283719714E+04  0.50400001928E-02 0.  1.
    10030    2    1    2    0    0  0.00000000000E+00  0.00000000000E+00 -0.14472430717E+03  0.33120196355E+04  0.33088561379E+04 0.  0.
        4    1    3    3  502    0  0.81146152000E+03 -0.91236187699E+03  0.10450638106E+04  0.16071819978E+04  0.12699999809E+01 0. -1.
       -4    1    3    3    0  502 -0.81146152000E+03  0.91236187699E+03 -0.11897881177E+04  0.17048376377E+04  0.12699999809E+01 0.  1.
</event>
<event>
 5   0  0.1994250E-07  0.3261986E+04  0.7818609E-02  0.8172636E-01
        3   -1    0    0  501    0  0.00000000000E+00  0.00000000000E+00  0.32507182778E+04  0.32507182794E+04  0.10100000352E+00 0. -1.
       -3   -1    0    0    0  501  0.00000000000E+00  0.00000000000E+00 -0.81832343251E+03  0.81832343874E+03  0.10100000352E+00 0.  1.
    10030    2    1    2    0    0  0.00000000000E+00  0.00000000000E+00  0.24323948453E+04  0.40690417181E+04  0.32619864838E+04 0.  0.
        3    1    3    3  502    0 -0.57119484683E+03 -0.11667589488E+04 -0.13974241880E+02  0.12991479081E+04  0.10100000352E+00 0.  1.
       -3    1    3    3    0  502  0.57119484683E+03  0.11667589488E+04  0.24463690872E+04  0.27698938100E+04  0.10100000352E+00 0. -1.
</event>
<event>
 5   0  0.2080770E-07  0.3282200E+04  0.7818609E-02  0.8167439E-01
       -1   -1    0    0    0  501  0.00000000000E+00  0.00000000000E+00  0.14251873351E+04  0.14251873351E+04  0.50400001928E-02 0. -1.
        1   -1    0    0  501    0  0.00000000000E+00  0.00000000000E+00 -0.18897229131E+04  0.18897229131E+04  0.50400001928E-02 0.  1.
    10030    2    1    2    0    0  0.00000000000E+00  0.00000000000E+00 -0.46453557800E+03  0.33149102482E+04  0.32821999711E+04 0.  0.
        4    1    3    3  502    0  0.19713781661E+03  0.81739879243E+02 -0.18756480856E+04  0.18877505345E+04  0.12699999809E+01 0.  1.
       -4    1    3    3    0  502 -0.19713781661E+03 -0.81739879243E+02  0.14111125076E+04  0.14271597137E+04  0.12699999809E+01 0. -1.
</event>
<event>
 5   0  0.2037333E-07  0.3290839E+04  0.7818609E-02  0.8165230E-01
        1   -1    0    0  501    0  0.00000000000E+00  0.00000000000E+00  0.20349184177E+04  0.20349184177E+04  0.50400001928E-02 0.  1.
       -1   -1    0    0    0  501  0.00000000000E+00  0.00000000000E+00 -0.13304735945E+04  0.13304735945E+04  0.50400001928E-02 0. -1.
    10030    2    1    2    0    0  0.00000000000E+00  0.00000000000E+00  0.70444482318E+03  0.33653920122E+04  0.32908389336E+04 0.  0.
        3    1    3    3  502    0  0.12395482561E+04 -0.89572797886E+02 -0.75058734634E+03  0.14518555506E+04  0.10100000352E+00 0. -1.
       -3    1    3    3    0  502 -0.12395482561E+04  0.89572797886E+02  0.14550321695E+04  0.19135364616E+04  0.10100000352E+00 0.  1.
</event>
<event>
 5   0  0.2080828E-07  0.3291865E+04  0.7818609E-02  0.8164969E-01
        1   -1    0    0  501    0  0.00000000000E+00  0.00000000000E+00  0.17467750885E+04  0.17467750885E+04  0.50400001928E-02 0. -1.
       -1   -1    0    0    0  501  0.00000000000E+00  0.00000000000E+00 -0.15509113255E+04  0.15509113255E+04  0.50400001928E-02 0.  1.
    10030    2    1    2    0    0  0.00000000000E+00  0.00000000000E+00  0.19586376305E+03  0.32976864140E+04  0.32918646800E+04 0.  0.
        1    1    3    3  502    0 -0.73931653509E+03  0.69443892087E+03 -0.12006085752E+04  0.15717173107E+04  0.50400001928E-02 0.  1.
       -1    1    3    3    0  502  0.73931653509E+03 -0.69443892087E+03  0.13964723383E+04  0.17259691033E+04  0.50400001928E-02 0. -1.
</event>
<event>
 5   0  0.6258718E-07  0.3303430E+04  0.7818609E-02  0.8162023E-01
       -2   -1    0    0    0  501  0.00000000000E+00  0.00000000000E+00  0.10389278866E+04  0.10389278866E+04  0.25500000920E-02 0.  1.
        2   -1    0    0  501    0  0.00000000000E+00  0.00000000000E+00 -0.26259397600E+04  0.26259397600E+04  0.25500000920E-02 0. -1.
    10030    2    1    2    0    0  0.00000000000E+00  0.00000000000E+00 -0.15870118734E+04  0.36648676466E+04  0.33034297602E+04 0.  0.
        5    1    3    3  502    0  0.76292428133E+03 -0.64225072436E+03 -0.22542284751E+04  0.24649761783E+04  0.46999998093E+01 0. -1.
       -5    1    3    3    0  502 -0.76292428133E+03  0.64225072436E+03  0.66721660171E+03  0.11998914683E+04  0.46999998093E+01 0.  1.
</event>
<event>
 5   0  0.6258718E-07  0.3305995E+04  0.7818609E-02  0.8161372E-01
       -2   -1    0    0    0  501  0.00000000000E+00  0.00000000000E+00  0.10708477356E+04  0.10708477356E+04  0.25500000920E-02 0. -1.
        2   -1    0    0  501    0  0.00000000000E+00  0.00000000000E+00 -0.25516234317E+04  0.25516234317E+04  0.25500000920E-02 0.  1.
    10030    2    1    2    0    0  0.00000000000E+00  0.00000000000E+00 -0.14807756962E+04  0.36224711673E+04  0.33059946606E+04 0.  0.
        5    1    3    3  502    0  0.11352314425E+03  0.10024716098E+04 -0.21751395840E+04  0.23977262422E+04  0.46999998093E+01 0.  1.
       -5    1    3    3    0  502 -0.11352314425E+03 -0.10024716098E+04  0.69436388785E+03  0.12247449251E+04  0.46999998093E+01 0. -1.
</event>
<event>
 5   0  0.1994250E-07  0.3295153E+04  0.7818609E-02  0.8164130E-01
       -4   -1    0    0    0  501  0.00000000000E+00  0.00000000000E+00  0.14870373393E+04  0.14870378816E+04  0.12699999809E+01 0.  1.
        4   -1    0    0  501    0  0.00000000000E+00  0.00000000000E+00 -0.18254462922E+04  0.18254467340E+04  0.12699999809E+01 0. -1.
    10030    2    1    2    0    0  0.00000000000E+00  0.00000000000E+00 -0.33840895287E+03  0.33124846156E+04  0.32951530631E+04 0.  0.
        5    1    3    3  502    0  0.17156577118E+03  0.13906184890E+04 -0.10404995170E+04  0.17452552623E+04  0.46999998093E+01 0. -1.
       -5    1    3    3    0  502 -0.17156577118E+03 -0.13906184890E+04  0.70209056411E+03  0.15672293533E+04  0.46999998093E+01 0.  1.
</event>
<event>
 5   0  0.2080828E-07  0.3316359E+04  0.7818609E-02  0.8158745E-01
       -1   -1    0    0    0  501  0.00000000000E+00  0.00000000000E+00  0.16699609386E+04  0.16699609386E+04  0.50400001928E-02 0. -1.
        1   -1    0    0  501    0  0.00000000000E+00  0.00000000000E+00 -0.16464815777E+04  0.16464815777E+04  0.50400001928E-02 0.  1.
    10030    2    1    2    0    0  0.00000000000E+00  0.00000000000E+00  0.23479360870E+02  0.33164425164E+04  0.33163594021E+04 0.  0.
        1    1    3    3  502    0  0.75556001799E+03  0.18890135266E+03  0.14756770685E+04  0.16685854705E+04  0.50400001928E-02 0. -1.
       -1    1    3    3    0  502 -0.75556001799E+03 -0.18890135266E+03 -0.14521977076E+04  0.16478570459E+04  0.50400001928E-02 0.  1.
</event>
<event>
 5   0  0.6377741E-07  0.3350364E+04  0.7818609E-02  0.8150197E-01
       -2   -1    0    0    0  501  0.00000000000E+00  0.00000000000E+00  0.17089194189E+04  0.17089194189E+04  0.25500000920E-02 0. -1.
        2   -1    0    0  501    0  0.00000000000E+00  0.00000000000E+00 -0.16421104674E+04  0.16421104674E+04  0.25500000920E-02 0.  1.
    10030    2    1    2    0    0  0.00000000000E+00  0.00000000000E+00  0.66808951455E+02  0.33510298863E+04  0.33503638404E+04 0.  0.
        1    1    3    3  502    0 -0.13887649434E+04 -0.54465598894E+03  0.79573461715E+03  0.16907133983E+04  0.50400001928E-02 0. -1.
       -1    1    3    3    0  502  0.13887649434E+04  0.54465598894E+03 -0.72892566569E+03  0.16603164880E+04  0.50400001928E-02 0.  1.
</event>
<event>
 5   0  0.6377741E-07  0.3315554E+04  0.7818609E-02  0.8158949E-01
       -2   -1    0    0    0  501  0.00000000000E+00  0.00000000000E+00  0.92854964622E+03  0.92854964622E+03  0.25500000920E-02 0.  1.
        2   -1    0    0  501    0  0.00000000000E+00  0.00000000000E+00 -0.29596955679E+04  0.29596955679E+04  0.25500000920E-02 0. -1.
    10030    2    1    2    0    0  0.00000000000E+00  0.00000000000E+00 -0.20311459217E+04  0.38882452141E+04  0.33155538135E+04 0.  0.
        1    1    3    3  502    0 -0.75639937612E+03 -0.13336852699E+04 -0.27631853698E+03  0.15579500471E+04  0.50400001928E-02 0.  1.
       -1    1    3    3    0  502  0.75639937612E+03  0.13336852699E+04 -0.17548273847E+04  0.23302951670E+04  0.50400001928E-02 0. -1.
</event>
<event>
 5   0  0.2037333E-07  0.3252257E+04  0.7818609E-02  0.8175151E-01
       -1   -1    0    0    0  501  0.00000000000E+00  0.00000000000E+00  0.13848904210E+04  0.13848904210E+04  0.50400001928E-02 0.  1.
        1   -1    0    0  501    0  0.00000000000E+00  0.00000000000E+00 -0.19093886174E+04  0.19093886174E+04  0.50400001928E-02 0. -1.
    10030    2    1    2    0    0  0.00000000000E+00  0.00000000000E+00 -0.52449819644E+03  0.32942790384E+04  0.32522570662E+04 0.  0.
        3    1    3    3  502    0 -0.12882261839E+04  0.92987395401E+03  0.88785674475E+02  0.15912495648E+04  0.10100000352E+00 0.  1.
       -3    1    3    3    0  502  0.12882261839E+04 -0.92987395401E+03 -0.61328387091E+03  0.17030294736E+04  0.10100000352E+00 0. -1.
</event>
<event>
 5   0  0.6426079E-07  0.3171185E+04  0.7818609E-02  0.8196469E-01
       -2   -1    0    0    0  501  0.00000000000E+00  0.00000000000E+00  0.12013324160E+04  0.12013324160E+04  0.25500000920E-02 0.  1.
        2   -1    0    0  501    0  0.00000000000E+00  0.00000000000E+00 -0.20927621158E+04  0.20927621158E+04  0.25500000920E-02 0. -1.
    10030    2    1    2    0    0  0.00000000000E+00  0.00000000000E+00 -0.89142969983E+03  0.32940945318E+04  0.31711846170E+04 0.  0.
        4    1    3    3  502    0 -0.30055987746E+03 -0.16703972669E+03 -0.20535647698E+04  0.20821547462E+04  0.12699999809E+01 0. -1.
       -4    1    3    3    0  502  0.30055987746E+03  0.16703972669E+03  0.11621350700E+04  0.12119397857E+04  0.12699999809E+01 0.  1.
</event>
<event>
 5   0  0.2057130E-07  0.3276296E+04  0.7818609E-02  0.8168953E-01
        1   -1    0    0  501    0  0.00000000000E+00  0.00000000000E+00  0.13791304054E+04  0.13791304054E+04  0.50400001928E-02 0.  1.
       -1   -1    0    0    0  501  0.00000000000E+00  0.00000000000E+00 -0.19458127450E+04  0.19458127450E+04  0.50400001928E-02 0. -1.
    10030    2    1    2    0    0  0.00000000000E+00  0.00000000000E+00 -0.56668233963E+03  0.33249431504E+04  0.32762963968E+04 0.  0.
        2    1    3    3  502    0 -0.12305451290E+04 -0.66413349379E+03 -0.11493669545E+04  0.18100715478E+04  0.25500000920E-02 0. -1.
       -2    1    3    3    0  502  0.12305451290E+04  0.66413349379E+03  0.58268461485E+03  0.15148716026E+04  0.25500000920E-02 0.  1.
</event>
<event>
 5   0  0.6424183E-07  0.3305459E+04  0.7818609E-02  0.8161508E-01
       -2   -1    0    0    0  501  0.00000000000E+00  0.00000000000E+00  0.16925928711E+04  0.16925928711E+04  0.25500000920E-02 0. -1.
        2   -1    0    0  501    0  0.00000000000E+00  0.00000000000E+00 -0.16138051470E+04  0.16138051470E+04  0.25500000920E-02 0.  1.
    10030    2    1    2    0    0  0.00000000000E+00  0.00000000000E+00  0.78787724150E+02  0.33063980181E+04  0.33054591736E+04 0.  0.
        2    1    3    3  502    0 -0.57242539820E+03 -0.10678382529E+04 -0.10850098001E+04  0.16264057418E+04  0.25500000920E-02 0.  1.
       -2    1    3    3    0  502  0.57242539820E+03  0.10678382529E+04  0.11637975242E+04  0.16799922762E+04  0.25500000920E-02 0. -1.
</event>
<event>
 5   0  0.2037333E-07  0.3301811E+04  0.7818609E-02  0.8162435E-01
       -1   -1    0    0    0  501  0.00000000000E+00  0.00000000000E+00  0.21790880416E+04  0.21790880416E+04  0.50400001928E-02 0.  1.
        1   -1    0    0  501    0  0.00000000000E+00  0.00000000000E+00 -0.12507473578E+04  0.12507473578E+04  0.50400001928E-02 0. -1.
    10030    2    1    2    0    0  0.00000000000E+00  0.00000000000E+00  0.92834068380E+03  0.34298353994E+04  0.33018107823E+04 0.  0.
        3    1    3    3  502    0 -0.70757256484E+03 -0.13576567628E+04 -0.17751780438E+03  0.15412343758E+04  0.10100000352E+00 0. -1.
       -3    1    3    3    0  502  0.70757256484E+03  0.13576567628E+04  0.11058584882E+04  0.18886010236E+04  0.10100000352E+00 0.  1.
</event>
<event>
 5   0  0.6424183E-07  0.3325850E+04  0.7818609E-02  0.8156349E-01
       -2   -1    0    0    0  501  0.00000000000E+00  0.00000000000E+00  0.19695798899E+04  0.19695798899E+04  0.25500000920E-02 0. -1.
        2   -1    0    0  501    0  0.00000000000E+00  0.00000000000E+00 -0.14040145274E+04  0.14040145274E+04  0.25500000920E-02 0.  1.
    10030    2    1    2    0    0  0.00000000000E+00  0.00000000000E+00  0.56556536252E+03  0.33735944173E+04  0.33258495325E+04 0.  0.
        2    1    3    3  502    0 -0.85951632398E+03 -0.13146915393E+04  0.83664004808E+03  0.17796484835E+04  0.25500000920E-02 0. -1.
       -2    1    3    3    0  502  0.85951632398E+03  0.13146915393E+04 -0.27107468556E+03  0.15939459338E+04  0.25500000920E-02 0.  1.
</event>
<event>
 5   0  0.6258718E-07  0.3287652E+04  0.7818609E-02  0.8166044E-01
       -2   -1    0    0    0  501  0.00000000000E+00  0.00000000000E+00  0.13065186540E+04  0.13065186540E+04  0.25500000920E-02 0.  1.
        2   -1    0    0  501    0  0.00000000000E+00  0.00000000000E+00 -0.20682170696E+04  0.20682170696E+04  0.25500000920E-02 0. -1.
    10030    2    1    2    0    0  0.00000000000E+00  0.00000000000E+00 -0.76169841564E+03  0.33747357236E+04  0.32876521604E+04 0.  0.
        5    1    3    3  502    0 -0.54115332470E+03  0.10794955349E+04 -0.15257329860E+04  0.19457751065E+04  0.46999998093E+01 0. -1.
       -5    1    3    3    0  502  0.54115332470E+03 -0.10794955349E+04  0.76403457033E+03  0.14289606171E+04  0.46999998093E+01 0.  1.
</event>
<event>
 5   0  0.6258718E-07  0.3301726E+04  0.7818609E-02  0.8162456E-01
        2   -1    0    0  501    0  0.00000000000E+00  0.00000000000E+00  0.18597310788E+04  0.18597310788E+04  0.25500000920E-02 0. -1.
       -2   -1    0    0    0  501  0.00000000000E+00  0.00000000000E+00 -0.14654527011E+04  0.14654527011E+04  0.25500000920E-02 0.  1.
    10030    2    1    2    0    0  0.00000000000E+00  0.00000000000E+00  0.39427837762E+03  0.33251837799E+04  0.33017255687E+04 0.  0.
        5    1    3    3  502    0  0.12468284705E+04  0.34647350202E+03  0.12294588419E+04  0.17849975508E+04  0.46999998093E+01 0. -1.
       -5    1    3    3    0  502 -0.12468284705E+04 -0.34647350202E+03 -0.83518046426E+03  0.15401862291E+04  0.46999998093E+01 0.  1.
</event>
<event>
 5   0  0.2057130E-07  0.3303119E+04  0.7818609E-02  0.8162102E-01
        1   -1    0    0  501    0  0.00000000000E+00  0.00000000000E+00  0.21728514854E+04  0.21728514854E+04  0.50400001928E-02 0.  1.
       -1   -1    0    0    0  501  0.00000000000E+00  0.00000000000E+00 -0.12553317973E+04  0.12553317973E+04  0.50400001928E-02 0. -1.
    10030    2    1    2    0    0  0.00000000000E+00  0.00000000000E+00  0.91751968814E+03  0.34281832827E+04  0.33031194713E+04 0.  0.
        2    1    3    3  502    0  0.80922659505E+02 -0.80234268601E+03  0.19546314044E+04  0.21144470175E+04  0.25500000920E-02 0.  1.
       -2    1    3    3    0  502 -0.80922659505E+02  0.80234268601E+03 -0.10371117162E+04  0.13137362652E+04  0.25500000920E-02 0. -1.
</event>
<event>
 5   0  0.2037333E-07  0.3304113E+04  0.7818609E-02  0.8161850E-01
        1   -1    0    0  501    0  0.00000000000E+00  0.00000000000E+00  0.13812903632E+04  0.13812903632E+04  0.50400001928E-02 0. -1.
       -1   -1    0    0    0  501  0.00000000000E+00  0.00000000000E+00 -0.19758994882E+04  0.19758994882E+04  0.50400001928E-02 0.  1.
    10030    2    1    2    0    0  0.00000000000E+00  0.00000000000E+00 -0.59460912501E+03  0.33571898513E+04  0.33041131467E+04 0.  0.
        3    1    3    3  502    0 -0.67802397605E+02 -0.16504065889E+04 -0.32695966512E+03  0.16838472931E+04  0.10100000352E+00 0.  1.
       -3    1    3    3    0  502  0.67802397605E+02  0.16504065889E+04 -0.26764945988E+03  0.16733425582E+04  0.10100000352E+00 0. -1.
</event>
<event>
 5   0  0.2037333E-07  0.3279720E+04  0.7818609E-02  0.8168075E-01
        1   -1    0    0  501    0  0.00000000000E+00  0.00000000000E+00  0.19942444552E+04  0.19942444552E+04  0.50400001928E-02 0. -1.
       -1   -1    0    0    0  501  0.00000000000E+00  0.00000000000E+00 -0.13484508896E+04  0.13484508897E+04  0.50400001928E-02 0.  1.
    10030    2    1    2    0    0  0.00000000000E+00  0.00000000000E+00  0.64579356560E+03  0.33426953449E+04  0.32797199331E+04 0.  0.
        3    1    3    3  502    0  0.37695385191E+02 -0.15011454010E+04 -0.34875794042E+03  0.15415870291E+04  0.10100000352E+00 0.  1.
       -3    1    3    3    0  502 -0.37695385191E+02  0.15011454010E+04  0.99455150601E+03  0.18011083158E+04  0.10100000352E+00 0. -1.
</event>
<event>
 5   0  0.2087665E-07  0.3279040E+04  0.7818609E-02  0.8168249E-01
       -1   -1    0    0    0  501  0.00000000000E+00  0.00000000000E+00  0.14395577898E+04  0.14395577898E+04  0.50400001928E-02 0.  1.
        1   -1    0    0  501    0  0.00000000000E+00  0.00000000000E+00 -0.18672580428E+04  0.18672580429E+04  0.50400001928E-02 0. -1.
    10030    2    1    2    0    0  0.00000000000E+00  0.00000000000E+00 -0.42770025301E+03  0.33068158327E+04  0.32790400188E+04 0.  0.
        5    1    3    3  502    0  0.72459387432E+03 -0.89515856670E+03  0.96293565552E+03  0.15012036201E+04  0.46999998093E+01 0.  1.
       -5    1    3    3    0  502 -0.72459387432E+03  0.89515856670E+03 -0.13906359085E+04  0.18056122126E+04  0.46999998093E+01 0. -1.
</event>
<event>
 5   0  0.6377741E-07  0.3307660E+04  0.7818609E-02  0.8160949E-01
        2   -1    0    0  501    0  0.00000000000E+00  0.00000000000E+00  0.23071423089E+04  0.23071423089E+04  0.25500000920E-02 0. -1.
       -2   -1    0    0    0  501  0.00000000000E+00  0.00000000000E+00 -0.11855161124E+04  0.11855161124E+04  0.25500000920E-02 0.  1.
    10030    2    1    2    0    0  0.00000000000E+00  0.00000000000E+00  0.11216261965E+04  0.34926584214E+04  0.33076604305E+04 0.  0.
        1    1    3    3  502    0  0.49914456692E+03  0.15764532533E+04  0.53086817346E+03  0.17367127501E+04  0.50400001928E-02 0. -1.
       -1    1    3    3    0  502 -0.49914456692E+03 -0.15764532533E+04  0.59075802302E+03  0.17559456713E+04  0.50400001928E-02 0.  1.
</event>
<event>
 5   0  0.2087665E-07  0.3310241E+04  0.7818609E-02  0.8160295E-01
       -1   -1    0    0    0  501  0.00000000000E+00  0.00000000000E+00  0.17346842820E+04  0.17346842820E+04  0.50400001928E-02 0. -1.
        1   -1    0    0  501    0  0.00000000000E+00  0.00000000000E+00 -0.15792057589E+04  0.15792057590E+04  0.50400001928E-02 0.  1.
    10030    2    1    2    0    0  0.00000000000E+00  0.00000000000E+00  0.15547852304E+03  0.33138900409E+04  0.33102407212E+04 0.  0.
        5    1    3    3  502    0  0.41615263371E+03 -0.14883001906E+04 -0.51551918138E+03  0.16291109809E+04  0.46999998093E+01 0.  1.
       -5    1    3    3    0  502 -0.41615263371E+03  0.14883001906E+04  0.67099770442E+03  0.16847790600E+04  0.46999998093E+01 0. -1.
</event>
<event>
 5   0  0.6377741E-07  0.3300359E+04  0.7818609E-02  0.8162804E-01
       -2   -1    0    0    0  501  0.00000000000E+00  0.00000000000E+00  0.19489612406E+04  0.19489612406E+04  0.25500000920E-02 0.  1.
        2   -1    0    0  501    0  0.00000000000E+00  0.00000000000E+00 -0.13972023046E+04  0.13972023046E+04  0.25500000920E-02 0. -1.
    10030    2    1    2    0    0  0.00000000000E+00  0.00000000000E+00  0.55175893601E+03  0.33461635453E+04  0.33003594574E+04 0.  0.
        1    1    3    3  502    0 -0.48847897298E+03  0.15335086306E+04 -0.93640946572E+02  0.16121504439E+04  0.50400001928E-02 0. -1.
       -1    1    3    3    0  502  0.48847897298E+03 -0.15335086306E+04  0.64539988258E+03  0.17340131013E+04  0.50400001928E-02 0.  1.
</event>
<event>
 5   0  0.6351753E-07  0.3299896E+04  0.7818609E-02  0.8162922E-01
       -2   -1    0    0    0  501  0.00000000000E+00  0.00000000000E+00  0.16602624984E+04  0.16602624984E+04  0.25500000920E-02 0. -1.
        2   -1    0    0  501    0  0.00000000000E+00  0.00000000000E+00 -0.16396975362E+04  0.16396975362E+04  0.25500000920E-02 0.  1.
    10030    2    1    2    0    0  0.00000000000E+00  0.00000000000E+00  0.20564962181E+02  0.32999600346E+04  0.32998959548E+04 0.  0.
        3    1    3    3  502    0 -0.57663911462E+03 -0.10061559582E+03  0.15529375214E+04  0.16595936618E+04  0.10100000352E+00 0. -1.
       -3    1    3    3    0  502  0.57663911462E+03  0.10061559582E+03 -0.15323725592E+04  0.16403663728E+04  0.10100000352E+00 0.  1.
</event>
<event>
 5   0  0.6424183E-07  0.3291796E+04  0.7818609E-02  0.8164986E-01
       -2   -1    0    0    0  501  0.00000000000E+00  0.00000000000E+00  0.12958204715E+04  0.12958204715E+04  0.25500000920E-02 0.  1.
        2   -1    0    0  501    0  0.00000000000E+00  0.00000000000E+00 -0.20905523803E+04  0.20905523804E+04  0.25500000920E-02 0. -1.
    10030    2    1    2    0    0  0.00000000000E+00  0.00000000000E+00 -0.79473190882E+03  0.33863728519E+04  0.32917962095E+04 0.  0.
        2    1    3    3  502    0  0.10560518914E+02  0.50967852432E+03 -0.20072878712E+04  0.20710114245E+04  0.25500000920E-02 0. -1.
       -2    1    3    3    0  502 -0.10560518914E+02 -0.50967852432E+03  0.12125559624E+04  0.13153614274E+04  0.25500000920E-02 0.  1.
</event>
<event>
 5   0  0.2080770E-07  0.3295941E+04  0.7818609E-02  0.8163929E-01
       -1   -1    0    0    0  501  0.00000000000E+00  0.00000000000E+00  0.22762458729E+04  0.22762458729E+04  0.50400001928E-02 0. -1.
        1   -1    0    0  501    0  0.00000000000E+00  0.00000000000E+00 -0.11931075989E+04  0.11931075989E+04  0.50400001928E-02 0.  1.
    10030    2    1    2    0    0  0.00000000000E+00  0.00000000000E+00  0.10831382741E+04  0.34693534718E+04  0.32959406839E+04 0.  0.
        4    1    3    3  502    0 -0.27632651888E+03 -0.49304846548E+03 -0.10878935621E+04  0.12259556068E+04  0.12699999809E+01 0.  1.
       -4    1    3    3    0  502  0.27632651888E+03  0.49304846548E+03  0.21710318362E+04  0.22433978651E+04  0.12699999809E+01 0. -1.
</event>
<event>
 5   0  0.6258718E-07  0.3302411E+04  0.7818609E-02  0.8162282E-01
        2   -1    0    0  501    0  0.00000000000E+00  0.00000000000E+00  0.19073439502E+04  0.19073439502E+04  0.25500000920E-02 0. -1.
       -2   -1    0    0    0  501  0.00000000000E+00  0.00000000000E+00 -0.14294637271E+04  0.14294637271E+04  0.25500000920E-02 0.  1.
    10030    2    1    2    0    0  0.00000000000E+00  0.00000000000E+00  0.47788022309E+03  0.33368076772E+04  0.33024106297E+04 0.  0.
        5    1    3    3  502    0 -0.66351287591E+03  0.48158054703E+03 -0.12092672138E+04  0.14609991253E+04  0.46999998093E+01 0.  1.
       -5    1    3    3    0  502  0.66351287591E+03 -0.48158054703E+03  0.16871474369E+04  0.18758085519E+04  0.46999998093E+01 0. -1.
</event>
<event>
 5   0  0.6258718E-07  0.3291019E+04  0.7818609E-02  0.8165184E-01
       -2   -1    0    0    0  501  0.00000000000E+00  0.00000000000E+00  0.97717871499E+03  0.97717871499E+03  0.25500000920E-02 0.  1.
        2   -1    0    0  501    0  0.00000000000E+00  0.00000000000E+00 -0.27709374963E+04  0.27709374963E+04  0.25500000920E-02 0. -1.
    10030    2    1    2    0    0  0.00000000000E+00  0.00000000000E+00 -0.17937587813E+04  0.37481162113E+04  0.32910187736E+04 0.  0.
        5    1    3    3  502    0  0.10582936752E+04  0.78305185290E+03  0.22741181009E+03  0.13359992248E+04  0.46999998093E+01 0.  1.
       -5    1    3    3    0  502 -0.10582936752E+04 -0.78305185290E+03 -0.20211705914E+04  0.24121169866E+04  0.46999998093E+01 0. -1.
</event>
<event>
 5   0  0.6377741E-07  0.3314354E+04  0.7818609E-02  0.8159253E-01
        2   -1    0    0  501    0  0.00000000000E+00  0.00000000000E+00  0.12133785119E+04  0.12133785120E+04  0.25500000920E-02 0.  1.
       -2   -1    0    0    0  501  0.00000000000E+00  0.00000000000E+00 -0.22632964664E+04  0.22632964664E+04  0.25500000920E-02 0. -1.
    10030    2    1    2    0    0  0.00000000000E+00  0.00000000000E+00 -0.10499179544E+04  0.34766749783E+04  0.33143538124E+04 0.  0.
        1    1    3    3  502    0  0.62507486004E+02  0.15049349606E+04  0.19989646021E+03  0.15194390466E+04  0.50400001928E-02 0.  1.
       -1    1    3    3    0  502 -0.62507486004E+02 -0.15049349606E+04 -0.12498144146E+04  0.19572359317E+04  0.50400001928E-02 0. -1.
</event>
<event>
 5   0  0.6426079E-07  0.3300314E+04  0.7818609E-02  0.8162815E-01
        2   -1    0    0  501    0  0.00000000000E+00  0.00000000000E+00  0.26465066508E+04  0.26465066508E+04  0.25500000920E-02 0.  1.
       -2   -1    0    0    0  501  0.00000000000E+00  0.00000000000E+00 -0.10289106173E+04  0.10289106173E+04  0.25500000920E-02 0. -1.
    10030    2    1    2    0    0  0.00000000000E+00  0.00000000000E+00  0.16175960335E+04  0.36754172681E+04  0.33003144043E+04 0.  0.
        4    1    3    3  502    0  0.84478125655E+03 -0.14142200370E+04  0.70115000811E+03  0.17903314306E+04  0.12699999809E+01 0. -1.
       -4    1    3    3    0  502 -0.84478125655E+03  0.14142200370E+04  0.91644602536E+03  0.18850858375E+04  0.12699999809E+01 0.  1.
</event>
<event>
 5   0  0.2080770E-07  0.3313542E+04  0.7818609E-02  0.8159458E-01
       -1   -1    0    0    0  501  0.00000000000E+00  0.00000000000E+00  0.15945722629E+04  0.15945722629E+04  0.50400001928E-02 0. -1.
        1   -1    0    0  501    0  0.00000000000E+00  0.00000000000E+00 -0.17213959826E+04  0.17213959826E+04  0.50400001928E-02 0.  1.
    10030    2    1    2    0    0  0.00000000000E+00  0.00000000000E+00 -0.12682371974E+03  0.33159682455E+04  0.33135420850E+04 0.  0.
        4    1    3    3  502    0 -0.85345074363E+03 -0.70340117232E+03  0.11710785319E+04  0.16107693571E+04  0.12699999809E+01 0. -1.
       -4    1    3    3    0  502  0.85345074363E+03  0.70340117232E+03 -0.12979022517E+04  0.17051988883E+04  0.12699999809E+01 0.  1.
</event>
<event>
 5   0  0.2057130E-07  0.3303964E+04  0.7818609E-02  0.8161888E-01
        1   -1    0    0  501    0  0.00000000000E+00  0.00000000000E+00  0.10529942671E+04  0.10529942671E+04  0.50400001928E-02 0. -1.
       -1   -1    0    0    0  501  0.00000000000E+00  0.00000000000E+00 -0.25916989471E+04  0.25916989471E+04  0.50400001928E-02 0.  1.
    10030    2    1    2    0    0  0.00000000000E+00  0.00000000000E+00 -0.15387046799E+04  0.36446932142E+04  0.33039637610E+04 0.  0.
        2    1    3    3  502    0  0.66968484996E+03 -0.16123266356E+03  0.88701859039E+03  0.11230653364E+04  0.25500000920E-02 0. -1.
       -2    1    3    3    0  502 -0.66968484996E+03  0.16123266356E+03 -0.24257232703E+04  0.25216278778E+04  0.25500000920E-02 0.  1.
</event>
<event>
 5   0  0.6258718E-07  0.3283672E+04  0.7818609E-02  0.8167063E-01
        2   -1    0    0  501    0  0.00000000000E+00  0.00000000000E+00  0.21961340846E+04  0.21961340846E+04  0.25500000920E-02 0.  1.
       -2   -1    0    0    0  501  0.00000000000E+00  0.00000000000E+00 -0.12274411704E+04  0.12274411704E+04  0.25500000920E-02 0. -1.
    10030    2    1    2    0    0  0.00000000000E+00  0.00000000000E+00  0.96869291423E+03  0.34235752551E+04  0.32836719637E+04 0.  0.
        5    1    3    3  502    0  0.14760650704E+04  0.45375195962E+02  0.12323943194E+04  0.19234460868E+04  0.46999998093E+01 0. -1.
       -5    1    3    3    0  502 -0.14760650704E+04 -0.45375195962E+02 -0.26370140515E+03  0.15001291683E+04  0.46999998093E+01 0.  1.
</event>
<event>
 5   0  0.6351753E-07  0.3298760E+04  0.7818609E-02  0.8163211E-01
        2   -1    0    0  501    0  0.00000000000E+00  0.00000000000E+00  0.25079280151E+04  0.25079280151E+04  0.25500000920E-02 0.  1.
       -2   -1    0    0    0  501  0.00000000000E+00  0.00000000000E+00 -0.10847418011E+04  0.10847418011E+04  0.25500000920E-02 0. -1.
    10030    2    1    2    0    0  0.00000000000E+00  0.00000000000E+00  0.14231862140E+04  0.35926698162E+04  0.32987599804E+04 0.  0.
        3    1    3    3  502    0 -0.70353971858E+03  0.53982565921E+03  0.22262113503E+04  0.23963298739E+04  0.10100000352E+00 0.  1.
       -3    1    3    3    0  502  0.70353971858E+03 -0.53982565921E+03 -0.80302513628E+03  0.11963399424E+04  0.10100000352E+00 0. -1.
</event>
<event>
 5   0  0.2057130E-07  0.3304781E+04  0.7818609E-02  0.8161680E-01
        1   -1    0    0  501    0  0.00000000000E+00  0.00000000000E+00  0.21338590200E+04  0.21338590200E+04  0.50400001928E-02 0.  1.
       -1   -1    0    0    0  501  0.00000000000E+00  0.00000000000E+00 -0.12795569193E+04  0.12795569193E+04  0.50400001928E-02 0. -1.
    10030    2    1    2    0    0  0.00000000000E+00  0.00000000000E+00  0.85430210070E+03  0.34134159393E+04  0.33047808241E+04 0.  0.
        2    1    3    3  502    0 -0.11474920987E+04 -0.11112609541E+04 -0.95414253315E+01  0.15974135543E+04  0.25500000920E-02 0.  1.
       -2    1    3    3    0  502  0.11474920987E+04  0.11112609541E+04  0.86384352603E+03  0.18160023850E+04  0.25500000920E-02 0. -1.
</event>
<event>
 5   0  0.6426079E-07  0.3279571E+04  0.7818609E-02  0.8168113E-01
       -2   -1    0    0    0  501  0.00000000000E+00  0.00000000000E+00  0.26727445689E+04  0.26727445689E+04  0.25500000920E-02 0. -1.
        2   -1    0    0  501    0  0.00000000000E+00  0.00000000000E+00 -0.10060431069E+04  0.10060431069E+04  0.25500000920E-02 0.  1.
    10030    2    1    2    0    0  0.00000000000E+00  0.00000000000E+00  0.16667014620E+04  0.36787876758E+04  0.32795708561E+04 0.  0.
        4    1    3    3  502    0 -0.40075788869E+03  0.47012800438E+02 -0.94948382780E+03  0.10316676989E+04  0.12699999809E+01 0.  1.
       -4    1    3    3    0  502  0.40075788869E+03 -0.47012800438E+02  0.26161852898E+04  0.26471199770E+04  0.12699999809E+01 0. -1.
</event>
<event>
 5   0  0.2080770E-07  0.3300601E+04  0.7818609E-02  0.8162742E-01
       -1   -1    0    0    0  501  0.00000000000E+00  0.00000000000E+00  0.17564459847E+04  0.17564459847E+04  0.50400001928E-02 0.  1.
        1   -1    0    0  501    0  0.00000000000E+00  0.00000000000E+00 -0.15505697008E+04  0.15505697008E+04  0.50400001928E-02 0. -1.
    10030    2    1    2    0    0  0.00000000000E+00  0.00000000000E+00  0.20587628386E+03  0.33070156855E+04  0.33006011119E+04 0.  0.
        4    1    3    3  502    0 -0.10399775760E+04  0.12215963609E+04  0.49052230649E+03  0.16776366631E+04  0.12699999809E+01 0.  1.
       -4    1    3    3    0  502  0.10399775760E+04 -0.12215963609E+04 -0.28464602263E+03  0.16293790224E+04  0.12699999809E+01 0. -1.
</event>
<event>
 5   0  0.2037333E-07  0.3289791E+04  0.7818609E-02  0.8165498E-01
        1   -1    0    0  501    0  0.00000000000E+00  0.00000000000E+00  0.22757262357E+04  0.22757262357E+04  0.50400001928E-02 0. -1.
       -1   -1    0    0    0  501  0.00000000000E+00  0.00000000000E+00 -0.11889312042E+04  0.11889312042E+04  0.50400001928E-02 0.  1.
    10030    2    1    2    0    0  0.00000000000E+00  0.00000000000E+00  0.10867950315E+04  0.34646574398E+04  0.32897914425E+04 0.  0.
        3    1    3    3  502    0 -0.14126017894E+04  0.21113503764E+03  0.14026448608E+04  0.20018577460E+04  0.10100000352E+00 0. -1.
       -3    1    3    3    0  502  0.14126017894E+04 -0.21113503764E+03 -0.31584982928E+03  0.14627996939E+04  0.10100000352E+00 0.  1.
</event>
<event>
 5   0  0.6351753E-07  0.3319385E+04  0.7818609E-02  0.8157980E-01
       -2   -1    0    0    0  501  0.00000000000E+00  0.00000000000E+00  0.13686016266E+04  0.13686016266E+04  0.25500000920E-02 0.  1.
        2   -1    0    0  501    0  0.00000000000E+00  0.00000000000E+00 -0.20126964933E+04  0.20126964933E+04  0.25500000920E-02 0. -1.
    10030    2    1    2    0    0  0.00000000000E+00  0.00000000000E+00 -0.64409486671E+03  0.33812981199E+04  0.33193853012E+04 0.  0.
        3    1    3    3  502    0 -0.49220460369E+03  0.14801798781E+04 -0.89952678927E+03  0.18006516316E+04  0.10100000352E+00 0. -1.
       -3    1    3    3    0  502  0.49220460369E+03 -0.14801798781E+04  0.25543192256E+03  0.15806464883E+04  0.10100000352E+00 0.  1.
</event>
<event>
 5   0  0.2057130E-07  0.3295657E+04  0.7818609E-02  0.8164001E-01
        1   -1    0    0  501    0  0.00000000000E+00  0.00000000000E+00  0.13230103414E+04  0.13230103414E+04  0.50400001928E-02 0.  1.
       -1   -1    0    0    0  501  0.00000000000E+00  0.00000000000E+00 -0.20523942100E+04  0.20523942100E+04  0.50400001928E-02 0. -1.
    10030    2    1    2    0    0  0.00000000000E+00  0.00000000000E+00 -0.72938386860E+03  0.33754045514E+04  0.32956569994E+04 0.  0.
        2    1    3    3  502    0  0.36552914161E+03 -0.15583236028E+04  0.36389404871E+02  0.16010334766E+04  0.25500000920E-02 0.  1.
       -2    1    3    3    0  502 -0.36552914161E+03  0.15583236028E+04 -0.76577327347E+03  0.17743710747E+04  0.25500000920E-02 0. -1.
</event>
<event>
 5   0  0.6377741E-07  0.3306030E+04  0.7818609E-02  0.8161363E-01
       -2   -1    0    0    0  501  0.00000000000E+00  0.00000000000E+00  0.10126550618E+04  0.10126550618E+04  0.25500000920E-02 0.  1.
        2   -1    0    0  501    0  0.00000000000E+00  0.00000000000E+00 -0.26983110584E+04  0.26983110584E+04  0.25500000920E-02 0. -1.
    10030    2    1    2    0    0  0.00000000000E+00  0.00000000000E+00 -0.16856559966E+04  0.37109661202E+04  0.33060298557E+04 0.  0.
        1    1    3    3  502    0 -0.21422338528E+03 -0.16390651874E+04 -0.84917814143E+03  0.18583675265E+04  0.50400001928E-02 0. -1.
       -1    1    3    3    0  502  0.21422338528E+03  0.16390651874E+04 -0.83647785512E+03  0.18525985938E+04  0.50400001928E-02 0.  1.
</event>
<event>
 5   0  0.6351753E-07  0.3287056E+04  0.7818609E-02  0.8166197E-01
        2   -1    0    0  501    0  0.00000000000E+00  0.00000000000E+00  0.22974660733E+04  0.22974660733E+04  0.25500000920E-02 0. -1.
       -2   -1    0    0    0  501  0.00000000000E+00  0.00000000000E+00 -0.11757232489E+04  0.11757232489E+04  0.25500000920E-02 0.  1.
    10030    2    1    2    0    0  0.00000000000E+00  0.00000000000E+00  0.11217428244E+04  0.34731893222E+04  0.32870559934E+04 0.  0.
        3    1    3    3  502    0  0.12438898472E+04  0.94981471333E+03  0.30686854149E+02  0.15653599058E+04  0.10100000352E+00 0.  1.
       -3    1    3    3    0  502 -0.12438898472E+04 -0.94981471333E+03  0.10910559703E+04  0.19078294164E+04  0.10100000352E+00 0. -1.
</event>
<event>
 5   0  0.2037333E-07  0.3295208E+04  0.7818609E-02  0.8164116E-01
        1   -1    0    0  501    0  0.00000000000E+00  0.00000000000E+00  0.22266194556E+04  0.22266194556E+04  0.50400001928E-02 0.  1.
       -1   -1    0    0    0  501  0.00000000000E+00  0.00000000000E+00 -0.12191568689E+04  0.12191568689E+04  0.50400001928E-02 0. -1.
    10030    2    1    2    0    0  0.00000000000E+00  0.00000000000E+00  0.10074625867E+04  0.34457763246E+04  0.32952076741E+04 0.  0.
        3    1    3    3  502    0 -0.79166193189E+03  0.11810142922E+04  0.13742826882E+04  0.19774165697E+04  0.10100000352E+00 0.  1.
       -3    1    3    3    0  502  0.79166193189E+03 -0.11810142922E+04 -0.36682010148E+03  0.14683597549E+04  0.10100000352E+00 0. -1.
</event>
<event>
 5   0  0.2080828E-07  0.3290919E+04  0.7818609E-02  0.8165210E-01
        1   -1    0    0  501    0  0.00000000000E+00  0.00000000000E+00  0.24383485223E+04  0.24383485223E+04  0.50400001928E-02 0. -1.
       -1   -1    0    0    0  501  0.00000000000E+00  0.00000000000E+00 -0.11103980868E+04  0.11103980868E+04  0.50400001928E-02 0.  1.
    10030    2    1    2    0    0  0.00000000000E+00  0.00000000000E+00  0.13279504356E+04  0.35487466091E+04  0.32909193451E+04 0.  0.
        1    1    3    3  502    0  0.93182676134E+03 -0.85475126592E+03 -0.47143389740E+03  0.13495001887E+04  0.50400001928E-02 0.  1.
       -1    1    3    3    0  502 -0.93182676134E+03  0.85475126592E+03  0.17993843330E+04  0.21992464204E+04  0.50400001928E-02 0. -1.
</event>
<event>
 5   0  0.6377741E-07  0.3303354E+04  0.7818609E-02  0.8162042E-01
        2   -1    0    0  501    0  0.00000000000E+00  0.00000000000E+00  0.98775105199E+03  0.98775105199E+03  0.25500000920E-02 0.  1.
       -2   -1    0    0    0  501  0.00000000000E+00  0.00000000000E+00 -0.27618676184E+04  0.27618676184E+04  0.25500000920E-02 0. -1.
    10030    2    1    2    0    0  0.00000000000E+00  0.00000000000E+00 -0.17741165664E+04  0.37496186704E+04  0.33033544439E+04 0.  0.
        1    1    3    3  502    0  0.14418665216E+03 -0.70637069751E+03 -0.25738436035E+04  0.26729048333E+04  0.50400001928E-02 0. -1.
       -1    1    3    3    0  502 -0.14418665216E+03  0.70637069751E+03  0.79972703709E+03  0.10767138370E+04  0.50400001928E-02 0.  1.
</event>
<event>
 5   0  0.2057130E-07  0.3301291E+04  0.7818609E-02  0.8162567E-01
       -1   -1    0    0    0  501  0.00000000000E+00  0.00000000000E+00  0.14408770172E+04  0.14408770172E+04  0.50400001928E-02 0. -1.
        1   -1    0    0  501    0  0.00000000000E+00  0.00000000000E+00 -0.18909525815E+04  0.18909525815E+04  0.50400001928E-02 0.  1.
    10030    2    1    2    0    0  0.00000000000E+00  0.00000000000E+00 -0.45007556429E+03  0.33318295988E+04  0.33012907266E+04 0.  0.
        2    1    3    3  502    0  0.16438142378E+04  0.15001610150E+03 -0.22484560834E+03  0.16658888398E+04  0.25500000920E-02 0.  1.
       -2    1    3    3    0  502 -0.16438142378E+04 -0.15001610150E+03 -0.22522995595E+03  0.16659407589E+04  0.25500000920E-02 0. -1.
</event>
<event>
 5   0  0.2080828E-07  0.3301855E+04  0.7818609E-02  0.8162424E-01
       -1   -1    0    0    0  501  0.00000000000E+00  0.00000000000E+00  0.13432098222E+04  0.13432098222E+04  0.50400001928E-02 0.  1.
        1   -1    0    0  501    0  0.00000000000E+00  0.00000000000E+00 -0.20291406964E+04  0.20291406964E+04  0.50400001928E-02 0. -1.
    10030    2    1    2    0    0  0.00000000000E+00  0.00000000000E+00 -0.68593087422E+03  0.33723505186E+04  0.33018550628E+04 0.  0.
        1    1    3    3  502    0 -0.45414490269E+02 -0.27977444968E+03 -0.20041047355E+04  0.20240484207E+04  0.50400001928E-02 0. -1.
       -1    1    3    3    0  502  0.45414490269E+02  0.27977444968E+03  0.13181738612E+04  0.13483020979E+04  0.50400001928E-02 0.  1.
</event>
<event>
 5   0  0.6351753E-07  0.3292531E+04  0.7818609E-02  0.8164799E-01
        2   -1    0    0  501    0  0.00000000000E+00  0.00000000000E+00  0.18777728364E+04  0.18777728364E+04  0.25500000920E-02 0.  1.
       -2   -1    0    0    0  501  0.00000000000E+00  0.00000000000E+00 -0.14432999857E+04  0.14432999857E+04  0.25500000920E-02 0. -1.
    10030    2    1    2    0    0  0.00000000000E+00  0.00000000000E+00  0.43447285075E+03  0.33210728221E+04  0.32925306425E+04 0.  0.
        3    1    3    3  502    0 -0.11098245359E+02  0.29302518627E+03  0.18512183617E+04  0.18742988993E+04  0.10100000352E+00 0.  1.
       -3    1    3    3    0  502  0.11098245359E+02 -0.29302518627E+03 -0.14167455110E+04  0.14467739229E+04  0.10100000352E+00 0. -1.
</event>
<event>
 5   0  0.2080770E-07  0.3300747E+04  0.7818609E-02  0.8162705E-01
        1   -1    0    0  501    0  0.00000000000E+00  0.00000000000E+00  0.10058759930E+04  0.10058759930E+04  0.50400001928E-02 0. -1.
       -1   -1    0    0    0  501  0.00000000000E+00  0.00000000000E+00 -0.27078213621E+04  0.27078213621E+04  0.50400001928E-02 0.  1.
    10030    2    1    2    0    0  0.00000000000E+00  0.00000000000E+00 -0.17019453691E+04  0.37136973551E+04  0.33007468860E+04 0.  0.
        4    1    3    3  502    0  0.69091934032E+02 -0.16232484566E+04 -0.11771020210E+04  0.20063100527E+04  0.12699999809E+01 0.  1.
       -4    1    3    3    0  502 -0.69091934032E+02  0.16232484566E+04 -0.52484334814E+03  0.17073873023E+04  0.12699999809E+01 0. -1.
</event>
<event>
 5   0  0.2080828E-07  0.3296781E+04  0.7818609E-02  0.8163715E-01
       -1   -1    0    0    0  501  0.00000000000E+00  0.00000000000E+00  0.20695041890E+04  0.20695041890E+04  0.50400001928E-02 0. -1.
        1   -1    0    0  501    0  0.00000000000E+00  0.00000000000E+00 -0.13129674475E+04  0.13129674475E+04  0.50400001928E-02 0.  1.
    10030    2    1    2    0    0  0.00000000000E+00  0.00000000000E+00  0.75653674150E+03  0.33824716366E+04  0.32967812380E+04 0.  0.
        1    1    3    3  502    0 -0.54413535609E+03  0.13455586449E+04  0.11799748998E+04  0.18705486139E+04  0.50400001928E-02 0. -1.
       -1    1    3    3    0  502  0.54413535609E+03 -0.13455586449E+04 -0.42343815831E+03  0.15119230227E+04  0.50400001928E-02 0.  1.
</event>
<event>
 5   0  0.2080828E-07  0.3305049E+04  0.7818609E-02  0.8161612E-01
       -1   -1    0    0    0  501  0.00000000000E+00  0.00000000000E+00  0.16162373517E+04  0.16162373517E+04  0.50400001928E-02 0. -1.
        1   -1    0    0  501    0  0.00000000000E+00  0.00000000000E+00 -0.16896260949E+04  0.16896260949E+04  0.50400001928E-02 0.  1.
    10030    2    1    2    0    0  0.00000000000E+00  0.00000000000E+00 -0.73388743218E+02  0.33058634466E+04  0.33050487470E+04 0.  0.
        1    1    3    3  502    0 -0.12319395340E+03  0.81211319663E+03  0.13975810605E+04  0.16210914271E+04  0.50400001928E-02 0. -1.
       -1    1    3    3    0  502  0.12319395340E+03 -0.81211319663E+03 -0.14709698037E+04  0.16847720195E+04  0.50400001928E-02 0.  1.
</event>
<event>
 5   0  0.6424183E-07  0.3306439E+04  0.7818609E-02  0.8161259E-01
        2   -1    0    0  501    0  0.00000000000E+00  0.00000000000E+00  0.22139884002E+04  0.22139884002E+04  0.25500000920E-02 0. -1.
       -2   -1    0    0    0  501  0.00000000000E+00  0.00000000000E+00 -0.12344843002E+04  0.12344843002E+04  0.25500000920E-02 0.  1.
    10030    2    1    2    0    0  0.00000000000E+00  0.00000000000E+00  0.97950409997E+03  0.34484727003E+04  0.33064385195E+04 0.  0.
        2    1    3    3  502    0 -0.12682861721E+04  0.91124633810E+03  0.10554676678E+04  0.18849222002E+04  0.25500000920E-02 0. -1.
       -2    1    3    3    0  502  0.12682861721E+04 -0.91124633810E+03 -0.75963567828E+02  0.15635505002E+04  0.25500000920E-02 0.  1.
</event>
<event>
 5   0  0.6426079E-07  0.3291147E+04  0.7818609E-02  0.8165152E-01
        2   -1    0    0  501    0  0.00000000000E+00  0.00000000000E+00  0.29426297248E+04  0.29426297248E+04  0.25500000920E-02 0.  1.
       -2   -1    0    0    0  501  0.00000000000E+00  0.00000000000E+00 -0.92023551177E+03  0.92023551177E+03  0.25500000920E-02 0. -1.
    10030    2    1    2    0    0  0.00000000000E+00  0.00000000000E+00  0.20223942130E+04  0.38628652366E+04  0.32911471378E+04 0.  0.
        4    1    3    3  502    0 -0.97317359291E+02 -0.46630065583E+01  0.29392409205E+04  0.29408555241E+04  0.12699999809E+01 0.  1.
       -4    1    3    3    0  502  0.97317359291E+02  0.46630065583E+01 -0.91684670745E+03  0.92200971248E+03  0.12699999809E+01 0. -1.
</event>
<event>
 5   0  0.6351753E-07  0.3314285E+04  0.7818609E-02  0.8159270E-01
       -2   -1    0    0    0  501  0.00000000000E+00  0.00000000000E+00  0.12288621158E+04  0.12288621158E+04  0.25500000920E-02 0. -1.
        2   -1    0    0  501    0  0.00000000000E+00  0.00000000000E+00 -0.22346866303E+04  0.22346866303E+04  0.25500000920E-02 0.  1.
    10030    2    1    2    0    0  0.00000000000E+00  0.00000000000E+00 -0.10058245145E+04  0.34635487462E+04  0.33142852869E+04 0.  0.
        3    1    3    3  502    0  0.96656013193E+03  0.40929562331E+03 -0.18429897452E+04  0.21209367286E+04  0.10100000352E+00 0.  1.
       -3    1    3    3    0  502 -0.96656013193E+03 -0.40929562331E+03  0.83716523070E+03  0.13426120175E+04  0.10100000352E+00 0. -1.
</event>
<event>
 5   0  0.2037333E-07  0.3296754E+04  0.7818609E-02  0.8163722E-01
        1   -1    0    0  501    0  0.00000000000E+00  0.00000000000E+00  0.16722813024E+04  0.16722813024E+04  0.50400001928E-02 0.  1.
       -1   -1    0    0    0  501  0.00000000000E+00  0.00000000000E+00 -0.16248140339E+04  0.16248140339E+04  0.50400001928E-02 0. -1.
    10030    2    1    2    0    0  0.00000000000E+00  0.00000000000E+00  0.47467268468E+02  0.32970953363E+04  0.32967536327E+04 0.  0.
        3    1    3    3  502    0  0.12448736192E+04  0.75148227734E+03 -0.75269094295E+03  0.16373697221E+04  0.10100000352E+00 0.  1.
       -3    1    3    3    0  502 -0.12448736192E+04 -0.75148227734E+03  0.80015821141E+03  0.16597256142E+04  0.10100000352E+00 0. -1.
</event>
<event>
 5   0  0.6258718E-07  0.3260584E+04  0.7818609E-02  0.8172998E-01
       -2   -1    0    0    0  501  0.00000000000E+00  0.00000000000E+00  0.11691528448E+04  0.11691528448E+04  0.25500000920E-02 0.  1.
        2   -1    0    0  501    0  0.00000000000E+00  0.00000000000E+00 -0.22733145434E+04  0.22733145434E+04  0.25500000920E-02 0. -1.
    10030    2    1    2    0    0  0.00000000000E+00  0.00000000000E+00 -0.11041616986E+04  0.34424673882E+04  0.32605840983E+04 0.  0.
        5    1    3    3  502    0 -0.25451985001E+03  0.72376451952E+03 -0.20707990579E+04  0.22083582730E+04  0.46999998093E+01 0. -1.
       -5    1    3    3    0  502  0.25451985001E+03 -0.72376451952E+03  0.96663735929E+03  0.12341091152E+04  0.46999998093E+01 0.  1.
</event>
<event>
 5   0  0.6424183E-07  0.3302065E+04  0.7818609E-02  0.8162370E-01
       -2   -1    0    0    0  501  0.00000000000E+00  0.00000000000E+00  0.24943870756E+04  0.24943870756E+04  0.25500000920E-02 0. -1.
        2   -1    0    0  501    0  0.00000000000E+00  0.00000000000E+00 -0.10928166581E+04  0.10928166581E+04  0.25500000920E-02 0.  1.
    10030    2    1    2    0    0  0.00000000000E+00  0.00000000000E+00  0.14015704175E+04  0.35872037337E+04  0.33020646559E+04 0.  0.
        2    1    3    3  502    0 -0.13767131825E+04 -0.24806483612E+03  0.16534558648E+04  0.21658235493E+04  0.25500000920E-02 0.  1.
       -2    1    3    3    0  502  0.13767131825E+04  0.24806483612E+03 -0.25188544737E+03  0.14213801843E+04  0.25500000920E-02 0. -1.
</event>
<event>
 5   0  0.2037333E-07  0.3299236E+04  0.7818609E-02  0.8163090E-01
        1   -1    0    0  501    0  0.00000000000E+00  0.00000000000E+00  0.14609370138E+04  0.14609370138E+04  0.50400001928E-02 0.  1.
       -1   -1    0    0    0  501  0.00000000000E+00  0.00000000000E+00 -0.18626668670E+04  0.18626668670E+04  0.50400001928E-02 0. -1.
    10030    2    1    2    0    0  0.00000000000E+00  0.00000000000E+00 -0.40172985328E+03  0.33236038808E+04  0.32992356511E+04 0.  0.
        3    1    3    3  502    0 -0.24562273068E+03 -0.65775898535E+03 -0.17046265739E+04  0.18435642585E+04  0.10100000352E+00 0. -1.
       -3    1    3    3    0  502  0.24562273068E+03  0.65775898535E+03  0.13028967206E+04  0.14800396223E+04  0.10100000352E+00 0.  1.
</event>
<event>
 5   0  0.6258718E-07  0.3299197E+04  0.7818609E-02  0.8163100E-01
       -2   -1    0    0    0  501  0.00000000000E+00  0.00000000000E+00  0.17511322432E+04  0.17511322432E+04  0.25500000920E-02 0. -1.
        2   -1    0    0  501    0  0.00000000000E+00  0.00000000000E+00 -0.15539517301E+04  0.15539517301E+04  0.25500000920E-02 0.  1.
    10030    2    1    2    0    0  0.00000000000E+00  0.00000000000E+00  0.19718051312E+03  0.33050839733E+04  0.32991968592E+04 0.  0.
        5    1    3    3  502    0 -0.14044241774E+03 -0.10574707839E+03  0.17417140904E+04  0.17505703585E+04  0.46999998093E+01 0. -1.
       -5    1    3    3    0  502  0.14044241774E+03  0.10574707839E+03 -0.15445335773E+04  0.15545136148E+04  0.46999998093E+01 0.  1.
</event>
<event>
 5   0  0.1994250E-07  0.3292430E+04  0.7818609E-02  0.8164824E-01
        3   -1    0    0  501    0  0.00000000000E+00  0.00000000000E+00  0.17204214606E+04  0.17204214636E+04  0.10100000352E+00 0. -1.
       -3   -1    0    0    0  501  0.00000000000E+00  0.00000000000E+00 -0.15752096722E+04  0.15752096754E+04  0.10100000352E+00 0.  1.
    10030    2    1    2    0    0  0.00000000000E+00  0.00000000000E+00  0.14521178845E+03  0.32956311390E+04  0.32924304307E+04 0.  0.
        5    1    3    3  502    0  0.16390389159E+04 -0.15110954486E+03  0.99460741930E+02  0.16489988453E+04  0.46999998093E+01 0.  1.
       -5    1    3    3    0  502 -0.16390389159E+04  0.15110954486E+03  0.45751046517E+02  0.16466322937E+04  0.46999998093E+01 0. -1.
</event>
<event>
 5   0  0.6258718E-07  0.3288032E+04  0.7818609E-02  0.8165947E-01
        2   -1    0    0  501    0  0.00000000000E+00  0.00000000000E+00  0.12830073551E+04  0.12830073551E+04  0.25500000920E-02 0. -1.
       -2   -1    0    0    0  501  0.00000000000E+00  0.00000000000E+00 -0.21066041553E+04  0.21066041553E+04  0.25500000920E-02 0.  1.
    10030    2    1    2    0    0  0.00000000000E+00  0.00000000000E+00 -0.82359680026E+03  0.33896115104E+04  0.32880320105E+04 0.  0.
        5    1    3    3  502    0  0.58488163928E+03  0.15015164276E+04 -0.75960472823E+02  0.16132049459E+04  0.46999998093E+01 0. -1.
       -5    1    3    3    0  502 -0.58488163928E+03 -0.15015164276E+04 -0.74763632743E+03  0.17764065645E+04  0.46999998093E+01 0.  1.
</event>
<event>
 5   0  0.6377741E-07  0.3294712E+04  0.7818609E-02  0.8164242E-01
        2   -1    0    0  501    0  0.00000000000E+00  0.00000000000E+00  0.23675203887E+04  0.23675203887E+04  0.25500000920E-02 0. -1.
       -2   -1    0    0    0  501  0.00000000000E+00  0.00000000000E+00 -0.11462547094E+04  0.11462547094E+04  0.25500000920E-02 0.  1.
    10030    2    1    2    0    0  0.00000000000E+00  0.00000000000E+00  0.12212656792E+04  0.35137750981E+04  0.32947117599E+04 0.  0.
        1    1    3    3  502    0 -0.46661956924E+03  0.14241122318E+04 -0.11892067378E+03  0.15033201914E+04  0.50400001928E-02 0.  1.
       -1    1    3    3    0  502  0.46661956924E+03 -0.14241122318E+04  0.13401863530E+04  0.20104549067E+04  0.50400001928E-02 0. -1.
</event>
<event>
 5   0  0.6426079E-07  0.3291224E+04  0.7818609E-02  0.8165132E-01
       -2   -1    0    0    0  501  0.00000000000E+00  0.00000000000E+00  0.93159211247E+03  0.93159211247E+03  0.25500000920E-02 0.  1.
        2   -1    0    0  501    0  0.00000000000E+00  0.00000000000E+00 -0.29068940427E+04  0.29068940427E+04  0.25500000920E-02 0. -1.
    10030    2    1    2    0    0  0.00000000000E+00  0.00000000000E+00 -0.19753019303E+04  0.38384861552E+04  0.32912244299E+04 0.  0.
        4    1    3    3  502    0  0.74878926541E+03 -0.63355559485E+03 -0.25287111928E+04  0.27122794777E+04  0.12699999809E+01 0. -1.
       -4    1    3    3    0  502 -0.74878926541E+03  0.63355559485E+03  0.55340926250E+03  0.11262066775E+04  0.12699999809E+01 0.  1.
</event>
<event>
 5   0  0.2037333E-07  0.3317452E+04  0.7818609E-02  0.8158469E-01
       -1   -1    0    0    0  501  0.00000000000E+00  0.00000000000E+00  0.10437520697E+04  0.10437520697E+04  0.50400001928E-02 0.  1.
        1   -1    0    0  501    0  0.00000000000E+00  0.00000000000E+00 -0.26360392418E+04  0.26360392418E+04  0.50400001928E-02 0. -1.
    10030    2    1    2    0    0  0.00000000000E+00  0.00000000000E+00 -0.15922871721E+04  0.36797913115E+04  0.33174516813E+04 0.  0.
        3    1    3    3  502    0  0.88294684088E+03 -0.17655334200E+03 -0.23413524071E+04  0.25085249273E+04  0.10100000352E+00 0. -1.
       -3    1    3    3    0  502 -0.88294684088E+03  0.17655334200E+03  0.74906523497E+03  0.11712663842E+04  0.10100000352E+00 0.  1.
</event>
<event>
 5   0  0.2080770E-07  0.3253604E+04  0.7818609E-02  0.8174802E-01
       -1   -1    0    0    0  501  0.00000000000E+00  0.00000000000E+00  0.16218693355E+04  0.16218693355E+04  0.50400001928E-02 0.  1.
        1   -1    0    0  501    0  0.00000000000E+00  0.00000000000E+00 -0.16317494583E+04  0.16317494583E+04  0.50400001928E-02 0. -1.
    10030    2    1    2    0    0  0.00000000000E+00  0.00000000000E+00 -0.98801227467E+01  0.32536187938E+04  0.32536037925E+04 0.  0.
        4    1    3    3  502    0 -0.55734190485E+03 -0.47633079037E+03 -0.14571732464E+04  0.16312193303E+04  0.12699999809E+01 0. -1.
       -4    1    3    3    0  502  0.55734190485E+03  0.47633079037E+03  0.14472931236E+04  0.16223994635E+04  0.12699999809E+01 0.  1.
</event>
<event>
 5   0  0.6377741E-07  0.3280954E+04  0.7818609E-02  0.8167759E-01
        2   -1    0    0  501    0  0.00000000000E+00  0.00000000000E+00  0.20992535707E+04  0.20992535707E+04  0.25500000920E-02 0.  1.
       -2   -1    0    0    0  501  0.00000000000E+00  0.00000000000E+00 -0.12819625712E+04  0.12819625712E+04  0.25500000920E-02 0. -1.
    10030    2    1    2    0    0  0.00000000000E+00  0.00000000000E+00  0.81729099949E+03  0.33812161419E+04  0.32809538278E+04 0.  0.
        1    1    3    3  502    0 -0.16122170950E+03  0.53061647067E+03 -0.11824313755E+04  0.13060207642E+04  0.50400001928E-02 0. -1.
       -1    1    3    3    0  502  0.16122170950E+03 -0.53061647067E+03  0.19997223750E+04  0.20751953777E+04  0.50400001928E-02 0.  1.
</event>
<event>
 5   0  0.2080828E-07  0.3100418E+04  0.7818609E-02  0.8215623E-01
        1   -1    0    0  501    0  0.00000000000E+00  0.00000000000E+00  0.16409197101E+04  0.16409197102E+04  0.50400001928E-02 0.  1.
       -1   -1    0    0    0  501  0.00000000000E+00  0.00000000000E+00 -0.14645126873E+04  0.14645126873E+04  0.50400001928E-02 0. -1.
    10030    2    1    2    0    0  0.00000000000E+00  0.00000000000E+00  0.17640702281E+03  0.31054323975E+04  0.31004178650E+04 0.  0.
        1    1    3    3  502    0 -0.58073428014E+02 -0.37857920309E+03 -0.14163754841E+04  0.14672471667E+04  0.50400001928E-02 0. -1.
       -1    1    3    3    0  502  0.58073428014E+02  0.37857920309E+03  0.15927825069E+04  0.16381852308E+04  0.50400001928E-02 0.  1.
</event>
<event>
 5   0  0.6426079E-07  0.3291786E+04  0.7818609E-02  0.8164989E-01
        2   -1    0    0  501    0  0.00000000000E+00  0.00000000000E+00  0.20641946755E+04  0.20641946755E+04  0.25500000920E-02 0. -1.
       -2   -1    0    0    0  501  0.00000000000E+00  0.00000000000E+00 -0.13123588348E+04  0.13123588348E+04  0.25500000920E-02 0.  1.
    10030    2    1    2    0    0  0.00000000000E+00  0.00000000000E+00  0.75183584072E+03  0.33765535102E+04  0.32917862136E+04 0.  0.
        4    1    3    3  502    0  0.86732766460E+03 -0.96601094690E+03 -0.66183005624E+03  0.14572079685E+04  0.12699999809E+01 0.  1.
       -4    1    3    3    0  502 -0.86732766460E+03  0.96601094690E+03  0.14136658970E+04  0.19193455417E+04  0.12699999809E+01 0. -1.
</event>
<event>
 5   0  0.6258718E-07  0.3346409E+04  0.7818609E-02  0.8151186E-01
       -2   -1    0    0    0  501  0.00000000000E+00  0.00000000000E+00  0.18338817959E+04  0.18338817959E+04  0.25500000920E-02 0. -1.
        2   -1    0    0  501    0  0.00000000000E+00  0.00000000000E+00 -0.15266046735E+04  0.15266046735E+04  0.25500000920E-02 0.  1.
    10030    2    1    2    0    0  0.00000000000E+00  0.00000000000E+00  0.30727712237E+03  0.33604864694E+04  0.33464085347E+04 0.  0.
        5    1    3    3  502    0 -0.99892143736E+03 -0.13325373364E+04 -0.85669298544E+01  0.16654114426E+04  0.46999998093E+01 0. -1.
       -5    1    3    3    0  502  0.99892143736E+03  0.13325373364E+04  0.31584405223E+03  0.16950750268E+04  0.46999998093E+01 0.  1.
</event>
<event>
 5   0  0.1994250E-07  0.3303683E+04  0.7818609E-02  0.8161959E-01
       -4   -1    0    0    0  501  0.00000000000E+00  0.00000000000E+00  0.21432075668E+04  0.21432079431E+04  0.12699999809E+01 0. -1.
        4   -1    0    0  501    0  0.00000000000E+00  0.00000000000E+00 -0.12731284658E+04  0.12731290993E+04  0.12699999809E+01 0.  1.
    10030    2    1    2    0    0  0.00000000000E+00  0.00000000000E+00  0.87007910093E+03  0.34163370423E+04  0.33036829668E+04 0.  0.
        4    1    3    3  502    0  0.13370684988E+04 -0.78206111116E+03  0.10283702564E+04  0.18592790939E+04  0.12699999809E+01 0. -1.
       -4    1    3    3    0  502 -0.13370684988E+04  0.78206111116E+03 -0.15829115542E+03  0.15570579484E+04  0.12699999809E+01 0.  1.
</event>
<event>
 5   0  0.2080770E-07  0.3306342E+04  0.7818609E-02  0.8161284E-01
       -1   -1    0    0    0  501  0.00000000000E+00  0.00000000000E+00  0.15229834438E+04  0.15229834439E+04  0.50400001928E-02 0.  1.
        1   -1    0    0  501    0  0.00000000000E+00  0.00000000000E+00 -0.17944869654E+04  0.17944869654E+04  0.50400001928E-02 0. -1.
    10030    2    1    2    0    0  0.00000000000E+00  0.00000000000E+00 -0.27150352151E+03  0.33174704092E+04  0.33063417479E+04 0.  0.
        4    1    3    3  502    0 -0.65119664109E+03  0.21273241310E+03 -0.16453623469E+04  0.17822825282E+04  0.12699999809E+01 0. -1.
       -4    1    3    3    0  502  0.65119664109E+03 -0.21273241310E+03  0.13738588254E+04  0.15351878810E+04  0.12699999809E+01 0.  1.
</event>
<event>
 5   0  0.2080770E-07  0.3288139E+04  0.7818609E-02  0.8165920E-01
        1   -1    0    0  501    0  0.00000000000E+00  0.00000000000E+00  0.24851808044E+04  0.24851808044E+04  0.50400001928E-02 0. -1.
       -1   -1    0    0    0  501  0.00000000000E+00  0.00000000000E+00 -0.10876331330E+04  0.10876331330E+04  0.50400001928E-02 0.  1.
    10030    2    1    2    0    0  0.00000000000E+00  0.00000000000E+00  0.13975476714E+04  0.35728139374E+04  0.32881392820E+04 0.  0.
        4    1    3    3  502    0 -0.16424520847E+04  0.72893471979E+02  0.69765375699E+03  0.17859688369E+04  0.12699999809E+01 0. -1.
       -4    1    3    3    0  502  0.16424520847E+04 -0.72893471979E+02  0.69989391443E+03  0.17868451005E+04  0.12699999809E+01 0.  1.
</event>
<event>
 5   0  0.2080828E-07  0.3328941E+04  0.7818609E-02  0.8155570E-01
       -1   -1    0    0    0  501  0.00000000000E+00  0.00000000000E+00  0.15316937048E+04  0.15316937049E+04  0.50400001928E-02 0.  1.
        1   -1    0    0  501    0  0.00000000000E+00  0.00000000000E+00 -0.18087572571E+04  0.18087572571E+04  0.50400001928E-02 0. -1.
    10030    2    1    2    0    0  0.00000000000E+00  0.00000000000E+00 -0.27706355225E+03  0.33404509620E+04  0.33289410354E+04 0.  0.
        1    1    3    3  502    0 -0.41968736788E+02 -0.68634632442E+03 -0.16595660239E+04  0.17963830437E+04  0.50400001928E-02 0. -1.
       -1    1    3    3    0  502  0.41968736788E+02  0.68634632442E+03  0.13825024717E+04  0.15440679182E+04  0.50400001928E-02 0.  1.
</event>
<event>
 5   0  0.1994250E-07  0.3323708E+04  0.7818609E-02  0.8156889E-01
       -4   -1    0    0    0  501  0.00000000000E+00  0.00000000000E+00  0.13576245436E+04  0.13576251376E+04  0.12699999809E+01 0. -1.
        4   -1    0    0  501    0  0.00000000000E+00  0.00000000000E+00 -0.20342568311E+04  0.20342572275E+04  0.12699999809E+01 0.  1.
    10030    2    1    2    0    0  0.00000000000E+00  0.00000000000E+00 -0.67663228750E+03  0.33918823651E+04  0.33237079785E+04 0.  0.
        1    1    3    3  502    0 -0.16057113587E+04  0.39956256215E+03 -0.18088103399E+03  0.16645351174E+04  0.50400001928E-02 0. -1.
       -1    1    3    3    0  502  0.16057113587E+04 -0.39956256215E+03 -0.49575125351E+03  0.17273472477E+04  0.50400001928E-02 0.  1.
</event>
<event>
 5   0  0.6377741E-07  0.3304810E+04  0.7818609E-02  0.8161673E-01
       -2   -1    0    0    0  501  0.00000000000E+00  0.00000000000E+00  0.16183120236E+04  0.16183120236E+04  0.25500000920E-02 0. -1.
        2   -1    0    0  501    0  0.00000000000E+00  0.00000000000E+00 -0.16872159463E+04  0.16872159463E+04  0.25500000920E-02 0.  1.
    10030    2    1    2    0    0  0.00000000000E+00  0.00000000000E+00 -0.68903922692E+02  0.33055279699E+04  0.33048097387E+04 0.  0.
        1    1    3    3  502    0  0.85066311650E+03 -0.14108870728E+04 -0.16180513021E+03  0.16554186691E+04  0.50400001928E-02 0.  1.
       -1    1    3    3    0  502 -0.85066311650E+03  0.14108870728E+04  0.92901207521E+02  0.16501093007E+04  0.50400001928E-02 0. -1.
</event>
<event>
 5   0  0.6377741E-07  0.3305429E+04  0.7818609E-02  0.8161515E-01
        2   -1    0    0  501    0  0.00000000000E+00  0.00000000000E+00  0.22254019329E+04  0.22254019329E+04  0.25500000920E-02 0.  1.
       -2   -1    0    0    0  501  0.00000000000E+00  0.00000000000E+00 -0.12274033545E+04  0.12274033545E+04  0.25500000920E-02 0. -1.
    10030    2    1    2    0    0  0.00000000000E+00  0.00000000000E+00  0.99799857838E+03  0.34528052874E+04  0.33054293504E+04 0.  0.
        1    1    3    3  502    0 -0.16135774416E+04 -0.39479908927E+02  0.12780366024E+03  0.16191122873E+04  0.50400001928E-02 0. -1.
       -1    1    3    3    0  502  0.16135774416E+04  0.39479908927E+02  0.87019491814E+03  0.18336930002E+04  0.50400001928E-02 0.  1.
</event>
<event>
 5   0  0.6377741E-07  0.3302698E+04  0.7818609E-02  0.8162209E-01
        2   -1    0    0  501    0  0.00000000000E+00  0.00000000000E+00  0.26574252087E+04  0.26574252087E+04  0.25500000920E-02 0. -1.
       -2   -1    0    0    0  501  0.00000000000E+00  0.00000000000E+00 -0.10261636225E+04  0.10261636225E+04  0.25500000920E-02 0.  1.
    10030    2    1    2    0    0  0.00000000000E+00  0.00000000000E+00  0.16312615862E+04  0.36835888313E+04  0.33026977329E+04 0.  0.
        1    1    3    3  502    0  0.20907346034E+03  0.19775488680E+03 -0.99797995129E+03  0.10386446410E+04  0.50400001928E-02 0.  1.
       -1    1    3    3    0  502 -0.20907346034E+03 -0.19775488680E+03  0.26292415375E+04  0.26449441903E+04  0.50400001928E-02 0. -1.
</event>
<event>
 5   0  0.2057130E-07  0.3272275E+04  0.7818609E-02  0.8169986E-01
        1   -1    0    0  501    0  0.00000000000E+00  0.00000000000E+00  0.91401846082E+03  0.91401846084E+03  0.50400001928E-02 0. -1.
       -1   -1    0    0    0  501  0.00000000000E+00  0.00000000000E+00 -0.29287653359E+04  0.29287653359E+04  0.50400001928E-02 0.  1.
    10030    2    1    2    0    0  0.00000000000E+00  0.00000000000E+00 -0.20147468750E+04  0.38427837967E+04  0.32722747956E+04 0.  0.
        2    1    3    3  502    0 -0.16628582928E+03 -0.13267465025E+04 -0.21146508105E+04  0.25019303166E+04  0.25500000920E-02 0.  1.
       -2    1    3    3    0  502  0.16628582928E+03  0.13267465025E+04  0.99903935421E+02  0.13408534801E+04  0.25500000920E-02 0. -1.
</event>
<event>
 5   0  0.2087665E-07  0.3297336E+04  0.7818609E-02  0.8163574E-01
       -1   -1    0    0    0  501  0.00000000000E+00  0.00000000000E+00  0.10615667197E+04  0.10615667197E+04  0.50400001928E-02 0. -1.
        1   -1    0    0  501    0  0.00000000000E+00  0.00000000000E+00 -0.25604666879E+04  0.25604666879E+04  0.50400001928E-02 0.  1.
    10030    2    1    2    0    0  0.00000000000E+00  0.00000000000E+00 -0.14988999682E+04  0.36220334076E+04  0.32973360294E+04 0.  0.
        5    1    3    3  502    0  0.11152744200E+04  0.53961913381E+03 -0.19442420099E+04  0.23054554700E+04  0.46999998093E+01 0.  1.
       -5    1    3    3    0  502 -0.11152744200E+04 -0.53961913381E+03  0.44534204166E+03  0.13165779375E+04  0.46999998093E+01 0. -1.
</event>
<event>
 5   0  0.6258718E-07  0.3299827E+04  0.7818609E-02  0.8162939E-01
       -2   -1    0    0    0  501  0.00000000000E+00  0.00000000000E+00  0.14786090749E+04  0.14786090749E+04  0.25500000920E-02 0. -1.
        2   -1    0    0  501    0  0.00000000000E+00  0.00000000000E+00 -0.18410647862E+04  0.18410647862E+04  0.25500000920E-02 0.  1.
    10030    2    1    2    0    0  0.00000000000E+00  0.00000000000E+00 -0.36245571124E+03  0.33196738611E+04  0.32998273290E+04 0.  0.
        5    1    3    3  502    0  0.10952035425E+04 -0.23376445864E+03 -0.14001571956E+04  0.17929246733E+04  0.46999998093E+01 0.  1.
       -5    1    3    3    0  502 -0.10952035425E+04  0.23376445864E+03  0.10377014844E+04  0.15267491878E+04  0.46999998093E+01 0. -1.
</event>
<event>
 5   0  0.2080770E-07  0.3298831E+04  0.7818609E-02  0.8163193E-01
        1   -1    0    0  501    0  0.00000000000E+00  0.00000000000E+00  0.15788827075E+04  0.15788827075E+04  0.50400001928E-02 0.  1.
       -1   -1    0    0    0  501  0.00000000000E+00  0.00000000000E+00 -0.17230991005E+04  0.17230991005E+04  0.50400001928E-02 0. -1.
    10030    2    1    2    0    0  0.00000000000E+00  0.00000000000E+00 -0.14421639297E+03  0.33019818080E+04  0.32988309281E+04 0.  0.
        4    1    3    3  502    0  0.69415970757E+03  0.12329010854E+04  0.77644380542E+03  0.16139297946E+04  0.12699999809E+01 0.  1.
       -4    1    3    3    0  502 -0.69415970757E+03 -0.12329010854E+04 -0.92066019839E+03  0.16880520134E+04  0.12699999809E+01 0. -1.
</event>
<event>
 5   0  0.6424183E-07  0.3302271E+04  0.7818609E-02  0.8162318E-01
        2   -1    0    0  501    0  0.00000000000E+00  0.00000000000E+00  0.19127754414E+04  0.19127754414E+04  0.25500000920E-02 0. -1.
       -2   -1    0    0    0  501  0.00000000000E+00  0.00000000000E+00 -0.14252839259E+04  0.14252839259E+04  0.25500000920E-02 0.  1.
    10030    2    1    2    0    0  0.00000000000E+00  0.00000000000E+00  0.48749151547E+03  0.33380593673E+04  0.33022707887E+04 0.  0.
        2    1    3    3  502    0 -0.94662838146E+03 -0.40084723991E+03 -0.10623347265E+04  0.14782891711E+04  0.25500000920E-02 0.  1.
       -2    1    3    3    0  502  0.94662838146E+03  0.40084723991E+03  0.15498262420E+04  0.18597701962E+04  0.25500000920E-02 0. -1.
</event>
<event>
 5   0  0.2080828E-07  0.3298174E+04  0.7818609E-02  0.8163360E-01
        1   -1    0    0  501    0  0.00000000000E+00  0.00000000000E+00  0.24282971158E+04  0.24282971158E+04  0.50400001928E-02 0.  1.
       -1   -1    0    0    0  501  0.00000000000E+00  0.00000000000E+00 -0.11199158700E+04  0.11199158700E+04  0.50400001928E-02 0. -1.
    10030    2    1    2    0    0  0.00000000000E+00  0.00000000000E+00  0.13083812458E+04  0.35482129858E+04  0.32981743296E+04 0.  0.
        1    1    3    3  502    0  0.41982914664E+03 -0.10312143291E+04 -0.65451460320E+03  0.12915296632E+04  0.50400001928E-02 0. -1.
       -1    1    3    3    0  502 -0.41982914664E+03  0.10312143291E+04  0.19628958490E+04  0.22566833227E+04  0.50400001928E-02 0.  1.
</event>
<event>
 5   0  0.6351753E-07  0.3304337E+04  0.7818609E-02  0.8161793E-01
        2   -1    0    0  501    0  0.00000000000E+00  0.00000000000E+00  0.19501229578E+04  0.19501229578E+04  0.25500000920E-02 0. -1.
       -2   -1    0    0    0  501  0.00000000000E+00  0.00000000000E+00 -0.13997380128E+04  0.13997380128E+04  0.25500000920E-02 0.  1.
    10030    2    1    2    0    0  0.00000000000E+00  0.00000000000E+00  0.55038494501E+03  0.33498609707E+04  0.33043372914E+04 0.  0.
        3    1    3    3  502    0  0.23869027094E+03  0.10784885370E+04 -0.97037212686E+03  0.14702831852E+04  0.10100000352E+00 0.  1.
       -3    1    3    3    0  502 -0.23869027094E+03 -0.10784885370E+04  0.15207570719E+04  0.18795777855E+04  0.10100000352E+00 0. -1.
</event>
<event>
 5   0  0.2057130E-07  0.3300837E+04  0.7818609E-02  0.8162682E-01
        1   -1    0    0  501    0  0.00000000000E+00  0.00000000000E+00  0.14164703192E+04  0.14164703192E+04  0.50400001928E-02 0. -1.
       -1   -1    0    0    0  501  0.00000000000E+00  0.00000000000E+00 -0.19230061193E+04  0.19230061193E+04  0.50400001928E-02 0.  1.
    10030    2    1    2    0    0  0.00000000000E+00  0.00000000000E+00 -0.50653580008E+03  0.33394764385E+04  0.33008369191E+04 0.  0.
        2    1    3    3  502    0 -0.12101873670E+04 -0.60944367411E+03  0.70005015840E+03  0.15251377903E+04  0.25500000920E-02 0. -1.
       -2    1    3    3    0  502  0.12101873670E+04  0.60944367411E+03 -0.12065859585E+04  0.18143386482E+04  0.25500000920E-02 0.  1.
</event>
<event>
 5   0  0.2080828E-07  0.3324519E+04  0.7818609E-02  0.8156684E-01
       -1   -1    0    0    0  501  0.00000000000E+00  0.00000000000E+00  0.84058892699E+03  0.84058892701E+03  0.50400001928E-02 0. -1.
        1   -1    0    0  501    0  0.00000000000E+00  0.00000000000E+00 -0.32871078335E+04  0.32871078335E+04  0.50400001928E-02 0.  1.
    10030    2    1    2    0    0  0.00000000000E+00  0.00000000000E+00 -0.24465189065E+04  0.41276967605E+04  0.33245188805E+04 0.  0.
        1    1    3    3  502    0  0.13737460254E+04  0.50172720192E+03 -0.22041944037E+04  0.26452563764E+04  0.50400001928E-02 0.  1.
       -1    1    3    3    0  502 -0.13737460254E+04 -0.50172720192E+03 -0.24232450273E+03  0.14824403840E+04  0.50400001928E-02 0. -1.
</event>
<event>
 5   0  0.2080770E-07  0.3303554E+04  0.7818609E-02  0.8161992E-01
       -1   -1    0    0    0  501  0.00000000000E+00  0.00000000000E+00  0.15234264864E+04  0.15234264865E+04  0.50400001928E-02 0.  1.
        1   -1    0    0  501    0  0.00000000000E+00  0.00000000000E+00 -0.17909411679E+04  0.17909411679E+04  0.50400001928E-02 0. -1.
    10030    2    1    2    0    0  0.00000000000E+00  0.00000000000E+00 -0.26751468141E+03  0.33143676543E+04  0.33035539716E+04 0.  0.
        4    1    3    3  502    0  0.66939534042E+03  0.13459677538E+04 -0.82057564888E+03  0.17126194336E+04  0.12699999809E+01 0. -1.
       -4    1    3    3    0  502 -0.66939534042E+03 -0.13459677538E+04  0.55306096747E+03  0.16017482207E+04  0.12699999809E+01 0.  1.
</event>
<event>
 5   0  0.1994250E-07  0.3312010E+04  0.7818609E-02  0.8159846E-01
       -3   -1    0    0    0  501  0.00000000000E+00  0.00000000000E+00  0.30956355830E+04  0.30956355847E+04  0.10100000352E+00 0. -1.
        3   -1    0    0  501    0  0.00000000000E+00  0.00000000000E+00 -0.88587707749E+03  0.88587708324E+03  0.10100000352E+00 0.  1.
    10030    2    1    2    0    0  0.00000000000E+00  0.00000000000E+00  0.22097585056E+04  0.39815126679E+04  0.33120100350E+04 0.  0.
        3    1    3    3  502    0 -0.12492715997E+04 -0.10862743495E+04  0.11541688480E+04  0.20181122942E+04  0.10100000352E+00 0.  1.
       -3    1    3    3    0  502  0.12492715997E+04  0.10862743495E+04  0.10555896576E+04  0.19634003737E+04  0.10100000352E+00 0. -1.
</event>
<event>
 5   0  0.2087665E-07  0.3309681E+04  0.7818609E-02  0.8160436E-01
       -1   -1    0    0    0  501  0.00000000000E+00  0.00000000000E+00  0.17353153976E+04  0.17353153976E+04  0.50400001928E-02 0. -1.
        1   -1    0    0  501    0  0.00000000000E+00  0.00000000000E+00 -0.15780974648E+04  0.15780974648E+04  0.50400001928E-02 0.  1.
    10030    2    1    2    0    0  0.00000000000E+00  0.00000000000E+00  0.15721793282E+03  0.33134128624E+04  0.33096808484E+04 0.  0.
        5    1    3    3  502    0 -0.11749193566E+03  0.50102249659E+03  0.16531655970E+04  0.17314174765E+04  0.46999998093E+01 0. -1.
       -5    1    3    3    0  502  0.11749193566E+03 -0.50102249659E+03 -0.14959476642E+04  0.15819953859E+04  0.46999998093E+01 0.  1.
</event>
<event>
 5   0  0.1994250E-07  0.3309224E+04  0.7818609E-02  0.8160552E-01
       -4   -1    0    0    0  501  0.00000000000E+00  0.00000000000E+00  0.12991899271E+04  0.12991905478E+04  0.12699999809E+01 0.  1.
        4   -1    0    0  501    0  0.00000000000E+00  0.00000000000E+00 -0.21072659011E+04  0.21072662838E+04  0.12699999809E+01 0. -1.
    10030    2    1    2    0    0  0.00000000000E+00  0.00000000000E+00 -0.80807597405E+03  0.34064568316E+04  0.33092236802E+04 0.  0.
        5    1    3    3  502    0  0.23259378158E+03  0.60869519262E+03  0.11615402404E+04  0.13318436563E+04  0.46999998093E+01 0.  1.
       -5    1    3    3    0  502 -0.23259378158E+03 -0.60869519262E+03 -0.19696162145E+04  0.20746131753E+04  0.46999998093E+01 0. -1.
</event>
<event>
 5   0  0.6258718E-07  0.3309098E+04  0.7818609E-02  0.8160584E-01
        2   -1    0    0  501    0  0.00000000000E+00  0.00000000000E+00  0.22604957699E+04  0.22604957699E+04  0.25500000920E-02 0. -1.
       -2   -1    0    0    0  501  0.00000000000E+00  0.00000000000E+00 -0.12110319903E+04  0.12110319903E+04  0.25500000920E-02 0.  1.
    10030    2    1    2    0    0  0.00000000000E+00  0.00000000000E+00  0.10494637795E+04  0.34715277602E+04  0.33090981801E+04 0.  0.
        5    1    3    3  502    0 -0.65147656755E+03 -0.17125106712E+03  0.21101229562E+04  0.22150371613E+04  0.46999998093E+01 0. -1.
       -5    1    3    3    0  502  0.65147656755E+03  0.17125106712E+03 -0.10606591766E+04  0.12564905989E+04  0.46999998093E+01 0.  1.
</event>
<event>
 5   0  0.6258718E-07  0.3299430E+04  0.7818609E-02  0.8163040E-01
       -2   -1    0    0    0  501  0.00000000000E+00  0.00000000000E+00  0.12636501256E+04  0.12636501256E+04  0.25500000920E-02 0.  1.
        2   -1    0    0  501    0  0.00000000000E+00  0.00000000000E+00 -0.21537291549E+04  0.21537291549E+04  0.25500000920E-02 0. -1.
    10030    2    1    2    0    0  0.00000000000E+00  0.00000000000E+00 -0.89007902932E+03  0.34173792805E+04  0.32994303248E+04 0.  0.
        5    1    3    3  502    0  0.85214812747E+03  0.78409653111E+03 -0.16620213638E+04  0.20256606095E+04  0.46999998093E+01 0. -1.
       -5    1    3    3    0  502 -0.85214812747E+03 -0.78409653111E+03  0.77194233452E+03  0.13917186709E+04  0.46999998093E+01 0.  1.
</event>
<event>
 5   0  0.6258718E-07  0.3210298E+04  0.7818609E-02  0.8186103E-01
        2   -1    0    0  501    0  0.00000000000E+00  0.00000000000E+00  0.14392117843E+04  0.14392117843E+04  0.25500000920E-02 0.  1.
       -2   -1    0    0    0  501  0.00000000000E+00  0.00000000000E+00 -0.17902179930E+04  0.17902179930E+04  0.25500000920E-02 0. -1.
    10030    2    1    2    0    0  0.00000000000E+00  0.00000000000E+00 -0.35100620868E+03  0.32294297773E+04  0.32102977009E+04 0.  0.
        5    1    3    3  502    0  0.46766339199E+03 -0.45643410777E+03 -0.16503371704E+04  0.17750143687E+04  0.46999998093E+01 0. -1.
       -5    1    3    3    0  502 -0.46766339199E+03  0.45643410777E+03  0.12993309617E+04  0.14544154087E+04  0.46999998093E+01 0.  1.
</event>
<event>
 5   0  0.2057130E-07  0.3263755E+04  0.7818609E-02  0.8172180E-01
        1   -1    0    0  501    0  0.00000000000E+00  0.00000000000E+00  0.14771468485E+04  0.14771468485E+04  0.50400001928E-02 0. -1.
       -1   -1    0    0    0  501  0.00000000000E+00  0.00000000000E+00 -0.18028157697E+04  0.18028157697E+04  0.50400001928E-02 0.  1.
    10030    2    1    2    0    0  0.00000000000E+00  0.00000000000E+00 -0.32566892122E+03  0.32799626182E+04  0.32637546677E+04 0.  0.
        2    1    3    3  502    0 -0.85256896705E+03  0.12420055093E+04  0.46763425638E+03  0.15773817948E+04  0.25500000920E-02 0. -1.
       -2    1    3    3    0  502  0.85256896705E+03 -0.12420055093E+04 -0.79330317759E+03  0.17025808235E+04  0.25500000920E-02 0.  1.
</event>
<event>
 5   0  0.6351753E-07  0.3296314E+04  0.7818609E-02  0.8163834E-01
       -2   -1    0    0    0  501  0.00000000000E+00  0.00000000000E+00  0.10604298249E+04  0.10604298249E+04  0.25500000920E-02 0.  1.
        2   -1    0    0  501    0  0.00000000000E+00  0.00000000000E+00 -0.25616237972E+04  0.25616237972E+04  0.25500000920E-02 0. -1.
    10030    2    1    2    0    0  0.00000000000E+00  0.00000000000E+00 -0.15011939723E+04  0.36220536221E+04  0.32963144721E+04 0.  0.
        3    1    3    3  502    0 -0.10773790289E+04  0.22562109700E+03 -0.20985090556E+04  0.23696815647E+04  0.10100000352E+00 0. -1.
       -3    1    3    3    0  502  0.10773790289E+04 -0.22562109700E+03  0.59731508332E+03  0.12523720574E+04  0.10100000352E+00 0.  1.
</event>
<event>
 5   0  0.6426079E-07  0.3289628E+04  0.7818609E-02  0.8165540E-01
        2   -1    0    0  501    0  0.00000000000E+00  0.00000000000E+00  0.24309528623E+04  0.24309528623E+04  0.25500000920E-02 0. -1.
       -2   -1    0    0    0  501  0.00000000000E+00  0.00000000000E+00 -0.11129024076E+04  0.11129024076E+04  0.25500000920E-02 0.  1.
    10030    2    1    2    0    0  0.00000000000E+00  0.00000000000E+00  0.13180504546E+04  0.35438552699E+04  0.32896281208E+04 0.  0.
        4    1    3    3  502    0  0.58036792749E+02 -0.11618729141E+04  0.19116838542E+04  0.22378234312E+04  0.12699999809E+01 0. -1.
       -4    1    3    3    0  502 -0.58036792749E+02  0.11618729141E+04 -0.59363339956E+03  0.13060318387E+04  0.12699999809E+01 0.  1.
</event>
<event>
 5   0  0.6351753E-07  0.3307528E+04  0.7818609E-02  0.8160982E-01
       -2   -1    0    0    0  501  0.00000000000E+00  0.00000000000E+00  0.16211011212E+04  0.16211011212E+04  0.25500000920E-02 0.  1.
        2   -1    0    0  501    0  0.00000000000E+00  0.00000000000E+00 -0.16870851645E+04  0.16870851645E+04  0.25500000920E-02 0. -1.
    10030    2    1    2    0    0  0.00000000000E+00  0.00000000000E+00 -0.65984043259E+02  0.33081862858E+04  0.33075281718E+04 0.  0.
        3    1    3    3  502    0  0.45208871066E+03 -0.14941718137E+04  0.51301221991E+03  0.16432027140E+04  0.10100000352E+00 0.  1.
       -3    1    3    3    0  502 -0.45208871066E+03  0.14941718137E+04 -0.57899626316E+03  0.16649835718E+04  0.10100000352E+00 0. -1.
</event>
<event>
 5   0  0.2057130E-07  0.3306669E+04  0.7818609E-02  0.8161201E-01
       -1   -1    0    0    0  501  0.00000000000E+00  0.00000000000E+00  0.23119434896E+04  0.23119434897E+04  0.50400001928E-02 0.  1.
        1   -1    0    0  501    0  0.00000000000E+00  0.00000000000E+00 -0.11823447799E+04  0.11823447799E+04  0.50400001928E-02 0. -1.
    10030    2    1    2    0    0  0.00000000000E+00  0.00000000000E+00  0.11295987098E+04  0.34942882695E+04  0.33066686053E+04 0.  0.
        2    1    3    3  502    0  0.83607733647E+03  0.14230702078E+04  0.66703688098E+03  0.17801944639E+04  0.25500000920E-02 0.  1.
       -2    1    3    3    0  502 -0.83607733647E+03 -0.14230702078E+04  0.46256182881E+03  0.17140938056E+04  0.25500000920E-02 0. -1.
</event>
<event>
 5   0  0.6424183E-07  0.3324709E+04  0.7818609E-02  0.8156637E-01
       -2   -1    0    0    0  501  0.00000000000E+00  0.00000000000E+00  0.12601806527E+04  0.12601806527E+04  0.25500000920E-02 0.  1.
        2   -1    0    0  501    0  0.00000000000E+00  0.00000000000E+00 -0.21928778784E+04  0.21928778784E+04  0.25500000920E-02 0. -1.
    10030    2    1    2    0    0  0.00000000000E+00  0.00000000000E+00 -0.93269722568E+03  0.34530585310E+04  0.33247088751E+04 0.  0.
        2    1    3    3  502    0 -0.13255773624E+03  0.28279315486E+03  0.12294353116E+04  0.12684852018E+04  0.25500000920E-02 0.  1.
       -2    1    3    3    0  502  0.13255773624E+03 -0.28279315486E+03 -0.21621325373E+04  0.21845733292E+04  0.25500000920E-02 0. -1.
</event>
<event>
 5   0  0.2080770E-07  0.3312199E+04  0.7818609E-02  0.8159798E-01
       -1   -1    0    0    0  501  0.00000000000E+00  0.00000000000E+00  0.19423850197E+04  0.19423850198E+04  0.50400001928E-02 0. -1.
        1   -1    0    0  501    0  0.00000000000E+00  0.00000000000E+00 -0.14120096052E+04  0.14120096052E+04  0.50400001928E-02 0.  1.
    10030    2    1    2    0    0  0.00000000000E+00  0.00000000000E+00  0.53037541456E+03  0.33543946249E+04  0.33121994535E+04 0.  0.
        4    1    3    3  502    0 -0.85082320612E+03  0.74965173535E+03  0.14875379892E+04  0.18704675177E+04  0.12699999809E+01 0. -1.
       -4    1    3    3    0  502  0.85082320612E+03 -0.74965173535E+03 -0.95716257468E+03  0.14839271073E+04  0.12699999809E+01 0.  1.
</event>
<event>
 5   0  0.2080770E-07  0.3297840E+04  0.7818609E-02  0.8163445E-01
        1   -1    0    0  501    0  0.00000000000E+00  0.00000000000E+00  0.25938986804E+04  0.25938986804E+04  0.50400001928E-02 0. -1.
       -1   -1    0    0    0  501  0.00000000000E+00  0.00000000000E+00 -0.10482047519E+04  0.10482047520E+04  0.50400001928E-02 0.  1.
    10030    2    1    2    0    0  0.00000000000E+00  0.00000000000E+00  0.15456939285E+04  0.36421034324E+04  0.32978398523E+04 0.  0.
        4    1    3    3  502    0  0.80666888933E+03 -0.69364137419E+03 -0.61845831015E+03  0.12305873993E+04  0.12699999809E+01 0.  1.
       -4    1    3    3    0  502 -0.80666888933E+03  0.69364137419E+03  0.21641522386E+04  0.24115160331E+04  0.12699999809E+01 0. -1.
</event>
<event>
 5   0  0.6426079E-07  0.3282382E+04  0.7818609E-02  0.8167393E-01
       -2   -1    0    0    0  501  0.00000000000E+00  0.00000000000E+00  0.15361142814E+04  0.15361142814E+04  0.25500000920E-02 0.  1.
        2   -1    0    0  501    0  0.00000000000E+00  0.00000000000E+00 -0.17534549485E+04  0.17534549485E+04  0.25500000920E-02 0. -1.
    10030    2    1    2    0    0  0.00000000000E+00  0.00000000000E+00 -0.21734066702E+03  0.32895692299E+04  0.32823815672E+04 0.  0.
        4    1    3    3  502    0  0.15280299159E+04 -0.48179505080E+03  0.24778206861E+03  0.16212339317E+04  0.12699999809E+01 0.  1.
       -4    1    3    3    0  502 -0.15280299159E+04  0.48179505080E+03 -0.46512273564E+03  0.16683352982E+04  0.12699999809E+01 0. -1.
</event>
<event>
 5   0  0.2087665E-07  0.3302601E+04  0.7818609E-02  0.8162234E-01
       -1   -1    0    0    0  501  0.00000000000E+00  0.00000000000E+00  0.12684845977E+04  0.12684845977E+04  0.50400001928E-02 0.  1.
        1   -1    0    0  501    0  0.00000000000E+00  0.00000000000E+00 -0.21496466655E+04  0.21496466655E+04  0.50400001928E-02 0. -1.
    10030    2    1    2    0    0  0.00000000000E+00  0.00000000000E+00 -0.88116206786E+03  0.34181312632E+04  0.33026012085E+04 0.  0.
        5    1    3    3  502    0  0.15236427857E+04  0.49480411977E+03 -0.85515947256E+03  0.18159400510E+04  0.46999998093E+01 0.  1.
       -5    1    3    3    0  502 -0.15236427857E+04 -0.49480411977E+03 -0.26002595299E+02  0.16021912122E+04  0.46999998093E+01 0. -1.
</event>
<event>
 5   0  0.2057130E-07  0.3187795E+04  0.7818609E-02  0.8192048E-01
        1   -1    0    0  501    0  0.00000000000E+00  0.00000000000E+00  0.22957937735E+04  0.22957937735E+04  0.50400001928E-02 0. -1.
       -1   -1    0    0    0  501  0.00000000000E+00  0.00000000000E+00 -0.11065932043E+04  0.11065932043E+04  0.50400001928E-02 0.  1.
    10030    2    1    2    0    0  0.00000000000E+00  0.00000000000E+00  0.11892005692E+04  0.34023869778E+04  0.31877953437E+04 0.  0.
        2    1    3    3  502    0 -0.54543064991E+03 -0.53225825682E+03  0.20887354344E+04  0.22234228479E+04  0.25500000920E-02 0. -1.
       -2    1    3    3    0  502  0.54543064991E+03  0.53225825682E+03 -0.89953486523E+03  0.11789641299E+04  0.25500000920E-02 0.  1.
</event>
<event>
 5   0  0.6351753E-07  0.3298312E+04  0.7818609E-02  0.8163325E-01
       -2   -1    0    0    0  501  0.00000000000E+00  0.00000000000E+00  0.18450773238E+04  0.18450773238E+04  0.25500000920E-02 0.  1.
        2   -1    0    0  501    0  0.00000000000E+00  0.00000000000E+00 -0.14740388685E+04  0.14740388685E+04  0.25500000920E-02 0. -1.
    10030    2    1    2    0    0  0.00000000000E+00  0.00000000000E+00  0.37103845524E+03  0.33191161923E+04  0.32983121082E+04 0.  0.
        3    1    3    3  502    0  0.90872877604E+03 -0.11625899699E+04  0.92658271496E+03  0.17424003456E+04  0.10100000352E+00 0.  1.
       -3    1    3    3    0  502 -0.90872877604E+03  0.11625899699E+04 -0.55554425971E+03  0.15767158467E+04  0.10100000352E+00 0. -1.
</event>
<event>
 5   0  0.6351753E-07  0.3302713E+04  0.7818609E-02  0.8162205E-01
        2   -1    0    0  501    0  0.00000000000E+00  0.00000000000E+00  0.32929060408E+04  0.32929060408E+04  0.25500000920E-02 0. -1.
       -2   -1    0    0    0  501  0.00000000000E+00  0.00000000000E+00 -0.82813731260E+03  0.82813731261E+03  0.25500000920E-02 0.  1.
    10030    2    1    2    0    0  0.00000000000E+00  0.00000000000E+00  0.24647687282E+04  0.41210433534E+04  0.33027130419E+04 0.  0.
        3    1    3    3  502    0 -0.58483392540E+03 -0.87560921636E+02 -0.69148941444E+03  0.90986551522E+03  0.10100000352E+00 0.  1.
       -3    1    3    3    0  502  0.58483392540E+03  0.87560921636E+02  0.31562581427E+04  0.32111778382E+04  0.10100000352E+00 0. -1.
</event>
<event>
 5   0  0.6426079E-07  0.3303048E+04  0.7818609E-02  0.8162120E-01
       -2   -1    0    0    0  501  0.00000000000E+00  0.00000000000E+00  0.15441027401E+04  0.15441027401E+04  0.25500000920E-02 0.  1.
        2   -1    0    0  501    0  0.00000000000E+00  0.00000000000E+00 -0.17664188577E+04  0.17664188577E+04  0.25500000920E-02 0. -1.
    10030    2    1    2    0    0  0.00000000000E+00  0.00000000000E+00 -0.22231611760E+03  0.33105215979E+04  0.33030484092E+04 0.  0.
        4    1    3    3  502    0 -0.14008428661E+03  0.14838006564E+04  0.60195900189E+03  0.16073718450E+04  0.12699999809E+01 0.  1.
       -4    1    3    3    0  502  0.14008428661E+03 -0.14838006564E+04 -0.82427511949E+03  0.17031497529E+04  0.12699999809E+01 0. -1.
</event>
<event>
 5   0  0.2080828E-07  0.3308214E+04  0.7818609E-02  0.8160808E-01
       -1   -1    0    0    0  501  0.00000000000E+00  0.00000000000E+00  0.24045555343E+04  0.24045555343E+04  0.50400001928E-02 0. -1.
        1   -1    0    0  501    0  0.00000000000E+00  0.00000000000E+00 -0.11378693935E+04  0.11378693936E+04  0.50400001928E-02 0.  1.
    10030    2    1    2    0    0  0.00000000000E+00  0.00000000000E+00  0.12666861407E+04  0.35424249278E+04  0.33082141089E+04 0.  0.
        1    1    3    3  502    0  0.10892007886E+04  0.44331718686E+03  0.18789617074E+04  0.22166157953E+04  0.50400001928E-02 0. -1.
       -1    1    3    3    0  502 -0.10892007886E+04 -0.44331718686E+03 -0.61227556670E+03  0.13258091325E+04  0.50400001928E-02 0.  1.
</event>
<event>
 5   0  0.6426079E-07  0.3279237E+04  0.7818609E-02  0.8168199E-01
        2   -1    0    0  501    0  0.00000000000E+00  0.00000000000E+00  0.22148832342E+04  0.22148832342E+04  0.25500000920E-02 0.  1.
       -2   -1    0    0    0  501  0.00000000000E+00  0.00000000000E+00 -0.12137658295E+04  0.12137658295E+04  0.25500000920E-02 0. -1.
    10030    2    1    2    0    0  0.00000000000E+00  0.00000000000E+00  0.10011174047E+04  0.34286490637E+04  0.32792374638E+04 0.  0.
        4    1    3    3  502    0 -0.18492860221E+03 -0.40037054739E+03  0.21517050845E+04  0.21964361012E+04  0.12699999809E+01 0.  1.
       -4    1    3    3    0  502  0.18492860221E+03  0.40037054739E+03 -0.11505876798E+04  0.12322129625E+04  0.12699999809E+01 0. -1.
</event>
<event>
 5   0  0.2037333E-07  0.3299653E+04  0.7818609E-02  0.8162984E-01
        1   -1    0    0  501    0  0.00000000000E+00  0.00000000000E+00  0.15002301617E+04  0.15002301617E+04  0.50400001928E-02 0.  1.
       -1   -1    0    0    0  501  0.00000000000E+00  0.00000000000E+00 -0.18143401306E+04  0.18143401306E+04  0.50400001928E-02 0. -1.
    10030    2    1    2    0    0  0.00000000000E+00  0.00000000000E+00 -0.31410996890E+03  0.33145702923E+04  0.32996531864E+04 0.  0.
        3    1    3    3  502    0  0.76062693714E+03 -0.11107316049E+04  0.80101236214E+03  0.15664925312E+04  0.10100000352E+00 0.  1.
       -3    1    3    3    0  502 -0.76062693714E+03  0.11107316049E+04 -0.11151223310E+04  0.17480777612E+04  0.10100000352E+00 0. -1.
</event>
<event>
 5   0  0.6351753E-07  0.3158566E+04  0.7818609E-02  0.8199846E-01
        2   -1    0    0  501    0  0.00000000000E+00  0.00000000000E+00  0.17737167031E+04  0.17737167031E+04  0.25500000920E-02 0. -1.
       -2   -1    0    0    0  501  0.00000000000E+00  0.00000000000E+00 -0.14061625859E+04  0.14061625859E+04  0.25500000920E-02 0.  1.
    10030    2    1    2    0    0  0.00000000000E+00  0.00000000000E+00  0.36755411718E+03  0.31798792891E+04  0.31585655390E+04 0.  0.
        3    1    3    3  502    0  0.75203348495E+03 -0.90763469300E+03 -0.87440023500E+03  0.14676276366E+04  0.10100000352E+00 0.  1.
       -3    1    3    3    0  502 -0.75203348495E+03  0.90763469300E+03  0.12419543522E+04  0.17122516525E+04  0.10100000352E+00 0. -1.
</event>
<event>
 5   0  0.6258718E-07  0.3297409E+04  0.7818609E-02  0.8163555E-01
        2   -1    0    0  501    0  0.00000000000E+00  0.00000000000E+00  0.13809982466E+04  0.13809982466E+04  0.25500000920E-02 0. -1.
       -2   -1    0    0    0  501  0.00000000000E+00  0.00000000000E+00 -0.19683058004E+04  0.19683058004E+04  0.25500000920E-02 0.  1.
    10030    2    1    2    0    0  0.00000000000E+00  0.00000000000E+00 -0.58730755374E+03  0.33493040470E+04  0.32974092007E+04 0.  0.
        5    1    3    3  502    0 -0.12384877853E+04  0.20898083878E+03 -0.13784885590E+04  0.18648800987E+04  0.46999998093E+01 0.  1.
       -5    1    3    3    0  502  0.12384877853E+04 -0.20898083878E+03  0.79118100521E+03  0.14844239483E+04  0.46999998093E+01 0. -1.
</event>
<event>
 5   0  0.2080828E-07  0.3296970E+04  0.7818609E-02  0.8163667E-01
       -1   -1    0    0    0  501  0.00000000000E+00  0.00000000000E+00  0.13210155131E+04  0.13210155131E+04  0.50400001928E-02 0. -1.
        1   -1    0    0  501    0  0.00000000000E+00  0.00000000000E+00 -0.20571318331E+04  0.20571318331E+04  0.50400001928E-02 0.  1.
    10030    2    1    2    0    0  0.00000000000E+00  0.00000000000E+00 -0.73611632002E+03  0.33781473462E+04  0.32969701631E+04 0.  0.
        1    1    3    3  502    0  0.12020850239E+04 -0.19930055528E+03  0.76958299748E+03  0.14411755987E+04  0.50400001928E-02 0. -1.
       -1    1    3    3    0  502 -0.12020850239E+04  0.19930055528E+03 -0.15056993175E+04  0.19369717476E+04  0.50400001928E-02 0.  1.
</event>
<event>
 5   0  0.2080828E-07  0.3293506E+04  0.7818609E-02  0.8164550E-01
       -1   -1    0    0    0  501  0.00000000000E+00  0.00000000000E+00  0.86202002898E+03  0.86202002900E+03  0.50400001928E-02 0.  1.
        1   -1    0    0  501    0  0.00000000000E+00  0.00000000000E+00 -0.31458610265E+04  0.31458610265E+04  0.50400001928E-02 0. -1.
    10030    2    1    2    0    0  0.00000000000E+00  0.00000000000E+00 -0.22838409975E+04  0.40078810555E+04  0.32935058605E+04 0.  0.
        1    1    3    3  502    0 -0.96666608614E+03  0.59894042108E+03 -0.25913255457E+04  0.28298659039E+04  0.50400001928E-02 0. -1.
       -1    1    3    3    0  502  0.96666608614E+03 -0.59894042108E+03  0.30748454817E+03  0.11780151516E+04  0.50400001928E-02 0.  1.
</event>
<event>
 5   0  0.6377741E-07  0.3245567E+04  0.7818609E-02  0.8176886E-01
        2   -1    0    0  501    0  0.00000000000E+00  0.00000000000E+00  0.17273483546E+04  0.17273483546E+04  0.25500000920E-02 0.  1.
       -2   -1    0    0    0  501  0.00000000000E+00  0.00000000000E+00 -0.15245486493E+04  0.15245486493E+04  0.25500000920E-02 0. -1.
    10030    2    1    2    0    0  0.00000000000E+00  0.00000000000E+00  0.20279970538E+03  0.32518970039E+04  0.32455671929E+04 0.  0.
        1    1    3    3  502    0 -0.56711800338E+03  0.98215169080E+03  0.12643451452E+04  0.16984738502E+04  0.50400001928E-02 0.  1.
       -1    1    3    3    0  502  0.56711800338E+03 -0.98215169080E+03 -0.10615454399E+04  0.15534231537E+04  0.50400001928E-02 0. -1.
</event>
<event>
 5   0  0.2080770E-07  0.3303937E+04  0.7818609E-02  0.8161894E-01
       -1   -1    0    0    0  501  0.00000000000E+00  0.00000000000E+00  0.13350756385E+04  0.13350756385E+04  0.50400001928E-02 0. -1.
        1   -1    0    0  501    0  0.00000000000E+00  0.00000000000E+00 -0.20440792672E+04  0.20440792672E+04  0.50400001928E-02 0.  1.
    10030    2    1    2    0    0  0.00000000000E+00  0.00000000000E+00 -0.70900362872E+03  0.33791549057E+04  0.33039373074E+04 0.  0.
        4    1    3    3  502    0 -0.13639148909E+04 -0.20254407248E+03 -0.12850002286E+04  0.18848116965E+04  0.12699999809E+01 0. -1.
       -4    1    3    3    0  502  0.13639148909E+04  0.20254407248E+03  0.57599659989E+03  0.14943432092E+04  0.12699999809E+01 0.  1.
</event>
<event>
 5   0  0.6258718E-07  0.3293205E+04  0.7818609E-02  0.8164626E-01
        2   -1    0    0  501    0  0.00000000000E+00  0.00000000000E+00  0.19816877532E+04  0.19816877532E+04  0.25500000920E-02 0.  1.
       -2   -1    0    0    0  501  0.00000000000E+00  0.00000000000E+00 -0.13681773343E+04  0.13681773343E+04  0.25500000920E-02 0. -1.
    10030    2    1    2    0    0  0.00000000000E+00  0.00000000000E+00  0.61351041892E+03  0.33498650875E+04  0.32932052883E+04 0.  0.
        5    1    3    3  502    0 -0.45137807983E+03  0.65393485027E+03  0.17737557867E+04  0.19436060919E+04  0.46999998093E+01 0.  1.
       -5    1    3    3    0  502  0.45137807983E+03 -0.65393485027E+03 -0.11602453678E+04  0.14062589957E+04  0.46999998093E+01 0. -1.
</event>
<event>
 5   0  0.2057130E-07  0.3301254E+04  0.7818609E-02  0.8162576E-01
       -1   -1    0    0    0  501  0.00000000000E+00  0.00000000000E+00  0.97712003563E+03  0.97712003564E+03  0.50400001928E-02 0. -1.
        1   -1    0    0  501    0  0.00000000000E+00  0.00000000000E+00 -0.27883678814E+04  0.27883678814E+04  0.50400001928E-02 0.  1.
    10030    2    1    2    0    0  0.00000000000E+00  0.00000000000E+00 -0.18112478457E+04  0.37654879170E+04  0.33012543820E+04 0.  0.
        2    1    3    3  502    0 -0.56620402324E+03  0.13964190594E+04 -0.13707993471E+03  0.15130644711E+04  0.25500000920E-02 0. -1.
       -2    1    3    3    0  502  0.56620402324E+03 -0.13964190594E+04 -0.16741679110E+04  0.22524234459E+04  0.25500000920E-02 0.  1.
</event>
<event>
 5   0  0.2087665E-07  0.3285251E+04  0.7818609E-02  0.8166658E-01
        1   -1    0    0  501    0  0.00000000000E+00  0.00000000000E+00  0.14194456394E+04  0.14194456395E+04  0.50400001928E-02 0.  1.
       -1   -1    0    0    0  501  0.00000000000E+00  0.00000000000E+00 -0.19008962874E+04  0.19008962874E+04  0.50400001928E-02 0. -1.
    10030    2    1    2    0    0  0.00000000000E+00  0.00000000000E+00 -0.48145064795E+03  0.33203419269E+04  0.32852512514E+04 0.  0.
        5    1    3    3  502    0 -0.15746566581E+04 -0.26056616525E+03  0.15169833238E+03  0.16032694070E+04  0.46999998093E+01 0.  1.
       -5    1    3    3    0  502  0.15746566581E+04  0.26056616525E+03 -0.63314898033E+03  0.17170725199E+04  0.46999998093E+01 0. -1.
</event>
<event>
 5   0  0.2037333E-07  0.3315646E+04  0.7818609E-02  0.8158926E-01
        1   -1    0    0  501    0  0.00000000000E+00  0.00000000000E+00  0.19399751814E+04  0.19399751814E+04  0.50400001928E-02 0. -1.
       -1   -1    0    0    0  501  0.00000000000E+00  0.00000000000E+00 -0.14167074466E+04  0.14167074466E+04  0.50400001928E-02 0.  1.
    10030    2    1    2    0    0  0.00000000000E+00  0.00000000000E+00  0.52326773479E+03  0.33566826279E+04  0.33156461124E+04 0.  0.
        3    1    3    3  502    0  0.82822718802E+03  0.54157331230E+03  0.16081767388E+04  0.18882516678E+04  0.10100000352E+00 0. -1.
       -3    1    3    3    0  502 -0.82822718802E+03 -0.54157331230E+03 -0.10849090040E+04  0.14684309601E+04  0.10100000352E+00 0.  1.
</event>
<event>
 5   0  0.6258718E-07  0.3295191E+04  0.7818609E-02  0.8164120E-01
       -2   -1    0    0    0  501  0.00000000000E+00  0.00000000000E+00  0.19220148926E+04  0.19220148926E+04  0.25500000920E-02 0. -1.
        2   -1    0    0  501    0  0.00000000000E+00  0.00000000000E+00 -0.14123565334E+04  0.14123565334E+04  0.25500000920E-02 0.  1.
    10030    2    1    2    0    0  0.00000000000E+00  0.00000000000E+00  0.50965835923E+03  0.33343714260E+04  0.32951906111E+04 0.  0.
        5    1    3    3  502    0  0.13493934835E+03  0.21835009797E+03  0.19016515990E+04  0.19189023651E+04  0.46999998093E+01 0. -1.
       -5    1    3    3    0  502 -0.13493934835E+03 -0.21835009797E+03 -0.13919932397E+04  0.14154690609E+04  0.46999998093E+01 0.  1.
</event>
<event>
 5   0  0.2057130E-07  0.3291750E+04  0.7818609E-02  0.8164998E-01
       -1   -1    0    0    0  501  0.00000000000E+00  0.00000000000E+00  0.12278838346E+04  0.12278838347E+04  0.50400001928E-02 0. -1.
        1   -1    0    0  501    0  0.00000000000E+00  0.00000000000E+00 -0.22061569399E+04  0.22061569399E+04  0.50400001928E-02 0.  1.
    10030    2    1    2    0    0  0.00000000000E+00  0.00000000000E+00 -0.97827310529E+03  0.34340407746E+04  0.32917499560E+04 0.  0.
        2    1    3    3  502    0 -0.15772468624E+04  0.32283399666E+03 -0.84593677404E+03  0.18186639272E+04  0.25500000920E-02 0.  1.
       -2    1    3    3    0  502  0.15772468624E+04 -0.32283399666E+03 -0.13233633125E+03  0.16153768474E+04  0.25500000920E-02 0. -1.
</event>
<event>
 5   0  0.2037333E-07  0.3303162E+04  0.7818609E-02  0.8162091E-01
       -1   -1    0    0    0  501  0.00000000000E+00  0.00000000000E+00  0.14936243090E+04  0.14936243090E+04  0.50400001928E-02 0. -1.
        1   -1    0    0  501    0  0.00000000000E+00  0.00000000000E+00 -0.18262417107E+04  0.18262417107E+04  0.50400001928E-02 0.  1.
    10030    2    1    2    0    0  0.00000000000E+00  0.00000000000E+00 -0.33261740168E+03  0.33198660198E+04  0.33031615240E+04 0.  0.
        3    1    3    3  502    0  0.40038076179E+03 -0.54359913377E+02  0.14431826498E+04  0.14986780593E+04  0.10100000352E+00 0. -1.
       -3    1    3    3    0  502 -0.40038076179E+03  0.54359913377E+02 -0.17758000514E+04  0.18211879605E+04  0.10100000352E+00 0.  1.
</event>
<event>
 5   0  0.6258718E-07  0.3349884E+04  0.7818609E-02  0.8150317E-01
        2   -1    0    0  501    0  0.00000000000E+00  0.00000000000E+00  0.95888524757E+03  0.95888524757E+03  0.25500000920E-02 0.  1.
       -2   -1    0    0    0  501  0.00000000000E+00  0.00000000000E+00 -0.29257217567E+04  0.29257217567E+04  0.25500000920E-02 0. -1.
    10030    2    1    2    0    0  0.00000000000E+00  0.00000000000E+00 -0.19668365091E+04  0.38846070043E+04  0.33498844344E+04 0.  0.
        5    1    3    3  502    0 -0.99176312533E+03 -0.12284785909E+04 -0.16318292444E+04  0.22706039985E+04  0.46999998093E+01 0. -1.
       -5    1    3    3    0  502  0.99176312533E+03  0.12284785909E+04 -0.33500726473E+03  0.16140030058E+04  0.46999998093E+01 0.  1.
</event>
<event>
 5   0  0.1994250E-07  0.3299070E+04  0.7818609E-02  0.8163132E-01
        4   -1    0    0  501    0  0.00000000000E+00  0.00000000000E+00  0.18954925368E+04  0.18954929622E+04  0.12699999809E+01 0.  1.
       -4   -1    0    0    0  501  0.00000000000E+00  0.00000000000E+00 -0.14354916837E+04  0.14354922455E+04  0.12699999809E+01 0. -1.
    10030    2    1    2    0    0  0.00000000000E+00  0.00000000000E+00  0.46000085304E+03  0.33309852078E+04  0.32990698188E+04 0.  0.
        1    1    3    3  502    0  0.11116151872E+04 -0.29668441832E+03  0.14234913027E+04  0.18303107543E+04  0.50400001928E-02 0.  1.
       -1    1    3    3    0  502 -0.11116151872E+04  0.29668441832E+03 -0.96349044967E+03  0.15006744534E+04  0.50400001928E-02 0. -1.
</event>
<event>
 5   0  0.6377741E-07  0.3294338E+04  0.7818609E-02  0.8164338E-01
        2   -1    0    0  501    0  0.00000000000E+00  0.00000000000E+00  0.19314310142E+04  0.19314310142E+04  0.25500000920E-02 0. -1.
       -2   -1    0    0    0  501  0.00000000000E+00  0.00000000000E+00 -0.14047436505E+04  0.14047436505E+04  0.25500000920E-02 0.  1.
    10030    2    1    2    0    0  0.00000000000E+00  0.00000000000E+00  0.52668736370E+03  0.33361746647E+04  0.32943378416E+04 0.  0.
        1    1    3    3  502    0  0.10287673629E+04 -0.44256341815E+03  0.14865493306E+04  0.18611968135E+04  0.50400001928E-02 0. -1.
       -1    1    3    3    0  502 -0.10287673629E+04  0.44256341815E+03 -0.95986196693E+03  0.14749778512E+04  0.50400001928E-02 0.  1.
</event>
<event>
 5   0  0.2080770E-07  0.3298535E+04  0.7818609E-02  0.8163268E-01
        1   -1    0    0  501    0  0.00000000000E+00  0.00000000000E+00  0.20590732166E+04  0.20590732166E+04  0.50400001928E-02 0. -1.
       -1   -1    0    0    0  501  0.00000000000E+00  0.00000000000E+00 -0.13210233767E+04  0.13210233767E+04  0.50400001928E-02 0.  1.
    10030    2    1    2    0    0  0.00000000000E+00  0.00000000000E+00  0.73804983992E+03  0.33800965933E+04  0.32985353438E+04 0.  0.
        4    1    3    3  502    0  0.50160861248E+03  0.41726289139E+03 -0.11831440897E+04  0.13511295535E+04  0.12699999809E+01 0.  1.
       -4    1    3    3    0  502 -0.50160861248E+03 -0.41726289139E+03  0.19211939296E+04  0.20289670398E+04  0.12699999809E+01 0. -1.
</event>
<event>
 5   0  0.2087665E-07  0.3294362E+04  0.7818609E-02  0.8164332E-01
        1   -1    0    0  501    0  0.00000000000E+00  0.00000000000E+00  0.16217344195E+04  0.16217344195E+04  0.50400001928E-02 0.  1.
       -1   -1    0    0    0  501  0.00000000000E+00  0.00000000000E+00 -0.16730265252E+04  0.16730265252E+04  0.50400001928E-02 0. -1.
    10030    2    1    2    0    0  0.00000000000E+00  0.00000000000E+00 -0.51292105734E+02  0.32947609447E+04  0.32943616684E+04 0.  0.
        5    1    3    3  502    0  0.14471479812E+04 -0.59607029474E+03  0.48788042766E+03  0.16393860063E+04  0.46999998093E+01 0.  1.
       -5    1    3    3    0  502 -0.14471479812E+04  0.59607029474E+03 -0.53917253339E+03  0.16553749384E+04  0.46999998093E+01 0. -1.
</event>
<event>
 5   0  0.2037333E-07  0.3327941E+04  0.7818609E-02  0.8155822E-01
        1   -1    0    0  501    0  0.00000000000E+00  0.00000000000E+00  0.15432292296E+04  0.15432292296E+04  0.50400001928E-02 0.  1.
       -1   -1    0    0    0  501  0.00000000000E+00  0.00000000000E+00 -0.17941584960E+04  0.17941584961E+04  0.50400001928E-02 0. -1.
    10030    2    1    2    0    0  0.00000000000E+00  0.00000000000E+00 -0.25092926642E+03  0.33373877257E+04  0.33279410053E+04 0.  0.
        3    1    3    3  502    0  0.12437102143E+03  0.16456249898E+04  0.87855110336E+02  0.16526549213E+04  0.10100000352E+00 0.  1.
       -3    1    3    3    0  502 -0.12437102143E+03 -0.16456249898E+04 -0.33878437675E+03  0.16847328044E+04  0.10100000352E+00 0. -1.
</event>
<event>
 5   0  0.6424183E-07  0.3344574E+04  0.7818609E-02  0.8151645E-01
       -2   -1    0    0    0  501  0.00000000000E+00  0.00000000000E+00  0.18382195472E+04  0.18382195472E+04  0.25500000920E-02 0. -1.
        2   -1    0    0  501    0  0.00000000000E+00  0.00000000000E+00 -0.15213326786E+04  0.15213326786E+04  0.25500000920E-02 0.  1.
    10030    2    1    2    0    0  0.00000000000E+00  0.00000000000E+00  0.31688686858E+03  0.33595522258E+04  0.33445737951E+04 0.  0.
        2    1    3    3  502    0 -0.12109401050E+04 -0.68189331850E+03 -0.77587757959E+03  0.15916470884E+04  0.25500000920E-02 0.  1.
       -2    1    3    3    0  502  0.12109401050E+04  0.68189331850E+03  0.10927644482E+04  0.17679051374E+04  0.25500000920E-02 0. -1.
</event>
<event>
 5   0  0.2037333E-07  0.3293462E+04  0.7818609E-02  0.8164561E-01
        1   -1    0    0  501    0  0.00000000000E+00  0.00000000000E+00  0.12492778812E+04  0.12492778812E+04  0.50400001928E-02 0. -1.
       -1   -1    0    0    0  501  0.00000000000E+00  0.00000000000E+00 -0.21706327357E+04  0.21706327357E+04  0.50400001928E-02 0.  1.
    10030    2    1    2    0    0  0.00000000000E+00  0.00000000000E+00 -0.92135485443E+03  0.34199106169E+04  0.32934622906E+04 0.  0.
        3    1    3    3  502    0  0.15307775401E+04 -0.32644749432E+02 -0.10900655927E+04  0.18795181733E+04  0.10100000352E+00 0.  1.
       -3    1    3    3    0  502 -0.15307775401E+04  0.32644749432E+02  0.16871073830E+03  0.15403924436E+04  0.10100000352E+00 0. -1.
</event>
<event>
 5   0  0.2057130E-07  0.3310775E+04  0.7818609E-02  0.8160159E-01
       -1   -1    0    0    0  501  0.00000000000E+00  0.00000000000E+00  0.12937739174E+04  0.12937739174E+04  0.50400001928E-02 0. -1.
        1   -1    0    0  501    0  0.00000000000E+00  0.00000000000E+00 -0.21180737589E+04  0.21180737589E+04  0.50400001928E-02 0.  1.
    10030    2    1    2    0    0  0.00000000000E+00  0.00000000000E+00 -0.82429984148E+03  0.34118476763E+04  0.33107754889E+04 0.  0.
        2    1    3    3  502    0 -0.12911520009E+04  0.88625389874E+02 -0.14758331249E+04  0.19629089031E+04  0.25500000920E-02 0. -1.
       -2    1    3    3    0  502  0.12911520009E+04 -0.88625389874E+02  0.65153328346E+03  0.14489387732E+04  0.25500000920E-02 0.  1.
</event>
<event>
 5   0  0.2080770E-07  0.3306255E+04  0.7818609E-02  0.8161306E-01
        1   -1    0    0  501    0  0.00000000000E+00  0.00000000000E+00  0.29885383784E+04  0.29885383784E+04  0.50400001928E-02 0.  1.
       -1   -1    0    0    0  501  0.00000000000E+00  0.00000000000E+00 -0.91443704172E+03  0.91443704174E+03  0.50400001928E-02 0. -1.
    10030    2    1    2    0    0  0.00000000000E+00  0.00000000000E+00  0.20741013367E+04  0.39029754201E+04  0.33062547959E+04 0.  0.
        4    1    3    3  502    0  0.39121501017E+03 -0.16061250256E+04  0.10229935629E+04  0.19440175474E+04  0.12699999809E+01 0. -1.
       -4    1    3    3    0  502 -0.39121501017E+03  0.16061250256E+04  0.10511077738E+04  0.19589578727E+04  0.12699999809E+01 0.  1.
</event>
<event>
 5   0  0.6351753E-07  0.3360313E+04  0.7818609E-02  0.8147716E-01
       -2   -1    0    0    0  501  0.00000000000E+00  0.00000000000E+00  0.14017975535E+04  0.14017975535E+04  0.25500000920E-02 0. -1.
        2   -1    0    0  501    0  0.00000000000E+00  0.00000000000E+00 -0.20137897050E+04  0.20137897050E+04  0.25500000920E-02 0.  1.
    10030    2    1    2    0    0  0.00000000000E+00  0.00000000000E+00 -0.61199215150E+03  0.34155872585E+04  0.33603127722E+04 0.  0.
        3    1    3    3  502    0  0.47640171972E+02 -0.16714466771E+04 -0.13921819036E+03  0.16779109914E+04  0.10100000352E+00 0. -1.
       -3    1    3    3    0  502 -0.47640171972E+02  0.16714466771E+04 -0.47277396114E+03  0.17376762670E+04  0.10100000352E+00 0.  1.
</event>
<event>
 5   0  0.6351753E-07  0.3298552E+04  0.7818609E-02  0.8163264E-01
        2   -1    0    0  501    0  0.00000000000E+00  0.00000000000E+00  0.28018250369E+04  0.28018250369E+04  0.25500000920E-02 0. -1.
       -2   -1    0    0    0  501  0.00000000000E+00  0.00000000000E+00 -0.97083570385E+03  0.97083570385E+03  0.25500000920E-02 0.  1.
    10030    2    1    2    0    0  0.00000000000E+00  0.00000000000E+00  0.18309893331E+04  0.37726607408E+04  0.32985522775E+04 0.  0.
        3    1    3    3  502    0 -0.59440583991E+03  0.33790166902E+03 -0.80110078287E+03  0.10532133283E+04  0.10100000352E+00 0.  1.
       -3    1    3    3    0  502  0.59440583991E+03 -0.33790166902E+03  0.26320901159E+04  0.27194474124E+04  0.10100000352E+00 0. -1.
</event>
<event>
 5   0  0.2057130E-07  0.3301230E+04  0.7818609E-02  0.8162583E-01
        1   -1    0    0  501    0  0.00000000000E+00  0.00000000000E+00  0.15633119635E+04  0.15633119635E+04  0.50400001928E-02 0. -1.
       -1   -1    0    0    0  501  0.00000000000E+00  0.00000000000E+00 -0.17427932048E+04  0.17427932048E+04  0.50400001928E-02 0.  1.
    10030    2    1    2    0    0  0.00000000000E+00  0.00000000000E+00 -0.17948124134E+03  0.33061051683E+04  0.33012297509E+04 0.  0.
        2    1    3    3  502    0 -0.10795911429E+04  0.12876842494E+03 -0.13335212940E+04  0.17205747251E+04  0.25500000920E-02 0.  1.
       -2    1    3    3    0  502  0.10795911429E+04 -0.12876842494E+03  0.11540400527E+04  0.15855304432E+04  0.25500000920E-02 0. -1.
</event>
<event>
 5   0  0.2087665E-07  0.3302138E+04  0.7818609E-02  0.8162352E-01
       -1   -1    0    0    0  501  0.00000000000E+00  0.00000000000E+00  0.97151388542E+03  0.97151388543E+03  0.50400001928E-02 0. -1.
        1   -1    0    0  501    0  0.00000000000E+00  0.00000000000E+00 -0.28059590762E+04  0.28059590762E+04  0.50400001928E-02 0.  1.
    10030    2    1    2    0    0  0.00000000000E+00  0.00000000000E+00 -0.18344451908E+04  0.37774729616E+04  0.33021376134E+04 0.  0.
        5    1    3    3  502    0  0.11486616205E+04  0.95968261663E+03 -0.17143759910E+04  0.22758561843E+04  0.46999998093E+01 0. -1.
       -5    1    3    3    0  502 -0.11486616205E+04 -0.95968261663E+03 -0.12006919976E+03  0.15016167773E+04  0.46999998093E+01 0.  1.
</event>
<event>
 5   0  0.6258718E-07  0.3295059E+04  0.7818609E-02  0.8164154E-01
        2   -1    0    0  501    0  0.00000000000E+00  0.00000000000E+00  0.27376183537E+04  0.27376183537E+04  0.25500000920E-02 0.  1.
       -2   -1    0    0    0  501  0.00000000000E+00  0.00000000000E+00 -0.99150158361E+03  0.99150158361E+03  0.25500000920E-02 0. -1.
    10030    2    1    2    0    0  0.00000000000E+00  0.00000000000E+00  0.17461167701E+04  0.37291199373E+04  0.32950586841E+04 0.  0.
        5    1    3    3  502    0 -0.11455859957E+04 -0.11840146288E+04  0.88272314375E+03  0.18690853788E+04  0.46999998093E+01 0. -1.
       -5    1    3    3    0  502  0.11455859957E+04  0.11840146288E+04  0.86339362631E+03  0.18600345585E+04  0.46999998093E+01 0.  1.
</event>
<event>
 5   0  0.6377741E-07  0.3285104E+04  0.7818609E-02  0.8166696E-01
       -2   -1    0    0    0  501  0.00000000000E+00  0.00000000000E+00  0.18651286602E+04  0.18651286602E+04  0.25500000920E-02 0. -1.
        2   -1    0    0  501    0  0.00000000000E+00  0.00000000000E+00 -0.14465367242E+04  0.14465367242E+04  0.25500000920E-02 0.  1.
    10030    2    1    2    0    0  0.00000000000E+00  0.00000000000E+00  0.41859193600E+03  0.33116653844E+04  0.32851040180E+04 0.  0.
        1    1    3    3  502    0 -0.11515047118E+04 -0.28821731949E+03  0.13537924940E+04  0.18004961654E+04  0.50400001928E-02 0. -1.
       -1    1    3    3    0  502  0.11515047118E+04  0.28821731949E+03 -0.93520055804E+03  0.15111692190E+04  0.50400001928E-02 0.  1.
</event>
<event>
 5   0  0.1994250E-07  0.3310860E+04  0.7818609E-02  0.8160138E-01
        3   -1    0    0  501    0  0.00000000000E+00  0.00000000000E+00  0.95416867833E+03  0.95416868368E+03  0.10100000352E+00 0. -1.
       -3   -1    0    0    0  501  0.00000000000E+00  0.00000000000E+00 -0.28720795728E+04  0.28720795746E+04  0.10100000352E+00 0.  1.
    10030    2    1    2    0    0  0.00000000000E+00  0.00000000000E+00 -0.19179108945E+04  0.38262482583E+04  0.33108599389E+04 0.  0.
        5    1    3    3  502    0 -0.86164904489E+03 -0.13938988676E+04 -0.68784604661E+03  0.17772302618E+04  0.46999998093E+01 0.  1.
       -5    1    3    3    0  502  0.86164904489E+03  0.13938988676E+04 -0.12300648479E+04  0.20490179965E+04  0.46999998093E+01 0. -1.
</event>
<event>
 5   0  0.2080770E-07  0.3299151E+04  0.7818609E-02  0.8163111E-01
       -1   -1    0    0    0  501  0.00000000000E+00  0.00000000000E+00  0.10886764041E+04  0.10886764041E+04  0.50400001928E-02 0.  1.
        1   -1    0    0  501    0  0.00000000000E+00  0.00000000000E+00 -0.24994562005E+04  0.24994562005E+04  0.50400001928E-02 0. -1.
    10030    2    1    2    0    0  0.00000000000E+00  0.00000000000E+00 -0.14107797964E+04  0.35881326046E+04  0.32991507929E+04 0.  0.
        4    1    3    3  502    0  0.10760831108E+04 -0.87836295784E+03 -0.16730547792E+04  0.21745321920E+04  0.12699999809E+01 0. -1.
       -4    1    3    3    0  502 -0.10760831108E+04  0.87836295784E+03  0.26227498275E+03  0.14136004126E+04  0.12699999809E+01 0.  1.
</event>
<event>
 5   0  0.6426079E-07  0.3296464E+04  0.7818609E-02  0.8163796E-01
       -2   -1    0    0    0  501  0.00000000000E+00  0.00000000000E+00  0.10773968617E+04  0.10773968617E+04  0.25500000920E-02 0.  1.
        2   -1    0    0  501    0  0.00000000000E+00  0.00000000000E+00 -0.25215111804E+04  0.25215111804E+04  0.25500000920E-02 0. -1.
    10030    2    1    2    0    0  0.00000000000E+00  0.00000000000E+00 -0.14441143186E+04  0.35989080421E+04  0.32964637007E+04 0.  0.
        4    1    3    3  502    0 -0.10191368288E+04  0.53330473051E+03 -0.20108808681E+04  0.23166133233E+04  0.12699999809E+01 0. -1.
       -4    1    3    3    0  502  0.10191368288E+04 -0.53330473051E+03  0.56676654943E+03  0.12822947188E+04  0.12699999809E+01 0.  1.
</event>
<event>
 5   0  0.6351753E-07  0.3278977E+04  0.7818609E-02  0.8168265E-01
        2   -1    0    0  501    0  0.00000000000E+00  0.00000000000E+00  0.16934883080E+04  0.16934883080E+04  0.25500000920E-02 0.  1.
       -2   -1    0    0    0  501  0.00000000000E+00  0.00000000000E+00 -0.15872101772E+04  0.15872101772E+04  0.25500000920E-02 0. -1.
    10030    2    1    2    0    0  0.00000000000E+00  0.00000000000E+00  0.10627813078E+03  0.32806984853E+04  0.32789765949E+04 0.  0.
        3    1    3    3  502    0  0.15756879092E+04  0.42625350792E+03 -0.10003419899E+03  0.16353871992E+04  0.10100000352E+00 0. -1.
       -3    1    3    3    0  502 -0.15756879092E+04 -0.42625350792E+03  0.20631232976E+03  0.16453112860E+04  0.10100000352E+00 0.  1.
</event>
<event>
 5   0  0.6258718E-07  0.3314466E+04  0.7818609E-02  0.8159224E-01
       -2   -1    0    0    0  501  0.00000000000E+00  0.00000000000E+00  0.14139763863E+04  0.14139763863E+04  0.25500000920E-02 0. -1.
        2   -1    0    0  501    0  0.00000000000E+00  0.00000000000E+00 -0.19423382495E+04  0.19423382495E+04  0.25500000920E-02 0.  1.
    10030    2    1    2    0    0  0.00000000000E+00  0.00000000000E+00 -0.52836186320E+03  0.33563146358E+04  0.33144655189E+04 0.  0.
        5    1    3    3  502    0 -0.11815545159E+04 -0.89082716264E+03 -0.10197617440E+04  0.17971032837E+04  0.46999998093E+01 0.  1.
       -5    1    3    3    0  502  0.11815545159E+04  0.89082716264E+03  0.49139988080E+03  0.15592113521E+04  0.46999998093E+01 0. -1.
</event>
<event>
 5   0  0.6258718E-07  0.3294994E+04  0.7818609E-02  0.8164170E-01
        2   -1    0    0  501    0  0.00000000000E+00  0.00000000000E+00  0.22443370001E+04  0.22443370001E+04  0.25500000920E-02 0.  1.
       -2   -1    0    0    0  501  0.00000000000E+00  0.00000000000E+00 -0.12093752452E+04  0.12093752452E+04  0.25500000920E-02 0. -1.
    10030    2    1    2    0    0  0.00000000000E+00  0.00000000000E+00  0.10349617549E+04  0.34537122453E+04  0.32949935416E+04 0.  0.
        5    1    3    3  502    0  0.13090505191E+04 -0.84887943926E+03  0.10721339477E+04  0.18930670500E+04  0.46999998093E+01 0.  1.
       -5    1    3    3    0  502 -0.13090505191E+04  0.84887943926E+03 -0.37172192767E+02  0.15606451953E+04  0.46999998093E+01 0. -1.
</event>
<event>
 5   0  0.6258718E-07  0.3301960E+04  0.7818609E-02  0.8162397E-01
       -2   -1    0    0    0  501  0.00000000000E+00  0.00000000000E+00  0.29171654761E+04  0.29171654761E+04  0.25500000920E-02 0. -1.
        2   -1    0    0  501    0  0.00000000000E+00  0.00000000000E+00 -0.93437791037E+03  0.93437791038E+03  0.25500000920E-02 0.  1.
    10030    2    1    2    0    0  0.00000000000E+00  0.00000000000E+00  0.19827875657E+04  0.38515433865E+04  0.33019600130E+04 0.  0.
        5    1    3    3  502    0  0.13867363850E+04 -0.78053114046E+03  0.47836336098E+03  0.16616618964E+04  0.46999998093E+01 0.  1.
       -5    1    3    3    0  502 -0.13867363850E+04  0.78053114046E+03  0.15044242047E+04  0.21898814901E+04  0.46999998093E+01 0. -1.
</event>
<event>
 5   0  0.2087665E-07  0.3294772E+04  0.7818609E-02  0.8164227E-01
        1   -1    0    0  501    0  0.00000000000E+00  0.00000000000E+00  0.12032645451E+04  0.12032645451E+04  0.50400001928E-02 0. -1.
       -1   -1    0    0    0  501  0.00000000000E+00  0.00000000000E+00 -0.22554316228E+04  0.22554316228E+04  0.50400001928E-02 0.  1.
    10030    2    1    2    0    0  0.00000000000E+00  0.00000000000E+00 -0.10521670777E+04  0.34586961679E+04  0.32947721655E+04 0.  0.
        5    1    3    3  502    0  0.12600601276E+04  0.10452670720E+04 -0.71828876470E+03  0.17878186755E+04  0.46999998093E+01 0.  1.
       -5    1    3    3    0  502 -0.12600601276E+04 -0.10452670720E+04 -0.33387831299E+03  0.16708774924E+04  0.46999998093E+01 0. -1.
</event>
<event>
 5   0  0.6377741E-07  0.3299364E+04  0.7818609E-02  0.8163057E-01
        2   -1    0    0  501    0  0.00000000000E+00  0.00000000000E+00  0.16241515483E+04  0.16241515483E+04  0.25500000920E-02 0. -1.
       -2   -1    0    0    0  501  0.00000000000E+00  0.00000000000E+00 -0.16756133930E+04  0.16756133930E+04  0.25500000920E-02 0.  1.
    10030    2    1    2    0    0  0.00000000000E+00  0.00000000000E+00 -0.51461844753E+02  0.32997649413E+04  0.32993636275E+04 0.  0.
        1    1    3    3  502    0 -0.14342025992E+04 -0.36523299536E+03 -0.75459789349E+03  0.16612495951E+04  0.50400001928E-02 0.  1.
       -1    1    3    3    0  502  0.14342025992E+04  0.36523299536E+03  0.70313604873E+03  0.16385153461E+04  0.50400001928E-02 0. -1.
</event>
<event>
 5   0  0.2057130E-07  0.3289630E+04  0.7818609E-02  0.8165539E-01
        1   -1    0    0  501    0  0.00000000000E+00  0.00000000000E+00  0.20782792438E+04  0.20782792438E+04  0.50400001928E-02 0. -1.
       -1   -1    0    0    0  501  0.00000000000E+00  0.00000000000E+00 -0.13017575258E+04  0.13017575258E+04  0.50400001928E-02 0.  1.
    10030    2    1    2    0    0  0.00000000000E+00  0.00000000000E+00  0.77652171797E+03  0.33800367696E+04  0.32896295514E+04 0.  0.
        2    1    3    3  502    0  0.12830007407E+03  0.52585518500E+03  0.19841469376E+04  0.20566535086E+04  0.25500000920E-02 0. -1.
       -2    1    3    3    0  502 -0.12830007407E+03 -0.52585518500E+03 -0.12076252196E+04  0.13233832610E+04  0.25500000920E-02 0.  1.
</event>
<event>
 5   0  0.2080770E-07  0.3302249E+04  0.7818609E-02  0.8162323E-01
        1   -1    0    0  501    0  0.00000000000E+00  0.00000000000E+00  0.16080561665E+04  0.16080561665E+04  0.50400001928E-02 0.  1.
       -1   -1    0    0    0  501  0.00000000000E+00  0.00000000000E+00 -0.16953462506E+04  0.16953462507E+04  0.50400001928E-02 0. -1.
    10030    2    1    2    0    0  0.00000000000E+00  0.00000000000E+00 -0.87290084167E+02  0.33034024171E+04  0.33022489262E+04 0.  0.
        4    1    3    3  502    0  0.91717431624E+03 -0.66837017401E+03 -0.12433483126E+04  0.16834025232E+04  0.12699999809E+01 0.  1.
       -4    1    3    3    0  502 -0.91717431624E+03  0.66837017401E+03  0.11560582284E+04  0.16199998939E+04  0.12699999809E+01 0. -1.
</event>
<event>
 5   0  0.2037333E-07  0.3306272E+04  0.7818609E-02  0.8161301E-01
       -1   -1    0    0    0  501  0.00000000000E+00  0.00000000000E+00  0.13137592784E+04  0.13137592784E+04  0.50400001928E-02 0.  1.
        1   -1    0    0  501    0  0.00000000000E+00  0.00000000000E+00 -0.20801826992E+04  0.20801826992E+04  0.50400001928E-02 0. -1.
    10030    2    1    2    0    0  0.00000000000E+00  0.00000000000E+00 -0.76642342084E+03  0.33939419776E+04  0.33062724157E+04 0.  0.
        3    1    3    3  502    0 -0.46061120904E+03 -0.75389980114E+03  0.10510968298E+04  0.13730739790E+04  0.10100000352E+00 0.  1.
       -3    1    3    3    0  502  0.46061120904E+03  0.75389980114E+03 -0.18175202506E+04  0.20208679986E+04  0.10100000352E+00 0. -1.
</event>
<event>
 5   0  0.6377741E-07  0.3308369E+04  0.7818609E-02  0.8160769E-01
       -2   -1    0    0    0  501  0.00000000000E+00  0.00000000000E+00  0.23619229114E+04  0.23619229114E+04  0.25500000920E-02 0.  1.
        2   -1    0    0  501    0  0.00000000000E+00  0.00000000000E+00 -0.11585164142E+04  0.11585164142E+04  0.25500000920E-02 0. -1.
    10030    2    1    2    0    0  0.00000000000E+00  0.00000000000E+00  0.12034064971E+04  0.35204393256E+04  0.33083690616E+04 0.  0.
        1    1    3    3  502    0 -0.42424269524E+03  0.15789511206E+04  0.86933675943E+03  0.18517059451E+04  0.50400001928E-02 0.  1.
       -1    1    3    3    0  502  0.42424269524E+03 -0.15789511206E+04  0.33406973768E+03  0.16687333805E+04  0.50400001928E-02 0. -1.
</event>
<event>
 5   0  0.2080770E-07  0.3289293E+04  0.7818609E-02  0.8165625E-01
        1   -1    0    0  501    0  0.00000000000E+00  0.00000000000E+00  0.18529266971E+04  0.18529266971E+04  0.50400001928E-02 0. -1.
       -1   -1    0    0    0  501  0.00000000000E+00  0.00000000000E+00 -0.14597786620E+04  0.14597786620E+04  0.50400001928E-02 0.  1.
    10030    2    1    2    0    0  0.00000000000E+00  0.00000000000E+00  0.39314803513E+03  0.33127053592E+04  0.32892934529E+04 0.  0.
        4    1    3    3  502    0 -0.13276231265E+04  0.47254874551E+03 -0.65738555991E+03  0.15550057460E+04  0.12699999809E+01 0.  1.
       -4    1    3    3    0  502  0.13276231265E+04 -0.47254874551E+03  0.10505335950E+04  0.17576996131E+04  0.12699999809E+01 0. -1.
</event>
<event>
 5   0  0.2080770E-07  0.3302361E+04  0.7818609E-02  0.8162295E-01
        1   -1    0    0  501    0  0.00000000000E+00  0.00000000000E+00  0.20302291374E+04  0.20302291374E+04  0.50400001928E-02 0. -1.
       -1   -1    0    0    0  501  0.00000000000E+00  0.00000000000E+00 -0.13429011612E+04  0.13429011612E+04  0.50400001928E-02 0.  1.
    10030    2    1    2    0    0  0.00000000000E+00  0.00000000000E+00  0.68732797619E+03  0.33731302986E+04  0.33023610136E+04 0.  0.
        4    1    3    3  502    0  0.63192188314E+03  0.13931583711E+04  0.97841503285E+03  0.18159055875E+04  0.12699999809E+01 0. -1.
       -4    1    3    3    0  502 -0.63192188314E+03 -0.13931583711E+04 -0.29108705667E+03  0.15572247111E+04  0.12699999809E+01 0.  1.
</event>
<event>
 5   0  0.2087665E-07  0.3299045E+04  0.7818609E-02  0.8163139E-01
       -1   -1    0    0    0  501  0.00000000000E+00  0.00000000000E+00  0.11135084843E+04  0.11135084843E+04  0.50400001928E-02 0.  1.
        1   -1    0    0  501    0  0.00000000000E+00  0.00000000000E+00 -0.24435589840E+04  0.24435589840E+04  0.50400001928E-02 0. -1.
    10030    2    1    2    0    0  0.00000000000E+00  0.00000000000E+00 -0.13300504998E+04  0.35570674683E+04  0.32990445044E+04 0.  0.
        5    1    3    3  502    0 -0.86045197765E+03  0.41577870277E+02  0.85169106206E+03  0.12114066536E+04  0.46999998093E+01 0.  1.
       -5    1    3    3    0  502  0.86045197765E+03 -0.41577870277E+02 -0.21817415618E+04  0.23456608147E+04  0.46999998093E+01 0. -1.
</event>
<event>
 5   0  0.6424183E-07  0.3284936E+04  0.7818609E-02  0.8166739E-01
        2   -1    0    0  501    0  0.00000000000E+00  0.00000000000E+00  0.17984376830E+04  0.17984376830E+04  0.25500000920E-02 0. -1.
       -2   -1    0    0    0  501  0.00000000000E+00  0.00000000000E+00 -0.15000250964E+04  0.15000250964E+04  0.25500000920E-02 0.  1.
    10030    2    1    2    0    0  0.00000000000E+00  0.00000000000E+00  0.29841258653E+03  0.32984627794E+04  0.32849363213E+04 0.  0.
        2    1    3    3  502    0  0.35475260767E+03 -0.94147456930E+03  0.14528117252E+04  0.17671688335E+04  0.25500000920E-02 0. -1.
       -2    1    3    3    0  502 -0.35475260767E+03  0.94147456930E+03 -0.11543991387E+04  0.15312939459E+04  0.25500000920E-02 0.  1.
</event>
<event>
 5   0  0.6426079E-07  0.3308758E+04  0.7818609E-02  0.8160670E-01
       -2   -1    0    0    0  501  0.00000000000E+00  0.00000000000E+00  0.15071057669E+04  0.15071057669E+04  0.25500000920E-02 0.  1.
        2   -1    0    0  501    0  0.00000000000E+00  0.00000000000E+00 -0.18160436204E+04  0.18160436204E+04  0.25500000920E-02 0. -1.
    10030    2    1    2    0    0  0.00000000000E+00  0.00000000000E+00 -0.30893785344E+03  0.33231493873E+04  0.33087579623E+04 0.  0.
        4    1    3    3  502    0 -0.44494690645E+03  0.42318419940E+03 -0.16973490330E+04  0.18050091327E+04  0.12699999809E+01 0. -1.
       -4    1    3    3    0  502  0.44494690645E+03 -0.42318419940E+03  0.13884111796E+04  0.15181402546E+04  0.12699999809E+01 0.  1.
</event>
<event>
 5   0  0.6258718E-07  0.3300515E+04  0.7818609E-02  0.8162764E-01
       -2   -1    0    0    0  501  0.00000000000E+00  0.00000000000E+00  0.15449073462E+04  0.15449073462E+04  0.25500000920E-02 0. -1.
        2   -1    0    0  501    0  0.00000000000E+00  0.00000000000E+00 -0.17627911911E+04  0.17627911911E+04  0.25500000920E-02 0.  1.
    10030    2    1    2    0    0  0.00000000000E+00  0.00000000000E+00 -0.21788384485E+03  0.33076985373E+04  0.33005145423E+04 0.  0.
        5    1    3    3  502    0 -0.25597138669E+03  0.14527342805E+04 -0.85039600778E+03  0.17026901364E+04  0.46999998093E+01 0.  1.
       -5    1    3    3    0  502  0.25597138669E+03 -0.14527342805E+04  0.63251216292E+03  0.16050084009E+04  0.46999998093E+01 0. -1.
</event>
<event>
 5   0  0.6351753E-07  0.3292420E+04  0.7818609E-02  0.8164827E-01
        2   -1    0    0  501    0  0.00000000000E+00  0.00000000000E+00  0.19372949654E+04  0.19372949654E+04  0.25500000920E-02 0. -1.
       -2   -1    0    0    0  501  0.00000000000E+00  0.00000000000E+00 -0.13988617398E+04  0.13988617398E+04  0.25500000920E-02 0.  1.
    10030    2    1    2    0    0  0.00000000000E+00  0.00000000000E+00  0.53843322563E+03  0.33361567051E+04  0.32924202682E+04 0.  0.
        3    1    3    3  502    0 -0.11141246466E+04 -0.80664699631E+03 -0.64726202201E+03  0.15201648727E+04  0.10100000352E+00 0.  1.
       -3    1    3    3    0  502  0.11141246466E+04  0.80664699631E+03  0.11856952476E+04  0.18159918324E+04  0.10100000352E+00 0. -1.
</event>
<event>
 5   0  0.6258718E-07  0.3307060E+04  0.7818609E-02  0.8161101E-01
       -2   -1    0    0    0  501  0.00000000000E+00  0.00000000000E+00  0.12190554974E+04  0.12190554974E+04  0.25500000920E-02 0. -1.
        2   -1    0    0  501    0  0.00000000000E+00  0.00000000000E+00 -0.22428525709E+04  0.22428525709E+04  0.25500000920E-02 0.  1.
    10030    2    1    2    0    0  0.00000000000E+00  0.00000000000E+00 -0.10237970736E+04  0.34619080683E+04  0.33070601787E+04 0.  0.
        5    1    3    3  502    0  0.51951852436E+03  0.57582459509E+03 -0.20406429276E+04  0.21830527042E+04  0.46999998093E+01 0.  1.
       -5    1    3    3    0  502 -0.51951852436E+03 -0.57582459509E+03  0.10168458540E+04  0.12788553641E+04  0.46999998093E+01 0. -1.
</event>
<event>
 5   0  0.6424183E-07  0.3303365E+04  0.7818609E-02  0.8162040E-01
        2   -1    0    0  501    0  0.00000000000E+00  0.00000000000E+00  0.14579370949E+04  0.14579370949E+04  0.25500000920E-02 0.  1.
       -2   -1    0    0    0  501  0.00000000000E+00  0.00000000000E+00 -0.18711748382E+04  0.18711748382E+04  0.25500000920E-02 0. -1.
    10030    2    1    2    0    0  0.00000000000E+00  0.00000000000E+00 -0.41323774330E+03  0.33291119331E+04  0.33033650768E+04 0.  0.
        2    1    3    3  502    0 -0.14868904123E+04 -0.68180584153E+03 -0.43720979673E+03  0.16931788772E+04  0.25500000920E-02 0. -1.
       -2    1    3    3    0  502  0.14868904123E+04  0.68180584153E+03  0.23972053438E+02  0.16359330558E+04  0.25500000920E-02 0.  1.
</event>
<event>
 5   0  0.2080828E-07  0.3296912E+04  0.7818609E-02  0.8163682E-01
       -1   -1    0    0    0  501  0.00000000000E+00  0.00000000000E+00  0.21342321538E+04  0.21342321538E+04  0.50400001928E-02 0. -1.
        1   -1    0    0  501    0  0.00000000000E+00  0.00000000000E+00 -0.12732481247E+04  0.12732481247E+04  0.50400001928E-02 0.  1.
    10030    2    1    2    0    0  0.00000000000E+00  0.00000000000E+00  0.86098402907E+03  0.34074802785E+04  0.32969119415E+04 0.  0.
        1    1    3    3  502    0 -0.12057503159E+04 -0.64275224654E+03 -0.52263013236E+03  0.14629102946E+04  0.50400001928E-02 0.  1.
       -1    1    3    3    0  502  0.12057503159E+04  0.64275224654E+03  0.13836141614E+04  0.19445699839E+04  0.50400001928E-02 0. -1.
</event>
<event>
 5   0  0.2080770E-07  0.3283635E+04  0.7818609E-02  0.8167072E-01
        1   -1    0    0  501    0  0.00000000000E+00  0.00000000000E+00  0.32087574944E+04  0.32087574944E+04  0.50400001928E-02 0.  1.
       -1   -1    0    0    0  501  0.00000000000E+00  0.00000000000E+00 -0.84006486742E+03  0.84006486743E+03  0.50400001928E-02 0. -1.
    10030    2    1    2    0    0  0.00000000000E+00  0.00000000000E+00  0.23686926270E+04  0.40488223619E+04  0.32836348391E+04 0.  0.
        4    1    3    3  502    0 -0.75501962250E+02 -0.10245532939E+04  0.27634695590E+04  0.29482495849E+04  0.12699999809E+01 0.  1.
       -4    1    3    3    0  502  0.75501962250E+02  0.10245532939E+04 -0.39477693204E+03  0.11005727769E+04  0.12699999809E+01 0. -1.
</event>
<event>
 5   0  0.6377741E-07  0.3307765E+04  0.7818609E-02  0.8160922E-01
        2   -1    0    0  501    0  0.00000000000E+00  0.00000000000E+00  0.19014070199E+04  0.19014070199E+04  0.25500000920E-02 0.  1.
       -2   -1    0    0    0  501  0.00000000000E+00  0.00000000000E+00 -0.14385804917E+04  0.14385804917E+04  0.25500000920E-02 0. -1.
    10030    2    1    2    0    0  0.00000000000E+00  0.00000000000E+00  0.46282652827E+03  0.33399875116E+04  0.33077648318E+04 0.  0.
        1    1    3    3  502    0  0.15823584492E+04  0.94123009305E+02  0.70782472876E+03  0.17360107284E+04  0.50400001928E-02 0.  1.
       -1    1    3    3    0  502 -0.15823584492E+04 -0.94123009305E+02 -0.24499820049E+03  0.16039767831E+04  0.50400001928E-02 0. -1.
</event>
<event>
 5   0  0.6426079E-07  0.3243486E+04  0.7818609E-02  0.8177426E-01
        2   -1    0    0  501    0  0.00000000000E+00  0.00000000000E+00  0.23446047405E+04  0.23446047405E+04  0.25500000920E-02 0. -1.
       -2   -1    0    0    0  501  0.00000000000E+00  0.00000000000E+00 -0.11217454065E+04  0.11217454065E+04  0.25500000920E-02 0.  1.
    10030    2    1    2    0    0  0.00000000000E+00  0.00000000000E+00  0.12228593340E+04  0.34663501471E+04  0.32434855312E+04 0.  0.
        4    1    3    3  502    0  0.12305596054E+04 -0.80419698212E+03  0.13433513252E+04  0.19913824656E+04  0.12699999809E+01 0. -1.
       -4    1    3    3    0  502 -0.12305596054E+04  0.80419698212E+03 -0.12049199119E+03  0.14749676815E+04  0.12699999809E+01 0.  1.
</event>
<event>
 5   0  0.2057130E-07  0.3302820E+04  0.7818609E-02  0.8162178E-01
        1   -1    0    0  501    0  0.00000000000E+00  0.00000000000E+00  0.21658251635E+04  0.21658251635E+04  0.50400001928E-02 0. -1.
       -1   -1    0    0    0  501  0.00000000000E+00  0.00000000000E+00 -0.12591756224E+04  0.12591756224E+04  0.50400001928E-02 0.  1.
    10030    2    1    2    0    0  0.00000000000E+00  0.00000000000E+00  0.90664954108E+03  0.34250007858E+04  0.33028195519E+04 0.  0.
        2    1    3    3  502    0 -0.39916940354E+03  0.92984795261E+03 -0.90002096076E+03  0.13542492967E+04  0.25500000920E-02 0.  1.
       -2    1    3    3    0  502  0.39916940354E+03 -0.92984795261E+03  0.18066705018E+04  0.20707514892E+04  0.25500000920E-02 0. -1.
</event>
<event>
 5   0  0.2057130E-07  0.3290641E+04  0.7818609E-02  0.8165281E-01
       -1   -1    0    0    0  501  0.00000000000E+00  0.00000000000E+00  0.13083023041E+04  0.13083023042E+04  0.50400001928E-02 0.  1.
        1   -1    0    0  501    0  0.00000000000E+00  0.00000000000E+00 -0.20691545739E+04  0.20691545739E+04  0.50400001928E-02 0. -1.
    10030    2    1    2    0    0  0.00000000000E+00  0.00000000000E+00 -0.76085226973E+03  0.33774568780E+04  0.32906410905E+04 0.  0.
        2    1    3    3  502    0 -0.14633823741E+04  0.70952686422E+03 -0.12452246683E+03  0.16310800682E+04  0.25500000920E-02 0.  1.
       -2    1    3    3    0  502  0.14633823741E+04 -0.70952686422E+03 -0.63632980291E+03  0.17463768099E+04  0.25500000920E-02 0. -1.
</event>
<event>
 5   0  0.6424183E-07  0.3314120E+04  0.7818609E-02  0.8159312E-01
       -2   -1    0    0    0  501  0.00000000000E+00  0.00000000000E+00  0.31923257185E+04  0.31923257185E+04  0.25500000920E-02 0. -1.
        2   -1    0    0  501    0  0.00000000000E+00  0.00000000000E+00 -0.86014035316E+03  0.86014035316E+03  0.25500000920E-02 0.  1.
    10030    2    1    2    0    0  0.00000000000E+00  0.00000000000E+00  0.23321853653E+04  0.40524660716E+04  0.33141201975E+04 0.  0.
        2    1    3    3  502    0  0.15076948729E+04 -0.62836069540E+03  0.82487749909E+03  0.18298644436E+04  0.25500000920E-02 0. -1.
       -2    1    3    3    0  502 -0.15076948729E+04  0.62836069540E+03  0.15073078662E+04  0.22226016281E+04  0.25500000920E-02 0.  1.
</event>
<event>
 5   0  0.6351753E-07  0.3290343E+04  0.7818609E-02  0.8165357E-01
       -2   -1    0    0    0  501  0.00000000000E+00  0.00000000000E+00  0.31870104347E+04  0.31870104347E+04  0.25500000920E-02 0. -1.
        2   -1    0    0  501    0  0.00000000000E+00  0.00000000000E+00 -0.84925669729E+03  0.84925669730E+03  0.25500000920E-02 0.  1.
    10030    2    1    2    0    0  0.00000000000E+00  0.00000000000E+00  0.23377537374E+04  0.40362671320E+04  0.32903434204E+04 0.  0.
        3    1    3    3  502    0 -0.45171557347E+03 -0.48536420911E+03 -0.67809822579E+03  0.94838947106E+03  0.10100000352E+00 0.  1.
       -3    1    3    3    0  502  0.45171557347E+03  0.48536420911E+03  0.30158519632E+04  0.30878776610E+04  0.10100000352E+00 0. -1.
</event>
<event>
 5   0  0.6424183E-07  0.3174140E+04  0.7818609E-02  0.8195680E-01
       -2   -1    0    0    0  501  0.00000000000E+00  0.00000000000E+00  0.18963725532E+04  0.18963725532E+04  0.25500000920E-02 0. -1.
        2   -1    0    0  501    0  0.00000000000E+00  0.00000000000E+00 -0.13282150371E+04  0.13282150371E+04  0.25500000920E-02 0.  1.
    10030    2    1    2    0    0  0.00000000000E+00  0.00000000000E+00  0.56815751607E+03  0.32245875903E+04  0.31741395943E+04 0.  0.
        2    1    3    3  502    0 -0.12427116916E+04  0.96043230371E+03  0.51580042779E+03  0.16531220886E+04  0.25500000920E-02 0.  1.
       -2    1    3    3    0  502  0.12427116916E+04 -0.96043230371E+03  0.52357088284E+02  0.15714655017E+04  0.25500000920E-02 0. -1.
</event>
<event>
 5   0  0.6377741E-07  0.3300327E+04  0.7818609E-02  0.8162812E-01
       -2   -1    0    0    0  501  0.00000000000E+00  0.00000000000E+00  0.17933072901E+04  0.17933072901E+04  0.25500000920E-02 0. -1.
        2   -1    0    0  501    0  0.00000000000E+00  0.00000000000E+00 -0.15184452823E+04  0.15184452823E+04  0.25500000920E-02 0.  1.
    10030    2    1    2    0    0  0.00000000000E+00  0.00000000000E+00  0.27486200783E+03  0.33117525724E+04  0.33003266470E+04 0.  0.
        1    1    3    3  502    0 -0.61209205442E+03  0.14610688473E+04  0.60126513745E+03  0.16943726347E+04  0.50400001928E-02 0. -1.
       -1    1    3    3    0  502  0.61209205442E+03 -0.14610688473E+04 -0.32640312962E+03  0.16173799377E+04  0.50400001928E-02 0.  1.
</event>
<event>
 5   0  0.2087665E-07  0.3314133E+04  0.7818609E-02  0.8159308E-01
        1   -1    0    0  501    0  0.00000000000E+00  0.00000000000E+00  0.19447944300E+04  0.19447944300E+04  0.50400001928E-02 0.  1.
       -1   -1    0    0    0  501  0.00000000000E+00  0.00000000000E+00 -0.14119074759E+04  0.14119074759E+04  0.50400001928E-02 0. -1.
    10030    2    1    2    0    0  0.00000000000E+00  0.00000000000E+00  0.53288695410E+03  0.33567019059E+04  0.33141332470E+04 0.  0.
        5    1    3    3  502    0  0.77817124955E+02 -0.14090247453E+04  0.11461860013E+04  0.18180128375E+04  0.46999998093E+01 0.  1.
       -5    1    3    3    0  502 -0.77817124955E+02  0.14090247453E+04 -0.61329904719E+03  0.15386890683E+04  0.46999998093E+01 0. -1.
</event>
<event>
 5   0  0.6258718E-07  0.3276399E+04  0.7818609E-02  0.8168927E-01
        2   -1    0    0  501    0  0.00000000000E+00  0.00000000000E+00  0.21192419178E+04  0.21192419178E+04  0.25500000920E-02 0.  1.
       -2   -1    0    0    0  501  0.00000000000E+00  0.00000000000E+00 -0.12663478506E+04  0.12663478506E+04  0.25500000920E-02 0. -1.
    10030    2    1    2    0    0  0.00000000000E+00  0.00000000000E+00  0.85289406717E+03  0.33855897684E+04  0.32763989058E+04 0.  0.
        5    1    3    3  502    0 -0.10419079795E+04  0.23411662231E+03  0.17101415556E+04  0.20161818025E+04  0.46999998093E+01 0.  1.
       -5    1    3    3    0  502  0.10419079795E+04 -0.23411662231E+03 -0.85724748846E+03  0.13694079659E+04  0.46999998093E+01 0. -1.
</event>
<event>
 5   0  0.6426079E-07  0.3306921E+04  0.7818609E-02  0.8161136E-01
        2   -1    0    0  501    0  0.00000000000E+00  0.00000000000E+00  0.11306464278E+04  0.11306464278E+04  0.25500000920E-02 0. -1.
       -2   -1    0    0    0  501  0.00000000000E+00  0.00000000000E+00 -0.24180259723E+04  0.24180259723E+04  0.25500000920E-02 0.  1.
    10030    2    1    2    0    0  0.00000000000E+00  0.00000000000E+00 -0.12873795446E+04  0.35486724001E+04  0.33069214855E+04 0.  0.
        4    1    3    3  502    0 -0.77755058651E+03 -0.28429451931E+03  0.89220830598E+03  0.12171464836E+04  0.12699999809E+01 0. -1.
       -4    1    3    3    0  502  0.77755058651E+03  0.28429451931E+03 -0.21795878506E+04  0.23315259165E+04  0.12699999809E+01 0.  1.
</event>
<event>
 5   0  0.6424183E-07  0.3292926E+04  0.7818609E-02  0.8164698E-01
        2   -1    0    0  501    0  0.00000000000E+00  0.00000000000E+00  0.21603431893E+04  0.21603431893E+04  0.25500000920E-02 0. -1.
       -2   -1    0    0    0  501  0.00000000000E+00  0.00000000000E+00 -0.12548196415E+04  0.12548196415E+04  0.25500000920E-02 0.  1.
    10030    2    1    2    0    0  0.00000000000E+00  0.00000000000E+00  0.90552354782E+03  0.34151628308E+04  0.32929263983E+04 0.  0.
        2    1    3    3  502    0  0.13643470755E+04 -0.51814554546E+03  0.12432379691E+04  0.19171745868E+04  0.25500000920E-02 0.  1.
       -2    1    3    3    0  502 -0.13643470755E+04  0.51814554546E+03 -0.33771442124E+03  0.14979882439E+04  0.25500000920E-02 0. -1.
</event>
<event>
 5   0  0.2087665E-07  0.3269149E+04  0.7818609E-02  0.8170790E-01
        1   -1    0    0  501    0  0.00000000000E+00  0.00000000000E+00  0.25222176340E+04  0.25222176340E+04  0.50400001928E-02 0.  1.
       -1   -1    0    0    0  501  0.00000000000E+00  0.00000000000E+00 -0.10593191631E+04  0.10593191631E+04  0.50400001928E-02 0. -1.
    10030    2    1    2    0    0  0.00000000000E+00  0.00000000000E+00  0.14628984709E+04  0.35815367971E+04  0.32691488025E+04 0.  0.
        5    1    3    3  502    0  0.46323722568E+03  0.15650099205E+04  0.63366443289E+03  0.17508276563E+04  0.46999998093E+01 0. -1.
       -5    1    3    3    0  502 -0.46323722568E+03 -0.15650099205E+04  0.82923403800E+03  0.18307091408E+04  0.46999998093E+01 0.  1.
</event>
<event>
 5   0  0.2087665E-07  0.3300917E+04  0.7818609E-02  0.8162662E-01
       -1   -1    0    0    0  501  0.00000000000E+00  0.00000000000E+00  0.11919758771E+04  0.11919758771E+04  0.50400001928E-02 0.  1.
        1   -1    0    0  501    0  0.00000000000E+00  0.00000000000E+00 -0.22852919179E+04  0.22852919179E+04  0.50400001928E-02 0. -1.
    10030    2    1    2    0    0  0.00000000000E+00  0.00000000000E+00 -0.10933160408E+04  0.34772677950E+04  0.33009167444E+04 0.  0.
        5    1    3    3  502    0 -0.87428261446E+03 -0.68985658467E+03 -0.18298136420E+04  0.21420812897E+04  0.46999998093E+01 0. -1.
       -5    1    3    3    0  502  0.87428261446E+03  0.68985658467E+03  0.73649760124E+03  0.13351865053E+04  0.46999998093E+01 0.  1.
</event>
<event>
 5   0  0.6377741E-07  0.3296802E+04  0.7818609E-02  0.8163710E-01
        2   -1    0    0  501    0  0.00000000000E+00  0.00000000000E+00  0.11244847230E+04  0.11244847230E+04  0.25500000920E-02 0.  1.
       -2   -1    0    0    0  501  0.00000000000E+00  0.00000000000E+00 -0.24164187807E+04  0.24164187807E+04  0.25500000920E-02 0. -1.
    10030    2    1    2    0    0  0.00000000000E+00  0.00000000000E+00 -0.12919340578E+04  0.35409035037E+04  0.32968020888E+04 0.  0.
        1    1    3    3  502    0 -0.58792098483E+03  0.52396599773E+02 -0.22990251279E+04  0.23735865324E+04  0.50400001928E-02 0. -1.
       -1    1    3    3    0  502  0.58792098483E+03 -0.52396599773E+02  0.10070910701E+04  0.11673169713E+04  0.50400001928E-02 0.  1.
</event>
<event>
 5   0  0.6258718E-07  0.3303388E+04  0.7818609E-02  0.8162034E-01
        2   -1    0    0  501    0  0.00000000000E+00  0.00000000000E+00  0.15696034771E+04  0.15696034771E+04  0.25500000920E-02 0. -1.
       -2   -1    0    0    0  501  0.00000000000E+00  0.00000000000E+00 -0.17380774076E+04  0.17380774076E+04  0.25500000920E-02 0.  1.
    10030    2    1    2    0    0  0.00000000000E+00  0.00000000000E+00 -0.16847393047E+03  0.33076808848E+04  0.33033875598E+04 0.  0.
        5    1    3    3  502    0  0.72497471405E+03  0.13577609806E+04  0.51568029762E+03  0.16232841636E+04  0.46999998093E+01 0. -1.
       -5    1    3    3    0  502 -0.72497471405E+03 -0.13577609806E+04 -0.68415422810E+03  0.16843967212E+04  0.46999998093E+01 0.  1.
</event>
<event>
 5   0  0.6258718E-07  0.3297810E+04  0.7818609E-02  0.8163453E-01
       -2   -1    0    0    0  501  0.00000000000E+00  0.00000000000E+00  0.11789362779E+04  0.11789362779E+04  0.25500000920E-02 0.  1.
        2   -1    0    0  501    0  0.00000000000E+00  0.00000000000E+00 -0.23062212521E+04  0.23062212521E+04  0.25500000920E-02 0. -1.
    10030    2    1    2    0    0  0.00000000000E+00  0.00000000000E+00 -0.11272849742E+04  0.34851575300E+04  0.32978101212E+04 0.  0.
        5    1    3    3  502    0 -0.46689706695E+03  0.15004793772E+04 -0.35835550142E+02  0.15718579800E+04  0.46999998093E+01 0.  1.
       -5    1    3    3    0  502  0.46689706695E+03 -0.15004793772E+04 -0.10914494241E+04  0.19132995500E+04  0.46999998093E+01 0. -1.
</event>
<event>
 5   0  0.2080770E-07  0.3289516E+04  0.7818609E-02  0.8165568E-01
       -1   -1    0    0    0  501  0.00000000000E+00  0.00000000000E+00  0.25132803238E+04  0.25132803238E+04  0.50400001928E-02 0.  1.
        1   -1    0    0  501    0  0.00000000000E+00  0.00000000000E+00 -0.10763740265E+04  0.10763740265E+04  0.50400001928E-02 0. -1.
    10030    2    1    2    0    0  0.00000000000E+00  0.00000000000E+00  0.14369062973E+04  0.35896543502E+04  0.32895164762E+04 0.  0.
        4    1    3    3  502    0 -0.14343382545E+04 -0.60299788682E+03  0.13002956732E+04  0.20277334959E+04  0.12699999809E+01 0.  1.
       -4    1    3    3    0  502  0.14343382545E+04  0.60299788682E+03  0.13661062409E+03  0.15619208543E+04  0.12699999809E+01 0. -1.
</event>
<event>
 5   0  0.2080770E-07  0.3308106E+04  0.7818609E-02  0.8160836E-01
       -1   -1    0    0    0  501  0.00000000000E+00  0.00000000000E+00  0.12132389593E+04  0.12132389593E+04  0.50400001928E-02 0.  1.
        1   -1    0    0  501    0  0.00000000000E+00  0.00000000000E+00 -0.22550308864E+04  0.22550308864E+04  0.50400001928E-02 0. -1.
    10030    2    1    2    0    0  0.00000000000E+00  0.00000000000E+00 -0.10417919272E+04  0.34682698457E+04  0.33081059994E+04 0.  0.
        4    1    3    3  502    0  0.11035542146E+04 -0.20187087452E+03 -0.17951871750E+04  0.21169039564E+04  0.12699999809E+01 0. -1.
       -4    1    3    3    0  502 -0.11035542146E+04  0.20187087452E+03  0.75339524781E+03  0.13513658893E+04  0.12699999809E+01 0.  1.
</event>
<event>
 5   0  0.2057130E-07  0.3211721E+04  0.7818609E-02  0.8185728E-01
       -1   -1    0    0    0  501  0.00000000000E+00  0.00000000000E+00  0.21239431210E+04  0.21239431210E+04  0.50400001928E-02 0. -1.
        1   -1    0    0  501    0  0.00000000000E+00  0.00000000000E+00 -0.12141514696E+04  0.12141514696E+04  0.50400001928E-02 0.  1.
    10030    2    1    2    0    0  0.00000000000E+00  0.00000000000E+00  0.90979165140E+03  0.33380945906E+04  0.32117214460E+04 0.  0.
        2    1    3    3  502    0 -0.15023146073E+04  0.43290537208E+03  0.83597286094E+03  0.17729091530E+04  0.25500000920E-02 0.  1.
       -2    1    3    3    0  502  0.15023146073E+04 -0.43290537208E+03  0.73818790456E+02  0.15651854376E+04  0.25500000920E-02 0. -1.
</event>
<event>
 5   0  0.6377741E-07  0.3301387E+04  0.7818609E-02  0.8162543E-01
        2   -1    0    0  501    0  0.00000000000E+00  0.00000000000E+00  0.89899103691E+03  0.89899103691E+03  0.25500000920E-02 0.  1.
       -2   -1    0    0    0  501  0.00000000000E+00  0.00000000000E+00 -0.30309414253E+04  0.30309414253E+04  0.25500000920E-02 0. -1.
    10030    2    1    2    0    0  0.00000000000E+00  0.00000000000E+00 -0.21319503884E+04  0.39299324622E+04  0.33013870871E+04 0.  0.
        1    1    3    3  502    0 -0.14324463985E+04 -0.79218490372E+03 -0.81253270140E+03  0.18274761276E+04  0.50400001928E-02 0. -1.
       -1    1    3    3    0  502  0.14324463985E+04  0.79218490372E+03 -0.13194176870E+04  0.21024563346E+04  0.50400001928E-02 0.  1.
</event>
<event>
 5   0  0.6258718E-07  0.3296595E+04  0.7818609E-02  0.8163762E-01
       -2   -1    0    0    0  501  0.00000000000E+00  0.00000000000E+00  0.19346884651E+04  0.19346884651E+04  0.25500000920E-02 0.  1.
        2   -1    0    0  501    0  0.00000000000E+00  0.00000000000E+00 -0.14043006376E+04  0.14043006376E+04  0.25500000920E-02 0. -1.
    10030    2    1    2    0    0  0.00000000000E+00  0.00000000000E+00  0.53038782752E+03  0.33389891026E+04  0.32965947552E+04 0.  0.
        5    1    3    3  502    0  0.14357483894E+04 -0.50885585365E+03 -0.37263006943E+03  0.15681782348E+04  0.46999998093E+01 0. -1.
       -5    1    3    3    0  502 -0.14357483894E+04  0.50885585365E+03  0.90301789695E+03  0.17708108678E+04  0.46999998093E+01 0.  1.
</event>
<event>
 5   0  0.6351753E-07  0.3284944E+04  0.7818609E-02  0.8166737E-01
       -2   -1    0    0    0  501  0.00000000000E+00  0.00000000000E+00  0.13770938079E+04  0.13770938079E+04  0.25500000920E-02 0.  1.
        2   -1    0    0  501    0  0.00000000000E+00  0.00000000000E+00 -0.19589912752E+04  0.19589912752E+04  0.25500000920E-02 0. -1.
    10030    2    1    2    0    0  0.00000000000E+00  0.00000000000E+00 -0.58189746729E+03  0.33360850831E+04  0.32849442947E+04 0.  0.
        3    1    3    3  502    0  0.39968880986E+03 -0.37162002638E+02  0.13265115008E+04  0.13859166393E+04  0.10100000352E+00 0.  1.
       -3    1    3    3    0  502 -0.39968880986E+03  0.37162002638E+02 -0.19084089681E+04  0.19501684437E+04  0.10100000352E+00 0. -1.
</event>
<event>
 5   0  0.2080828E-07  0.3297062E+04  0.7818609E-02  0.8163643E-01
       -1   -1    0    0    0  501  0.00000000000E+00  0.00000000000E+00  0.10847296420E+04  0.10847296420E+04  0.50400001928E-02 0.  1.
        1   -1    0    0  501    0  0.00000000000E+00  0.00000000000E+00 -0.25053745415E+04  0.25053745415E+04  0.50400001928E-02 0. -1.
    10030    2    1    2    0    0  0.00000000000E+00  0.00000000000E+00 -0.14206448995E+04  0.35901041835E+04  0.32970617400E+04 0.  0.
        1    1    3    3  502    0  0.30962759084E+03  0.38774464221E+03 -0.24221298878E+04  0.24724336889E+04  0.50400001928E-02 0. -1.
       -1    1    3    3    0  502 -0.30962759084E+03 -0.38774464221E+03  0.10014849883E+04  0.11176704946E+04  0.50400001928E-02 0.  1.
</event>
<event>
 5   0  0.6377741E-07  0.3304611E+04  0.7818609E-02  0.8161723E-01
        2   -1    0    0  501    0  0.00000000000E+00  0.00000000000E+00  0.18639558273E+04  0.18639558273E+04  0.25500000920E-02 0. -1.
       -2   -1    0    0    0  501  0.00000000000E+00  0.00000000000E+00 -0.14646876309E+04  0.14646876309E+04  0.25500000920E-02 0.  1.
    10030    2    1    2    0    0  0.00000000000E+00  0.00000000000E+00  0.39926819636E+03  0.33286434582E+04  0.33046107455E+04 0.  0.
        1    1    3    3  502    0  0.13767300888E+04  0.29716595974E+03  0.10698730427E+04  0.17687062143E+04  0.50400001928E-02 0. -1.
       -1    1    3    3    0  502 -0.13767300888E+04 -0.29716595974E+03 -0.67060484635E+03  0.15599372439E+04  0.50400001928E-02 0.  1.
</event>
<event>
 5   0  0.2080770E-07  0.3301702E+04  0.7818609E-02  0.8162463E-01
        1   -1    0    0  501    0  0.00000000000E+00  0.00000000000E+00  0.20053986803E+04  0.20053986803E+04  0.50400001928E-02 0. -1.
       -1   -1    0    0    0  501  0.00000000000E+00  0.00000000000E+00 -0.13589858084E+04  0.13589858084E+04  0.50400001928E-02 0.  1.
    10030    2    1    2    0    0  0.00000000000E+00  0.00000000000E+00  0.64641287192E+03  0.33643844887E+04  0.33017015896E+04 0.  0.
        4    1    3    3  502    0 -0.44850566423E+03 -0.77458768757E+03  0.17366835094E+04  0.19537693419E+04  0.12699999809E+01 0. -1.
       -4    1    3    3    0  502  0.44850566423E+03  0.77458768757E+03 -0.10902706375E+04  0.14106151468E+04  0.12699999809E+01 0.  1.
</event>
<event>
 5   0  0.6351753E-07  0.3302417E+04  0.7818609E-02  0.8162281E-01
        2   -1    0    0  501    0  0.00000000000E+00  0.00000000000E+00  0.12979616382E+04  0.12979616382E+04  0.25500000920E-02 0.  1.
       -2   -1    0    0    0  501  0.00000000000E+00  0.00000000000E+00 -0.21005934437E+04  0.21005934437E+04  0.25500000920E-02 0. -1.
    10030    2    1    2    0    0  0.00000000000E+00  0.00000000000E+00 -0.80263180549E+03  0.33985550820E+04  0.33024171193E+04 0.  0.
        3    1    3    3  502    0 -0.11483128745E+04 -0.11568821613E+04 -0.13003053614E+03  0.16352084709E+04  0.10100000352E+00 0.  1.
       -3    1    3    3    0  502  0.11483128745E+04  0.11568821613E+04 -0.67260126935E+03  0.17633466110E+04  0.10100000352E+00 0. -1.
</event>
<event>
 5   0  0.6426079E-07  0.3303619E+04  0.7818609E-02  0.8161975E-01
       -2   -1    0    0    0  501  0.00000000000E+00  0.00000000000E+00  0.11827818714E+04  0.11827818714E+04  0.25500000920E-02 0.  1.
        2   -1    0    0  501    0  0.00000000000E+00  0.00000000000E+00 -0.23068280015E+04  0.23068280015E+04  0.25500000920E-02 0. -1.
    10030    2    1    2    0    0  0.00000000000E+00  0.00000000000E+00 -0.11240461302E+04  0.34896098729E+04  0.33036188282E+04 0.  0.
        4    1    3    3  502    0 -0.36927023722E+03  0.29705210512E+03  0.11094255482E+04  0.12064108426E+04  0.12699999809E+01 0.  1.
       -4    1    3    3    0  502  0.36927023722E+03 -0.29705210512E+03 -0.22334716783E+04  0.22831990303E+04  0.12699999809E+01 0. -1.
</event>
<event>
 5   0  0.2037333E-07  0.3303431E+04  0.7818609E-02  0.8162023E-01
       -1   -1    0    0    0  501  0.00000000000E+00  0.00000000000E+00  0.18359194541E+04  0.18359194541E+04  0.50400001928E-02 0. -1.
        1   -1    0    0  501    0  0.00000000000E+00  0.00000000000E+00 -0.14859936703E+04  0.14859936703E+04  0.50400001928E-02 0.  1.
    10030    2    1    2    0    0  0.00000000000E+00  0.00000000000E+00  0.34992578380E+03  0.33219131244E+04  0.33034313602E+04 0.  0.
        3    1    3    3  502    0 -0.37567860192E+03  0.33432982368E+03  0.17570589707E+04  0.18276123987E+04  0.10100000352E+00 0. -1.
       -3    1    3    3    0  502  0.37567860192E+03 -0.33432982368E+03 -0.14071331869E+04  0.14943007257E+04  0.10100000352E+00 0.  1.
</event>
<event>
 5   0  0.6351753E-07  0.3293757E+04  0.7818609E-02  0.8164486E-01
       -2   -1    0    0    0  501  0.00000000000E+00  0.00000000000E+00  0.15891390244E+04  0.15891390244E+04  0.25500000920E-02 0. -1.
        2   -1    0    0  501    0  0.00000000000E+00  0.00000000000E+00 -0.17067157048E+04  0.17067157048E+04  0.25500000920E-02 0.  1.
    10030    2    1    2    0    0  0.00000000000E+00  0.00000000000E+00 -0.11757668035E+03  0.32958547292E+04  0.32937568399E+04 0.  0.
        3    1    3    3  502    0  0.12839403050E+04 -0.67121747767E+03  0.72476399041E+03  0.16199748335E+04  0.10100000352E+00 0. -1.
       -3    1    3    3    0  502 -0.12839403050E+04  0.67121747767E+03 -0.84234067076E+03  0.16758798957E+04  0.10100000352E+00 0.  1.
</event>
<event>
 5   0  0.2087665E-07  0.3307198E+04  0.7818609E-02  0.8161066E-01
       -1   -1    0    0    0  501  0.00000000000E+00  0.00000000000E+00  0.13128651095E+04  0.13128651095E+04  0.50400001928E-02 0. -1.
        1   -1    0    0  501    0  0.00000000000E+00  0.00000000000E+00 -0.20827654018E+04  0.20827654018E+04  0.50400001928E-02 0.  1.
    10030    2    1    2    0    0  0.00000000000E+00  0.00000000000E+00 -0.76990029232E+03  0.33956305113E+04  0.33071982265E+04 0.  0.
        5    1    3    3  502    0 -0.10278941548E+04  0.11979534482E+03  0.93928514391E+03  0.13975678838E+04  0.46999998093E+01 0. -1.
       -5    1    3    3    0  502  0.10278941548E+04 -0.11979534482E+03 -0.17091854362E+04  0.19980626275E+04  0.46999998093E+01 0.  1.
</event>
<event>
 5   0  0.2087665E-07  0.3306192E+04  0.7818609E-02  0.8161322E-01
        1   -1    0    0  501    0  0.00000000000E+00  0.00000000000E+00  0.19212347378E+04  0.19212347378E+04  0.50400001928E-02 0. -1.
       -1   -1    0    0    0  501  0.00000000000E+00  0.00000000000E+00 -0.14223804736E+04  0.14223804736E+04  0.50400001928E-02 0.  1.
    10030    2    1    2    0    0  0.00000000000E+00  0.00000000000E+00  0.49885426417E+03  0.33436152114E+04  0.33061922365E+04 0.  0.
        5    1    3    3  502    0 -0.17966237919E+02 -0.41917934593E+03 -0.13676307933E+04  0.14305489110E+04  0.46999998093E+01 0.  1.
       -5    1    3    3    0  502  0.17966237919E+02  0.41917934593E+03  0.18664850575E+04  0.19130663004E+04  0.46999998093E+01 0. -1.
</event>
<event>
 5   0  0.2080828E-07  0.3288531E+04  0.7818609E-02  0.8165820E-01
       -1   -1    0    0    0  501  0.00000000000E+00  0.00000000000E+00  0.10839897008E+04  0.10839897008E+04  0.50400001928E-02 0.  1.
        1   -1    0    0  501    0  0.00000000000E+00  0.00000000000E+00 -0.24941284090E+04  0.24941284090E+04  0.50400001928E-02 0. -1.
    10030    2    1    2    0    0  0.00000000000E+00  0.00000000000E+00 -0.14101387082E+04  0.35781181098E+04  0.32885312879E+04 0.  0.
        1    1    3    3  502    0  0.72648955724E+03  0.15432703498E+03 -0.23012218897E+04  0.24181038225E+04  0.50400001928E-02 0. -1.
       -1    1    3    3    0  502 -0.72648955724E+03 -0.15432703498E+03  0.89108318150E+03  0.11600142874E+04  0.50400001928E-02 0.  1.
</event>
<event>
 5   0  0.2037333E-07  0.3265305E+04  0.7818609E-02  0.8171780E-01
        1   -1    0    0  501    0  0.00000000000E+00  0.00000000000E+00  0.19834942740E+04  0.19834942740E+04  0.50400001928E-02 0.  1.
       -1   -1    0    0    0  501  0.00000000000E+00  0.00000000000E+00 -0.13438677482E+04  0.13438677482E+04  0.50400001928E-02 0. -1.
    10030    2    1    2    0    0  0.00000000000E+00  0.00000000000E+00  0.63962652576E+03  0.33273620222E+04  0.32653048762E+04 0.  0.
        3    1    3    3  502    0  0.13543840345E+03  0.35077638018E+03  0.19387702271E+04  0.19748968666E+04  0.10100000352E+00 0.  1.
       -3    1    3    3    0  502 -0.13543840345E+03 -0.35077638018E+03 -0.12991437014E+04  0.13524651556E+04  0.10100000352E+00 0. -1.
</event>
<event>
 5   0  0.2037333E-07  0.3286250E+04  0.7818609E-02  0.8166403E-01
       -1   -1    0    0    0  501  0.00000000000E+00  0.00000000000E+00  0.23550634675E+04  0.23550634675E+04  0.50400001928E-02 0.  1.
        1   -1    0    0  501    0  0.00000000000E+00  0.00000000000E+00 -0.11464065207E+04  0.11464065207E+04  0.50400001928E-02 0. -1.
    10030    2    1    2    0    0  0.00000000000E+00  0.00000000000E+00  0.12086569468E+04  0.35014699883E+04  0.32862502132E+04 0.  0.
        3    1    3    3  502    0  0.16013917309E+04  0.28657998476E+02  0.99521027060E+03  0.18856617538E+04  0.10100000352E+00 0. -1.
       -3    1    3    3    0  502 -0.16013917309E+04 -0.28657998476E+02  0.21344667622E+03  0.16158082345E+04  0.10100000352E+00 0.  1.
</event>
<event>
 5   0  0.2080770E-07  0.3268825E+04  0.7818609E-02  0.8170873E-01
        1   -1    0    0  501    0  0.00000000000E+00  0.00000000000E+00  0.15841635640E+04  0.15841635641E+04  0.50400001928E-02 0. -1.
       -1   -1    0    0    0  501  0.00000000000E+00  0.00000000000E+00 -0.16862556111E+04  0.16862556111E+04  0.50400001928E-02 0.  1.
    10030    2    1    2    0    0  0.00000000000E+00  0.00000000000E+00 -0.10209204707E+03  0.32704191752E+04  0.32688252929E+04 0.  0.
        4    1    3    3  502    0  0.87689797915E+03 -0.13792385113E+04 -0.58408212517E+02  0.16354394116E+04  0.12699999809E+01 0. -1.
       -4    1    3    3    0  502 -0.87689797915E+03  0.13792385113E+04 -0.43683834555E+02  0.16349797635E+04  0.12699999809E+01 0.  1.
</event>
<event>
 5   0  0.2037333E-07  0.3312189E+04  0.7818609E-02  0.8159801E-01
       -1   -1    0    0    0  501  0.00000000000E+00  0.00000000000E+00  0.24740518847E+04  0.24740518847E+04  0.50400001928E-02 0.  1.
        1   -1    0    0  501    0  0.00000000000E+00  0.00000000000E+00 -0.11085654235E+04  0.11085654235E+04  0.50400001928E-02 0. -1.
    10030    2    1    2    0    0  0.00000000000E+00  0.00000000000E+00  0.13654864612E+04  0.35826173082E+04  0.33121886271E+04 0.  0.
        3    1    3    3  502    0 -0.37825990661E+03  0.13965477549E+03 -0.10546600100E+04  0.11291110487E+04  0.10100000352E+00 0. -1.
       -3    1    3    3    0  502  0.37825990661E+03 -0.13965477549E+03  0.24201464712E+04  0.24535062596E+04  0.10100000352E+00 0.  1.
</event>
<event>
 5   0  0.2080828E-07  0.3300240E+04  0.7818609E-02  0.8162834E-01
       -1   -1    0    0    0  501  0.00000000000E+00  0.00000000000E+00  0.12209859112E+04  0.12209859112E+04  0.50400001928E-02 0. -1.
        1   -1    0    0  501    0  0.00000000000E+00  0.00000000000E+00 -0.22300797571E+04  0.22300797571E+04  0.50400001928E-02 0.  1.
    10030    2    1    2    0    0  0.00000000000E+00  0.00000000000E+00 -0.10090938459E+04  0.34510656683E+04  0.33002399696E+04 0.  0.
        1    1    3    3  502    0  0.98843558396E+03  0.63706861117E+03  0.70595565006E+03  0.13715810945E+04  0.50400001928E-02 0. -1.
       -1    1    3    3    0  502 -0.98843558396E+03 -0.63706861117E+03 -0.17150494959E+04  0.20794845737E+04  0.50400001928E-02 0.  1.
</event>
<event>
 5   0  0.2087665E-07  0.3291381E+04  0.7818609E-02  0.8165092E-01
        1   -1    0    0  501    0  0.00000000000E+00  0.00000000000E+00  0.20098661272E+04  0.20098661272E+04  0.50400001928E-02 0. -1.
       -1   -1    0    0    0  501  0.00000000000E+00  0.00000000000E+00 -0.13475013159E+04  0.13475013160E+04  0.50400001928E-02 0.  1.
    10030    2    1    2    0    0  0.00000000000E+00  0.00000000000E+00  0.66236481125E+03  0.33573674432E+04  0.32913810179E+04 0.  0.
        5    1    3    3  502    0 -0.16210413040E+04 -0.25444443685E+03  0.20313371932E+03  0.16534213857E+04  0.46999998093E+01 0.  1.
       -5    1    3    3    0  502  0.16210413040E+04  0.25444443685E+03  0.45923109193E+03  0.17039460574E+04  0.46999998093E+01 0. -1.
</event>
<event>
 5   0  0.6351753E-07  0.3308194E+04  0.7818609E-02  0.8160813E-01
       -2   -1    0    0    0  501  0.00000000000E+00  0.00000000000E+00  0.24069881486E+04  0.24069881486E+04  0.25500000920E-02 0. -1.
        2   -1    0    0  501    0  0.00000000000E+00  0.00000000000E+00 -0.11367058909E+04  0.11367058909E+04  0.25500000920E-02 0.  1.
    10030    2    1    2    0    0  0.00000000000E+00  0.00000000000E+00  0.12702822577E+04  0.35436940395E+04  0.33081944368E+04 0.  0.
        3    1    3    3  502    0  0.76077514101E+03  0.82477424927E+03 -0.66669509968E+03  0.13051872446E+04  0.10100000352E+00 0.  1.
       -3    1    3    3    0  502 -0.76077514101E+03 -0.82477424927E+03  0.19369773574E+04  0.22385067949E+04  0.10100000352E+00 0. -1.
</event>
<event>
 5   0  0.6424183E-07  0.3285590E+04  0.7818609E-02  0.8166572E-01
       -2   -1    0    0    0  501  0.00000000000E+00  0.00000000000E+00  0.11280255483E+04  0.11280255483E+04  0.25500000920E-02 0.  1.
        2   -1    0    0  501    0  0.00000000000E+00  0.00000000000E+00 -0.23924767081E+04  0.23924767081E+04  0.25500000920E-02 0. -1.
    10030    2    1    2    0    0  0.00000000000E+00  0.00000000000E+00 -0.12644511599E+04  0.35205022564E+04  0.32855896582E+04 0.  0.
        2    1    3    3  502    0  0.10326837611E+04  0.12568622306E+04 -0.38639577847E+03  0.16719569716E+04  0.25500000920E-02 0.  1.
       -2    1    3    3    0  502 -0.10326837611E+04 -0.12568622306E+04 -0.87805538138E+03  0.18485452848E+04  0.25500000920E-02 0. -1.
</event>
<event>
 5   0  0.2087665E-07  0.3287956E+04  0.7818609E-02  0.8165967E-01
       -1   -1    0    0    0  501  0.00000000000E+00  0.00000000000E+00  0.17690377978E+04  0.17690377978E+04  0.50400001928E-02 0. -1.
        1   -1    0    0  501    0  0.00000000000E+00  0.00000000000E+00 -0.15277589381E+04  0.15277589381E+04  0.50400001928E-02 0.  1.
    10030    2    1    2    0    0  0.00000000000E+00  0.00000000000E+00  0.24127885969E+03  0.32967967359E+04  0.32879557828E+04 0.  0.
        5    1    3    3  502    0  0.11347160028E+04 -0.59663076288E+03  0.11525288466E+04  0.17239180684E+04  0.46999998093E+01 0. -1.
       -5    1    3    3    0  502 -0.11347160028E+04  0.59663076288E+03 -0.91124998687E+03  0.15728786676E+04  0.46999998093E+01 0.  1.
</event>
<event>
 5   0  0.6351753E-07  0.3272911E+04  0.7818609E-02  0.8169823E-01
       -2   -1    0    0    0  501  0.00000000000E+00  0.00000000000E+00  0.16184898438E+04  0.16184898438E+04  0.25500000920E-02 0. -1.
        2   -1    0    0  501    0  0.00000000000E+00  0.00000000000E+00 -0.16546201011E+04  0.16546201011E+04  0.25500000920E-02 0.  1.
    10030    2    1    2    0    0  0.00000000000E+00  0.00000000000E+00 -0.36130257371E+02  0.32731099449E+04  0.32729105267E+04 0.  0.
        3    1    3    3  502    0 -0.12222201930E+04  0.10869504843E+04 -0.70051593274E+02  0.16371288256E+04  0.10100000352E+00 0.  1.
       -3    1    3    3    0  502  0.12222201930E+04 -0.10869504843E+04  0.33921335903E+02  0.16359811193E+04  0.10100000352E+00 0. -1.
</event>
<event>
 5   0  0.6377741E-07  0.3361676E+04  0.7818609E-02  0.8147377E-01
        2   -1    0    0  501    0  0.00000000000E+00  0.00000000000E+00  0.22999633756E+04  0.22999633756E+04  0.25500000920E-02 0.  1.
       -2   -1    0    0    0  501  0.00000000000E+00  0.00000000000E+00 -0.12283741815E+04  0.12283741816E+04  0.25500000920E-02 0. -1.
    10030    2    1    2    0    0  0.00000000000E+00  0.00000000000E+00  0.10715891941E+04  0.35283375572E+04  0.33616755519E+04 0.  0.
        1    1    3    3  502    0  0.48182053045E+03  0.95411904286E+03 -0.82571418883E+03  0.13506657963E+04  0.50400001928E-02 0. -1.
       -1    1    3    3    0  502 -0.48182053045E+03 -0.95411904286E+03  0.18973033829E+04  0.21776717609E+04  0.50400001928E-02 0.  1.
</event>
<event>
 5   0  0.6426079E-07  0.3313349E+04  0.7818609E-02  0.8159507E-01
        2   -1    0    0  501    0  0.00000000000E+00  0.00000000000E+00  0.10169533186E+04  0.10169533186E+04  0.25500000920E-02 0.  1.
       -2   -1    0    0    0  501  0.00000000000E+00  0.00000000000E+00 -0.26988172123E+04  0.26988172123E+04  0.25500000920E-02 0. -1.
    10030    2    1    2    0    0  0.00000000000E+00  0.00000000000E+00 -0.16818638937E+04  0.37157705308E+04  0.33133494354E+04 0.  0.
        4    1    3    3  502    0  0.49948892667E+02  0.11546960530E+03 -0.26934516454E+04  0.26963886034E+04  0.12699999809E+01 0. -1.
       -4    1    3    3    0  502 -0.49948892667E+02 -0.11546960530E+03  0.10115877517E+04  0.10193819274E+04  0.12699999809E+01 0.  1.
</event>
<event>
 5   0  0.6424183E-07  0.3170081E+04  0.7818609E-02  0.8196764E-01
       -2   -1    0    0    0  501  0.00000000000E+00  0.00000000000E+00  0.90890631021E+03  0.90890631021E+03  0.25500000920E-02 0.  1.
        2   -1    0    0  501    0  0.00000000000E+00  0.00000000000E+00 -0.27641498893E+04  0.27641498893E+04  0.25500000920E-02 0. -1.
    10030    2    1    2    0    0  0.00000000000E+00  0.00000000000E+00 -0.18552435791E+04  0.36730561995E+04  0.31700809307E+04 0.  0.
        2    1    3    3  502    0 -0.10063368951E+04  0.57673588697E+03 -0.21793079531E+04  0.24687489513E+04  0.25500000920E-02 0. -1.
       -2    1    3    3    0  502  0.10063368951E+04 -0.57673588697E+03  0.32406437402E+03  0.12043072483E+04  0.25500000920E-02 0.  1.
</event>
<event>
 5   0  0.2087665E-07  0.3307713E+04  0.7818609E-02  0.8160936E-01
       -1   -1    0    0    0  501  0.00000000000E+00  0.00000000000E+00  0.11239719224E+04  0.11239719224E+04  0.50400001928E-02 0. -1.
        1   -1    0    0  501    0  0.00000000000E+00  0.00000000000E+00 -0.24335495050E+04  0.24335495050E+04  0.50400001928E-02 0.  1.
    10030    2    1    2    0    0  0.00000000000E+00  0.00000000000E+00 -0.13095775826E+04  0.35575214274E+04  0.33077129957E+04 0.  0.
        5    1    3    3  502    0  0.45896168573E+03  0.40869008880E+03 -0.23061792651E+04  0.23866625883E+04  0.46999998093E+01 0.  1.
       -5    1    3    3    0  502 -0.45896168573E+03 -0.40869008880E+03  0.99660168249E+03  0.11708588391E+04  0.46999998093E+01 0. -1.
</event>
<event>
 5   0  0.6424183E-07  0.3299492E+04  0.7818609E-02  0.8163025E-01
        2   -1    0    0  501    0  0.00000000000E+00  0.00000000000E+00  0.18793122459E+04  0.18793122460E+04  0.25500000920E-02 0.  1.
       -2   -1    0    0    0  501  0.00000000000E+00  0.00000000000E+00 -0.14482221490E+04  0.14482221490E+04  0.25500000920E-02 0. -1.
    10030    2    1    2    0    0  0.00000000000E+00  0.00000000000E+00  0.43109009693E+03  0.33275343950E+04  0.32994918515E+04 0.  0.
        2    1    3    3  502    0  0.11146665276E+04  0.59517889642E+02  0.14406276577E+04  0.18224796007E+04  0.25500000920E-02 0.  1.
       -2    1    3    3    0  502 -0.11146665276E+04 -0.59517889642E+02 -0.10095375608E+04  0.15050547942E+04  0.25500000920E-02 0. -1.
</event>
<event>
 5   0  0.2087665E-07  0.3205322E+04  0.7818609E-02  0.8187413E-01
        1   -1    0    0  501    0  0.00000000000E+00  0.00000000000E+00  0.21487773234E+04  0.21487773234E+04  0.50400001928E-02 0.  1.
       -1   -1    0    0    0  501  0.00000000000E+00  0.00000000000E+00 -0.11953416048E+04  0.11953416048E+04  0.50400001928E-02 0. -1.
    10030    2    1    2    0    0  0.00000000000E+00  0.00000000000E+00  0.95343571857E+03  0.33441189282E+04  0.32053224076E+04 0.  0.
        5    1    3    3  502    0 -0.64449786989E+03 -0.23001659715E+03  0.19886835811E+04  0.21031332852E+04  0.46999998093E+01 0.  1.
       -5    1    3    3    0  502  0.64449786989E+03  0.23001659715E+03 -0.10352478626E+04  0.12409856430E+04  0.46999998093E+01 0. -1.
</event>
<event>
 5   0  0.2080770E-07  0.3298495E+04  0.7818609E-02  0.8163278E-01
       -1   -1    0    0    0  501  0.00000000000E+00  0.00000000000E+00  0.13449687111E+04  0.13449687111E+04  0.50400001928E-02 0. -1.
        1   -1    0    0  501    0  0.00000000000E+00  0.00000000000E+00 -0.20223645892E+04  0.20223645892E+04  0.50400001928E-02 0.  1.
    10030    2    1    2    0    0  0.00000000000E+00  0.00000000000E+00 -0.67739587810E+03  0.33673333003E+04  0.32984948658E+04 0.  0.
        4    1    3    3  502    0  0.10180014459E+04 -0.30815249729E+03  0.94805574334E+03  0.14248144479E+04  0.12699999809E+01 0. -1.
       -4    1    3    3    0  502 -0.10180014459E+04  0.30815249729E+03 -0.16254516214E+04  0.19425188524E+04  0.12699999809E+01 0.  1.
</event>
<event>
 5   0  0.2057130E-07  0.3385188E+04  0.7818609E-02  0.8141551E-01
        1   -1    0    0  501    0  0.00000000000E+00  0.00000000000E+00  0.21805389617E+04  0.21805389617E+04  0.50400001928E-02 0.  1.
       -1   -1    0    0    0  501  0.00000000000E+00  0.00000000000E+00 -0.13138379489E+04  0.13138379489E+04  0.50400001928E-02 0. -1.
    10030    2    1    2    0    0  0.00000000000E+00  0.00000000000E+00  0.86670101282E+03  0.34943769105E+04  0.33851882292E+04 0.  0.
        2    1    3    3  502    0  0.15072609101E+03 -0.11633541161E+04  0.16928552513E+04  0.20595800679E+04  0.25500000920E-02 0.  1.
       -2    1    3    3    0  502 -0.15072609101E+03  0.11633541161E+04 -0.82615423849E+03  0.14347968427E+04  0.25500000920E-02 0. -1.
</event>
<event>
 5   0  0.2080770E-07  0.3306315E+04  0.7818609E-02  0.8161290E-01
        1   -1    0    0  501    0  0.00000000000E+00  0.00000000000E+00  0.25812328553E+04  0.25812328553E+04  0.50400001928E-02 0. -1.
       -1   -1    0    0    0  501  0.00000000000E+00  0.00000000000E+00 -0.10587691400E+04  0.10587691400E+04  0.50400001928E-02 0.  1.
    10030    2    1    2    0    0  0.00000000000E+00  0.00000000000E+00  0.15224637153E+04  0.36400019953E+04  0.33063149822E+04 0.  0.
        4    1    3    3  502    0 -0.29889679816E+03  0.16189119828E+04  0.92714946712E+03  0.18893975366E+04  0.12699999809E+01 0.  1.
       -4    1    3    3    0  502  0.29889679816E+03 -0.16189119828E+04  0.59531424815E+03  0.17506044587E+04  0.12699999809E+01 0. -1.
</event>
<event>
 5   0  0.6377741E-07  0.3289777E+04  0.7818609E-02  0.8165502E-01
        2   -1    0    0  501    0  0.00000000000E+00  0.00000000000E+00  0.86852688246E+03  0.86852688247E+03  0.25500000920E-02 0. -1.
       -2   -1    0    0    0  501  0.00000000000E+00  0.00000000000E+00 -0.31152258718E+04  0.31152258718E+04  0.25500000920E-02 0.  1.
    10030    2    1    2    0    0  0.00000000000E+00  0.00000000000E+00 -0.22466989893E+04  0.39837527542E+04  0.32897765362E+04 0.  0.
        1    1    3    3  502    0  0.41854646891E+02  0.15467762275E+04 -0.44761273457E+03  0.16107841785E+04  0.50400001928E-02 0. -1.
       -1    1    3    3    0  502 -0.41854646891E+02 -0.15467762275E+04 -0.17990862547E+04  0.23729685758E+04  0.50400001928E-02 0.  1.
</event>
<event>
 5   0  0.6426079E-07  0.3302670E+04  0.7818609E-02  0.8162216E-01
        2   -1    0    0  501    0  0.00000000000E+00  0.00000000000E+00  0.14738374423E+04  0.14738374423E+04  0.25500000920E-02 0.  1.
       -2   -1    0    0    0  501  0.00000000000E+00  0.00000000000E+00 -0.18502091254E+04  0.18502091254E+04  0.25500000920E-02 0. -1.
    10030    2    1    2    0    0  0.00000000000E+00  0.00000000000E+00 -0.37637168312E+03  0.33240465677E+04  0.33026701228E+04 0.  0.
        4    1    3    3  502    0 -0.31881922793E+03  0.13487401278E+04 -0.10918615100E+04  0.17643437313E+04  0.12699999809E+01 0. -1.
       -4    1    3    3    0  502  0.31881922793E+03 -0.13487401278E+04  0.71548982684E+03  0.15597028363E+04  0.12699999809E+01 0.  1.
</event>
<event>
 5   0  0.2037333E-07  0.3308202E+04  0.7818609E-02  0.8160812E-01
        1   -1    0    0  501    0  0.00000000000E+00  0.00000000000E+00  0.20228310997E+04  0.20228310997E+04  0.50400001928E-02 0. -1.
       -1   -1    0    0    0  501  0.00000000000E+00  0.00000000000E+00 -0.13525844112E+04  0.13525844112E+04  0.50400001928E-02 0.  1.
    10030    2    1    2    0    0  0.00000000000E+00  0.00000000000E+00  0.67024668854E+03  0.33754155109E+04  0.33082018149E+04 0.  0.
        3    1    3    3  502    0  0.57474457781E+03  0.13495728395E+04 -0.44485008006E+03  0.15328306439E+04  0.10100000352E+00 0.  1.
       -3    1    3    3    0  502 -0.57474457781E+03 -0.13495728395E+04  0.11150967686E+04  0.18425848671E+04  0.10100000352E+00 0. -1.
</event>
<event>
 5   0  0.6351753E-07  0.3321554E+04  0.7818609E-02  0.8157433E-01
        2   -1    0    0  501    0  0.00000000000E+00  0.00000000000E+00  0.17148541984E+04  0.17148541984E+04  0.25500000920E-02 0.  1.
       -2   -1    0    0    0  501  0.00000000000E+00  0.00000000000E+00 -0.16084050919E+04  0.16084050919E+04  0.25500000920E-02 0. -1.
    10030    2    1    2    0    0  0.00000000000E+00  0.00000000000E+00  0.10644910653E+03  0.33232592903E+04  0.33215539885E+04 0.  0.
        3    1    3    3  502    0  0.20803441537E+03 -0.93513647845E+03  0.14105424640E+04  0.17051066255E+04  0.10100000352E+00 0.  1.
       -3    1    3    3    0  502 -0.20803441537E+03  0.93513647845E+03 -0.13040933575E+04  0.16181526648E+04  0.10100000352E+00 0. -1.
</event>
<event>
 5   0  0.2037333E-07  0.3291084E+04  0.7818609E-02  0.8165168E-01
       -1   -1    0    0    0  501  0.00000000000E+00  0.00000000000E+00  0.17284040312E+04  0.17284040312E+04  0.50400001928E-02 0.  1.
        1   -1    0    0  501    0  0.00000000000E+00  0.00000000000E+00 -0.15666525553E+04  0.15666525553E+04  0.50400001928E-02 0. -1.
    10030    2    1    2    0    0  0.00000000000E+00  0.00000000000E+00  0.16175147595E+03  0.32950565865E+04  0.32910840719E+04 0.  0.
        3    1    3    3  502    0 -0.43245861695E+03 -0.15493124816E+04  0.42830895537E+03  0.16645834892E+04  0.10100000352E+00 0.  1.
       -3    1    3    3    0  502  0.43245861695E+03  0.15493124816E+04 -0.26655747942E+03  0.16304730973E+04  0.10100000352E+00 0. -1.
</event>
<event>
 5   0  0.2057130E-07  0.3300439E+04  0.7818609E-02  0.8162784E-01
       -1   -1    0    0    0  501  0.00000000000E+00  0.00000000000E+00  0.19341938714E+04  0.19341938714E+04  0.50400001928E-02 0.  1.
        1   -1    0    0  501    0  0.00000000000E+00  0.00000000000E+00 -0.14079373661E+04  0.14079373661E+04  0.50400001928E-02 0. -1.
    10030    2    1    2    0    0  0.00000000000E+00  0.00000000000E+00  0.52625650532E+03  0.33421312375E+04  0.33004386525E+04 0.  0.
        2    1    3    3  502    0 -0.97985282319E+03 -0.23574257280E+03  0.15863632741E+04  0.18794239951E+04  0.25500000920E-02 0.  1.
       -2    1    3    3    0  502  0.97985282319E+03  0.23574257280E+03 -0.10601067688E+04  0.14627072424E+04  0.25500000920E-02 0. -1.
</event>
<event>
 5   0  0.6424183E-07  0.3296414E+04  0.7818609E-02  0.8163808E-01
        2   -1    0    0  501    0  0.00000000000E+00  0.00000000000E+00  0.23555306184E+04  0.23555306184E+04  0.25500000920E-02 0.  1.
       -2   -1    0    0    0  501  0.00000000000E+00  0.00000000000E+00 -0.11532799528E+04  0.11532799528E+04  0.25500000920E-02 0. -1.
    10030    2    1    2    0    0  0.00000000000E+00  0.00000000000E+00  0.12022506657E+04  0.35088105712E+04  0.32964139548E+04 0.  0.
        2    1    3    3  502    0  0.51319292713E+03  0.11545288598E+04  0.17277569370E+04  0.21404317093E+04  0.25500000920E-02 0.  1.
       -2    1    3    3    0  502 -0.51319292713E+03 -0.11545288598E+04 -0.52550627134E+03  0.13683788619E+04  0.25500000920E-02 0. -1.
</event>
<event>
 5   0  0.1994250E-07  0.3308178E+04  0.7818609E-02  0.8160818E-01
        3   -1    0    0  501    0  0.00000000000E+00  0.00000000000E+00  0.21186377720E+04  0.21186377744E+04  0.10100000352E+00 0. -1.
       -3   -1    0    0    0  501  0.00000000000E+00  0.00000000000E+00 -0.12914006950E+04  0.12914006989E+04  0.10100000352E+00 0.  1.
    10030    2    1    2    0    0  0.00000000000E+00  0.00000000000E+00  0.82723707706E+03  0.34100384733E+04  0.33081779287E+04 0.  0.
        1    1    3    3  502    0 -0.80292321136E+03 -0.12020385222E+04  0.12423818216E+04  0.19060679114E+04  0.50400001928E-02 0. -1.
       -1    1    3    3    0  502  0.80292321136E+03  0.12020385222E+04 -0.41514474457E+03  0.15039705619E+04  0.50400001928E-02 0.  1.
</event>
<event>
 5   0  0.2080828E-07  0.3297770E+04  0.7818609E-02  0.8163463E-01
        1   -1    0    0  501    0  0.00000000000E+00  0.00000000000E+00  0.22412014479E+04  0.22412014479E+04  0.50400001928E-02 0. -1.
       -1   -1    0    0    0  501  0.00000000000E+00  0.00000000000E+00 -0.12131087868E+04  0.12131087868E+04  0.50400001928E-02 0.  1.
    10030    2    1    2    0    0  0.00000000000E+00  0.00000000000E+00  0.10280926611E+04  0.34543102347E+04  0.32977696520E+04 0.  0.
        1    1    3    3  502    0  0.95200959988E+03 -0.68086530637E+03  0.17306085707E+04  0.20892357140E+04  0.50400001928E-02 0. -1.
       -1    1    3    3    0  502 -0.95200959988E+03  0.68086530637E+03 -0.70251590966E+03  0.13650745207E+04  0.50400001928E-02 0.  1.
</event>
<event>
 5   0  0.6426079E-07  0.3283108E+04  0.7818609E-02  0.8167207E-01
       -2   -1    0    0    0  501  0.00000000000E+00  0.00000000000E+00  0.15229380498E+04  0.15229380498E+04  0.25500000920E-02 0. -1.
        2   -1    0    0  501    0  0.00000000000E+00  0.00000000000E+00 -0.17694080545E+04  0.17694080545E+04  0.25500000920E-02 0.  1.
    10030    2    1    2    0    0  0.00000000000E+00  0.00000000000E+00 -0.24647000469E+03  0.32923461042E+04  0.32831075838E+04 0.  0.
        4    1    3    3  502    0 -0.99378441387E+03 -0.18716141387E+03 -0.14199554161E+04  0.17432475019E+04  0.12699999809E+01 0.  1.
       -4    1    3    3    0  502  0.99378441387E+03  0.18716141387E+03  0.11734854114E+04  0.15490986024E+04  0.12699999809E+01 0. -1.
</event>
<event>
 5   0  0.2080828E-07  0.3326840E+04  0.7818609E-02  0.8156099E-01
        1   -1    0    0  501    0  0.00000000000E+00  0.00000000000E+00  0.19404476895E+04  0.19404476895E+04  0.50400001928E-02 0. -1.
       -1   -1    0    0    0  501  0.00000000000E+00  0.00000000000E+00 -0.14259417315E+04  0.14259417315E+04  0.50400001928E-02 0.  1.
    10030    2    1    2    0    0  0.00000000000E+00  0.00000000000E+00  0.51450595803E+03  0.33663894210E+04  0.33268395442E+04 0.  0.
        1    1    3    3  502    0 -0.29935146653E+03 -0.15604273183E+04 -0.24096257151E+03  0.16070493699E+04  0.50400001928E-02 0.  1.
       -1    1    3    3    0  502  0.29935146653E+03  0.15604273183E+04  0.75546852954E+03  0.17593400511E+04  0.50400001928E-02 0. -1.
</event>
<event>
 5   0  0.6426079E-07  0.3297397E+04  0.7818609E-02  0.8163558E-01
       -2   -1    0    0    0  501  0.00000000000E+00  0.00000000000E+00  0.17332016348E+04  0.17332016348E+04  0.25500000920E-02 0. -1.
        2   -1    0    0  501    0  0.00000000000E+00  0.00000000000E+00 -0.15683149085E+04  0.15683149085E+04  0.25500000920E-02 0.  1.
    10030    2    1    2    0    0  0.00000000000E+00  0.00000000000E+00  0.16488672629E+03  0.33015165433E+04  0.32973965265E+04 0.  0.
        4    1    3    3  502    0 -0.15519497172E+03  0.16810995314E+03 -0.15523422271E+04  0.15691126277E+04  0.12699999809E+01 0.  1.
       -4    1    3    3    0  502  0.15519497172E+03 -0.16810995314E+03  0.17172289534E+04  0.17324039156E+04  0.12699999809E+01 0. -1.
</event>
<event>
 5   0  0.6258718E-07  0.3251006E+04  0.7818609E-02  0.8175475E-01
       -2   -1    0    0    0  501  0.00000000000E+00  0.00000000000E+00  0.12260708103E+04  0.12260708103E+04  0.25500000920E-02 0. -1.
        2   -1    0    0  501    0  0.00000000000E+00  0.00000000000E+00 -0.21550633240E+04  0.21550633240E+04  0.25500000920E-02 0.  1.
    10030    2    1    2    0    0  0.00000000000E+00  0.00000000000E+00 -0.92899251362E+03  0.33811341343E+04  0.32510061433E+04 0.  0.
        5    1    3    3  502    0  0.13056087994E+04 -0.92948214840E+03 -0.74681472944E+03  0.17681362310E+04  0.46999998093E+01 0.  1.
       -5    1    3    3    0  502 -0.13056087994E+04  0.92948214840E+03 -0.18217778417E+03  0.16129979033E+04  0.46999998093E+01 0. -1.
</event>
<event>
 5   0  0.2080770E-07  0.3299280E+04  0.7818609E-02  0.8163079E-01
       -1   -1    0    0    0  501  0.00000000000E+00  0.00000000000E+00  0.13768627838E+04  0.13768627838E+04  0.50400001928E-02 0.  1.
        1   -1    0    0  501    0  0.00000000000E+00  0.00000000000E+00 -0.19764580936E+04  0.19764580936E+04  0.50400001928E-02 0. -1.
    10030    2    1    2    0    0  0.00000000000E+00  0.00000000000E+00 -0.59959530982E+03  0.33533208773E+04  0.32992796745E+04 0.  0.
        4    1    3    3  502    0  0.44005233889E+03 -0.21324772614E+03  0.13015050348E+04  0.13903372333E+04  0.12699999809E+01 0.  1.
       -4    1    3    3    0  502 -0.44005233889E+03  0.21324772614E+03 -0.19011003446E+04  0.19629836441E+04  0.12699999809E+01 0. -1.
</event>
<event>
 5   0  0.6258718E-07  0.3297642E+04  0.7818609E-02  0.8163496E-01
       -2   -1    0    0    0  501  0.00000000000E+00  0.00000000000E+00  0.12888987986E+04  0.12888987986E+04  0.25500000920E-02 0. -1.
        2   -1    0    0  501    0  0.00000000000E+00  0.00000000000E+00 -0.21092507723E+04  0.21092507723E+04  0.25500000920E-02 0.  1.
    10030    2    1    2    0    0  0.00000000000E+00  0.00000000000E+00 -0.82035197367E+03  0.33981495709E+04  0.32976420584E+04 0.  0.
        5    1    3    3  502    0 -0.10123787382E+04 -0.96343409368E+03  0.49140312241E+03  0.14814233295E+04  0.46999998093E+01 0. -1.
       -5    1    3    3    0  502  0.10123787382E+04  0.96343409368E+03 -0.13117550961E+04  0.19167262414E+04  0.46999998093E+01 0.  1.
</event>
<event>
 5   0  0.2057130E-07  0.3370375E+04  0.7818609E-02  0.8145216E-01
        1   -1    0    0  501    0  0.00000000000E+00  0.00000000000E+00  0.18086241117E+04  0.18086241117E+04  0.50400001928E-02 0. -1.
       -1   -1    0    0    0  501  0.00000000000E+00  0.00000000000E+00 -0.15701755391E+04  0.15701755392E+04  0.50400001928E-02 0.  1.
    10030    2    1    2    0    0  0.00000000000E+00  0.00000000000E+00  0.23844857253E+03  0.33787996508E+04  0.33703752549E+04 0.  0.
        2    1    3    3  502    0  0.85343571204E+03 -0.15662677510E+03 -0.13290225407E+04  0.15871941831E+04  0.25500000920E-02 0.  1.
       -2    1    3    3    0  502 -0.85343571204E+03  0.15662677510E+03  0.15674711132E+04  0.17916054677E+04  0.25500000920E-02 0. -1.
</event>
<event>
 5   0  0.6424183E-07  0.3302603E+04  0.7818609E-02  0.8162233E-01
       -2   -1    0    0    0  501  0.00000000000E+00  0.00000000000E+00  0.96238641869E+03  0.96238641869E+03  0.25500000920E-02 0. -1.
        2   -1    0    0  501    0  0.00000000000E+00  0.00000000000E+00 -0.28333706285E+04  0.28333706285E+04  0.25500000920E-02 0.  1.
    10030    2    1    2    0    0  0.00000000000E+00  0.00000000000E+00 -0.18709842098E+04  0.37957570472E+04  0.33026034651E+04 0.  0.
        2    1    3    3  502    0 -0.97170993150E+03  0.51871307704E+03  0.47846160254E+03  0.12009200441E+04  0.25500000920E-02 0. -1.
       -2    1    3    3    0  502  0.97170993150E+03 -0.51871307704E+03 -0.23494458124E+04  0.25948370031E+04  0.25500000920E-02 0.  1.
</event>
<event>
 5   0  0.2087665E-07  0.3312584E+04  0.7818609E-02  0.8159701E-01
        1   -1    0    0  501    0  0.00000000000E+00  0.00000000000E+00  0.18749392009E+04  0.18749392009E+04  0.50400001928E-02 0. -1.
       -1   -1    0    0    0  501  0.00000000000E+00  0.00000000000E+00 -0.14631424169E+04  0.14631424169E+04  0.50400001928E-02 0.  1.
    10030    2    1    2    0    0  0.00000000000E+00  0.00000000000E+00  0.41179678401E+03  0.33380816178E+04  0.33125839304E+04 0.  0.
        5    1    3    3  502    0 -0.73263578925E+03 -0.11515740986E+03  0.16982651632E+04  0.18531441075E+04  0.46999998093E+01 0. -1.
       -5    1    3    3    0  502  0.73263578925E+03  0.11515740986E+03 -0.12864683792E+04  0.14849375103E+04  0.46999998093E+01 0.  1.
</event>
</LesHouchesEvents>
