<LesHouchesEvents version="3.0">
<header>
<!--
#*********************************************************************
#                                                                    *
#                        MadGraph5_aMC@NLO                           *
#                                                                    *
#                           Going Beyond                             *
#                                                                    *
#                   http://madgraph.hep.uiuc.edu                     *
#                   http://madgraph.phys.ucl.ac.be                   *
#                   http://amcatnlo.cern.ch                          *
#                                                                    *
#                     The MadGraph5_aMC@NLO team                     *
#                                                                    *
#....................................................................*
#                                                                    *
# This file contains all the information necessary to reproduce      *
# the events generated:                                              *
#                                                                    *
# 1. software version                                                *
# 2. proc_card          : code generation info including model       *
# 3. param_card         : model primary parameters in the LH format  *
# 4. run_card           : running parameters (collider and cuts)     *
# 5. pythia_card        : present only if pythia has been run        *
# 6. pgs_card           : present only if pgs has been run           *
# 7. delphes_cards      : present only if delphes has been run       *
#                                                                    *
#                                                                    *
#*********************************************************************
-->
<MGVersion>
#5.2.2.3
</MGVersion>
<MG5ProcCard>
#************************************************************
#*                     MadGraph5_aMC@NLO                    *
#*                                                          *
#*                *                       *                 *
#*                  *        * *        *                   *
#*                    * * * * 5 * * * *                     *
#*                  *        * *        *                   *
#*                *                       *                 *
#*                                                          *
#*                                                          *
#*         VERSION 2.2.3                 2015-02-10         *
#*                                                          *
#*    The MadGraph5_aMC@NLO Development Team - Find us at   *
#*    https://server06.fynu.ucl.ac.be/projects/madgraph     *
#*                                                          *
#************************************************************
#*                                                          *
#*               Command File for MadGraph5_aMC@NLO         *
#*                                                          *
#*     run as ./bin/mg5_aMC  filename                       *
#*                                                          *
#************************************************************
set group_subprocesses Auto
set ignore_six_quark_processes False
set loop_optimized_output True
set gauge unitary
set complex_mass_scheme False
import model sm
define p = g u c d s u~ c~ d~ s~
define j = g u c d s u~ c~ d~ s~
define l+ = e+ mu+
define l- = e- mu-
define vl = ve vm vt
define vl~ = ve~ vm~ vt~
import model Zprime_UFO
generate p p > zph, zph > j j
add process p p > zph, zph > b b~
output Dijet_signal
</MG5ProcCard>
<MGProcCard>
#*********************************************************************
#                        MadGraph/MadEvent                           *
#                   http://madgraph.hep.uiuc.edu                     *
#                                                                    *
#                          proc_card.dat                             *
#*********************************************************************
#                                                                    *
#            This Files is generated by MADGRAPH 5                   *
#                                                                    *
# WARNING: This Files is generated for MADEVENT (compatibility issue)*
#          This files is NOT a valid MG4 proc_card.dat               *
#          Running this in MG4 will NEVER reproduce the result of MG5*
#                                                                    *
#*********************************************************************
#*********************************************************************
# Process(es) requested : mg2 input                                  *
#*********************************************************************
# Begin PROCESS # This is TAG. Do not modify this line
p p > zph , zph > j j           #Process
# Be carefull the coupling are here in MG5 convention
          
end_coup           # End the couplings input

done               # this tells MG there are no more procs
# End PROCESS  # This is TAG. Do not modify this line
#*********************************************************************
# Model information                                                  *
#*********************************************************************
# Begin MODEL  # This is TAG. Do not modify this line
Zprime_UFO
# End   MODEL  # This is TAG. Do not modify this line
#*********************************************************************
# Start multiparticle definitions                                    *
#*********************************************************************
# Begin MULTIPARTICLES # This is TAG. Do not modify this line

# End  MULTIPARTICLES # This is TAG. Do not modify this line
</MGProcCard>
<MGRunCard>
#*********************************************************************
#                       MadGraph5_aMC@NLO                            *
#                                                                    *
#                     run_card.dat MadEvent                          *
#                                                                    *
#  This file is used to set the parameters of the run.               *
#                                                                    *
#  Some notation/conventions:                                        *
#                                                                    *
#   Lines starting with a '# ' are info or comments                  *
#                                                                    *
#   mind the format:   value    = variable     ! comment             *
#*********************************************************************
#
#*******************                                                 
# Running parameters
#*******************                                                 
#                                                                    
#*********************************************************************
# Tag name for the run (one word)                                    *
#*********************************************************************
  tag_1     = run_tag ! name of the run 
#*********************************************************************
# Run to generate the grid pack                                      *
#*********************************************************************
  .false.     = gridpack  !True = setting up the grid pack
#*********************************************************************
# Number of events and rnd seed                                      *
# Warning: Do not generate more than 1M events in a single run       *
# If you want to run Pythia, avoid more than 50k events in a run.    *
#*********************************************************************
  2000 = nevents ! Number of unweighted events requested 
 1065 = iseed   ! rnd seed (0=assigned automatically=default))
#*********************************************************************
# Collider type and energy                                           *
# lpp: 0=No PDF, 1=proton, -1=antiproton, 2=photon from proton,      *
#                                         3=photon from electron     *
#*********************************************************************
        1     = lpp1    ! beam 1 type 
        1     = lpp2    ! beam 2 type
     4000     = ebeam1  ! beam 1 total energy in GeV
     4000     = ebeam2  ! beam 2 total energy in GeV
#*********************************************************************
# Beam polarization from -100 (left-handed) to 100 (right-handed)    *
#*********************************************************************
        0     = polbeam1 ! beam polarization for beam 1
        0     = polbeam2 ! beam polarization for beam 2
#*********************************************************************
# PDF CHOICE: this automatically fixes also alpha_s and its evol.    *
#*********************************************************************
 'nn23lo1'    = pdlabel     ! PDF set                                     
 230000    = lhaid     ! if pdlabel=lhapdf, this is the lhapdf number
#*********************************************************************
# Renormalization and factorization scales                           *
#*********************************************************************
 F        = fixed_ren_scale  ! if .true. use fixed ren scale
 F        = fixed_fac_scale  ! if .true. use fixed fac scale
 91.1880  = scale            ! fixed ren scale
 91.1880  = dsqrt_q2fact1    ! fixed fact scale for pdf1
 91.1880  = dsqrt_q2fact2    ! fixed fact scale for pdf2
 1        = scalefact        ! scale factor for event-by-event scales
#*********************************************************************
# Matching - Warning! ickkw > 1 is still beta
#*********************************************************************
 0        = ickkw            ! 0 no matching, 1 MLM, 2 CKKW matching
 1        = highestmult      ! for ickkw=2, highest mult group
 1        = ktscheme         ! for ickkw=1, 1 Durham kT, 2 Pythia pTE
 1        = alpsfact         ! scale factor for QCD emission vx
 F        = chcluster        ! cluster only according to channel diag
 T        = pdfwgt           ! for ickkw=1, perform pdf reweighting
 5        = asrwgtflavor     ! highest quark flavor for a_s reweight
 T        = clusinfo         ! include clustering tag in output
 3.0      = lhe_version       ! Change the way clustering information pass to shower.        
#*********************************************************************
#**********************************************************
#
#**********************************************************
# Automatic ptj and mjj cuts if xqcut > 0
# (turn off for VBF and single top processes)
#**********************************************************
   T  = auto_ptj_mjj  ! Automatic setting of ptj and mjj
#**********************************************************
#                                                                    
#**********************************
# BW cutoff (M+/-bwcutoff*Gamma)
#**********************************
  15  = bwcutoff      ! (M+/-bwcutoff*Gamma)
#**********************************************************
# Apply pt/E/eta/dr/mij cuts on decay products or not
# (note that etmiss/ptll/ptheavy/ht/sorted cuts always apply)
#**********************************************************
   T  = cut_decays    ! Cut decay products 
#*************************************************************
# Number of helicities to sum per event (0 = all helicities)
# 0 gives more stable result, but longer run time (needed for
# long decay chains e.g.).
# Use >=2 if most helicities contribute, e.g. pure QCD.
#*************************************************************
   0  = nhel          ! Number of helicities used per event
#*******************                                                 
# Standard Cuts
#*******************                                                 
#                                                                    
#*********************************************************************
# Minimum and maximum pt's (for max, -1 means no cut)                *
#*********************************************************************
 20  = ptj       ! minimum pt for the jets 
  0  = ptb       ! minimum pt for the b 
 10  = pta       ! minimum pt for the photons 
 10  = ptl       ! minimum pt for the charged leptons 
  0  = misset    ! minimum missing Et (sum of neutrino's momenta)
  0  = ptheavy   ! minimum pt for one heavy final state
 1.0 = ptonium   ! minimum pt for the quarkonium states
 -1  = ptjmax    ! maximum pt for the jets
 -1  = ptbmax    ! maximum pt for the b
 -1  = ptamax    ! maximum pt for the photons
 -1  = ptlmax    ! maximum pt for the charged leptons
 -1  = missetmax ! maximum missing Et (sum of neutrino's momenta)
#*********************************************************************
# Minimum and maximum E's (in the center of mass frame)              *
#*********************************************************************
  0  = ej     ! minimum E for the jets 
  0  = eb     ! minimum E for the b 
  0  = ea     ! minimum E for the photons 
  0  = el     ! minimum E for the charged leptons 
 -1   = ejmax ! maximum E for the jets
 -1   = ebmax ! maximum E for the b
 -1   = eamax ! maximum E for the photons
 -1   = elmax ! maximum E for the charged leptons
#*********************************************************************
# Maximum and minimum absolute rapidity (for max, -1 means no cut)   *
#*********************************************************************
   5  = etaj    ! max rap for the jets 
  -1  = etab    ! max rap for the b
 2.5  = etaa    ! max rap for the photons 
 2.5  = etal    ! max rap for the charged leptons 
 0.6  = etaonium ! max rap for the quarkonium states
   0  = etajmin ! min rap for the jets
   0  = etabmin ! min rap for the b
   0  = etaamin ! min rap for the photons
   0  = etalmin ! main rap for the charged leptons
#*********************************************************************
# Minimum and maximum DeltaR distance                                *
#*********************************************************************
 0.4 = drjj    ! min distance between jets 
 0   = drbb    ! min distance between b's 
 0.4 = drll    ! min distance between leptons 
 0.4 = draa    ! min distance between gammas 
 0   = drbj    ! min distance between b and jet 
 0.4 = draj    ! min distance between gamma and jet 
 0.4 = drjl    ! min distance between jet and lepton 
 0   = drab    ! min distance between gamma and b 
 0   = drbl    ! min distance between b and lepton 
 0.4 = dral    ! min distance between gamma and lepton 
 -1  = drjjmax ! max distance between jets
 -1  = drbbmax ! max distance between b's
 -1  = drllmax ! max distance between leptons
 -1  = draamax ! max distance between gammas
 -1  = drbjmax ! max distance between b and jet
 -1  = drajmax ! max distance between gamma and jet
 -1  = drjlmax ! max distance between jet and lepton
 -1  = drabmax ! max distance between gamma and b
 -1  = drblmax ! max distance between b and lepton
 -1  = dralmax ! maxdistance between gamma and lepton
#*********************************************************************
# Minimum and maximum invariant mass for pairs                       *
# WARNING: for four lepton final state mmll cut require to have      *
#          different lepton masses for each flavor!                  *           
#*********************************************************************
 0   = mmjj    ! min invariant mass of a jet pair 
 0   = mmbb    ! min invariant mass of a b pair 
 0   = mmaa    ! min invariant mass of gamma gamma pair
 0   = mmll    ! min invariant mass of l+l- (same flavour) lepton pair
 -1  = mmjjmax ! max invariant mass of a jet pair
 -1  = mmbbmax ! max invariant mass of a b pair
 -1  = mmaamax ! max invariant mass of gamma gamma pair
 -1  = mmllmax ! max invariant mass of l+l- (same flavour) lepton pair
#*********************************************************************
# Minimum and maximum invariant mass for all letpons                 *
#*********************************************************************
 0   = mmnl    ! min invariant mass for all letpons (l+- and vl) 
 -1  = mmnlmax ! max invariant mass for all letpons (l+- and vl) 
#*********************************************************************
# Minimum and maximum pt for 4-momenta sum of leptons                *
#*********************************************************************
 0   = ptllmin  ! Minimum pt for 4-momenta sum of leptons(l and vl)
 -1  = ptllmax  ! Maximum pt for 4-momenta sum of leptons(l and vl)
#*********************************************************************
# Inclusive cuts                                                     *
#*********************************************************************
 0  = xptj ! minimum pt for at least one jet  
 0  = xptb ! minimum pt for at least one b 
 0  = xpta ! minimum pt for at least one photon 
 0  = xptl ! minimum pt for at least one charged lepton 
#*********************************************************************
# Control the pt's of the jets sorted by pt                          *
#*********************************************************************
 0   = ptj1min ! minimum pt for the leading jet in pt
 0   = ptj2min ! minimum pt for the second jet in pt
 0   = ptj3min ! minimum pt for the third jet in pt
 0   = ptj4min ! minimum pt for the fourth jet in pt
 -1  = ptj1max ! maximum pt for the leading jet in pt 
 -1  = ptj2max ! maximum pt for the second jet in pt
 -1  = ptj3max ! maximum pt for the third jet in pt
 -1  = ptj4max ! maximum pt for the fourth jet in pt
 0   = cutuse  ! reject event if fails any (0) / all (1) jet pt cuts
#*********************************************************************
# Control the pt's of leptons sorted by pt                           *
#*********************************************************************
 0   = ptl1min ! minimum pt for the leading lepton in pt
 0   = ptl2min ! minimum pt for the second lepton in pt
 0   = ptl3min ! minimum pt for the third lepton in pt
 0   = ptl4min ! minimum pt for the fourth lepton in pt
 -1  = ptl1max ! maximum pt for the leading lepton in pt 
 -1  = ptl2max ! maximum pt for the second lepton in pt
 -1  = ptl3max ! maximum pt for the third lepton in pt
 -1  = ptl4max ! maximum pt for the fourth lepton in pt
#*********************************************************************
# Control the Ht(k)=Sum of k leading jets                            *
#*********************************************************************
 0   = htjmin ! minimum jet HT=Sum(jet pt)
 -1  = htjmax ! maximum jet HT=Sum(jet pt)
 0   = ihtmin  !inclusive Ht for all partons (including b)
 -1  = ihtmax  !inclusive Ht for all partons (including b)
 0   = ht2min ! minimum Ht for the two leading jets
 0   = ht3min ! minimum Ht for the three leading jets
 0   = ht4min ! minimum Ht for the four leading jets
 -1  = ht2max ! maximum Ht for the two leading jets
 -1  = ht3max ! maximum Ht for the three leading jets
 -1  = ht4max ! maximum Ht for the four leading jets
#***********************************************************************
# Photon-isolation cuts, according to hep-ph/9801442                   *
# When ptgmin=0, all the other parameters are ignored                  *
# When ptgmin>0, pta and draj are not going to be used                 *
#***********************************************************************
   0 = ptgmin ! Min photon transverse momentum
 0.4 = R0gamma ! Radius of isolation code
 1.0 = xn ! n parameter of eq.(3.4) in hep-ph/9801442
 1.0 = epsgamma ! epsilon_gamma parameter of eq.(3.4) in hep-ph/9801442
 .true. = isoEM ! isolate photons from EM energy (photons and leptons)
#*********************************************************************
# WBF cuts                                                           *
#*********************************************************************
 0   = xetamin ! minimum rapidity for two jets in the WBF case  
 0   = deltaeta ! minimum rapidity for two jets in the WBF case 
#*********************************************************************
# KT DURHAM CUT                                                      *
#*********************************************************************
 -1    =  ktdurham        
 0.4  =  dparameter 
#*********************************************************************
# maximal pdg code for quark to be considered as a light jet         *
# (otherwise b cuts are applied)                                     *
#*********************************************************************
 4 = maxjetflavor    ! Maximum jet pdg code
#*********************************************************************
# Jet measure cuts                                                   *
#*********************************************************************
 0   = xqcut   ! minimum kt jet measure between partons
#*********************************************************************
#
#*********************************************************************
# Store info for systematics studies                                 *
# WARNING: If use_syst is T, matched Pythia output is                *
#          meaningful ONLY if plotted taking matchscale              *
#          reweighting into account!                                 *
#*********************************************************************
   F  = use_syst      ! Enable systematics studies
#
#**************************************
# Parameter of the systematics study
#  will be used by SysCalc (if installed)
#**************************************                                  
#
0.5 1 2 = sys_scalefact  # factorization/renormalization scale factor
0.5 1 2 = sys_alpsfact  # \alpha_s emission scale factors
30 50 = sys_matchscale # variation of merging scale
# PDF sets and number of members (0 or none for all members).
CT10nlo.LHgrid = sys_pdf # matching scales
# MSTW2008nlo68cl.LHgrid 1  = sys_pdf
</MGRunCard>
<slha>
######################################################################
## PARAM_CARD AUTOMATICALY GENERATED BY MG5 FOLLOWING UFO MODEL   ####
######################################################################
##                                                                  ##
##  Width set on Auto will be computed following the information    ##
##        present in the decay.py files of the model.               ##
##        See  arXiv:1402.1178 for more details.                    ##
##                                                                  ##
######################################################################

###################################
## INFORMATION FOR CKMBLOCK
###################################
Block ckmblock 
    1 2.277360e-01 # cabi 

###################################
## INFORMATION FOR FRBLOCK
###################################
Block frblock 
    1 4.000000e-01 # gz 

###################################
## INFORMATION FOR MASS
###################################
Block mass 
    1 5.040000e-03 # MD 
    2 2.550000e-03 # MU 
    3 1.010000e-01 # MS 
    4 1.270000e+00 # MC 
    5 4.700000e+00 # MB 
    6 1.720000e+02 # MT 
   11 5.110000e-04 # Me 
   13 1.056600e-01 # MM 
   15 1.777000e+00 # MTA 
   23 9.118760e+01 # MZ 
   25 1.200000e+02 # MH 
  10030 3.200000e+03 # MZph 
  10031 3.000000e+02 # MZpl 
## Dependent parameters, given by model restrictions.
## Those values should be edited following the 
## analytical expression. MG5 ignores those values 
## but they are important for interfacing the output of MG5
## to external program such as Pythia.
  12 0.000000 # ve : 0.0 
  14 0.000000 # vm : 0.0 
  16 0.000000 # vt : 0.0 
  21 0.000000 # g : 0.0 
  22 0.000000 # a : 0.0 
  24 79.824360 # w+ : cmath.sqrt(MZ__exp__2/2. + cmath.sqrt(MZ__exp__4/4. - (aEW*cmath.pi*MZ__exp__2)/(Gf*sqrt__2))) 

###################################
## INFORMATION FOR SMINPUTS
###################################
Block sminputs 
    1 1.279000e+02 # aEWM1 
    2 1.166370e-05 # Gf 
    3 1.184000e-01 # aS 

###################################
## INFORMATION FOR YUKAWA
###################################
Block yukawa 
    1 5.040000e-03 # ymdo 
    2 2.550000e-03 # ymup 
    3 1.010000e-01 # yms 
    4 1.270000e+00 # ymc 
    5 4.700000e+00 # ymb 
    6 1.720000e+02 # ymt 
   11 5.110000e-04 # yme 
   13 1.056600e-01 # ymm 
   15 1.777000e+00 # ymtau 

###################################
## INFORMATION FOR DECAY
###################################
DECAY   6 1.508336e+00 # WT 
DECAY  23 2.495200e+00 # WZ 
DECAY  24 2.085000e+00 # WW 
DECAY  25 5.753088e-03 # WH 
## Dependent parameters, given by model restrictions.
## Those values should be edited following the 
## analytical expression. MG5 ignores those values 
## but they are important for interfacing the output of MG5
## to external program such as Pythia.
DECAY  1 0.000000 # d : 0.0 
DECAY  2 0.000000 # u : 0.0 
DECAY  3 0.000000 # s : 0.0 
DECAY  4 0.000000 # c : 0.0 
DECAY  5 0.000000 # b : 0.0 
DECAY  11 0.000000 # e- : 0.0 
DECAY  12 0.000000 # ve : 0.0 
DECAY  13 0.000000 # mu- : 0.0 
DECAY  14 0.000000 # vm : 0.0 
DECAY  15 0.000000 # ta- : 0.0 
DECAY  16 0.000000 # vt : 0.0 
DECAY  21 0.000000 # g : 0.0 
DECAY  22 0.000000 # a : 0.0 
DECAY  10030 0.308725 # zph : (gz__exp__2*MZph*(5 + cmath.sqrt(1 - (4*MT__exp__2)/MZph__exp__2)))/(144.*cmath.pi) 
DECAY  10031 0.132629 # zpl : (5*gz__exp__2*MZpl)/(144.*cmath.pi) 
#===========================================================
# QUANTUM NUMBERS OF NEW STATE(S) (NON SM PDG CODE)
#===========================================================

Block QNUMBERS 10030  # zph 
        1 0  # 3 times electric charge
        2 3  # number of spin states (2S+1)
        3 1  # colour rep (1: singlet, 3: triplet, 8: octet)
        4 0  # Particle/Antiparticle distinction (0=own anti)
Block QNUMBERS 10031  # zpl 
        1 0  # 3 times electric charge
        2 3  # number of spin states (2S+1)
        3 1  # colour rep (1: singlet, 3: triplet, 8: octet)
        4 0  # Particle/Antiparticle distinction (0=own anti)
</slha>
## END BANNER##
<MGGenerationInfo>
#  Number of Events        :         3897
#  Integrated weight (pb)  :  0.98436E-04
#  Max wgt                 :  0.39426E-07
#  Average wgt             :  0.25259E-07
</MGGenerationInfo>
</header>
<init>
     2212     2212  0.40000000000E+04  0.40000000000E+04 0 0  247000  247000 2   1
  0.98485807160E-04  0.20805521962E-06  0.39425640000E-07   0
</init>
<event>
 5   0  0.3750285E-07  0.3200945E+04  0.7818609E-02  0.8188568E-01
        2   -1    0    0  501    0  0.00000000000E+00  0.00000000000E+00  0.18872127685E+04  0.18872127685E+04  0.25500000920E-02 0.  1.
       -2   -1    0    0    0  501  0.00000000000E+00  0.00000000000E+00 -0.13572990971E+04  0.13572990971E+04  0.25500000920E-02 0. -1.
    10030    2    1    2    0    0  0.00000000000E+00  0.00000000000E+00  0.52991367140E+03  0.32445118656E+04  0.32009449772E+04 0.  0.
        1    1    3    3  502    0  0.32047384239E+03  0.35844823998E+03  0.18122737432E+04  0.18749732651E+04  0.50400001928E-02 0.  1.
       -1    1    3    3    0  502 -0.32047384239E+03 -0.35844823998E+03 -0.12823600718E+04  0.13695386005E+04  0.50400001928E-02 0. -1.
</event>
<event>
 5   0  0.3750285E-07  0.3198436E+04  0.7818609E-02  0.8189230E-01
        2   -1    0    0  501    0  0.00000000000E+00  0.00000000000E+00  0.17811658657E+04  0.17811658657E+04  0.25500000920E-02 0. -1.
       -2   -1    0    0    0  501  0.00000000000E+00  0.00000000000E+00 -0.14358558676E+04  0.14358558676E+04  0.25500000920E-02 0.  1.
    10030    2    1    2    0    0  0.00000000000E+00  0.00000000000E+00  0.34530999812E+03  0.32170217334E+04  0.31984355298E+04 0.  0.
        1    1    3    3  502    0 -0.10897467921E+04  0.82370986975E+03 -0.66371266987E+03  0.15187364908E+04  0.50400001928E-02 0.  1.
       -1    1    3    3    0  502  0.10897467921E+04 -0.82370986975E+03  0.10090226680E+04  0.16982852425E+04  0.50400001928E-02 0. -1.
</event>
<event>
 5   0  0.3942564E-07  0.3199125E+04  0.7818609E-02  0.8189048E-01
       -2   -1    0    0    0  501  0.00000000000E+00  0.00000000000E+00  0.84361143997E+03  0.84361143997E+03  0.25500000920E-02 0.  1.
        2   -1    0    0  501    0  0.00000000000E+00  0.00000000000E+00 -0.30329126177E+04  0.30329126177E+04  0.25500000920E-02 0. -1.
    10030    2    1    2    0    0  0.00000000000E+00  0.00000000000E+00 -0.21893011777E+04  0.38765240576E+04  0.31991247432E+04 0.  0.
        3    1    3    3  502    0  0.83829720639E+03  0.17131408953E+03  0.54300368354E+03  0.10133823237E+04  0.10100000352E+00 0.  1.
       -3    1    3    3    0  502 -0.83829720639E+03 -0.17131408953E+03 -0.27323048612E+04  0.28631417339E+04  0.10100000352E+00 0. -1.
</event>
<event>
 5   0  0.3750285E-07  0.3206739E+04  0.7818609E-02  0.8187040E-01
        2   -1    0    0  501    0  0.00000000000E+00  0.00000000000E+00  0.24592138018E+04  0.24592138018E+04  0.25500000920E-02 0. -1.
       -2   -1    0    0    0  501  0.00000000000E+00  0.00000000000E+00 -0.10453723715E+04  0.10453723715E+04  0.25500000920E-02 0.  1.
    10030    2    1    2    0    0  0.00000000000E+00  0.00000000000E+00  0.14138414302E+04  0.35045861733E+04  0.32067392560E+04 0.  0.
        1    1    3    3  502    0  0.13304203127E+04 -0.30662096463E+03  0.16256952179E+04  0.21229506744E+04  0.50400001928E-02 0. -1.
       -1    1    3    3    0  502 -0.13304203127E+04  0.30662096463E+03 -0.21185378764E+03  0.13816354989E+04  0.50400001928E-02 0.  1.
</event>
<event>
 5   0  0.3942564E-07  0.3192264E+04  0.7818609E-02  0.8190863E-01
       -2   -1    0    0    0  501  0.00000000000E+00  0.00000000000E+00  0.13135833141E+04  0.13135833141E+04  0.25500000920E-02 0.  1.
        2   -1    0    0  501    0  0.00000000000E+00  0.00000000000E+00 -0.19394560466E+04  0.19394560466E+04  0.25500000920E-02 0. -1.
    10030    2    1    2    0    0  0.00000000000E+00  0.00000000000E+00 -0.62587273252E+03  0.32530393607E+04  0.31922638370E+04 0.  0.
        3    1    3    3  502    0  0.44750726637E+03 -0.64459920191E+03  0.11034412763E+04  0.13540138644E+04  0.10100000352E+00 0.  1.
       -3    1    3    3    0  502 -0.44750726637E+03  0.64459920191E+03 -0.17293140088E+04  0.18990254963E+04  0.10100000352E+00 0. -1.
</event>
<event>
 5   0  0.1317293E-07  0.3205649E+04  0.7818609E-02  0.8187327E-01
        1   -1    0    0  501    0  0.00000000000E+00  0.00000000000E+00  0.15266801849E+04  0.15266801849E+04  0.50400001928E-02 0.  1.
       -1   -1    0    0    0  501  0.00000000000E+00  0.00000000000E+00 -0.16827661442E+04  0.16827661442E+04  0.50400001928E-02 0. -1.
    10030    2    1    2    0    0  0.00000000000E+00  0.00000000000E+00 -0.15608595935E+03  0.32094463291E+04  0.32056485947E+04 0.  0.
        1    1    3    3  502    0 -0.89926436929E+02 -0.51185282040E+03 -0.15960733001E+04  0.16785499853E+04  0.50400001928E-02 0. -1.
       -1    1    3    3    0  502  0.89926436929E+02  0.51185282040E+03  0.14399873408E+04  0.15308963438E+04  0.50400001928E-02 0.  1.
</event>
<event>
 5   0  0.1365455E-07  0.3209896E+04  0.7818609E-02  0.8186209E-01
        1   -1    0    0  501    0  0.00000000000E+00  0.00000000000E+00  0.13918425546E+04  0.13918425546E+04  0.50400001928E-02 0.  1.
       -1   -1    0    0    0  501  0.00000000000E+00  0.00000000000E+00 -0.18506819311E+04  0.18506819311E+04  0.50400001928E-02 0. -1.
    10030    2    1    2    0    0  0.00000000000E+00  0.00000000000E+00 -0.45883937647E+03  0.32425244857E+04  0.32098958654E+04 0.  0.
        3    1    3    3  502    0 -0.10735978820E+04 -0.51724296842E+03  0.85654535648E+03  0.14675907667E+04  0.10100000352E+00 0.  1.
       -3    1    3    3    0  502  0.10735978820E+04  0.51724296842E+03 -0.13153847329E+04  0.17749337189E+04  0.10100000352E+00 0. -1.
</event>
<event>
 5   0  0.3750285E-07  0.3214590E+04  0.7818609E-02  0.8184975E-01
        2   -1    0    0  501    0  0.00000000000E+00  0.00000000000E+00  0.15346409599E+04  0.15346409599E+04  0.25500000920E-02 0.  1.
       -2   -1    0    0    0  501  0.00000000000E+00  0.00000000000E+00 -0.16833881991E+04  0.16833881991E+04  0.25500000920E-02 0. -1.
    10030    2    1    2    0    0  0.00000000000E+00  0.00000000000E+00 -0.14874723925E+03  0.32180291590E+04  0.32145895425E+04 0.  0.
        1    1    3    3  502    0  0.64202385813E+02 -0.66975948192E+03  0.13868788944E+04  0.15414709786E+04  0.50400001928E-02 0.  1.
       -1    1    3    3    0  502 -0.64202385813E+02  0.66975948192E+03 -0.15356261337E+04  0.16765581804E+04  0.50400001928E-02 0. -1.
</event>
<event>
 5   0  0.1288096E-07  0.3197267E+04  0.7818609E-02  0.8189539E-01
        1   -1    0    0  501    0  0.00000000000E+00  0.00000000000E+00  0.26263090459E+04  0.26263090459E+04  0.50400001928E-02 0.  1.
       -1   -1    0    0    0  501  0.00000000000E+00  0.00000000000E+00 -0.97308777483E+03  0.97308777484E+03  0.50400001928E-02 0. -1.
    10030    2    1    2    0    0  0.00000000000E+00  0.00000000000E+00  0.16532212711E+04  0.35993968207E+04  0.31972670990E+04 0.  0.
        2    1    3    3  502    0  0.24845867225E+03 -0.12497020775E+04  0.19135164255E+04  0.22989197692E+04  0.25500000920E-02 0.  1.
       -2    1    3    3    0  502 -0.24845867225E+03  0.12497020775E+04 -0.26029515444E+03  0.13004770516E+04  0.25500000920E-02 0. -1.
</event>
<event>
 5   0  0.3750285E-07  0.3192222E+04  0.7818609E-02  0.8190874E-01
        2   -1    0    0  501    0  0.00000000000E+00  0.00000000000E+00  0.12542051222E+04  0.12542051222E+04  0.25500000920E-02 0.  1.
       -2   -1    0    0    0  501  0.00000000000E+00  0.00000000000E+00 -0.20312224956E+04  0.20312224956E+04  0.25500000920E-02 0. -1.
    10030    2    1    2    0    0  0.00000000000E+00  0.00000000000E+00 -0.77701737337E+03  0.32854276178E+04  0.31922215827E+04 0.  0.
        1    1    3    3  502    0 -0.10570799715E+04  0.93375578359E+03  0.38046930840E+03  0.14608472967E+04  0.50400001928E-02 0.  1.
       -1    1    3    3    0  502  0.10570799715E+04 -0.93375578359E+03 -0.11574866818E+04  0.18245803211E+04  0.50400001928E-02 0. -1.
</event>
<event>
 5   0  0.1288096E-07  0.3203638E+04  0.7818609E-02  0.8187857E-01
       -1   -1    0    0    0  501  0.00000000000E+00  0.00000000000E+00  0.99881213140E+03  0.99881213141E+03  0.50400001928E-02 0. -1.
        1   -1    0    0  501    0  0.00000000000E+00  0.00000000000E+00 -0.25688749990E+04  0.25688749990E+04  0.50400001928E-02 0.  1.
    10030    2    1    2    0    0  0.00000000000E+00  0.00000000000E+00 -0.15700628676E+04  0.35676871304E+04  0.32036376281E+04 0.  0.
        2    1    3    3  502    0  0.91572255274E+03 -0.64684198465E+02 -0.22468637812E+04  0.24271647431E+04  0.25500000920E-02 0.  1.
       -2    1    3    3    0  502 -0.91572255274E+03  0.64684198465E+02  0.67680091361E+03  0.11405223872E+04  0.25500000920E-02 0. -1.
</event>
<event>
 5   0  0.3764056E-07  0.3199099E+04  0.7818609E-02  0.8189055E-01
        2   -1    0    0  501    0  0.00000000000E+00  0.00000000000E+00  0.21690151491E+04  0.21690151491E+04  0.25500000920E-02 0. -1.
       -2   -1    0    0    0  501  0.00000000000E+00  0.00000000000E+00 -0.11795948491E+04  0.11795948491E+04  0.25500000920E-02 0.  1.
    10030    2    1    2    0    0  0.00000000000E+00  0.00000000000E+00  0.98942029996E+03  0.33486099982E+04  0.31990993092E+04 0.  0.
        5    1    3    3  502    0  0.46024393796E+02 -0.88267368790E+03  0.18901719156E+04  0.20866247973E+04  0.46999998093E+01 0. -1.
       -5    1    3    3    0  502 -0.46024393796E+02  0.88267368790E+03 -0.90075161567E+03  0.12619852009E+04  0.46999998093E+01 0.  1.
</event>
<event>
 5   0  0.1277374E-07  0.3197393E+04  0.7818609E-02  0.8189506E-01
       -1   -1    0    0    0  501  0.00000000000E+00  0.00000000000E+00  0.19609886804E+04  0.19609886804E+04  0.50400001928E-02 0.  1.
        1   -1    0    0  501    0  0.00000000000E+00  0.00000000000E+00 -0.13033376233E+04  0.13033376233E+04  0.50400001928E-02 0. -1.
    10030    2    1    2    0    0  0.00000000000E+00  0.00000000000E+00  0.65765105716E+03  0.32643263037E+04  0.31973928917E+04 0.  0.
        5    1    3    3  502    0  0.23346217087E+03 -0.13453551311E+04  0.11776895606E+04  0.18031804694E+04  0.46999998093E+01 0.  1.
       -5    1    3    3    0  502 -0.23346217087E+03  0.13453551311E+04 -0.52003850348E+03  0.14611458343E+04  0.46999998093E+01 0. -1.
</event>
<event>
 5   0  0.1317293E-07  0.3125667E+04  0.7818609E-02  0.8208729E-01
       -1   -1    0    0    0  501  0.00000000000E+00  0.00000000000E+00  0.10899688032E+04  0.10899688032E+04  0.50400001928E-02 0. -1.
        1   -1    0    0  501    0  0.00000000000E+00  0.00000000000E+00 -0.22408424793E+04  0.22408424793E+04  0.50400001928E-02 0.  1.
    10030    2    1    2    0    0  0.00000000000E+00  0.00000000000E+00 -0.11508736761E+04  0.33308112825E+04  0.31256669018E+04 0.  0.
        1    1    3    3  502    0 -0.47100899115E+03  0.10546753922E+03 -0.21594249964E+04  0.22127108231E+04  0.50400001928E-02 0.  1.
       -1    1    3    3    0  502  0.47100899115E+03 -0.10546753922E+03  0.10085513203E+04  0.11181004594E+04  0.50400001928E-02 0. -1.
</event>
<event>
 5   0  0.1365455E-07  0.3203394E+04  0.7818609E-02  0.8187921E-01
        1   -1    0    0  501    0  0.00000000000E+00  0.00000000000E+00  0.15486293164E+04  0.15486293164E+04  0.50400001928E-02 0. -1.
       -1   -1    0    0    0  501  0.00000000000E+00  0.00000000000E+00 -0.16565831560E+04  0.16565831560E+04  0.50400001928E-02 0.  1.
    10030    2    1    2    0    0  0.00000000000E+00  0.00000000000E+00 -0.10795383959E+03  0.32052124725E+04  0.32033939755E+04 0.  0.
        3    1    3    3  502    0 -0.15162662123E+04 -0.46759804161E+03  0.16460092062E+03  0.15952443789E+04  0.10100000352E+00 0.  1.
       -3    1    3    3    0  502  0.15162662123E+04  0.46759804161E+03 -0.27255476022E+03  0.16099680936E+04  0.10100000352E+00 0. -1.
</event>
<event>
 5   0  0.1365455E-07  0.3200678E+04  0.7818609E-02  0.8188638E-01
       -1   -1    0    0    0  501  0.00000000000E+00  0.00000000000E+00  0.10944339989E+04  0.10944339989E+04  0.50400001928E-02 0.  1.
        1   -1    0    0  501    0  0.00000000000E+00  0.00000000000E+00 -0.23400999012E+04  0.23400999012E+04  0.50400001928E-02 0. -1.
    10030    2    1    2    0    0  0.00000000000E+00  0.00000000000E+00 -0.12456659024E+04  0.34345339001E+04  0.32006779861E+04 0.  0.
        3    1    3    3  502    0  0.12192847773E+04 -0.91961291209E+03 -0.10961905419E+03  0.15311301785E+04  0.10100000352E+00 0.  1.
       -3    1    3    3    0  502 -0.12192847773E+04  0.91961291209E+03 -0.11360468482E+04  0.19034037217E+04  0.10100000352E+00 0. -1.
</event>
<event>
 5   0  0.3750285E-07  0.3194986E+04  0.7818609E-02  0.8190143E-01
        2   -1    0    0  501    0  0.00000000000E+00  0.00000000000E+00  0.17563479614E+04  0.17563479614E+04  0.25500000920E-02 0. -1.
       -2   -1    0    0    0  501  0.00000000000E+00  0.00000000000E+00 -0.14530058101E+04  0.14530058101E+04  0.25500000920E-02 0.  1.
    10030    2    1    2    0    0  0.00000000000E+00  0.00000000000E+00  0.30334215126E+03  0.32093537715E+04  0.31949859421E+04 0.  0.
        1    1    3    3  502    0 -0.49540454035E+03 -0.13103842701E+04  0.92288092704E+03  0.16775702070E+04  0.50400001928E-02 0. -1.
       -1    1    3    3    0  502  0.49540454035E+03  0.13103842701E+04 -0.61953877578E+03  0.15317835645E+04  0.50400001928E-02 0.  1.
</event>
<event>
 5   0  0.1270948E-07  0.3202647E+04  0.7818609E-02  0.8188119E-01
       -1   -1    0    0    0  501  0.00000000000E+00  0.00000000000E+00  0.17338228355E+04  0.17338228355E+04  0.50400001928E-02 0. -1.
        1   -1    0    0  501    0  0.00000000000E+00  0.00000000000E+00 -0.14789493834E+04  0.14789493835E+04  0.50400001928E-02 0.  1.
    10030    2    1    2    0    0  0.00000000000E+00  0.00000000000E+00  0.25487345200E+03  0.32127722189E+04  0.32026465390E+04 0.  0.
        4    1    3    3  502    0 -0.54022625152E+03 -0.70838716700E+03  0.14622743374E+04  0.17122805354E+04  0.12699999809E+01 0. -1.
       -4    1    3    3    0  502  0.54022625152E+03  0.70838716700E+03 -0.12074008854E+04  0.15004916835E+04  0.12699999809E+01 0.  1.
</event>
<event>
 5   0  0.1317293E-07  0.3192862E+04  0.7818609E-02  0.8190705E-01
       -1   -1    0    0    0  501  0.00000000000E+00  0.00000000000E+00  0.20966875557E+04  0.20966875557E+04  0.50400001928E-02 0. -1.
        1   -1    0    0  501    0  0.00000000000E+00  0.00000000000E+00 -0.12155321626E+04  0.12155321626E+04  0.50400001928E-02 0.  1.
    10030    2    1    2    0    0  0.00000000000E+00  0.00000000000E+00  0.88115539312E+03  0.33122197183E+04  0.31928615121E+04 0.  0.
        1    1    3    3  502    0 -0.50647941370E+03 -0.48925723126E+03  0.19268606385E+04  0.20515082148E+04  0.50400001928E-02 0. -1.
       -1    1    3    3    0  502  0.50647941370E+03  0.48925723126E+03 -0.10457052454E+04  0.12607115035E+04  0.50400001928E-02 0.  1.
</event>
<event>
 5   0  0.3858721E-07  0.3198459E+04  0.7818609E-02  0.8189224E-01
        2   -1    0    0  501    0  0.00000000000E+00  0.00000000000E+00  0.19199286075E+04  0.19199286075E+04  0.25500000920E-02 0.  1.
       -2   -1    0    0    0  501  0.00000000000E+00  0.00000000000E+00 -0.13320986105E+04  0.13320986105E+04  0.25500000920E-02 0. -1.
    10030    2    1    2    0    0  0.00000000000E+00  0.00000000000E+00  0.58782999701E+03  0.32520272181E+04  0.31984585227E+04 0.  0.
        2    1    3    3  502    0 -0.79045689824E+03 -0.13552113075E+04 -0.21300640444E+02  0.15690358546E+04  0.25500000920E-02 0. -1.
       -2    1    3    3    0  502  0.79045689824E+03  0.13552113075E+04  0.60913063746E+03  0.16829913634E+04  0.25500000920E-02 0.  1.
</event>
<event>
 5   0  0.1365455E-07  0.3209608E+04  0.7818609E-02  0.8186284E-01
        1   -1    0    0  501    0  0.00000000000E+00  0.00000000000E+00  0.22327881685E+04  0.22327881685E+04  0.50400001928E-02 0. -1.
       -1   -1    0    0    0  501  0.00000000000E+00  0.00000000000E+00 -0.11534435523E+04  0.11534435523E+04  0.50400001928E-02 0.  1.
    10030    2    1    2    0    0  0.00000000000E+00  0.00000000000E+00  0.10793446162E+04  0.33862317208E+04  0.32096075253E+04 0.  0.
        3    1    3    3  502    0  0.69676757463E+03 -0.58740121566E+03 -0.85395377242E+03  0.12489044386E+04  0.10100000352E+00 0.  1.
       -3    1    3    3    0  502 -0.69676757463E+03  0.58740121566E+03  0.19332983887E+04  0.21373272821E+04  0.10100000352E+00 0. -1.
</event>
<event>
 5   0  0.3942564E-07  0.3202254E+04  0.7818609E-02  0.8188222E-01
       -2   -1    0    0    0  501  0.00000000000E+00  0.00000000000E+00  0.14305445454E+04  0.14305445454E+04  0.25500000920E-02 0. -1.
        2   -1    0    0  501    0  0.00000000000E+00  0.00000000000E+00 -0.17920506228E+04  0.17920506228E+04  0.25500000920E-02 0.  1.
    10030    2    1    2    0    0  0.00000000000E+00  0.00000000000E+00 -0.36150607741E+03  0.32225951683E+04  0.32022543582E+04 0.  0.
        3    1    3    3  502    0 -0.61133937183E+03  0.78246100347E+03 -0.14447677155E+04  0.17530929272E+04  0.10100000352E+00 0.  1.
       -3    1    3    3    0  502  0.61133937183E+03 -0.78246100347E+03  0.10832616381E+04  0.14695022410E+04  0.10100000352E+00 0. -1.
</event>
<event>
 5   0  0.1317293E-07  0.3200715E+04  0.7818609E-02  0.8188628E-01
       -1   -1    0    0    0  501  0.00000000000E+00  0.00000000000E+00  0.10870056192E+04  0.10870056192E+04  0.50400001928E-02 0.  1.
        1   -1    0    0  501    0  0.00000000000E+00  0.00000000000E+00 -0.23561460124E+04  0.23561460124E+04  0.50400001928E-02 0. -1.
    10030    2    1    2    0    0  0.00000000000E+00  0.00000000000E+00 -0.12691403932E+04  0.34431516316E+04  0.32007148921E+04 0.  0.
        1    1    3    3  502    0  0.10445279592E+04  0.10112240649E+03 -0.19343436773E+04  0.22006703208E+04  0.50400001928E-02 0. -1.
       -1    1    3    3    0  502 -0.10445279592E+04 -0.10112240649E+03  0.66520328407E+03  0.12424813109E+04  0.50400001928E-02 0.  1.
</event>
<event>
 5   0  0.3858721E-07  0.3197940E+04  0.7818609E-02  0.8189361E-01
       -2   -1    0    0    0  501  0.00000000000E+00  0.00000000000E+00  0.25300389497E+04  0.25300389497E+04  0.25500000920E-02 0. -1.
        2   -1    0    0  501    0  0.00000000000E+00  0.00000000000E+00 -0.10105400254E+04  0.10105400254E+04  0.25500000920E-02 0.  1.
    10030    2    1    2    0    0  0.00000000000E+00  0.00000000000E+00  0.15194989242E+04  0.35405789751E+04  0.31979403525E+04 0.  0.
        2    1    3    3  502    0  0.64904813198E+03  0.13749472076E+04  0.21178351158E+03  0.15351206979E+04  0.25500000920E-02 0.  1.
       -2    1    3    3    0  502 -0.64904813198E+03 -0.13749472076E+04  0.13077154127E+04  0.20054582772E+04  0.25500000920E-02 0. -1.
</event>
<event>
 5   0  0.1288096E-07  0.3200001E+04  0.7818609E-02  0.8188817E-01
        1   -1    0    0  501    0  0.00000000000E+00  0.00000000000E+00  0.18851072355E+04  0.18851072355E+04  0.50400001928E-02 0. -1.
       -1   -1    0    0    0  501  0.00000000000E+00  0.00000000000E+00 -0.13580141606E+04  0.13580141606E+04  0.50400001928E-02 0.  1.
    10030    2    1    2    0    0  0.00000000000E+00  0.00000000000E+00  0.52709307485E+03  0.32431213961E+04  0.32000014500E+04 0.  0.
        2    1    3    3  502    0 -0.73792750144E+03 -0.86625771204E+03 -0.87635959460E+03  0.14362957774E+04  0.25500000920E-02 0.  1.
       -2    1    3    3    0  502  0.73792750144E+03  0.86625771204E+03  0.14034526695E+04  0.18068256187E+04  0.25500000920E-02 0. -1.
</event>
<event>
 5   0  0.3942564E-07  0.3204839E+04  0.7818609E-02  0.8187540E-01
       -2   -1    0    0    0  501  0.00000000000E+00  0.00000000000E+00  0.14788003644E+04  0.14788003644E+04  0.25500000920E-02 0.  1.
        2   -1    0    0  501    0  0.00000000000E+00  0.00000000000E+00 -0.17363722165E+04  0.17363722165E+04  0.25500000920E-02 0. -1.
    10030    2    1    2    0    0  0.00000000000E+00  0.00000000000E+00 -0.25757185208E+03  0.32151725809E+04  0.32048387582E+04 0.  0.
        3    1    3    3  502    0  0.35496614010E+03 -0.12106600328E+04 -0.11199235352E+04  0.16869876735E+04  0.10100000352E+00 0. -1.
       -3    1    3    3    0  502 -0.35496614010E+03  0.12106600328E+04  0.86235168316E+03  0.15281849074E+04  0.10100000352E+00 0.  1.
</event>
<event>
 5   0  0.3764056E-07  0.3202107E+04  0.7818609E-02  0.8188261E-01
        2   -1    0    0  501    0  0.00000000000E+00  0.00000000000E+00  0.94282012391E+03  0.94282012392E+03  0.25500000920E-02 0. -1.
       -2   -1    0    0    0  501  0.00000000000E+00  0.00000000000E+00 -0.27188357529E+04  0.27188357529E+04  0.25500000920E-02 0.  1.
    10030    2    1    2    0    0  0.00000000000E+00  0.00000000000E+00 -0.17760156289E+04  0.36616558768E+04  0.32021074694E+04 0.  0.
        5    1    3    3  502    0 -0.40100224386E+02 -0.15935254531E+04 -0.71678749724E+03  0.17477808226E+04  0.46999998093E+01 0.  1.
       -5    1    3    3    0  502  0.40100224386E+02  0.15935254531E+04 -0.10592281317E+04  0.19138750541E+04  0.46999998093E+01 0. -1.
</event>
<event>
 5   0  0.1288096E-07  0.3203267E+04  0.7818609E-02  0.8187955E-01
        1   -1    0    0  501    0  0.00000000000E+00  0.00000000000E+00  0.18766307273E+04  0.18766307273E+04  0.50400001928E-02 0.  1.
       -1   -1    0    0    0  501  0.00000000000E+00  0.00000000000E+00 -0.13669340645E+04  0.13669340645E+04  0.50400001928E-02 0. -1.
    10030    2    1    2    0    0  0.00000000000E+00  0.00000000000E+00  0.50969666281E+03  0.32435647918E+04  0.32032673742E+04 0.  0.
        2    1    3    3  502    0 -0.15234342508E+04  0.48621876013E+03  0.16445113481E+03  0.16075772998E+04  0.25500000920E-02 0. -1.
       -2    1    3    3    0  502  0.15234342508E+04 -0.48621876013E+03  0.34524552800E+03  0.16359874919E+04  0.25500000920E-02 0.  1.
</event>
<event>
 5   0  0.3942564E-07  0.3202728E+04  0.7818609E-02  0.8188097E-01
       -2   -1    0    0    0  501  0.00000000000E+00  0.00000000000E+00  0.18696138958E+04  0.18696138958E+04  0.25500000920E-02 0. -1.
        2   -1    0    0  501    0  0.00000000000E+00  0.00000000000E+00 -0.13716024269E+04  0.13716024269E+04  0.25500000920E-02 0.  1.
    10030    2    1    2    0    0  0.00000000000E+00  0.00000000000E+00  0.49801146885E+03  0.32412163227E+04  0.32027281850E+04 0.  0.
        3    1    3    3  502    0  0.73685891182E+03 -0.11409937151E+04  0.11074560705E+04  0.17525086796E+04  0.10100000352E+00 0. -1.
       -3    1    3    3    0  502 -0.73685891182E+03  0.11409937151E+04 -0.60944460163E+03  0.14887076431E+04  0.10100000352E+00 0.  1.
</event>
<event>
 5   0  0.3750285E-07  0.3193540E+04  0.7818609E-02  0.8190525E-01
        2   -1    0    0  501    0  0.00000000000E+00  0.00000000000E+00  0.18794973048E+04  0.18794973048E+04  0.25500000920E-02 0. -1.
       -2   -1    0    0    0  501  0.00000000000E+00  0.00000000000E+00 -0.13565721545E+04  0.13565721545E+04  0.25500000920E-02 0.  1.
    10030    2    1    2    0    0  0.00000000000E+00  0.00000000000E+00  0.52292515030E+03  0.32360694594E+04  0.31935395462E+04 0.  0.
        1    1    3    3  502    0 -0.46881837547E+03 -0.15037777626E+04 -0.38166650197E+01  0.15751675452E+04  0.50400001928E-02 0.  1.
       -1    1    3    3    0  502  0.46881837547E+03  0.15037777626E+04  0.52674181531E+03  0.16609019142E+04  0.50400001928E-02 0. -1.
</event>
<event>
 5   0  0.1277374E-07  0.3200615E+04  0.7818609E-02  0.8188655E-01
       -1   -1    0    0    0  501  0.00000000000E+00  0.00000000000E+00  0.22164446891E+04  0.22164446891E+04  0.50400001928E-02 0.  1.
        1   -1    0    0  501    0  0.00000000000E+00  0.00000000000E+00 -0.11554471460E+04  0.11554471460E+04  0.50400001928E-02 0. -1.
    10030    2    1    2    0    0  0.00000000000E+00  0.00000000000E+00  0.10609975431E+04  0.33718918351E+04  0.32006153722E+04 0.  0.
        5    1    3    3  502    0 -0.84679060769E+03  0.11360244934E+04 -0.25318833521E+03  0.14393513838E+04  0.46999998093E+01 0. -1.
       -5    1    3    3    0  502  0.84679060769E+03 -0.11360244934E+04  0.13141858783E+04  0.19325404513E+04  0.46999998093E+01 0.  1.
</event>
<event>
 5   0  0.3942564E-07  0.3204293E+04  0.7818609E-02  0.8187684E-01
        2   -1    0    0  501    0  0.00000000000E+00  0.00000000000E+00  0.15104865244E+04  0.15104865244E+04  0.25500000920E-02 0.  1.
       -2   -1    0    0    0  501  0.00000000000E+00  0.00000000000E+00 -0.16993683038E+04  0.16993683038E+04  0.25500000920E-02 0. -1.
    10030    2    1    2    0    0  0.00000000000E+00  0.00000000000E+00 -0.18888177939E+03  0.32098548282E+04  0.32042926975E+04 0.  0.
        3    1    3    3  502    0 -0.25976117942E+02  0.80474286949E+03  0.12930941761E+04  0.15232788330E+04  0.10100000352E+00 0.  1.
       -3    1    3    3    0  502  0.25976117942E+02 -0.80474286949E+03 -0.14819759555E+04  0.16865759952E+04  0.10100000352E+00 0. -1.
</event>
<event>
 5   0  0.1270948E-07  0.3201891E+04  0.7818609E-02  0.8188318E-01
       -1   -1    0    0    0  501  0.00000000000E+00  0.00000000000E+00  0.14516641051E+04  0.14516641051E+04  0.50400001928E-02 0.  1.
        1   -1    0    0  501    0  0.00000000000E+00  0.00000000000E+00 -0.17655778586E+04  0.17655778586E+04  0.50400001928E-02 0. -1.
    10030    2    1    2    0    0  0.00000000000E+00  0.00000000000E+00 -0.31391375348E+03  0.32172419637E+04  0.32018906927E+04 0.  0.
        4    1    3    3  502    0  0.61420337616E+03  0.26533757207E+03  0.13044490458E+04  0.14660282196E+04  0.12699999809E+01 0.  1.
       -4    1    3    3    0  502 -0.61420337616E+03 -0.26533757207E+03 -0.16183627993E+04  0.17512137441E+04  0.12699999809E+01 0. -1.
</event>
<event>
 5   0  0.1317293E-07  0.3207268E+04  0.7818609E-02  0.8186900E-01
       -1   -1    0    0    0  501  0.00000000000E+00  0.00000000000E+00  0.15309738502E+04  0.15309738502E+04  0.50400001928E-02 0.  1.
        1   -1    0    0  501    0  0.00000000000E+00  0.00000000000E+00 -0.16797424559E+04  0.16797424559E+04  0.50400001928E-02 0. -1.
    10030    2    1    2    0    0  0.00000000000E+00  0.00000000000E+00 -0.14876860565E+03  0.32107163061E+04  0.32072678560E+04 0.  0.
        1    1    3    3  502    0  0.48270075410E+03  0.10640802977E+04 -0.11739162291E+04  0.16563049873E+04  0.50400001928E-02 0. -1.
       -1    1    3    3    0  502 -0.48270075410E+03 -0.10640802977E+04  0.10251476235E+04  0.15544113188E+04  0.50400001928E-02 0.  1.
</event>
<event>
 5   0  0.1365455E-07  0.3202814E+04  0.7818609E-02  0.8188074E-01
       -1   -1    0    0    0  501  0.00000000000E+00  0.00000000000E+00  0.12641386790E+04  0.12641386790E+04  0.50400001928E-02 0. -1.
        1   -1    0    0  501    0  0.00000000000E+00  0.00000000000E+00 -0.20286576783E+04  0.20286576783E+04  0.50400001928E-02 0.  1.
    10030    2    1    2    0    0  0.00000000000E+00  0.00000000000E+00 -0.76451899925E+03  0.32927963573E+04  0.32028141611E+04 0.  0.
        3    1    3    3  502    0  0.15358255368E+03  0.20034833094E+03 -0.20080727755E+04  0.20238782909E+04  0.10100000352E+00 0.  1.
       -3    1    3    3    0  502 -0.15358255368E+03 -0.20034833094E+03  0.12435537763E+04  0.12689180664E+04  0.10100000352E+00 0. -1.
</event>
<event>
 5   0  0.3830207E-07  0.3205344E+04  0.7818609E-02  0.8187407E-01
        2   -1    0    0  501    0  0.00000000000E+00  0.00000000000E+00  0.14792503459E+04  0.14792503459E+04  0.25500000920E-02 0. -1.
       -2   -1    0    0    0  501  0.00000000000E+00  0.00000000000E+00 -0.17363918846E+04  0.17363918846E+04  0.25500000920E-02 0.  1.
    10030    2    1    2    0    0  0.00000000000E+00  0.00000000000E+00 -0.25714153866E+03  0.32156422306E+04  0.32053444720E+04 0.  0.
        4    1    3    3  502    0  0.59313694686E+03 -0.14787913591E+04 -0.30210441548E+03  0.16216978794E+04  0.12699999809E+01 0. -1.
       -4    1    3    3    0  502 -0.59313694686E+03  0.14787913591E+04  0.44962876817E+02  0.15939443511E+04  0.12699999809E+01 0.  1.
</event>
<event>
 5   0  0.3830207E-07  0.3204553E+04  0.7818609E-02  0.8187616E-01
       -2   -1    0    0    0  501  0.00000000000E+00  0.00000000000E+00  0.98865211747E+03  0.98865211747E+03  0.25500000920E-02 0. -1.
        2   -1    0    0  501    0  0.00000000000E+00  0.00000000000E+00 -0.25967570385E+04  0.25967570385E+04  0.25500000920E-02 0.  1.
    10030    2    1    2    0    0  0.00000000000E+00  0.00000000000E+00 -0.16081049210E+04  0.35854091560E+04  0.32045526020E+04 0.  0.
        4    1    3    3  502    0  0.58524424356E+02  0.13917314373E+04 -0.16899560594E+04  0.21900444282E+04  0.12699999809E+01 0.  1.
       -4    1    3    3    0  502 -0.58524424356E+02 -0.13917314373E+04  0.81851138401E+02  0.13953647278E+04  0.12699999809E+01 0. -1.
</event>
<event>
 5   0  0.1288096E-07  0.3202677E+04  0.7818609E-02  0.8188111E-01
        1   -1    0    0  501    0  0.00000000000E+00  0.00000000000E+00  0.22401223912E+04  0.22401223912E+04  0.50400001928E-02 0. -1.
       -1   -1    0    0    0  501  0.00000000000E+00  0.00000000000E+00 -0.11447072046E+04  0.11447072046E+04  0.50400001928E-02 0.  1.
    10030    2    1    2    0    0  0.00000000000E+00  0.00000000000E+00  0.10954151867E+04  0.33848295958E+04  0.32026765309E+04 0.  0.
        2    1    3    3  502    0  0.41630439438E+03  0.15139043066E+04  0.88036089423E+03  0.18000696938E+04  0.25500000920E-02 0. -1.
       -2    1    3    3    0  502 -0.41630439438E+03 -0.15139043066E+04  0.21505429245E+03  0.15847599020E+04  0.25500000920E-02 0.  1.
</event>
<event>
 5   0  0.1277374E-07  0.3201990E+04  0.7818609E-02  0.8188292E-01
       -1   -1    0    0    0  501  0.00000000000E+00  0.00000000000E+00  0.12940409613E+04  0.12940409613E+04  0.50400001928E-02 0. -1.
        1   -1    0    0  501    0  0.00000000000E+00  0.00000000000E+00 -0.19807597231E+04  0.19807597231E+04  0.50400001928E-02 0.  1.
    10030    2    1    2    0    0  0.00000000000E+00  0.00000000000E+00 -0.68671876185E+03  0.32748006844E+04  0.32019895166E+04 0.  0.
        5    1    3    3  502    0  0.43054244372E+02 -0.10518470969E+04  0.89027209152E+03  0.13787104374E+04  0.46999998093E+01 0. -1.
       -5    1    3    3    0  502 -0.43054244372E+02  0.10518470969E+04 -0.15769908534E+04  0.18960902470E+04  0.46999998093E+01 0.  1.
</event>
<event>
 5   0  0.1277374E-07  0.3200244E+04  0.7818609E-02  0.8188753E-01
       -1   -1    0    0    0  501  0.00000000000E+00  0.00000000000E+00  0.12478029382E+04  0.12478029382E+04  0.50400001928E-02 0. -1.
        1   -1    0    0  501    0  0.00000000000E+00  0.00000000000E+00 -0.20519191718E+04  0.20519191718E+04  0.50400001928E-02 0.  1.
    10030    2    1    2    0    0  0.00000000000E+00  0.00000000000E+00 -0.80411623366E+03  0.32997221100E+04  0.32002442229E+04 0.  0.
        5    1    3    3  502    0 -0.11495089945E+04 -0.26690987125E+03 -0.15162768623E+04  0.19213873688E+04  0.46999998093E+01 0.  1.
       -5    1    3    3    0  502  0.11495089945E+04  0.26690987125E+03  0.71216062866E+03  0.13783347412E+04  0.46999998093E+01 0. -1.
</event>
<event>
 5   0  0.3858721E-07  0.3158980E+04  0.7818609E-02  0.8199735E-01
        2   -1    0    0  501    0  0.00000000000E+00  0.00000000000E+00  0.88123466926E+03  0.88123466926E+03  0.25500000920E-02 0.  1.
       -2   -1    0    0    0  501  0.00000000000E+00  0.00000000000E+00 -0.28310146312E+04  0.28310146312E+04  0.25500000920E-02 0. -1.
    10030    2    1    2    0    0  0.00000000000E+00  0.00000000000E+00 -0.19497799620E+04  0.37122493005E+04  0.31589797354E+04 0.  0.
        2    1    3    3  502    0 -0.12837558894E+04  0.91788915476E+03 -0.10513966627E+04  0.18963081570E+04  0.25500000920E-02 0.  1.
       -2    1    3    3    0  502  0.12837558894E+04 -0.91788915476E+03 -0.89838329928E+03  0.18159411435E+04  0.25500000920E-02 0. -1.
</event>
<event>
 5   0  0.3942564E-07  0.3180949E+04  0.7818609E-02  0.8193867E-01
       -2   -1    0    0    0  501  0.00000000000E+00  0.00000000000E+00  0.19544951426E+04  0.19544951426E+04  0.25500000920E-02 0.  1.
        2   -1    0    0  501    0  0.00000000000E+00  0.00000000000E+00 -0.12942519184E+04  0.12942519184E+04  0.25500000920E-02 0. -1.
    10030    2    1    2    0    0  0.00000000000E+00  0.00000000000E+00  0.66024322422E+03  0.32487470610E+04  0.31809489703E+04 0.  0.
        3    1    3    3  502    0  0.65529850893E+03 -0.11103687135E+04  0.12812462387E+04  0.18176706935E+04  0.10100000352E+00 0.  1.
       -3    1    3    3    0  502 -0.65529850893E+03  0.11103687135E+04 -0.62100301444E+03  0.14310763676E+04  0.10100000352E+00 0. -1.
</event>
<event>
 5   0  0.3750285E-07  0.3202762E+04  0.7818609E-02  0.8188088E-01
       -2   -1    0    0    0  501  0.00000000000E+00  0.00000000000E+00  0.20551629777E+04  0.20551629777E+04  0.25500000920E-02 0. -1.
        2   -1    0    0  501    0  0.00000000000E+00  0.00000000000E+00 -0.12477948657E+04  0.12477948657E+04  0.25500000920E-02 0.  1.
    10030    2    1    2    0    0  0.00000000000E+00  0.00000000000E+00  0.80736811197E+03  0.33029578434E+04  0.32027624400E+04 0.  0.
        1    1    3    3  502    0  0.15523641868E+03  0.11689350793E+04 -0.71368461555E+03  0.13783516590E+04  0.50400001928E-02 0.  1.
       -1    1    3    3    0  502 -0.15523641868E+03 -0.11689350793E+04  0.15210527275E+04  0.19246061844E+04  0.50400001928E-02 0. -1.
</event>
<event>
 5   0  0.3858721E-07  0.3204066E+04  0.7818609E-02  0.8187744E-01
        2   -1    0    0  501    0  0.00000000000E+00  0.00000000000E+00  0.16457467292E+04  0.16457467292E+04  0.25500000920E-02 0. -1.
       -2   -1    0    0    0  501  0.00000000000E+00  0.00000000000E+00 -0.15594808185E+04  0.15594808185E+04  0.25500000920E-02 0.  1.
    10030    2    1    2    0    0  0.00000000000E+00  0.00000000000E+00  0.86265910711E+02  0.32052275477E+04  0.32040664514E+04 0.  0.
        2    1    3    3  502    0  0.54396308929E+03 -0.36543741429E+03  0.15055348367E+04  0.16419730481E+04  0.25500000920E-02 0. -1.
       -2    1    3    3    0  502 -0.54396308929E+03  0.36543741429E+03 -0.14192689260E+04  0.15632544996E+04  0.25500000920E-02 0.  1.
</event>
<event>
 5   0  0.3942564E-07  0.3195666E+04  0.7818609E-02  0.8189963E-01
       -2   -1    0    0    0  501  0.00000000000E+00  0.00000000000E+00  0.13393904471E+04  0.13393904471E+04  0.25500000920E-02 0. -1.
        2   -1    0    0  501    0  0.00000000000E+00  0.00000000000E+00 -0.19061431356E+04  0.19061431356E+04  0.25500000920E-02 0.  1.
    10030    2    1    2    0    0  0.00000000000E+00  0.00000000000E+00 -0.56675268853E+03  0.32455335826E+04  0.31956657563E+04 0.  0.
        3    1    3    3  502    0  0.44572291165E+03 -0.89724142652E+03  0.98077991873E+03  0.14020129638E+04  0.10100000352E+00 0. -1.
       -3    1    3    3    0  502 -0.44572291165E+03  0.89724142652E+03 -0.15475326073E+04  0.18435206189E+04  0.10100000352E+00 0.  1.
</event>
<event>
 5   0  0.1277374E-07  0.3200759E+04  0.7818609E-02  0.8188617E-01
       -1   -1    0    0    0  501  0.00000000000E+00  0.00000000000E+00  0.12855377915E+04  0.12855377915E+04  0.50400001928E-02 0.  1.
        1   -1    0    0  501    0  0.00000000000E+00  0.00000000000E+00 -0.19923290626E+04  0.19923290626E+04  0.50400001928E-02 0. -1.
    10030    2    1    2    0    0  0.00000000000E+00  0.00000000000E+00 -0.70679127111E+03  0.32778668540E+04  0.32007588494E+04 0.  0.
        5    1    3    3  502    0 -0.11255425335E+04 -0.59190170673E+03  0.64160653035E+03  0.14243857114E+04  0.46999998093E+01 0.  1.
       -5    1    3    3    0  502  0.11255425335E+04  0.59190170673E+03 -0.13483978015E+04  0.18534811426E+04  0.46999998093E+01 0. -1.
</event>
<event>
 5   0  0.3764056E-07  0.3192135E+04  0.7818609E-02  0.8190897E-01
       -2   -1    0    0    0  501  0.00000000000E+00  0.00000000000E+00  0.11308910731E+04  0.11308910731E+04  0.25500000920E-02 0. -1.
        2   -1    0    0  501    0  0.00000000000E+00  0.00000000000E+00 -0.22525877895E+04  0.22525877895E+04  0.25500000920E-02 0.  1.
    10030    2    1    2    0    0  0.00000000000E+00  0.00000000000E+00 -0.11216967164E+04  0.33834788626E+04  0.31921349737E+04 0.  0.
        5    1    3    3  502    0 -0.14666831831E+04 -0.62296259160E+03 -0.65663912928E+03  0.17234961521E+04  0.46999998093E+01 0. -1.
       -5    1    3    3    0  502  0.14666831831E+04  0.62296259160E+03 -0.46505758714E+03  0.16599827106E+04  0.46999998093E+01 0.  1.
</event>
<event>
 5   0  0.1277374E-07  0.3198650E+04  0.7818609E-02  0.8189174E-01
       -1   -1    0    0    0  501  0.00000000000E+00  0.00000000000E+00  0.25718793611E+04  0.25718793611E+04  0.50400001928E-02 0. -1.
        1   -1    0    0  501    0  0.00000000000E+00  0.00000000000E+00 -0.99454158816E+03  0.99454158818E+03  0.50400001928E-02 0.  1.
    10030    2    1    2    0    0  0.00000000000E+00  0.00000000000E+00  0.15773377729E+04  0.35664209492E+04  0.31986503306E+04 0.  0.
        5    1    3    3  502    0  0.12196180100E+04 -0.10319863237E+04  0.70707702256E+03  0.17471244571E+04  0.46999998093E+01 0. -1.
       -5    1    3    3    0  502 -0.12196180100E+04  0.10319863237E+04  0.87026075034E+03  0.18192964921E+04  0.46999998093E+01 0.  1.
</event>
<event>
 5   0  0.1365455E-07  0.3199129E+04  0.7818609E-02  0.8189047E-01
       -1   -1    0    0    0  501  0.00000000000E+00  0.00000000000E+00  0.20665003697E+04  0.20665003697E+04  0.50400001928E-02 0.  1.
        1   -1    0    0  501    0  0.00000000000E+00  0.00000000000E+00 -0.12381353147E+04  0.12381353147E+04  0.50400001928E-02 0. -1.
    10030    2    1    2    0    0  0.00000000000E+00  0.00000000000E+00  0.82836505503E+03  0.33046356844E+04  0.31991293100E+04 0.  0.
        3    1    3    3  502    0  0.78913327150E+03 -0.39496070118E+03 -0.96393854824E+03  0.13068675567E+04  0.10100000352E+00 0. -1.
       -3    1    3    3    0  502 -0.78913327150E+03  0.39496070118E+03  0.17923036033E+04  0.19977681277E+04  0.10100000352E+00 0.  1.
</event>
<event>
 5   0  0.3942564E-07  0.3191037E+04  0.7818609E-02  0.8191188E-01
       -2   -1    0    0    0  501  0.00000000000E+00  0.00000000000E+00  0.91648855838E+03  0.91648855838E+03  0.25500000920E-02 0.  1.
        2   -1    0    0  501    0  0.00000000000E+00  0.00000000000E+00 -0.27776449296E+04  0.27776449296E+04  0.25500000920E-02 0. -1.
    10030    2    1    2    0    0  0.00000000000E+00  0.00000000000E+00 -0.18611563712E+04  0.36941334879E+04  0.31910373217E+04 0.  0.
        3    1    3    3  502    0 -0.48261737613E+03 -0.14717610995E+04 -0.13739473069E+04  0.20704423387E+04  0.10100000352E+00 0. -1.
       -3    1    3    3    0  502  0.48261737613E+03  0.14717610995E+04 -0.48720906432E+03  0.16236911493E+04  0.10100000352E+00 0.  1.
</event>
<event>
 5   0  0.1317293E-07  0.3202367E+04  0.7818609E-02  0.8188192E-01
        1   -1    0    0  501    0  0.00000000000E+00  0.00000000000E+00  0.13075701692E+04  0.13075701692E+04  0.50400001928E-02 0. -1.
       -1   -1    0    0    0  501  0.00000000000E+00  0.00000000000E+00 -0.19607276032E+04  0.19607276032E+04  0.50400001928E-02 0.  1.
    10030    2    1    2    0    0  0.00000000000E+00  0.00000000000E+00 -0.65315743406E+03  0.32682977724E+04  0.32023672018E+04 0.  0.
        1    1    3    3  502    0  0.44684026975E+03 -0.11614746913E+04 -0.13548429742E+04  0.18396437617E+04  0.50400001928E-02 0. -1.
       -1    1    3    3    0  502 -0.44684026975E+03  0.11614746913E+04  0.70168554015E+03  0.14286540107E+04  0.50400001928E-02 0.  1.
</event>
<event>
 5   0  0.1365455E-07  0.3196655E+04  0.7818609E-02  0.8189701E-01
        1   -1    0    0  501    0  0.00000000000E+00  0.00000000000E+00  0.17403601648E+04  0.17403601648E+04  0.50400001928E-02 0. -1.
       -1   -1    0    0    0  501  0.00000000000E+00  0.00000000000E+00 -0.14678858722E+04  0.14678858722E+04  0.50400001928E-02 0.  1.
    10030    2    1    2    0    0  0.00000000000E+00  0.00000000000E+00  0.27247429258E+03  0.32082460369E+04  0.31966545627E+04 0.  0.
        3    1    3    3  502    0 -0.13655158310E+04  0.48984630116E+03  0.80954029044E+03  0.16613062257E+04  0.10100000352E+00 0. -1.
       -3    1    3    3    0  502  0.13655158310E+04 -0.48984630116E+03 -0.53706599786E+03  0.15469398113E+04  0.10100000352E+00 0.  1.
</event>
<event>
 5   0  0.1270948E-07  0.3199141E+04  0.7818609E-02  0.8189044E-01
       -1   -1    0    0    0  501  0.00000000000E+00  0.00000000000E+00  0.12382311483E+04  0.12382311483E+04  0.50400001928E-02 0. -1.
        1   -1    0    0  501    0  0.00000000000E+00  0.00000000000E+00 -0.20663555033E+04  0.20663555033E+04  0.50400001928E-02 0.  1.
    10030    2    1    2    0    0  0.00000000000E+00  0.00000000000E+00 -0.82812435496E+03  0.33045866516E+04  0.31991409770E+04 0.  0.
        4    1    3    3  502    0  0.10250480804E+04 -0.45194713203E+03 -0.15934681705E+04  0.19478506618E+04  0.12699999809E+01 0.  1.
       -4    1    3    3    0  502 -0.10250480804E+04  0.45194713203E+03  0.76534381558E+03  0.13567359899E+04  0.12699999809E+01 0. -1.
</event>
<event>
 5   0  0.1277374E-07  0.3199942E+04  0.7818609E-02  0.8188833E-01
       -1   -1    0    0    0  501  0.00000000000E+00  0.00000000000E+00  0.96920531189E+03  0.96920531190E+03  0.50400001928E-02 0. -1.
        1   -1    0    0  501    0  0.00000000000E+00  0.00000000000E+00 -0.26412427631E+04  0.26412427631E+04  0.50400001928E-02 0.  1.
    10030    2    1    2    0    0  0.00000000000E+00  0.00000000000E+00 -0.16720374512E+04  0.36104480750E+04  0.31999415720E+04 0.  0.
        5    1    3    3  502    0  0.39093937733E+03  0.89725115369E+03 -0.22640874812E+04  0.24665780835E+04  0.46999998093E+01 0. -1.
       -5    1    3    3    0  502 -0.39093937733E+03 -0.89725115369E+03  0.59205002995E+03  0.11438699915E+04  0.46999998093E+01 0.  1.
</event>
<event>
 5   0  0.3830207E-07  0.3206987E+04  0.7818609E-02  0.8186974E-01
        2   -1    0    0  501    0  0.00000000000E+00  0.00000000000E+00  0.13897020248E+04  0.13897020248E+04  0.25500000920E-02 0. -1.
       -2   -1    0    0    0  501  0.00000000000E+00  0.00000000000E+00 -0.18501744148E+04  0.18501744148E+04  0.25500000920E-02 0.  1.
    10030    2    1    2    0    0  0.00000000000E+00  0.00000000000E+00 -0.46047238994E+03  0.32398764396E+04  0.32069868291E+04 0.  0.
        4    1    3    3  502    0  0.54608349423E+03  0.14460435123E+04  0.20068311699E+03  0.15586931541E+04  0.12699999809E+01 0. -1.
       -4    1    3    3    0  502 -0.54608349423E+03 -0.14460435123E+04 -0.66115550693E+03  0.16811832855E+04  0.12699999809E+01 0.  1.
</event>
<event>
 5   0  0.3750285E-07  0.3200328E+04  0.7818609E-02  0.8188731E-01
        2   -1    0    0  501    0  0.00000000000E+00  0.00000000000E+00  0.20009359983E+04  0.20009359983E+04  0.25500000920E-02 0.  1.
       -2   -1    0    0    0  501  0.00000000000E+00  0.00000000000E+00 -0.12796636204E+04  0.12796636204E+04  0.25500000920E-02 0. -1.
    10030    2    1    2    0    0  0.00000000000E+00  0.00000000000E+00  0.72127237786E+03  0.32805996187E+04  0.32003281106E+04 0.  0.
        1    1    3    3  502    0  0.43748686856E+03  0.15353884857E+04  0.24969765018E+03  0.16159088708E+04  0.50400001928E-02 0. -1.
       -1    1    3    3    0  502 -0.43748686856E+03 -0.15353884857E+04  0.47157472768E+03  0.16646907479E+04  0.50400001928E-02 0.  1.
</event>
<event>
 5   0  0.1270948E-07  0.3204037E+04  0.7818609E-02  0.8187752E-01
       -1   -1    0    0    0  501  0.00000000000E+00  0.00000000000E+00  0.97632698313E+03  0.97632698315E+03  0.50400001928E-02 0. -1.
        1   -1    0    0  501    0  0.00000000000E+00  0.00000000000E+00 -0.26286920938E+04  0.26286920938E+04  0.50400001928E-02 0.  1.
    10030    2    1    2    0    0  0.00000000000E+00  0.00000000000E+00 -0.16523651106E+04  0.36050190769E+04  0.32040368422E+04 0.  0.
        4    1    3    3  502    0  0.55509568041E+02  0.10186225850E+04 -0.22159981529E+04  0.24395332975E+04  0.12699999809E+01 0.  1.
       -4    1    3    3    0  502 -0.55509568041E+02 -0.10186225850E+04  0.56363304227E+03  0.11654857795E+04  0.12699999809E+01 0. -1.
</event>
<event>
 5   0  0.3858721E-07  0.3209405E+04  0.7818609E-02  0.8186338E-01
        2   -1    0    0  501    0  0.00000000000E+00  0.00000000000E+00  0.22659945535E+04  0.22659945535E+04  0.25500000920E-02 0. -1.
       -2   -1    0    0    0  501  0.00000000000E+00  0.00000000000E+00 -0.11363975012E+04  0.11363975012E+04  0.25500000920E-02 0.  1.
    10030    2    1    2    0    0  0.00000000000E+00  0.00000000000E+00  0.11295970523E+04  0.34023920546E+04  0.32094052709E+04 0.  0.
        2    1    3    3  502    0 -0.85697616085E+03  0.80187763461E+03 -0.59538207511E+03  0.13160150822E+04  0.25500000920E-02 0.  1.
       -2    1    3    3    0  502  0.85697616085E+03 -0.80187763461E+03  0.17249791274E+04  0.20863769725E+04  0.25500000920E-02 0. -1.
</event>
<event>
 5   0  0.1277374E-07  0.3197676E+04  0.7818609E-02  0.8189431E-01
        1   -1    0    0  501    0  0.00000000000E+00  0.00000000000E+00  0.25699808117E+04  0.25699808117E+04  0.50400001928E-02 0. -1.
       -1   -1    0    0    0  501  0.00000000000E+00  0.00000000000E+00 -0.99467031616E+03  0.99467031617E+03  0.50400001928E-02 0.  1.
    10030    2    1    2    0    0  0.00000000000E+00  0.00000000000E+00  0.15753104956E+04  0.35646511279E+04  0.31976764230E+04 0.  0.
        5    1    3    3  502    0  0.42351876130E+02  0.10957002982E+04 -0.50945594962E+03  0.12090989536E+04  0.46999998093E+01 0.  1.
       -5    1    3    3    0  502 -0.42351876130E+02 -0.10957002982E+04  0.20847664452E+04  0.23555521743E+04  0.46999998093E+01 0. -1.
</event>
<event>
 5   0  0.3858721E-07  0.3213482E+04  0.7818609E-02  0.8185266E-01
       -2   -1    0    0    0  501  0.00000000000E+00  0.00000000000E+00  0.16031550039E+04  0.16031550039E+04  0.25500000920E-02 0.  1.
        2   -1    0    0  501    0  0.00000000000E+00  0.00000000000E+00 -0.16103350924E+04  0.16103350924E+04  0.25500000920E-02 0. -1.
    10030    2    1    2    0    0  0.00000000000E+00  0.00000000000E+00 -0.71800885532E+01  0.32134900963E+04  0.32134820748E+04 0.  0.
        2    1    3    3  502    0  0.56380488272E+03 -0.48678220467E+03 -0.14272452059E+04  0.16099260040E+04  0.25500000920E-02 0. -1.
       -2    1    3    3    0  502 -0.56380488272E+03  0.48678220467E+03  0.14200651174E+04  0.16035640923E+04  0.25500000920E-02 0.  1.
</event>
<event>
 5   0  0.1270948E-07  0.3179454E+04  0.7818609E-02  0.8194264E-01
       -1   -1    0    0    0  501  0.00000000000E+00  0.00000000000E+00  0.10181555183E+04  0.10181555184E+04  0.50400001928E-02 0.  1.
        1   -1    0    0  501    0  0.00000000000E+00  0.00000000000E+00 -0.24821672187E+04  0.24821672187E+04  0.50400001928E-02 0. -1.
    10030    2    1    2    0    0  0.00000000000E+00  0.00000000000E+00 -0.14640117004E+04  0.35003227371E+04  0.31794541992E+04 0.  0.
        4    1    3    3  502    0 -0.75149741902E+03 -0.24708757070E+03  0.78607774319E+03  0.11152221616E+04  0.12699999809E+01 0.  1.
       -4    1    3    3    0  502  0.75149741902E+03  0.24708757070E+03 -0.22500894436E+04  0.23851005755E+04  0.12699999809E+01 0. -1.
</event>
<event>
 5   0  0.1270948E-07  0.3202275E+04  0.7818609E-02  0.8188217E-01
       -1   -1    0    0    0  501  0.00000000000E+00  0.00000000000E+00  0.13550594658E+04  0.13550594659E+04  0.50400001928E-02 0.  1.
        1   -1    0    0  501    0  0.00000000000E+00  0.00000000000E+00 -0.18919027556E+04  0.18919027556E+04  0.50400001928E-02 0. -1.
    10030    2    1    2    0    0  0.00000000000E+00  0.00000000000E+00 -0.53684328977E+03  0.32469622215E+04  0.32022746525E+04 0.  0.
        4    1    3    3  502    0 -0.59620400535E+03  0.78213526528E+02  0.12362214060E+04  0.13747078050E+04  0.12699999809E+01 0.  1.
       -4    1    3    3    0  502  0.59620400535E+03 -0.78213526528E+02 -0.17730646957E+04  0.18722544165E+04  0.12699999809E+01 0. -1.
</event>
<event>
 5   0  0.1270948E-07  0.3206961E+04  0.7818609E-02  0.8186981E-01
       -1   -1    0    0    0  501  0.00000000000E+00  0.00000000000E+00  0.17993437190E+04  0.17993437190E+04  0.50400001928E-02 0. -1.
        1   -1    0    0  501    0  0.00000000000E+00  0.00000000000E+00 -0.14289373900E+04  0.14289373900E+04  0.50400001928E-02 0.  1.
    10030    2    1    2    0    0  0.00000000000E+00  0.00000000000E+00  0.37040632899E+03  0.32282811090E+04  0.32069608776E+04 0.  0.
        4    1    3    3  502    0  0.10216663108E+04 -0.78370970251E+03 -0.77673586307E+03  0.15037696507E+04  0.12699999809E+01 0.  1.
       -4    1    3    3    0  502 -0.10216663108E+04  0.78370970251E+03  0.11471421921E+04  0.17245114584E+04  0.12699999809E+01 0. -1.
</event>
<event>
 5   0  0.3830207E-07  0.3195046E+04  0.7818609E-02  0.8190127E-01
       -2   -1    0    0    0  501  0.00000000000E+00  0.00000000000E+00  0.23311964298E+04  0.23311964298E+04  0.25500000920E-02 0.  1.
        2   -1    0    0  501    0  0.00000000000E+00  0.00000000000E+00 -0.10947511656E+04  0.10947511656E+04  0.25500000920E-02 0. -1.
    10030    2    1    2    0    0  0.00000000000E+00  0.00000000000E+00  0.12364452642E+04  0.34259475954E+04  0.31950461711E+04 0.  0.
        4    1    3    3  502    0  0.88630715925E+03 -0.28782766467E+02 -0.80660789795E+03  0.11987438184E+04  0.12699999809E+01 0. -1.
       -4    1    3    3    0  502 -0.88630715925E+03  0.28782766467E+02  0.20430531621E+04  0.22272037770E+04  0.12699999809E+01 0.  1.
</event>
<event>
 5   0  0.1230450E-07  0.3198223E+04  0.7818609E-02  0.8189287E-01
        3   -1    0    0  501    0  0.00000000000E+00  0.00000000000E+00  0.25062939106E+04  0.25062939126E+04  0.10100000352E+00 0. -1.
       -3   -1    0    0    0  501  0.00000000000E+00  0.00000000000E+00 -0.10202943805E+04  0.10202943855E+04  0.10100000352E+00 0.  1.
    10030    2    1    2    0    0  0.00000000000E+00  0.00000000000E+00  0.14859995301E+04  0.35265882981E+04  0.31982230098E+04 0.  0.
        1    1    3    3  502    0 -0.14053141047E+04  0.75504043534E+03  0.86461301367E+03  0.18145383587E+04  0.50400001928E-02 0.  1.
       -1    1    3    3    0  502  0.14053141047E+04 -0.75504043534E+03  0.62138651647E+03  0.17120499393E+04  0.50400001928E-02 0. -1.
</event>
<event>
 5   0  0.3764056E-07  0.3198421E+04  0.7818609E-02  0.8189234E-01
       -2   -1    0    0    0  501  0.00000000000E+00  0.00000000000E+00  0.33726768748E+04  0.33726768748E+04  0.25500000920E-02 0. -1.
        2   -1    0    0  501    0  0.00000000000E+00  0.00000000000E+00 -0.75829216455E+03  0.75829216455E+03  0.25500000920E-02 0.  1.
    10030    2    1    2    0    0  0.00000000000E+00  0.00000000000E+00  0.26143847102E+04  0.41309690393E+04  0.31984211403E+04 0.  0.
        5    1    3    3  502    0  0.72521736366E+03 -0.86933881963E+03  0.27660104759E+04  0.29887332184E+04  0.46999998093E+01 0. -1.
       -5    1    3    3    0  502 -0.72521736366E+03  0.86933881963E+03 -0.15162576567E+03  0.11422358210E+04  0.46999998093E+01 0.  1.
</event>
<event>
 5   0  0.3764056E-07  0.3200896E+04  0.7818609E-02  0.8188581E-01
       -2   -1    0    0    0  501  0.00000000000E+00  0.00000000000E+00  0.17867712029E+04  0.17867712029E+04  0.25500000920E-02 0.  1.
        2   -1    0    0  501    0  0.00000000000E+00  0.00000000000E+00 -0.14335543175E+04  0.14335543175E+04  0.25500000920E-02 0. -1.
    10030    2    1    2    0    0  0.00000000000E+00  0.00000000000E+00  0.35321688540E+03  0.32203255204E+04  0.32008958573E+04 0.  0.
        5    1    3    3  502    0 -0.10487913876E+03  0.30451149704E+03 -0.14006080259E+04  0.14371679852E+04  0.46999998093E+01 0. -1.
       -5    1    3    3    0  502  0.10487913876E+03 -0.30451149704E+03  0.17538249113E+04  0.17831575351E+04  0.46999998093E+01 0.  1.
</event>
<event>
 5   0  0.3830207E-07  0.3200221E+04  0.7818609E-02  0.8188759E-01
        2   -1    0    0  501    0  0.00000000000E+00  0.00000000000E+00  0.21793279250E+04  0.21793279250E+04  0.25500000920E-02 0.  1.
       -2   -1    0    0    0  501  0.00000000000E+00  0.00000000000E+00 -0.11748365506E+04  0.11748365506E+04  0.25500000920E-02 0. -1.
    10030    2    1    2    0    0  0.00000000000E+00  0.00000000000E+00  0.10044913744E+04  0.33541644755E+04  0.32002213060E+04 0.  0.
        4    1    3    3  502    0  0.36328425019E+03 -0.11547623996E+04  0.15989555212E+04  0.20055203858E+04  0.12699999809E+01 0.  1.
       -4    1    3    3    0  502 -0.36328425019E+03  0.11547623996E+04 -0.59446414682E+03  0.13486440897E+04  0.12699999809E+01 0. -1.
</event>
<event>
 5   0  0.1270948E-07  0.3191353E+04  0.7818609E-02  0.8191104E-01
        1   -1    0    0  501    0  0.00000000000E+00  0.00000000000E+00  0.19045202788E+04  0.19045202789E+04  0.50400001928E-02 0. -1.
       -1   -1    0    0    0  501  0.00000000000E+00  0.00000000000E+00 -0.13369163252E+04  0.13369163252E+04  0.50400001928E-02 0.  1.
    10030    2    1    2    0    0  0.00000000000E+00  0.00000000000E+00  0.56760395369E+03  0.32414366040E+04  0.31913534761E+04 0.  0.
        4    1    3    3  502    0 -0.11138624958E+04 -0.10958930387E+04  0.61215764121E+03  0.16782162562E+04  0.12699999809E+01 0. -1.
       -4    1    3    3    0  502  0.11138624958E+04  0.10958930387E+04 -0.44553687528E+02  0.15632203478E+04  0.12699999809E+01 0.  1.
</event>
<event>
 5   0  0.1288096E-07  0.3196577E+04  0.7818609E-02  0.8189722E-01
       -1   -1    0    0    0  501  0.00000000000E+00  0.00000000000E+00  0.13560621945E+04  0.13560621945E+04  0.50400001928E-02 0. -1.
        1   -1    0    0  501    0  0.00000000000E+00  0.00000000000E+00 -0.18837825206E+04  0.18837825206E+04  0.50400001928E-02 0.  1.
    10030    2    1    2    0    0  0.00000000000E+00  0.00000000000E+00 -0.52772032609E+03  0.32398447151E+04  0.31965770811E+04 0.  0.
        2    1    3    3  502    0  0.64320795688E+03  0.13858911203E+04  0.21165504497E+03  0.15424683242E+04  0.25500000920E-02 0. -1.
       -2    1    3    3    0  502 -0.64320795688E+03 -0.13858911203E+04 -0.73937537106E+03  0.16973763909E+04  0.25500000920E-02 0.  1.
</event>
<event>
 5   0  0.3858721E-07  0.3199655E+04  0.7818609E-02  0.8188908E-01
        2   -1    0    0  501    0  0.00000000000E+00  0.00000000000E+00  0.26834553110E+04  0.26834553110E+04  0.25500000920E-02 0. -1.
       -2   -1    0    0    0  501  0.00000000000E+00  0.00000000000E+00 -0.95378830596E+03  0.95378830597E+03  0.25500000920E-02 0.  1.
    10030    2    1    2    0    0  0.00000000000E+00  0.00000000000E+00  0.17296670050E+04  0.36372436170E+04  0.31996551659E+04 0.  0.
        2    1    3    3  502    0 -0.59864868067E+03  0.45146742171E+03 -0.74168195882E+03  0.10546540683E+04  0.25500000920E-02 0.  1.
       -2    1    3    3    0  502  0.59864868067E+03 -0.45146742171E+03  0.24713489638E+04  0.25825895487E+04  0.25500000920E-02 0. -1.
</event>
<event>
 5   0  0.1288096E-07  0.3194738E+04  0.7818609E-02  0.8190208E-01
        1   -1    0    0  501    0  0.00000000000E+00  0.00000000000E+00  0.14316141574E+04  0.14316141574E+04  0.50400001928E-02 0.  1.
       -1   -1    0    0    0  501  0.00000000000E+00  0.00000000000E+00 -0.17823153166E+04  0.17823153166E+04  0.50400001928E-02 0. -1.
    10030    2    1    2    0    0  0.00000000000E+00  0.00000000000E+00 -0.35070115922E+03  0.32139294741E+04  0.31947380740E+04 0.  0.
        2    1    3    3  502    0 -0.13464330617E+04 -0.19953914511E+03  0.66566780968E+03  0.15151935496E+04  0.25500000920E-02 0.  1.
       -2    1    3    3    0  502  0.13464330617E+04  0.19953914511E+03 -0.10163689689E+04  0.16987359244E+04  0.25500000920E-02 0. -1.
</event>
<event>
 5   0  0.3942564E-07  0.3198453E+04  0.7818609E-02  0.8189226E-01
       -2   -1    0    0    0  501  0.00000000000E+00  0.00000000000E+00  0.20140907358E+04  0.20140907358E+04  0.25500000920E-02 0. -1.
        2   -1    0    0  501    0  0.00000000000E+00  0.00000000000E+00 -0.12698166991E+04  0.12698166991E+04  0.25500000920E-02 0.  1.
    10030    2    1    2    0    0  0.00000000000E+00  0.00000000000E+00  0.74427403665E+03  0.32839074349E+04  0.31984534074E+04 0.  0.
        3    1    3    3  502    0 -0.27668767386E+03 -0.13854064608E+04  0.11415716668E+04  0.18163405548E+04  0.10100000352E+00 0. -1.
       -3    1    3    3    0  502  0.27668767386E+03  0.13854064608E+04 -0.39729763011E+03  0.14675668801E+04  0.10100000352E+00 0.  1.
</event>
<event>
 5   0  0.3764056E-07  0.3211167E+04  0.7818609E-02  0.8185874E-01
       -2   -1    0    0    0  501  0.00000000000E+00  0.00000000000E+00  0.11735445301E+04  0.11735445301E+04  0.25500000920E-02 0.  1.
        2   -1    0    0  501    0  0.00000000000E+00  0.00000000000E+00 -0.21966769223E+04  0.21966769223E+04  0.25500000920E-02 0. -1.
    10030    2    1    2    0    0  0.00000000000E+00  0.00000000000E+00 -0.10231323922E+04  0.33702214525E+04  0.32111668824E+04 0.  0.
        5    1    3    3  502    0 -0.14300542684E+04 -0.67707849785E+03 -0.79781256071E+03  0.17720094455E+04  0.46999998093E+01 0. -1.
       -5    1    3    3    0  502  0.14300542684E+04  0.67707849785E+03 -0.22531983150E+03  0.15982120070E+04  0.46999998093E+01 0.  1.
</event>
<event>
 5   0  0.1277374E-07  0.3203230E+04  0.7818609E-02  0.8187965E-01
       -1   -1    0    0    0  501  0.00000000000E+00  0.00000000000E+00  0.12192278096E+04  0.12192278096E+04  0.50400001928E-02 0.  1.
        1   -1    0    0  501    0  0.00000000000E+00  0.00000000000E+00 -0.21039299148E+04  0.21039299148E+04  0.50400001928E-02 0. -1.
    10030    2    1    2    0    0  0.00000000000E+00  0.00000000000E+00 -0.88470210523E+03  0.33231577244E+04  0.32032295338E+04 0.  0.
        5    1    3    3  502    0  0.90215104778E+03 -0.75714140489E+02  0.92830227965E+03  0.12966789720E+04  0.46999998093E+01 0.  1.
       -5    1    3    3    0  502 -0.90215104778E+03  0.75714140489E+02 -0.18130043849E+04  0.20264787523E+04  0.46999998093E+01 0. -1.
</event>
<event>
 5   0  0.1365455E-07  0.3204228E+04  0.7818609E-02  0.8187702E-01
       -1   -1    0    0    0  501  0.00000000000E+00  0.00000000000E+00  0.17711280621E+04  0.17711280621E+04  0.50400001928E-02 0. -1.
        1   -1    0    0  501    0  0.00000000000E+00  0.00000000000E+00 -0.14492283755E+04  0.14492283755E+04  0.50400001928E-02 0.  1.
    10030    2    1    2    0    0  0.00000000000E+00  0.00000000000E+00  0.32189968665E+03  0.32203564376E+04  0.32042278597E+04 0.  0.
        3    1    3    3  502    0  0.55414928835E+03  0.57371899589E+03 -0.12354805454E+04  0.14705941345E+04  0.10100000352E+00 0.  1.
       -3    1    3    3    0  502 -0.55414928835E+03 -0.57371899589E+03  0.15573802321E+04  0.17497623031E+04  0.10100000352E+00 0. -1.
</event>
<event>
 5   0  0.3942564E-07  0.3194129E+04  0.7818609E-02  0.8190369E-01
        2   -1    0    0  501    0  0.00000000000E+00  0.00000000000E+00  0.17775120065E+04  0.17775120065E+04  0.25500000920E-02 0.  1.
       -2   -1    0    0    0  501  0.00000000000E+00  0.00000000000E+00 -0.14349356721E+04  0.14349356721E+04  0.25500000920E-02 0. -1.
    10030    2    1    2    0    0  0.00000000000E+00  0.00000000000E+00  0.34257633439E+03  0.32124476786E+04  0.31941292308E+04 0.  0.
        3    1    3    3  502    0 -0.78026626182E+03 -0.40330722043E+03  0.15127830953E+04  0.17492812401E+04  0.10100000352E+00 0.  1.
       -3    1    3    3    0  502  0.78026626182E+03  0.40330722043E+03 -0.11702067609E+04  0.14631664385E+04  0.10100000352E+00 0. -1.
</event>
<event>
 5   0  0.3750285E-07  0.3201256E+04  0.7818609E-02  0.8188485E-01
       -2   -1    0    0    0  501  0.00000000000E+00  0.00000000000E+00  0.10835064101E+04  0.10835064101E+04  0.25500000920E-02 0.  1.
        2   -1    0    0  501    0  0.00000000000E+00  0.00000000000E+00 -0.23645550168E+04  0.23645550168E+04  0.25500000920E-02 0. -1.
    10030    2    1    2    0    0  0.00000000000E+00  0.00000000000E+00 -0.12810486067E+04  0.34480614269E+04  0.32012563270E+04 0.  0.
        1    1    3    3  502    0  0.10230111345E+04  0.26297052871E+03 -0.19358665315E+04  0.22052855843E+04  0.50400001928E-02 0. -1.
       -1    1    3    3    0  502 -0.10230111345E+04 -0.26297052871E+03  0.65481792485E+03  0.12427758426E+04  0.50400001928E-02 0.  1.
</event>
<event>
 5   0  0.3750285E-07  0.3202681E+04  0.7818609E-02  0.8188109E-01
        2   -1    0    0  501    0  0.00000000000E+00  0.00000000000E+00  0.22804331048E+04  0.22804331048E+04  0.25500000920E-02 0. -1.
       -2   -1    0    0    0  501  0.00000000000E+00  0.00000000000E+00 -0.11244756969E+04  0.11244756969E+04  0.25500000920E-02 0.  1.
    10030    2    1    2    0    0  0.00000000000E+00  0.00000000000E+00  0.11559574079E+04  0.34049088017E+04  0.32026811297E+04 0.  0.
        1    1    3    3  502    0  0.29305751817E+03 -0.62157133891E+03  0.21157035799E+04  0.22245078728E+04  0.50400001928E-02 0. -1.
       -1    1    3    3    0  502 -0.29305751817E+03  0.62157133891E+03 -0.95974617194E+03  0.11804009289E+04  0.50400001928E-02 0.  1.
</event>
<event>
 5   0  0.3858721E-07  0.3195513E+04  0.7818609E-02  0.8190003E-01
        2   -1    0    0  501    0  0.00000000000E+00  0.00000000000E+00  0.26342537402E+04  0.26342537402E+04  0.25500000920E-02 0. -1.
       -2   -1    0    0    0  501  0.00000000000E+00  0.00000000000E+00 -0.96908901213E+03  0.96908901213E+03  0.25500000920E-02 0.  1.
    10030    2    1    2    0    0  0.00000000000E+00  0.00000000000E+00  0.16651647281E+04  0.36033427523E+04  0.31955133264E+04 0.  0.
        2    1    3    3  502    0  0.89649336756E+03  0.11569635384E+04  0.11005552838E+03  0.14677796860E+04  0.25500000920E-02 0.  1.
       -2    1    3    3    0  502 -0.89649336756E+03 -0.11569635384E+04  0.15551091997E+04  0.21355630663E+04  0.25500000920E-02 0. -1.
</event>
<event>
 5   0  0.1317293E-07  0.3199754E+04  0.7818609E-02  0.8188882E-01
       -1   -1    0    0    0  501  0.00000000000E+00  0.00000000000E+00  0.81580152300E+03  0.81580152301E+03  0.50400001928E-02 0. -1.
        1   -1    0    0  501    0  0.00000000000E+00  0.00000000000E+00 -0.31375355797E+04  0.31375355797E+04  0.50400001928E-02 0.  1.
    10030    2    1    2    0    0  0.00000000000E+00  0.00000000000E+00 -0.23217340567E+04  0.39533371028E+04  0.31997539308E+04 0.  0.
        1    1    3    3  502    0 -0.78329738846E+03 -0.98941005840E+03 -0.23758978064E+04  0.26902374336E+04  0.50400001928E-02 0.  1.
       -1    1    3    3    0  502  0.78329738846E+03  0.98941005840E+03  0.54163749695E+02  0.12630996692E+04  0.50400001928E-02 0. -1.
</event>
<event>
 5   0  0.3750285E-07  0.3200413E+04  0.7818609E-02  0.8188708E-01
       -2   -1    0    0    0  501  0.00000000000E+00  0.00000000000E+00  0.10969728007E+04  0.10969728007E+04  0.25500000920E-02 0. -1.
        2   -1    0    0  501    0  0.00000000000E+00  0.00000000000E+00 -0.23342968025E+04  0.23342968025E+04  0.25500000920E-02 0.  1.
    10030    2    1    2    0    0  0.00000000000E+00  0.00000000000E+00 -0.12373240018E+04  0.34312696032E+04  0.32004125366E+04 0.  0.
        1    1    3    3  502    0  0.46858775342E+03  0.21907636472E+03 -0.22421890943E+04  0.23010825433E+04  0.50400001928E-02 0.  1.
       -1    1    3    3    0  502 -0.46858775342E+03 -0.21907636472E+03  0.10048650926E+04  0.11301870600E+04  0.50400001928E-02 0. -1.
</event>
<event>
 5   0  0.3830207E-07  0.3186414E+04  0.7818609E-02  0.8192414E-01
       -2   -1    0    0    0  501  0.00000000000E+00  0.00000000000E+00  0.12698778872E+04  0.12698778872E+04  0.25500000920E-02 0.  1.
        2   -1    0    0  501    0  0.00000000000E+00  0.00000000000E+00 -0.19988605013E+04  0.19988605013E+04  0.25500000920E-02 0. -1.
    10030    2    1    2    0    0  0.00000000000E+00  0.00000000000E+00 -0.72898261406E+03  0.32687383885E+04  0.31864141289E+04 0.  0.
        4    1    3    3  502    0  0.10529609871E+04  0.89271423835E+03 -0.11804286547E+04  0.18163366905E+04  0.12699999809E+01 0.  1.
       -4    1    3    3    0  502 -0.10529609871E+04 -0.89271423835E+03  0.45144604063E+03  0.14524016979E+04  0.12699999809E+01 0. -1.
</event>
<event>
 5   0  0.3942564E-07  0.3184051E+04  0.7818609E-02  0.8193042E-01
       -2   -1    0    0    0  501  0.00000000000E+00  0.00000000000E+00  0.12584089320E+04  0.12584089320E+04  0.25500000920E-02 0. -1.
        2   -1    0    0  501    0  0.00000000000E+00  0.00000000000E+00 -0.20140869487E+04  0.20140869487E+04  0.25500000920E-02 0.  1.
    10030    2    1    2    0    0  0.00000000000E+00  0.00000000000E+00 -0.75567801671E+03  0.32724958808E+04  0.31840508829E+04 0.  0.
        3    1    3    3  502    0  0.12907468697E+04  0.51939636402E+03  0.41744094296E+03  0.14526035301E+04  0.10100000352E+00 0. -1.
       -3    1    3    3    0  502 -0.12907468697E+04 -0.51939636402E+03 -0.11731189597E+04  0.18198923507E+04  0.10100000352E+00 0.  1.
</event>
<event>
 5   0  0.1277374E-07  0.3197404E+04  0.7818609E-02  0.8189503E-01
        1   -1    0    0  501    0  0.00000000000E+00  0.00000000000E+00  0.15294554610E+04  0.15294554611E+04  0.50400001928E-02 0.  1.
       -1   -1    0    0    0  501  0.00000000000E+00  0.00000000000E+00 -0.16710836889E+04  0.16710836890E+04  0.50400001928E-02 0. -1.
    10030    2    1    2    0    0  0.00000000000E+00  0.00000000000E+00 -0.14162822790E+03  0.32005391500E+04  0.31974039932E+04 0.  0.
        5    1    3    3  502    0  0.27263961421E+03  0.12760247535E+04  0.85380935533E+03  0.15593537239E+04  0.46999998093E+01 0.  1.
       -5    1    3    3    0  502 -0.27263961421E+03 -0.12760247535E+04 -0.99543758323E+03  0.16411854261E+04  0.46999998093E+01 0. -1.
</event>
<event>
 5   0  0.1288096E-07  0.3197715E+04  0.7818609E-02  0.8189421E-01
       -1   -1    0    0    0  501  0.00000000000E+00  0.00000000000E+00  0.11374739442E+04  0.11374739443E+04  0.50400001928E-02 0.  1.
        1   -1    0    0  501    0  0.00000000000E+00  0.00000000000E+00 -0.22473882330E+04  0.22473882330E+04  0.50400001928E-02 0. -1.
    10030    2    1    2    0    0  0.00000000000E+00  0.00000000000E+00 -0.11099142887E+04  0.33848621772E+04  0.31977151578E+04 0.  0.
        2    1    3    3  502    0  0.12699916153E+04  0.61599033792E+02 -0.15810565904E+04  0.20288945477E+04  0.25500000920E-02 0. -1.
       -2    1    3    3    0  502 -0.12699916153E+04 -0.61599033792E+02  0.47114230163E+03  0.13559676295E+04  0.25500000920E-02 0.  1.
</event>
<event>
 5   0  0.3750285E-07  0.3227593E+04  0.7818609E-02  0.8181568E-01
       -2   -1    0    0    0  501  0.00000000000E+00  0.00000000000E+00  0.90905781010E+03  0.90905781011E+03  0.25500000920E-02 0.  1.
        2   -1    0    0  501    0  0.00000000000E+00  0.00000000000E+00 -0.28648781974E+04  0.28648781974E+04  0.25500000920E-02 0. -1.
    10030    2    1    2    0    0  0.00000000000E+00  0.00000000000E+00 -0.19558203873E+04  0.37739360075E+04  0.32275934690E+04 0.  0.
        1    1    3    3  502    0  0.27391452278E+03  0.15855182017E+04 -0.11232144232E+04  0.19622710757E+04  0.50400001928E-02 0. -1.
       -1    1    3    3    0  502 -0.27391452278E+03 -0.15855182017E+04 -0.83260596404E+03  0.18116649318E+04  0.50400001928E-02 0.  1.
</event>
<event>
 5   0  0.3830207E-07  0.3196403E+04  0.7818609E-02  0.8189768E-01
       -2   -1    0    0    0  501  0.00000000000E+00  0.00000000000E+00  0.21047448927E+04  0.21047448927E+04  0.25500000920E-02 0.  1.
        2   -1    0    0  501    0  0.00000000000E+00  0.00000000000E+00 -0.12135663992E+04  0.12135663992E+04  0.25500000920E-02 0. -1.
    10030    2    1    2    0    0  0.00000000000E+00  0.00000000000E+00  0.89117849347E+03  0.33183112919E+04  0.31964027786E+04 0.  0.
        4    1    3    3  502    0  0.27546314952E+03  0.55162932944E+02  0.20789103714E+04  0.20978066739E+04  0.12699999809E+01 0.  1.
       -4    1    3    3    0  502 -0.27546314952E+03 -0.55162932944E+02 -0.11877318779E+04  0.12205046180E+04  0.12699999809E+01 0. -1.
</event>
<event>
 5   0  0.3942564E-07  0.3200454E+04  0.7818609E-02  0.8188697E-01
        2   -1    0    0  501    0  0.00000000000E+00  0.00000000000E+00  0.14951489767E+04  0.14951489767E+04  0.25500000920E-02 0. -1.
       -2   -1    0    0    0  501  0.00000000000E+00  0.00000000000E+00 -0.17126893107E+04  0.17126893107E+04  0.25500000920E-02 0.  1.
    10030    2    1    2    0    0  0.00000000000E+00  0.00000000000E+00 -0.21754033405E+03  0.32078382874E+04  0.32004535118E+04 0.  0.
        3    1    3    3  502    0 -0.30765208861E+03 -0.10309716390E+04 -0.12960596053E+04  0.16844354659E+04  0.10100000352E+00 0.  1.
       -3    1    3    3    0  502  0.30765208861E+03  0.10309716390E+04  0.10785192712E+04  0.15234028215E+04  0.10100000352E+00 0. -1.
</event>
<event>
 5   0  0.1317293E-07  0.3227844E+04  0.7818609E-02  0.8181502E-01
       -1   -1    0    0    0  501  0.00000000000E+00  0.00000000000E+00  0.21099946982E+04  0.21099946982E+04  0.50400001928E-02 0. -1.
        1   -1    0    0  501    0  0.00000000000E+00  0.00000000000E+00 -0.12344791545E+04  0.12344791545E+04  0.50400001928E-02 0.  1.
    10030    2    1    2    0    0  0.00000000000E+00  0.00000000000E+00  0.87551554371E+03  0.33444738527E+04  0.32278441542E+04 0.  0.
        1    1    3    3  502    0 -0.34305578397E+03 -0.10437520276E+04 -0.78717636396E+03  0.13515739691E+04  0.50400001928E-02 0.  1.
       -1    1    3    3    0  502  0.34305578397E+03  0.10437520276E+04  0.16626919077E+04  0.19928998836E+04  0.50400001928E-02 0. -1.
</event>
<event>
 5   0  0.3858721E-07  0.3195050E+04  0.7818609E-02  0.8190126E-01
       -2   -1    0    0    0  501  0.00000000000E+00  0.00000000000E+00  0.13943250376E+04  0.13943250376E+04  0.25500000920E-02 0.  1.
        2   -1    0    0  501    0  0.00000000000E+00  0.00000000000E+00 -0.18303382088E+04  0.18303382088E+04  0.25500000920E-02 0. -1.
    10030    2    1    2    0    0  0.00000000000E+00  0.00000000000E+00 -0.43601317119E+03  0.32246632463E+04  0.31950501666E+04 0.  0.
        2    1    3    3  502    0 -0.11310865471E+04  0.63235890765E+03  0.72491797637E+03  0.14848369060E+04  0.25500000920E-02 0.  1.
       -2    1    3    3    0  502  0.11310865471E+04 -0.63235890765E+03 -0.11609311476E+04  0.17398263403E+04  0.25500000920E-02 0. -1.
</event>
<event>
 5   0  0.1317293E-07  0.3206009E+04  0.7818609E-02  0.8187232E-01
       -1   -1    0    0    0  501  0.00000000000E+00  0.00000000000E+00  0.96284929843E+03  0.96284929845E+03  0.50400001928E-02 0.  1.
        1   -1    0    0  501    0  0.00000000000E+00  0.00000000000E+00 -0.26687705780E+04  0.26687705780E+04  0.50400001928E-02 0. -1.
    10030    2    1    2    0    0  0.00000000000E+00  0.00000000000E+00 -0.17059212795E+04  0.36316198764E+04  0.32060092818E+04 0.  0.
        1    1    3    3  502    0 -0.83570642572E+03 -0.12960114644E+04 -0.13487562567E+04  0.20487055391E+04  0.50400001928E-02 0. -1.
       -1    1    3    3    0  502  0.83570642572E+03  0.12960114644E+04 -0.35716502283E+03  0.15829143373E+04  0.50400001928E-02 0.  1.
</event>
<event>
 5   0  0.1288096E-07  0.3135925E+04  0.7818609E-02  0.8205947E-01
        1   -1    0    0  501    0  0.00000000000E+00  0.00000000000E+00  0.15241396398E+04  0.15241396398E+04  0.50400001928E-02 0.  1.
       -1   -1    0    0    0  501  0.00000000000E+00  0.00000000000E+00 -0.16130456297E+04  0.16130456297E+04  0.50400001928E-02 0. -1.
    10030    2    1    2    0    0  0.00000000000E+00  0.00000000000E+00 -0.88905989886E+02  0.31371852695E+04  0.31359252447E+04 0.  0.
        2    1    3    3  502    0  0.68705835837E+03 -0.30324399427E+03  0.13325086661E+04  0.15295703492E+04  0.25500000920E-02 0.  1.
       -2    1    3    3    0  502 -0.68705835837E+03  0.30324399427E+03 -0.14214146560E+04  0.16076149203E+04  0.25500000920E-02 0. -1.
</event>
<event>
 5   0  0.3764056E-07  0.3194900E+04  0.7818609E-02  0.8190165E-01
       -2   -1    0    0    0  501  0.00000000000E+00  0.00000000000E+00  0.15474517344E+04  0.15474517344E+04  0.25500000920E-02 0. -1.
        2   -1    0    0  501    0  0.00000000000E+00  0.00000000000E+00 -0.16490638514E+04  0.16490638514E+04  0.25500000920E-02 0.  1.
    10030    2    1    2    0    0  0.00000000000E+00  0.00000000000E+00 -0.10161211692E+03  0.31965155858E+04  0.31949001343E+04 0.  0.
        5    1    3    3  502    0 -0.43038231762E+03  0.78260673296E+03  0.12742964761E+04  0.15561349031E+04  0.46999998093E+01 0. -1.
       -5    1    3    3    0  502  0.43038231762E+03 -0.78260673296E+03 -0.13759085930E+04  0.16403806827E+04  0.46999998093E+01 0.  1.
</event>
<event>
 5   0  0.1317293E-07  0.3204966E+04  0.7818609E-02  0.8187507E-01
        1   -1    0    0  501    0  0.00000000000E+00  0.00000000000E+00  0.17020277513E+04  0.17020277513E+04  0.50400001928E-02 0.  1.
       -1   -1    0    0    0  501  0.00000000000E+00  0.00000000000E+00 -0.15087601663E+04  0.15087601663E+04  0.50400001928E-02 0. -1.
    10030    2    1    2    0    0  0.00000000000E+00  0.00000000000E+00  0.19326758500E+03  0.32107879175E+04  0.32049659424E+04 0.  0.
        1    1    3    3  502    0  0.51005594505E+03 -0.99177759056E+03 -0.10561832052E+04  0.15360022198E+04  0.50400001928E-02 0. -1.
       -1    1    3    3    0  502 -0.51005594505E+03  0.99177759056E+03  0.12494507902E+04  0.16747856978E+04  0.50400001928E-02 0.  1.
</event>
<event>
 5   0  0.3830207E-07  0.3208000E+04  0.7818609E-02  0.8186708E-01
        2   -1    0    0  501    0  0.00000000000E+00  0.00000000000E+00  0.18027628354E+04  0.18027628354E+04  0.25500000920E-02 0. -1.
       -2   -1    0    0    0  501  0.00000000000E+00  0.00000000000E+00 -0.14271515427E+04  0.14271515427E+04  0.25500000920E-02 0.  1.
    10030    2    1    2    0    0  0.00000000000E+00  0.00000000000E+00  0.37561129270E+03  0.32299143781E+04  0.32079998514E+04 0.  0.
        4    1    3    3  502    0  0.73838055490E+03 -0.26541714498E+03  0.15963484938E+04  0.17787586208E+04  0.12699999809E+01 0. -1.
       -4    1    3    3    0  502 -0.73838055490E+03  0.26541714498E+03 -0.12207372011E+04  0.14511557572E+04  0.12699999809E+01 0.  1.
</event>
<event>
 5   0  0.1230450E-07  0.3205056E+04  0.7818609E-02  0.8187483E-01
        3   -1    0    0  501    0  0.00000000000E+00  0.00000000000E+00  0.15229482897E+04  0.15229482930E+04  0.10100000352E+00 0. -1.
       -3   -1    0    0    0  501  0.00000000000E+00  0.00000000000E+00 -0.16862658497E+04  0.16862658527E+04  0.10100000352E+00 0.  1.
    10030    2    1    2    0    0  0.00000000000E+00  0.00000000000E+00 -0.16331756004E+03  0.32092141457E+04  0.32050558198E+04 0.  0.
        3    1    3    3  502    0  0.32845160485E+03 -0.96043436673E+01 -0.16521716876E+04  0.16845307939E+04  0.10100000352E+00 0.  1.
       -3    1    3    3    0  502 -0.32845160485E+03  0.96043436673E+01  0.14888541275E+04  0.15246833519E+04  0.10100000352E+00 0. -1.
</event>
<event>
 5   0  0.3942564E-07  0.3244196E+04  0.7818609E-02  0.8177242E-01
        2   -1    0    0  501    0  0.00000000000E+00  0.00000000000E+00  0.24279353045E+04  0.24279353045E+04  0.25500000920E-02 0. -1.
       -2   -1    0    0    0  501  0.00000000000E+00  0.00000000000E+00 -0.10837198730E+04  0.10837198730E+04  0.25500000920E-02 0.  1.
    10030    2    1    2    0    0  0.00000000000E+00  0.00000000000E+00  0.13442154314E+04  0.35116551775E+04  0.32441958880E+04 0.  0.
        3    1    3    3  502    0 -0.17279711648E+03  0.16106103116E+04  0.57976763660E+03  0.17204810205E+04  0.10100000352E+00 0.  1.
       -3    1    3    3    0  502  0.17279711648E+03 -0.16106103116E+04  0.76444779481E+03  0.17911741570E+04  0.10100000352E+00 0. -1.
</event>
<event>
 5   0  0.3942564E-07  0.3192680E+04  0.7818609E-02  0.8190753E-01
        2   -1    0    0  501    0  0.00000000000E+00  0.00000000000E+00  0.13060764301E+04  0.13060764301E+04  0.25500000920E-02 0. -1.
       -2   -1    0    0    0  501  0.00000000000E+00  0.00000000000E+00 -0.19511120987E+04  0.19511120987E+04  0.25500000920E-02 0.  1.
    10030    2    1    2    0    0  0.00000000000E+00  0.00000000000E+00 -0.64503566853E+03  0.32571885288E+04  0.31926800808E+04 0.  0.
        3    1    3    3  502    0  0.14073053176E+04 -0.90555627144E+02 -0.10856919033E+04  0.17797290518E+04  0.10100000352E+00 0.  1.
       -3    1    3    3    0  502 -0.14073053176E+04  0.90555627144E+02  0.44065623480E+03  0.14774594770E+04  0.10100000352E+00 0. -1.
</event>
<event>
 5   0  0.1365455E-07  0.3196564E+04  0.7818609E-02  0.8189725E-01
        1   -1    0    0  501    0  0.00000000000E+00  0.00000000000E+00  0.22899465981E+04  0.22899465981E+04  0.50400001928E-02 0. -1.
       -1   -1    0    0    0  501  0.00000000000E+00  0.00000000000E+00 -0.11155301920E+04  0.11155301920E+04  0.50400001928E-02 0.  1.
    10030    2    1    2    0    0  0.00000000000E+00  0.00000000000E+00  0.11744164061E+04  0.34054767901E+04  0.31965635099E+04 0.  0.
        3    1    3    3  502    0 -0.15756151221E+04 -0.23492573489E+03  0.44932203137E+03  0.16551868209E+04  0.10100000352E+00 0. -1.
       -3    1    3    3    0  502  0.15756151221E+04  0.23492573489E+03  0.72509437469E+03  0.17502899692E+04  0.10100000352E+00 0.  1.
</event>
<event>
 5   0  0.3858721E-07  0.3198955E+04  0.7818609E-02  0.8189093E-01
        2   -1    0    0  501    0  0.00000000000E+00  0.00000000000E+00  0.19046286541E+04  0.19046286541E+04  0.25500000920E-02 0. -1.
       -2   -1    0    0    0  501  0.00000000000E+00  0.00000000000E+00 -0.13432162163E+04  0.13432162163E+04  0.25500000920E-02 0.  1.
    10030    2    1    2    0    0  0.00000000000E+00  0.00000000000E+00  0.56141243778E+03  0.32478448704E+04  0.31989548882E+04 0.  0.
        2    1    3    3  502    0 -0.11329220358E+04 -0.59181856638E+03 -0.69553299338E+03  0.14551727387E+04  0.25500000920E-02 0.  1.
       -2    1    3    3    0  502  0.11329220358E+04  0.59181856638E+03  0.12569454312E+04  0.17926721316E+04  0.25500000920E-02 0. -1.
</event>
<event>
 5   0  0.3830207E-07  0.3238266E+04  0.7818609E-02  0.8178784E-01
       -2   -1    0    0    0  501  0.00000000000E+00  0.00000000000E+00  0.18193779188E+04  0.18193779188E+04  0.25500000920E-02 0. -1.
        2   -1    0    0  501    0  0.00000000000E+00  0.00000000000E+00 -0.14409276930E+04  0.14409276930E+04  0.25500000920E-02 0.  1.
    10030    2    1    2    0    0  0.00000000000E+00  0.00000000000E+00  0.37845022583E+03  0.32603056118E+04  0.32382662196E+04 0.  0.
        4    1    3    3  502    0  0.14184642692E+04  0.25436560696E+03  0.93238679798E+03  0.17164176353E+04  0.12699999809E+01 0. -1.
       -4    1    3    3    0  502 -0.14184642692E+04 -0.25436560696E+03 -0.55393657215E+03  0.15438879764E+04  0.12699999809E+01 0.  1.
</event>
<event>
 5   0  0.3830207E-07  0.3199733E+04  0.7818609E-02  0.8188888E-01
        2   -1    0    0  501    0  0.00000000000E+00  0.00000000000E+00  0.15228978918E+04  0.15228978918E+04  0.25500000920E-02 0.  1.
       -2   -1    0    0    0  501  0.00000000000E+00  0.00000000000E+00 -0.16807248095E+04  0.16807248095E+04  0.25500000920E-02 0. -1.
    10030    2    1    2    0    0  0.00000000000E+00  0.00000000000E+00 -0.15782691770E+03  0.32036227012E+04  0.31997326569E+04 0.  0.
        4    1    3    3  502    0  0.62482221738E+02 -0.13994052730E+04 -0.85272531773E+03  0.16399332994E+04  0.12699999809E+01 0. -1.
       -4    1    3    3    0  502 -0.62482221738E+02  0.13994052730E+04  0.69489840003E+03  0.15636894018E+04  0.12699999809E+01 0.  1.
</event>
<event>
 5   0  0.1270948E-07  0.3146769E+04  0.7818609E-02  0.8203018E-01
        1   -1    0    0  501    0  0.00000000000E+00  0.00000000000E+00  0.14528711547E+04  0.14528711547E+04  0.50400001928E-02 0. -1.
       -1   -1    0    0    0  501  0.00000000000E+00  0.00000000000E+00 -0.17038945969E+04  0.17038945969E+04  0.50400001928E-02 0.  1.
    10030    2    1    2    0    0  0.00000000000E+00  0.00000000000E+00 -0.25102344217E+03  0.31567657516E+04  0.31467693341E+04 0.  0.
        4    1    3    3  502    0 -0.10346343266E+04 -0.12784128461E+03  0.10566741049E+04  0.14843764215E+04  0.12699999809E+01 0. -1.
       -4    1    3    3    0  502  0.10346343266E+04  0.12784128461E+03 -0.13076975471E+04  0.16723893301E+04  0.12699999809E+01 0.  1.
</event>
<event>
 5   0  0.1277374E-07  0.3196926E+04  0.7818609E-02  0.8189630E-01
        1   -1    0    0  501    0  0.00000000000E+00  0.00000000000E+00  0.21719498638E+04  0.21719498638E+04  0.50400001928E-02 0. -1.
       -1   -1    0    0    0  501  0.00000000000E+00  0.00000000000E+00 -0.11764006898E+04  0.11764006898E+04  0.50400001928E-02 0.  1.
    10030    2    1    2    0    0  0.00000000000E+00  0.00000000000E+00  0.99554917408E+03  0.33483505536E+04  0.31969255969E+04 0.  0.
        5    1    3    3  502    0  0.14051197166E+02 -0.12797523443E+04  0.15007867512E+04  0.19723961219E+04  0.46999998093E+01 0. -1.
       -5    1    3    3    0  502 -0.14051197166E+02  0.12797523443E+04 -0.50523757713E+03  0.13759544317E+04  0.46999998093E+01 0.  1.
</event>
<event>
 5   0  0.1317293E-07  0.3191221E+04  0.7818609E-02  0.8191140E-01
       -1   -1    0    0    0  501  0.00000000000E+00  0.00000000000E+00  0.81776724195E+03  0.81776724196E+03  0.50400001928E-02 0. -1.
        1   -1    0    0  501    0  0.00000000000E+00  0.00000000000E+00 -0.31133221964E+04  0.31133221964E+04  0.50400001928E-02 0.  1.
    10030    2    1    2    0    0  0.00000000000E+00  0.00000000000E+00 -0.22955549545E+04  0.39310894384E+04  0.31912210239E+04 0.  0.
        1    1    3    3  502    0 -0.75068851126E+03 -0.13157980979E+04 -0.17650719588E+04  0.23260130900E+04  0.50400001928E-02 0.  1.
       -1    1    3    3    0  502  0.75068851126E+03  0.13157980979E+04 -0.53048299563E+03  0.16050763483E+04  0.50400001928E-02 0. -1.
</event>
<event>
 5   0  0.1270948E-07  0.3200448E+04  0.7818609E-02  0.8188699E-01
       -1   -1    0    0    0  501  0.00000000000E+00  0.00000000000E+00  0.12416259777E+04  0.12416259777E+04  0.50400001928E-02 0. -1.
        1   -1    0    0  501    0  0.00000000000E+00  0.00000000000E+00 -0.20623896957E+04  0.20623896957E+04  0.50400001928E-02 0.  1.
    10030    2    1    2    0    0  0.00000000000E+00  0.00000000000E+00 -0.82076371804E+03  0.33040156734E+04  0.32004478577E+04 0.  0.
        4    1    3    3  502    0  0.70640698895E+03  0.12381222421E+04 -0.11610700924E+04  0.18384892964E+04  0.12699999809E+01 0.  1.
       -4    1    3    3    0  502 -0.70640698895E+03 -0.12381222421E+04  0.34030637437E+03  0.14655263771E+04  0.12699999809E+01 0. -1.
</event>
<event>
 5   0  0.1317293E-07  0.3191552E+04  0.7818609E-02  0.8191052E-01
       -1   -1    0    0    0  501  0.00000000000E+00  0.00000000000E+00  0.12926152445E+04  0.12926152445E+04  0.50400001928E-02 0. -1.
        1   -1    0    0  501    0  0.00000000000E+00  0.00000000000E+00 -0.19700373345E+04  0.19700373345E+04  0.50400001928E-02 0.  1.
    10030    2    1    2    0    0  0.00000000000E+00  0.00000000000E+00 -0.67742208998E+03  0.32626525790E+04  0.31915515292E+04 0.  0.
        1    1    3    3  502    0 -0.52384091245E+03  0.78835199327E+02 -0.18775282728E+04  0.19508297479E+04  0.50400001928E-02 0.  1.
       -1    1    3    3    0  502  0.52384091245E+03 -0.78835199327E+02  0.12001061828E+04  0.13118228311E+04  0.50400001928E-02 0. -1.
</event>
<event>
 5   0  0.3858721E-07  0.3199290E+04  0.7818609E-02  0.8189005E-01
        2   -1    0    0  501    0  0.00000000000E+00  0.00000000000E+00  0.16285011191E+04  0.16285011191E+04  0.25500000920E-02 0. -1.
       -2   -1    0    0    0  501  0.00000000000E+00  0.00000000000E+00 -0.15712998612E+04  0.15712998612E+04  0.25500000920E-02 0.  1.
    10030    2    1    2    0    0  0.00000000000E+00  0.00000000000E+00  0.57201257923E+02  0.31998009802E+04  0.31992896601E+04 0.  0.
        2    1    3    3  502    0 -0.15063178010E+03  0.90209671129E+03  0.13412109190E+04  0.16233653744E+04  0.25500000920E-02 0. -1.
       -2    1    3    3    0  502  0.15063178010E+03 -0.90209671129E+03 -0.12840096610E+04  0.15764356058E+04  0.25500000920E-02 0.  1.
</event>
<event>
 5   0  0.1270948E-07  0.3204535E+04  0.7818609E-02  0.8187621E-01
       -1   -1    0    0    0  501  0.00000000000E+00  0.00000000000E+00  0.18461736856E+04  0.18461736856E+04  0.50400001928E-02 0.  1.
        1   -1    0    0  501    0  0.00000000000E+00  0.00000000000E+00 -0.13905848509E+04  0.13905848509E+04  0.50400001928E-02 0. -1.
    10030    2    1    2    0    0  0.00000000000E+00  0.00000000000E+00  0.45558883465E+03  0.32367585365E+04  0.32045350111E+04 0.  0.
        4    1    3    3  502    0 -0.15674821519E+04 -0.36134474475E+01 -0.10757779969E+03  0.15711740672E+04  0.12699999809E+01 0. -1.
       -4    1    3    3    0  502  0.15674821519E+04  0.36134474475E+01  0.56316663434E+03  0.16655844693E+04  0.12699999809E+01 0.  1.
</event>
<event>
 5   0  0.3830207E-07  0.3203574E+04  0.7818609E-02  0.8187874E-01
       -2   -1    0    0    0  501  0.00000000000E+00  0.00000000000E+00  0.14001698129E+04  0.14001698129E+04  0.25500000920E-02 0. -1.
        2   -1    0    0  501    0  0.00000000000E+00  0.00000000000E+00 -0.18324362902E+04  0.18324362902E+04  0.25500000920E-02 0.  1.
    10030    2    1    2    0    0  0.00000000000E+00  0.00000000000E+00 -0.43226647733E+03  0.32326061030E+04  0.32035742398E+04 0.  0.
        4    1    3    3  502    0 -0.14390633705E+04  0.18352793460E+03 -0.90135601915E+03  0.17079315482E+04  0.12699999809E+01 0.  1.
       -4    1    3    3    0  502  0.14390633705E+04 -0.18352793460E+03  0.46908954182E+03  0.15246745549E+04  0.12699999809E+01 0. -1.
</event>
<event>
 5   0  0.1317293E-07  0.3201478E+04  0.7818609E-02  0.8188427E-01
        1   -1    0    0  501    0  0.00000000000E+00  0.00000000000E+00  0.17985804959E+04  0.17985804959E+04  0.50400001928E-02 0.  1.
       -1   -1    0    0    0  501  0.00000000000E+00  0.00000000000E+00 -0.14246594156E+04  0.14246594156E+04  0.50400001928E-02 0. -1.
    10030    2    1    2    0    0  0.00000000000E+00  0.00000000000E+00  0.37392108039E+03  0.32232399115E+04  0.32014775578E+04 0.  0.
        1    1    3    3  502    0 -0.45967105520E+03 -0.67922120183E+03 -0.11970568818E+04  0.14510630925E+04  0.50400001928E-02 0. -1.
       -1    1    3    3    0  502  0.45967105520E+03  0.67922120183E+03  0.15709779622E+04  0.17721768190E+04  0.50400001928E-02 0.  1.
</event>
<event>
 5   0  0.1365455E-07  0.3195350E+04  0.7818609E-02  0.8190046E-01
        1   -1    0    0  501    0  0.00000000000E+00  0.00000000000E+00  0.25839879573E+04  0.25839879573E+04  0.50400001928E-02 0. -1.
       -1   -1    0    0    0  501  0.00000000000E+00  0.00000000000E+00 -0.98783977106E+03  0.98783977107E+03  0.50400001928E-02 0.  1.
    10030    2    1    2    0    0  0.00000000000E+00  0.00000000000E+00  0.15961481863E+04  0.35718277284E+04  0.31953504172E+04 0.  0.
        3    1    3    3  502    0 -0.71128314041E+03 -0.13904029075E+04  0.11745358597E+04  0.19541439166E+04  0.10100000352E+00 0.  1.
       -3    1    3    3    0  502  0.71128314041E+03  0.13904029075E+04  0.42161232662E+03  0.16176838118E+04  0.10100000352E+00 0. -1.
</event>
<event>
 5   0  0.3858721E-07  0.3195885E+04  0.7818609E-02  0.8189905E-01
       -2   -1    0    0    0  501  0.00000000000E+00  0.00000000000E+00  0.11156016480E+04  0.11156016480E+04  0.25500000920E-02 0. -1.
        2   -1    0    0  501    0  0.00000000000E+00  0.00000000000E+00 -0.22888285313E+04  0.22888285313E+04  0.25500000920E-02 0.  1.
    10030    2    1    2    0    0  0.00000000000E+00  0.00000000000E+00 -0.11732268833E+04  0.34044301793E+04  0.31958854057E+04 0.  0.
        2    1    3    3  502    0 -0.14108571857E+04 -0.43988409818E+03  0.60834027545E+02  0.14790932348E+04  0.25500000920E-02 0. -1.
       -2    1    3    3    0  502  0.14108571857E+04  0.43988409818E+03 -0.12340609108E+04  0.19253369445E+04  0.25500000920E-02 0.  1.
</event>
<event>
 5   0  0.3942564E-07  0.3202880E+04  0.7818609E-02  0.8188057E-01
        2   -1    0    0  501    0  0.00000000000E+00  0.00000000000E+00  0.18832500985E+04  0.18832500985E+04  0.25500000920E-02 0. -1.
       -2   -1    0    0    0  501  0.00000000000E+00  0.00000000000E+00 -0.13618003828E+04  0.13618003828E+04  0.25500000920E-02 0.  1.
    10030    2    1    2    0    0  0.00000000000E+00  0.00000000000E+00  0.52144971573E+03  0.32450504812E+04  0.32028803942E+04 0.  0.
        3    1    3    3  502    0 -0.11550694587E+04 -0.82772307239E+02 -0.85999186836E+03  0.14424363879E+04  0.10100000352E+00 0.  1.
       -3    1    3    3    0  502  0.11550694587E+04  0.82772307239E+02  0.13814415841E+04  0.18026140934E+04  0.10100000352E+00 0. -1.
</event>
<event>
 5   0  0.3764056E-07  0.3199822E+04  0.7818609E-02  0.8188864E-01
        2   -1    0    0  501    0  0.00000000000E+00  0.00000000000E+00  0.22537945556E+04  0.22537945556E+04  0.25500000920E-02 0.  1.
       -2   -1    0    0    0  501  0.00000000000E+00  0.00000000000E+00 -0.11357358815E+04  0.11357358815E+04  0.25500000920E-02 0. -1.
    10030    2    1    2    0    0  0.00000000000E+00  0.00000000000E+00  0.11180586741E+04  0.33895304371E+04  0.31998220865E+04 0.  0.
        5    1    3    3  502    0 -0.13051411782E+04 -0.42411492831E+03  0.14302415307E+04  0.19821402306E+04  0.46999998093E+01 0.  1.
       -5    1    3    3    0  502  0.13051411782E+04  0.42411492831E+03 -0.31218285655E+03  0.14073902065E+04  0.46999998093E+01 0. -1.
</event>
<event>
 5   0  0.1270948E-07  0.3202628E+04  0.7818609E-02  0.8188123E-01
       -1   -1    0    0    0  501  0.00000000000E+00  0.00000000000E+00  0.19299801216E+04  0.19299801216E+04  0.50400001928E-02 0. -1.
        1   -1    0    0  501    0  0.00000000000E+00  0.00000000000E+00 -0.13286183634E+04  0.13286183634E+04  0.50400001928E-02 0.  1.
    10030    2    1    2    0    0  0.00000000000E+00  0.00000000000E+00  0.60136175817E+03  0.32585984850E+04  0.32026283147E+04 0.  0.
        4    1    3    3  502    0 -0.97424816487E+03  0.58593462388E+02 -0.99099829617E+03  0.13909248421E+04  0.12699999809E+01 0.  1.
       -4    1    3    3    0  502  0.97424816487E+03 -0.58593462388E+02  0.15923600543E+04  0.18676736428E+04  0.12699999809E+01 0. -1.
</event>
<event>
 5   0  0.1317293E-07  0.3194656E+04  0.7818609E-02  0.8190230E-01
        1   -1    0    0  501    0  0.00000000000E+00  0.00000000000E+00  0.19073083701E+04  0.19073083701E+04  0.50400001928E-02 0. -1.
       -1   -1    0    0    0  501  0.00000000000E+00  0.00000000000E+00 -0.13377266700E+04  0.13377266700E+04  0.50400001928E-02 0.  1.
    10030    2    1    2    0    0  0.00000000000E+00  0.00000000000E+00  0.56958170005E+03  0.32450350401E+04  0.31946563350E+04 0.  0.
        1    1    3    3  502    0 -0.96937842062E+03 -0.18290477170E+03 -0.99132824121E+03  0.13985279260E+04  0.50400001928E-02 0.  1.
       -1    1    3    3    0  502  0.96937842062E+03  0.18290477170E+03  0.15609099413E+04  0.18465071142E+04  0.50400001928E-02 0. -1.
</event>
<event>
 5   0  0.1277374E-07  0.3201715E+04  0.7818609E-02  0.8188364E-01
        1   -1    0    0  501    0  0.00000000000E+00  0.00000000000E+00  0.88729036991E+03  0.88729036992E+03  0.50400001928E-02 0.  1.
       -1   -1    0    0    0  501  0.00000000000E+00  0.00000000000E+00 -0.28882825661E+04  0.28882825661E+04  0.50400001928E-02 0. -1.
    10030    2    1    2    0    0  0.00000000000E+00  0.00000000000E+00 -0.20009921962E+04  0.37755729360E+04  0.32017153568E+04 0.  0.
        5    1    3    3  502    0  0.78829342596E+02 -0.19549367499E+03  0.87084576966E+03  0.89600574036E+03  0.46999998093E+01 0.  1.
       -5    1    3    3    0  502 -0.78829342596E+02  0.19549367499E+03 -0.28718379659E+04  0.28795671957E+04  0.46999998093E+01 0. -1.
</event>
<event>
 5   0  0.3942564E-07  0.3198748E+04  0.7818609E-02  0.8189148E-01
       -2   -1    0    0    0  501  0.00000000000E+00  0.00000000000E+00  0.97156782656E+03  0.97156782656E+03  0.25500000920E-02 0.  1.
        2   -1    0    0  501    0  0.00000000000E+00  0.00000000000E+00 -0.26328548852E+04  0.26328548852E+04  0.25500000920E-02 0. -1.
    10030    2    1    2    0    0  0.00000000000E+00  0.00000000000E+00 -0.16612870586E+04  0.36044227117E+04  0.31987479416E+04 0.  0.
        3    1    3    3  502    0 -0.12147999736E+04  0.84704992265E+01 -0.20028570506E+04  0.23424873747E+04  0.10100000352E+00 0. -1.
       -3    1    3    3    0  502  0.12147999736E+04 -0.84704992265E+01  0.34156999203E+03  0.12619353370E+04  0.10100000352E+00 0.  1.
</event>
<event>
 5   0  0.3858721E-07  0.3193529E+04  0.7818609E-02  0.8190528E-01
        2   -1    0    0  501    0  0.00000000000E+00  0.00000000000E+00  0.12710276755E+04  0.12710276755E+04  0.25500000920E-02 0. -1.
       -2   -1    0    0    0  501  0.00000000000E+00  0.00000000000E+00 -0.20059800316E+04  0.20059800316E+04  0.25500000920E-02 0.  1.
    10030    2    1    2    0    0  0.00000000000E+00  0.00000000000E+00 -0.73495235610E+03  0.32770077071E+04  0.31935285417E+04 0.  0.
        2    1    3    3  502    0 -0.17584210682E+03 -0.11997681348E+04  0.69857035601E+03  0.13994157946E+04  0.25500000920E-02 0. -1.
       -2    1    3    3    0  502  0.17584210682E+03  0.11997681348E+04 -0.14335227121E+04  0.18775919125E+04  0.25500000920E-02 0.  1.
</event>
<event>
 5   0  0.1288096E-07  0.3223055E+04  0.7818609E-02  0.8182755E-01
        1   -1    0    0  501    0  0.00000000000E+00  0.00000000000E+00  0.15870131320E+04  0.15870131321E+04  0.50400001928E-02 0. -1.
       -1   -1    0    0    0  501  0.00000000000E+00  0.00000000000E+00 -0.16364205484E+04  0.16364205484E+04  0.50400001928E-02 0.  1.
    10030    2    1    2    0    0  0.00000000000E+00  0.00000000000E+00 -0.49407416394E+02  0.32234336805E+04  0.32230550104E+04 0.  0.
        2    1    3    3  502    0  0.10743415173E+04  0.64270163650E+03 -0.10395868493E+04  0.16272725361E+04  0.25500000920E-02 0.  1.
       -2    1    3    3    0  502 -0.10743415173E+04 -0.64270163650E+03  0.99017943295E+03  0.15961611444E+04  0.25500000920E-02 0. -1.
</event>
<event>
 5   0  0.1288096E-07  0.3191845E+04  0.7818609E-02  0.8190974E-01
       -1   -1    0    0    0  501  0.00000000000E+00  0.00000000000E+00  0.14781303005E+04  0.14781303005E+04  0.50400001928E-02 0. -1.
        1   -1    0    0  501    0  0.00000000000E+00  0.00000000000E+00 -0.17231014562E+04  0.17231014562E+04  0.50400001928E-02 0.  1.
    10030    2    1    2    0    0  0.00000000000E+00  0.00000000000E+00 -0.24497115573E+03  0.32012317567E+04  0.31918449043E+04 0.  0.
        2    1    3    3  502    0  0.40869738144E+03  0.14675808885E+04 -0.59942721627E+03  0.16371133747E+04  0.25500000920E-02 0.  1.
       -2    1    3    3    0  502 -0.40869738144E+03 -0.14675808885E+04  0.35445606054E+03  0.15641183820E+04  0.25500000920E-02 0. -1.
</event>
<event>
 5   0  0.3750285E-07  0.3210519E+04  0.7818609E-02  0.8186045E-01
        2   -1    0    0  501    0  0.00000000000E+00  0.00000000000E+00  0.25997536619E+04  0.25997536619E+04  0.25500000920E-02 0.  1.
       -2   -1    0    0    0  501  0.00000000000E+00  0.00000000000E+00 -0.99119287679E+03  0.99119287679E+03  0.25500000920E-02 0. -1.
    10030    2    1    2    0    0  0.00000000000E+00  0.00000000000E+00  0.16085607852E+04  0.35909465387E+04  0.32105185320E+04 0.  0.
        1    1    3    3  502    0  0.80876728567E+03  0.86402109453E+03 -0.40876792664E+03  0.12520895304E+04  0.50400001928E-02 0. -1.
       -1    1    3    3    0  502 -0.80876728567E+03 -0.86402109453E+03  0.20173287118E+04  0.23388570084E+04  0.50400001928E-02 0.  1.
</event>
<event>
 5   0  0.1365455E-07  0.3173616E+04  0.7818609E-02  0.8195820E-01
        1   -1    0    0  501    0  0.00000000000E+00  0.00000000000E+00  0.19822399796E+04  0.19822399796E+04  0.50400001928E-02 0. -1.
       -1   -1    0    0    0  501  0.00000000000E+00  0.00000000000E+00 -0.12702597179E+04  0.12702597180E+04  0.50400001928E-02 0.  1.
    10030    2    1    2    0    0  0.00000000000E+00  0.00000000000E+00  0.71198026165E+03  0.32524996976E+04  0.31736159802E+04 0.  0.
        3    1    3    3  502    0  0.96367772867E+03  0.98925353562E+03  0.11568627254E+04  0.18015628488E+04  0.10100000352E+00 0.  1.
       -3    1    3    3    0  502 -0.96367772867E+03 -0.98925353562E+03 -0.44488246373E+03  0.14509368488E+04  0.10100000352E+00 0. -1.
</event>
<event>
 5   0  0.3750285E-07  0.3206135E+04  0.7818609E-02  0.8187199E-01
        2   -1    0    0  501    0  0.00000000000E+00  0.00000000000E+00  0.25291463689E+04  0.25291463689E+04  0.25500000920E-02 0.  1.
       -2   -1    0    0    0  501  0.00000000000E+00  0.00000000000E+00 -0.10160842839E+04  0.10160842839E+04  0.25500000920E-02 0. -1.
    10030    2    1    2    0    0  0.00000000000E+00  0.00000000000E+00  0.15130620850E+04  0.35452306528E+04  0.32061352916E+04 0.  0.
        1    1    3    3  502    0 -0.11663643667E+04  0.10958678892E+04  0.85843917117E+03  0.18161084981E+04  0.50400001928E-02 0.  1.
       -1    1    3    3    0  502  0.11663643667E+04 -0.10958678892E+04  0.65462291384E+03  0.17291221547E+04  0.50400001928E-02 0. -1.
</event>
<event>
 5   0  0.1288096E-07  0.3199719E+04  0.7818609E-02  0.8188891E-01
        1   -1    0    0  501    0  0.00000000000E+00  0.00000000000E+00  0.17618674144E+04  0.17618674144E+04  0.50400001928E-02 0. -1.
       -1   -1    0    0    0  501  0.00000000000E+00  0.00000000000E+00 -0.14527487332E+04  0.14527487332E+04  0.50400001928E-02 0.  1.
    10030    2    1    2    0    0  0.00000000000E+00  0.00000000000E+00  0.30911868122E+03  0.32146161476E+04  0.31997191466E+04 0.  0.
        2    1    3    3  502    0  0.75187230860E+03  0.10430101511E+04  0.11110256261E+04  0.16992822266E+04  0.25500000920E-02 0. -1.
       -2    1    3    3    0  502 -0.75187230860E+03 -0.10430101511E+04 -0.80190694492E+03  0.15153339210E+04  0.25500000920E-02 0.  1.
</event>
<event>
 5   0  0.1270948E-07  0.3177911E+04  0.7818609E-02  0.8194675E-01
        1   -1    0    0  501    0  0.00000000000E+00  0.00000000000E+00  0.15799235296E+04  0.15799235297E+04  0.50400001928E-02 0.  1.
       -1   -1    0    0    0  501  0.00000000000E+00  0.00000000000E+00 -0.15980395712E+04  0.15980395712E+04  0.50400001928E-02 0. -1.
    10030    2    1    2    0    0  0.00000000000E+00  0.00000000000E+00 -0.18116041587E+02  0.31779631009E+04  0.31779114650E+04 0.  0.
        4    1    3    3  502    0  0.13805689208E+04  0.78523619668E+03 -0.56093637990E+02  0.15892496779E+04  0.12699999809E+01 0. -1.
       -4    1    3    3    0  502 -0.13805689208E+04 -0.78523619668E+03  0.37977596404E+02  0.15887134230E+04  0.12699999809E+01 0.  1.
</event>
<event>
 5   0  0.3830207E-07  0.3175372E+04  0.7818609E-02  0.8195352E-01
       -2   -1    0    0    0  501  0.00000000000E+00  0.00000000000E+00  0.89231255757E+03  0.89231255758E+03  0.25500000920E-02 0. -1.
        2   -1    0    0  501    0  0.00000000000E+00  0.00000000000E+00 -0.28249591382E+04  0.28249591382E+04  0.25500000920E-02 0.  1.
    10030    2    1    2    0    0  0.00000000000E+00  0.00000000000E+00 -0.19326465807E+04  0.37172716958E+04  0.31753717979E+04 0.  0.
        4    1    3    3  502    0  0.68650376624E+03 -0.69557574944E+03 -0.24311105245E+04  0.26201933210E+04  0.12699999809E+01 0.  1.
       -4    1    3    3    0  502 -0.68650376624E+03  0.69557574944E+03  0.49846394382E+03  0.10970783748E+04  0.12699999809E+01 0. -1.
</event>
<event>
 5   0  0.3858721E-07  0.3196692E+04  0.7818609E-02  0.8189691E-01
        2   -1    0    0  501    0  0.00000000000E+00  0.00000000000E+00  0.16080236846E+04  0.16080236846E+04  0.25500000920E-02 0. -1.
       -2   -1    0    0    0  501  0.00000000000E+00  0.00000000000E+00 -0.15887268313E+04  0.15887268313E+04  0.25500000920E-02 0.  1.
    10030    2    1    2    0    0  0.00000000000E+00  0.00000000000E+00  0.19296853317E+02  0.31967505158E+04  0.31966922736E+04 0.  0.
        2    1    3    3  502    0 -0.14999827719E+03  0.98729405040E+03 -0.12383572227E+04  0.15908418011E+04  0.25500000920E-02 0.  1.
       -2    1    3    3    0  502  0.14999827719E+03 -0.98729405040E+03  0.12576540760E+04  0.16059087147E+04  0.25500000920E-02 0. -1.
</event>
<event>
 5   0  0.1277374E-07  0.3198701E+04  0.7818609E-02  0.8189160E-01
        1   -1    0    0  501    0  0.00000000000E+00  0.00000000000E+00  0.22438094495E+04  0.22438094495E+04  0.50400001928E-02 0. -1.
       -1   -1    0    0    0  501  0.00000000000E+00  0.00000000000E+00 -0.11399909000E+04  0.11399909000E+04  0.50400001928E-02 0.  1.
    10030    2    1    2    0    0  0.00000000000E+00  0.00000000000E+00  0.11038185495E+04  0.33838003494E+04  0.31987012075E+04 0.  0.
        5    1    3    3  502    0  0.27436835520E+03 -0.79848512844E+03  0.19888352423E+04  0.21606351394E+04  0.46999998093E+01 0. -1.
       -5    1    3    3    0  502 -0.27436835520E+03  0.79848512844E+03 -0.88501669274E+03  0.12231652101E+04  0.46999998093E+01 0.  1.
</event>
<event>
 5   0  0.3764056E-07  0.3199799E+04  0.7818609E-02  0.8188870E-01
        2   -1    0    0  501    0  0.00000000000E+00  0.00000000000E+00  0.15949017096E+04  0.15949017096E+04  0.25500000920E-02 0. -1.
       -2   -1    0    0    0  501  0.00000000000E+00  0.00000000000E+00 -0.16049126201E+04  0.16049126201E+04  0.25500000920E-02 0.  1.
    10030    2    1    2    0    0  0.00000000000E+00  0.00000000000E+00 -0.10010910510E+02  0.31998143298E+04  0.31997986697E+04 0.  0.
        5    1    3    3  502    0 -0.57267631317E+03  0.14492014951E+04  0.35764306039E+03  0.15987725860E+04  0.46999998093E+01 0. -1.
       -5    1    3    3    0  502  0.57267631317E+03 -0.14492014951E+04 -0.36765397090E+03  0.16010417438E+04  0.46999998093E+01 0.  1.
</event>
<event>
 5   0  0.3858721E-07  0.3165696E+04  0.7818609E-02  0.8197936E-01
       -2   -1    0    0    0  501  0.00000000000E+00  0.00000000000E+00  0.11803840717E+04  0.11803840717E+04  0.25500000920E-02 0.  1.
        2   -1    0    0  501    0  0.00000000000E+00  0.00000000000E+00 -0.21225357903E+04  0.21225357903E+04  0.25500000920E-02 0. -1.
    10030    2    1    2    0    0  0.00000000000E+00  0.00000000000E+00 -0.94215171861E+03  0.33029198619E+04  0.31656957772E+04 0.  0.
        2    1    3    3  502    0 -0.94967425216E+03 -0.11920050439E+04 -0.25174321949E+02  0.15242673507E+04  0.25500000920E-02 0. -1.
       -2    1    3    3    0  502  0.94967425216E+03  0.11920050439E+04 -0.91697739666E+03  0.17786525113E+04  0.25500000920E-02 0.  1.
</event>
<event>
 5   0  0.1288096E-07  0.3213483E+04  0.7818609E-02  0.8185266E-01
        1   -1    0    0  501    0  0.00000000000E+00  0.00000000000E+00  0.16332600849E+04  0.16332600849E+04  0.50400001928E-02 0. -1.
       -1   -1    0    0    0  501  0.00000000000E+00  0.00000000000E+00 -0.15806529948E+04  0.15806529948E+04  0.50400001928E-02 0.  1.
    10030    2    1    2    0    0  0.00000000000E+00  0.00000000000E+00  0.52607090116E+02  0.32139130798E+04  0.32134825001E+04 0.  0.
        2    1    3    3  502    0  0.18259532968E+03  0.63201769566E+03  0.14923887784E+04  0.16309542262E+04  0.25500000920E-02 0. -1.
       -2    1    3    3    0  502 -0.18259532968E+03 -0.63201769566E+03 -0.14397816883E+04  0.15829588535E+04  0.25500000920E-02 0.  1.
</event>
<event>
 5   0  0.1365455E-07  0.3210253E+04  0.7818609E-02  0.8186115E-01
       -1   -1    0    0    0  501  0.00000000000E+00  0.00000000000E+00  0.25871818991E+04  0.25871818991E+04  0.50400001928E-02 0. -1.
        1   -1    0    0  501    0  0.00000000000E+00  0.00000000000E+00 -0.99584428634E+03  0.99584428635E+03  0.50400001928E-02 0.  1.
    10030    2    1    2    0    0  0.00000000000E+00  0.00000000000E+00  0.15913376128E+04  0.35830261854E+04  0.32102525209E+04 0.  0.
        3    1    3    3  502    0  0.10663252589E+04  0.11775320199E+04  0.10521313758E+04  0.19054164001E+04  0.10100000352E+00 0. -1.
       -3    1    3    3    0  502 -0.10663252589E+04 -0.11775320199E+04  0.53920623699E+03  0.16776097854E+04  0.10100000352E+00 0.  1.
</event>
<event>
 5   0  0.3750285E-07  0.3241888E+04  0.7818609E-02  0.8177842E-01
        2   -1    0    0  501    0  0.00000000000E+00  0.00000000000E+00  0.13758806527E+04  0.13758806527E+04  0.25500000920E-02 0.  1.
       -2   -1    0    0    0  501  0.00000000000E+00  0.00000000000E+00 -0.19096560060E+04  0.19096560060E+04  0.25500000920E-02 0. -1.
    10030    2    1    2    0    0  0.00000000000E+00  0.00000000000E+00 -0.53377535330E+03  0.32855366587E+04  0.32418875687E+04 0.  0.
        1    1    3    3  502    0  0.13784588980E+03 -0.61397469932E+03  0.12470432731E+04  0.13968118505E+04  0.50400001928E-02 0.  1.
       -1    1    3    3    0  502 -0.13784588980E+03  0.61397469932E+03 -0.17808186264E+04  0.18887248082E+04  0.50400001928E-02 0. -1.
</event>
<event>
 5   0  0.1365455E-07  0.3200193E+04  0.7818609E-02  0.8188766E-01
       -1   -1    0    0    0  501  0.00000000000E+00  0.00000000000E+00  0.12850684386E+04  0.12850684387E+04  0.50400001928E-02 0. -1.
        1   -1    0    0  501    0  0.00000000000E+00  0.00000000000E+00 -0.19923518511E+04  0.19923518511E+04  0.50400001928E-02 0.  1.
    10030    2    1    2    0    0  0.00000000000E+00  0.00000000000E+00 -0.70728341243E+03  0.32774202897E+04  0.32001927958E+04 0.  0.
        3    1    3    3  502    0  0.12373687186E+04  0.81939633314E+03  0.25897148452E+03  0.15065052063E+04  0.10100000352E+00 0. -1.
       -3    1    3    3    0  502 -0.12373687186E+04 -0.81939633314E+03 -0.96625489696E+03  0.17709150834E+04  0.10100000352E+00 0.  1.
</event>
<event>
 5   0  0.3858721E-07  0.3204090E+04  0.7818609E-02  0.8187738E-01
       -2   -1    0    0    0  501  0.00000000000E+00  0.00000000000E+00  0.23242688561E+04  0.23242688561E+04  0.25500000920E-02 0.  1.
        2   -1    0    0  501    0  0.00000000000E+00  0.00000000000E+00 -0.11042390579E+04  0.11042390579E+04  0.25500000920E-02 0. -1.
    10030    2    1    2    0    0  0.00000000000E+00  0.00000000000E+00  0.12200297981E+04  0.34285079140E+04  0.32040901685E+04 0.  0.
        2    1    3    3  502    0 -0.11245274468E+04 -0.81593634962E+03  0.14635256230E+04  0.20179745673E+04  0.25500000920E-02 0.  1.
       -2    1    3    3    0  502  0.11245274468E+04  0.81593634962E+03 -0.24349582484E+03  0.14105333466E+04  0.25500000920E-02 0. -1.
</event>
<event>
 5   0  0.3942564E-07  0.3220258E+04  0.7818609E-02  0.8183488E-01
        2   -1    0    0  501    0  0.00000000000E+00  0.00000000000E+00  0.14261484375E+04  0.14261484375E+04  0.25500000920E-02 0.  1.
       -2   -1    0    0    0  501  0.00000000000E+00  0.00000000000E+00 -0.18178439076E+04  0.18178439076E+04  0.25500000920E-02 0. -1.
    10030    2    1    2    0    0  0.00000000000E+00  0.00000000000E+00 -0.39169547016E+03  0.32439923451E+04  0.32202579080E+04 0.  0.
        3    1    3    3  502    0  0.12897176623E+04  0.63228020904E+03  0.53708971233E+03  0.15334977276E+04  0.10100000352E+00 0. -1.
       -3    1    3    3    0  502 -0.12897176623E+04 -0.63228020904E+03 -0.92878518249E+03  0.17104946175E+04  0.10100000352E+00 0.  1.
</event>
<event>
 5   0  0.3750285E-07  0.3157031E+04  0.7818609E-02  0.8200258E-01
       -2   -1    0    0    0  501  0.00000000000E+00  0.00000000000E+00  0.12187746827E+04  0.12187746827E+04  0.25500000920E-02 0. -1.
        2   -1    0    0  501    0  0.00000000000E+00  0.00000000000E+00 -0.20444400665E+04  0.20444400665E+04  0.25500000920E-02 0.  1.
    10030    2    1    2    0    0  0.00000000000E+00  0.00000000000E+00 -0.82566538378E+03  0.32632147491E+04  0.31570313861E+04 0.  0.
        1    1    3    3  502    0  0.13885814540E+03 -0.15716481533E+04 -0.36270101164E+03  0.16189229525E+04  0.50400001928E-02 0.  1.
       -1    1    3    3    0  502 -0.13885814540E+03  0.15716481533E+04 -0.46296437214E+03  0.16442917966E+04  0.50400001928E-02 0. -1.
</event>
<event>
 5   0  0.3764056E-07  0.3201508E+04  0.7818609E-02  0.8188419E-01
        2   -1    0    0  501    0  0.00000000000E+00  0.00000000000E+00  0.22985187192E+04  0.22985187192E+04  0.25500000920E-02 0. -1.
       -2   -1    0    0    0  501  0.00000000000E+00  0.00000000000E+00 -0.11148110331E+04  0.11148110331E+04  0.25500000920E-02 0.  1.
    10030    2    1    2    0    0  0.00000000000E+00  0.00000000000E+00  0.11837076860E+04  0.34133297523E+04  0.32015084120E+04 0.  0.
        5    1    3    3  502    0 -0.32772560285E+03 -0.56531437773E+03  0.21498413937E+04  0.22469589504E+04  0.46999998093E+01 0. -1.
       -5    1    3    3    0  502  0.32772560285E+03  0.56531437773E+03 -0.96613370772E+03  0.11663708019E+04  0.46999998093E+01 0.  1.
</event>
<event>
 5   0  0.1270948E-07  0.3204395E+04  0.7818609E-02  0.8187658E-01
       -1   -1    0    0    0  501  0.00000000000E+00  0.00000000000E+00  0.10200594415E+04  0.10200594415E+04  0.50400001928E-02 0.  1.
        1   -1    0    0  501    0  0.00000000000E+00  0.00000000000E+00 -0.25165554772E+04  0.25165554772E+04  0.50400001928E-02 0. -1.
    10030    2    1    2    0    0  0.00000000000E+00  0.00000000000E+00 -0.14964960356E+04  0.35366149187E+04  0.32043945916E+04 0.  0.
        4    1    3    3  502    0  0.83509216259E+02  0.23124536485E+03  0.99911492040E+03  0.10289219820E+04  0.12699999809E+01 0.  1.
       -4    1    3    3    0  502 -0.83509216259E+02 -0.23124536485E+03 -0.24956109560E+04  0.25076929367E+04  0.12699999809E+01 0. -1.
</event>
<event>
 5   0  0.1277374E-07  0.3198552E+04  0.7818609E-02  0.8189200E-01
       -1   -1    0    0    0  501  0.00000000000E+00  0.00000000000E+00  0.11420901622E+04  0.11420901622E+04  0.50400001928E-02 0. -1.
        1   -1    0    0  501    0  0.00000000000E+00  0.00000000000E+00 -0.22394761612E+04  0.22394761612E+04  0.50400001928E-02 0.  1.
    10030    2    1    2    0    0  0.00000000000E+00  0.00000000000E+00 -0.10973859990E+04  0.33815663234E+04  0.31985519800E+04 0.  0.
        5    1    3    3  502    0 -0.30860819688E+03 -0.98701070104E+03  0.74104021134E+03  0.12722389037E+04  0.46999998093E+01 0. -1.
       -5    1    3    3    0  502  0.30860819688E+03  0.98701070104E+03 -0.18384262103E+04  0.21093274198E+04  0.46999998093E+01 0.  1.
</event>
<event>
 5   0  0.3830207E-07  0.3205623E+04  0.7818609E-02  0.8187334E-01
        2   -1    0    0  501    0  0.00000000000E+00  0.00000000000E+00  0.16275393553E+04  0.16275393553E+04  0.25500000920E-02 0.  1.
       -2   -1    0    0    0  501  0.00000000000E+00  0.00000000000E+00 -0.15784592076E+04  0.15784592076E+04  0.25500000920E-02 0. -1.
    10030    2    1    2    0    0  0.00000000000E+00  0.00000000000E+00  0.49080147764E+02  0.32059985629E+04  0.32056228606E+04 0.  0.
        4    1    3    3  502    0 -0.11008703540E+04  0.19074835512E+03  0.11738929311E+04  0.16205945507E+04  0.12699999809E+01 0.  1.
       -4    1    3    3    0  502  0.11008703540E+04 -0.19074835512E+03 -0.11248127833E+04  0.15854040121E+04  0.12699999809E+01 0. -1.
</event>
<event>
 5   0  0.1270948E-07  0.3198980E+04  0.7818609E-02  0.8189087E-01
        1   -1    0    0  501    0  0.00000000000E+00  0.00000000000E+00  0.27807632891E+04  0.27807632891E+04  0.50400001928E-02 0.  1.
       -1   -1    0    0    0  501  0.00000000000E+00  0.00000000000E+00 -0.92002351468E+03  0.92002351469E+03  0.50400001928E-02 0. -1.
    10030    2    1    2    0    0  0.00000000000E+00  0.00000000000E+00  0.18607397745E+04  0.37007868038E+04  0.31989795966E+04 0.  0.
        4    1    3    3  502    0 -0.84050802205E+03 -0.23021714785E+03  0.24819978447E+04  0.26305453017E+04  0.12699999809E+01 0.  1.
       -4    1    3    3    0  502  0.84050802205E+03  0.23021714785E+03 -0.62125807020E+03  0.10702415022E+04  0.12699999809E+01 0. -1.
</event>
<event>
 5   0  0.1317293E-07  0.3203625E+04  0.7818609E-02  0.8187860E-01
        1   -1    0    0  501    0  0.00000000000E+00  0.00000000000E+00  0.28551892530E+04  0.28551892530E+04  0.50400001928E-02 0. -1.
       -1   -1    0    0    0  501  0.00000000000E+00  0.00000000000E+00 -0.89864563367E+03  0.89864563369E+03  0.50400001928E-02 0.  1.
    10030    2    1    2    0    0  0.00000000000E+00  0.00000000000E+00  0.19565436193E+04  0.37538348867E+04  0.32036250439E+04 0.  0.
        1    1    3    3  502    0 -0.14726479239E+04 -0.55534772564E+03  0.13272482887E+04  0.20588081562E+04  0.50400001928E-02 0.  1.
       -1    1    3    3    0  502  0.14726479239E+04  0.55534772564E+03  0.62929533059E+03  0.16950267305E+04  0.50400001928E-02 0. -1.
</event>
<event>
 5   0  0.3750285E-07  0.3194876E+04  0.7818609E-02  0.8190172E-01
        2   -1    0    0  501    0  0.00000000000E+00  0.00000000000E+00  0.18519142401E+04  0.18519142401E+04  0.25500000920E-02 0. -1.
       -2   -1    0    0    0  501  0.00000000000E+00  0.00000000000E+00 -0.13779296232E+04  0.13779296232E+04  0.25500000920E-02 0.  1.
    10030    2    1    2    0    0  0.00000000000E+00  0.00000000000E+00  0.47398461686E+03  0.32298438633E+04  0.31948755788E+04 0.  0.
        1    1    3    3  502    0  0.13759653552E+04  0.91061506909E+02 -0.57820479448E+03  0.14952904873E+04  0.50400001928E-02 0.  1.
       -1    1    3    3    0  502 -0.13759653552E+04 -0.91061506909E+02  0.10521894113E+04  0.17345533760E+04  0.50400001928E-02 0. -1.
</event>
<event>
 5   0  0.1277374E-07  0.3199660E+04  0.7818609E-02  0.8188907E-01
       -1   -1    0    0    0  501  0.00000000000E+00  0.00000000000E+00  0.13287896950E+04  0.13287896950E+04  0.50400001928E-02 0.  1.
        1   -1    0    0  501    0  0.00000000000E+00  0.00000000000E+00 -0.19261552915E+04  0.19261552915E+04  0.50400001928E-02 0. -1.
    10030    2    1    2    0    0  0.00000000000E+00  0.00000000000E+00 -0.59736559646E+03  0.32549449865E+04  0.31996595459E+04 0.  0.
        5    1    3    3  502    0  0.14042614809E+04 -0.56240413247E+03 -0.82843444068E+03  0.17246954593E+04  0.46999998093E+01 0.  1.
       -5    1    3    3    0  502 -0.14042614809E+04  0.56240413247E+03  0.23106884422E+03  0.15302495272E+04  0.46999998093E+01 0. -1.
</event>
<event>
 5   0  0.3830207E-07  0.3203424E+04  0.7818609E-02  0.8187913E-01
        2   -1    0    0  501    0  0.00000000000E+00  0.00000000000E+00  0.16489743740E+04  0.16489743740E+04  0.25500000920E-02 0. -1.
       -2   -1    0    0    0  501  0.00000000000E+00  0.00000000000E+00 -0.15558045406E+04  0.15558045406E+04  0.25500000920E-02 0.  1.
    10030    2    1    2    0    0  0.00000000000E+00  0.00000000000E+00  0.93169833468E+02  0.32047789146E+04  0.32034243043E+04 0.  0.
        4    1    3    3  502    0 -0.75104004150E+03 -0.27019083656E+03 -0.13426764808E+04  0.15620006328E+04  0.12699999809E+01 0.  1.
       -4    1    3    3    0  502  0.75104004150E+03  0.27019083656E+03  0.14358463142E+04  0.16427782818E+04  0.12699999809E+01 0. -1.
</event>
<event>
 5   0  0.3750285E-07  0.3202234E+04  0.7818609E-02  0.8188228E-01
       -2   -1    0    0    0  501  0.00000000000E+00  0.00000000000E+00  0.14975753698E+04  0.14975753698E+04  0.25500000920E-02 0. -1.
        2   -1    0    0  501    0  0.00000000000E+00  0.00000000000E+00 -0.17118171295E+04  0.17118171295E+04  0.25500000920E-02 0.  1.
    10030    2    1    2    0    0  0.00000000000E+00  0.00000000000E+00 -0.21424175974E+03  0.32093924993E+04  0.32022337021E+04 0.  0.
        1    1    3    3  502    0  0.56285600049E+03 -0.89899903325E+03  0.10949640782E+04  0.15244515314E+04  0.50400001928E-02 0. -1.
       -1    1    3    3    0  502 -0.56285600049E+03  0.89899903325E+03 -0.13092058379E+04  0.16849409679E+04  0.50400001928E-02 0.  1.
</event>
<event>
 5   0  0.3942564E-07  0.3197561E+04  0.7818609E-02  0.8189462E-01
        2   -1    0    0  501    0  0.00000000000E+00  0.00000000000E+00  0.19718023390E+04  0.19718023390E+04  0.25500000920E-02 0. -1.
       -2   -1    0    0    0  501  0.00000000000E+00  0.00000000000E+00 -0.12963258883E+04  0.12963258883E+04  0.25500000920E-02 0.  1.
    10030    2    1    2    0    0  0.00000000000E+00  0.00000000000E+00  0.67547645074E+03  0.32681282272E+04  0.31975605818E+04 0.  0.
        3    1    3    3  502    0  0.12382790520E+04  0.37295386254E+03 -0.62304424513E+03  0.14354837985E+04  0.10100000352E+00 0.  1.
       -3    1    3    3    0  502 -0.12382790520E+04 -0.37295386254E+03  0.12985206959E+04  0.18326444287E+04  0.10100000352E+00 0. -1.
</event>
<event>
 5   0  0.3858721E-07  0.3193414E+04  0.7818609E-02  0.8190559E-01
        2   -1    0    0  501    0  0.00000000000E+00  0.00000000000E+00  0.14801499033E+04  0.14801499033E+04  0.25500000920E-02 0.  1.
       -2   -1    0    0    0  501  0.00000000000E+00  0.00000000000E+00 -0.17224430873E+04  0.17224430873E+04  0.25500000920E-02 0. -1.
    10030    2    1    2    0    0  0.00000000000E+00  0.00000000000E+00 -0.24229318401E+03  0.32025929905E+04  0.31934144541E+04 0.  0.
        2    1    3    3  502    0  0.39651604202E+03  0.55325210155E+03  0.13273596952E+04  0.14917092947E+04  0.25500000920E-02 0.  1.
       -2    1    3    3    0  502 -0.39651604202E+03 -0.55325210155E+03 -0.15696528792E+04  0.17108836958E+04  0.25500000920E-02 0. -1.
</event>
<event>
 5   0  0.3750285E-07  0.3206740E+04  0.7818609E-02  0.8187039E-01
       -2   -1    0    0    0  501  0.00000000000E+00  0.00000000000E+00  0.12103768634E+04  0.12103768634E+04  0.25500000920E-02 0. -1.
        2   -1    0    0  501    0  0.00000000000E+00  0.00000000000E+00 -0.21239631440E+04  0.21239631440E+04  0.25500000920E-02 0.  1.
    10030    2    1    2    0    0  0.00000000000E+00  0.00000000000E+00 -0.91358628062E+03  0.33343400073E+04  0.32067403063E+04 0.  0.
        1    1    3    3  502    0 -0.21322853340E+02 -0.89525317534E+03  0.92611452472E+03  0.12882627934E+04  0.50400001928E-02 0. -1.
       -1    1    3    3    0  502  0.21322853340E+02  0.89525317534E+03 -0.18397008053E+04  0.20460772139E+04  0.50400001928E-02 0.  1.
</event>
<event>
 5   0  0.3764056E-07  0.3199698E+04  0.7818609E-02  0.8188897E-01
       -2   -1    0    0    0  501  0.00000000000E+00  0.00000000000E+00  0.11070426019E+04  0.11070426019E+04  0.25500000920E-02 0.  1.
        2   -1    0    0  501    0  0.00000000000E+00  0.00000000000E+00 -0.23120308568E+04  0.23120308568E+04  0.25500000920E-02 0. -1.
    10030    2    1    2    0    0  0.00000000000E+00  0.00000000000E+00 -0.12049882549E+04  0.34190734587E+04  0.31996978953E+04 0.  0.
        5    1    3    3  502    0 -0.80733728892E+03 -0.85755265807E+02 -0.20755388160E+04  0.22286836767E+04  0.46999998093E+01 0. -1.
       -5    1    3    3    0  502  0.80733728892E+03  0.85755265807E+02  0.87055056113E+03  0.11903897820E+04  0.46999998093E+01 0.  1.
</event>
<event>
 5   0  0.3858721E-07  0.3267572E+04  0.7818609E-02  0.8171196E-01
        2   -1    0    0  501    0  0.00000000000E+00  0.00000000000E+00  0.18702413702E+04  0.18702413702E+04  0.25500000920E-02 0.  1.
       -2   -1    0    0    0  501  0.00000000000E+00  0.00000000000E+00 -0.14272254156E+04  0.14272254157E+04  0.25500000920E-02 0. -1.
    10030    2    1    2    0    0  0.00000000000E+00  0.00000000000E+00  0.44301595454E+03  0.32974667858E+04  0.32675715857E+04 0.  0.
        2    1    3    3  502    0 -0.65241356605E+03  0.14663967571E+04  0.52974166076E+03  0.16901447091E+04  0.25500000920E-02 0.  1.
       -2    1    3    3    0  502  0.65241356605E+03 -0.14663967571E+04 -0.86725706220E+02  0.16073220768E+04  0.25500000920E-02 0. -1.
</event>
<event>
 5   0  0.1365455E-07  0.3205430E+04  0.7818609E-02  0.8187385E-01
       -1   -1    0    0    0  501  0.00000000000E+00  0.00000000000E+00  0.14625211443E+04  0.14625211443E+04  0.50400001928E-02 0.  1.
        1   -1    0    0  501    0  0.00000000000E+00  0.00000000000E+00 -0.17563477033E+04  0.17563477033E+04  0.50400001928E-02 0. -1.
    10030    2    1    2    0    0  0.00000000000E+00  0.00000000000E+00 -0.29382655902E+03  0.32188688477E+04  0.32054301758E+04 0.  0.
        3    1    3    3  502    0  0.12498022382E+03  0.55531080922E+03 -0.16514287065E+04  0.17467704297E+04  0.10100000352E+00 0. -1.
       -3    1    3    3    0  502 -0.12498022382E+03 -0.55531080922E+03  0.13576021475E+04  0.14720984180E+04  0.10100000352E+00 0.  1.
</event>
<event>
 5   0  0.1317293E-07  0.3228388E+04  0.7818609E-02  0.8181360E-01
       -1   -1    0    0    0  501  0.00000000000E+00  0.00000000000E+00  0.11486148118E+04  0.11486148118E+04  0.50400001928E-02 0.  1.
        1   -1    0    0  501    0  0.00000000000E+00  0.00000000000E+00 -0.22684903080E+04  0.22684903080E+04  0.50400001928E-02 0. -1.
    10030    2    1    2    0    0  0.00000000000E+00  0.00000000000E+00 -0.11198754962E+04  0.34171051197E+04  0.32283875654E+04 0.  0.
        1    1    3    3  502    0 -0.56412949559E+03 -0.11661427595E+04  0.45942185512E+03  0.13744815256E+04  0.50400001928E-02 0.  1.
       -1    1    3    3    0  502  0.56412949559E+03  0.11661427595E+04 -0.15792973513E+04  0.20426235941E+04  0.50400001928E-02 0. -1.
</event>
<event>
 5   0  0.3858721E-07  0.3203719E+04  0.7818609E-02  0.8187836E-01
        2   -1    0    0  501    0  0.00000000000E+00  0.00000000000E+00  0.16334330756E+04  0.16334330756E+04  0.25500000920E-02 0. -1.
       -2   -1    0    0    0  501  0.00000000000E+00  0.00000000000E+00 -0.15708960053E+04  0.15708960053E+04  0.25500000920E-02 0.  1.
    10030    2    1    2    0    0  0.00000000000E+00  0.00000000000E+00  0.62537070291E+02  0.32043290808E+04  0.32037187725E+04 0.  0.
        2    1    3    3  502    0 -0.76148296410E+03  0.42328172916E+03  0.13757454863E+04  0.16284039333E+04  0.25500000920E-02 0. -1.
       -2    1    3    3    0  502  0.76148296410E+03 -0.42328172916E+03 -0.13132084160E+04  0.15759251476E+04  0.25500000920E-02 0.  1.
</event>
<event>
 5   0  0.3764056E-07  0.3202648E+04  0.7818609E-02  0.8188118E-01
       -2   -1    0    0    0  501  0.00000000000E+00  0.00000000000E+00  0.15368840472E+04  0.15368840472E+04  0.25500000920E-02 0. -1.
        2   -1    0    0  501    0  0.00000000000E+00  0.00000000000E+00 -0.16684662205E+04  0.16684662205E+04  0.25500000920E-02 0.  1.
    10030    2    1    2    0    0  0.00000000000E+00  0.00000000000E+00 -0.13158217335E+03  0.32053502677E+04  0.32026483526E+04 0.  0.
        5    1    3    3  502    0 -0.14610085744E+04 -0.45855002486E+03 -0.53459083338E+03  0.16219197357E+04  0.46999998093E+01 0.  1.
       -5    1    3    3    0  502  0.14610085744E+04  0.45855002486E+03  0.40300866003E+03  0.15834305321E+04  0.46999998093E+01 0. -1.
</event>
<event>
 5   0  0.3764056E-07  0.3199813E+04  0.7818609E-02  0.8188866E-01
        2   -1    0    0  501    0  0.00000000000E+00  0.00000000000E+00  0.11621875970E+04  0.11621875970E+04  0.25500000920E-02 0. -1.
       -2   -1    0    0    0  501  0.00000000000E+00  0.00000000000E+00 -0.22024854655E+04  0.22024854655E+04  0.25500000920E-02 0.  1.
    10030    2    1    2    0    0  0.00000000000E+00  0.00000000000E+00 -0.10402978685E+04  0.33646730625E+04  0.31998133012E+04 0.  0.
        5    1    3    3  502    0  0.95492527678E+03  0.11455056946E+04  0.89020382883E+02  0.14939920680E+04  0.46999998093E+01 0.  1.
       -5    1    3    3    0  502 -0.95492527678E+03 -0.11455056946E+04 -0.11293182514E+04  0.18706809946E+04  0.46999998093E+01 0. -1.
</event>
<event>
 5   0  0.1270948E-07  0.3129810E+04  0.7818609E-02  0.8207604E-01
        1   -1    0    0  501    0  0.00000000000E+00  0.00000000000E+00  0.19080759132E+04  0.19080759132E+04  0.50400001928E-02 0.  1.
       -1   -1    0    0    0  501  0.00000000000E+00  0.00000000000E+00 -0.12834538084E+04  0.12834538084E+04  0.50400001928E-02 0. -1.
    10030    2    1    2    0    0  0.00000000000E+00  0.00000000000E+00  0.62462210483E+03  0.31915297216E+04  0.31298097690E+04 0.  0.
        4    1    3    3  502    0 -0.54792339677E+03 -0.91797507684E+03 -0.85304086393E+03  0.13676909808E+04  0.12699999809E+01 0. -1.
       -4    1    3    3    0  502  0.54792339677E+03  0.91797507684E+03  0.14776629688E+04  0.18238387408E+04  0.12699999809E+01 0.  1.
</event>
<event>
 5   0  0.1277374E-07  0.3199524E+04  0.7818609E-02  0.8188943E-01
       -1   -1    0    0    0  501  0.00000000000E+00  0.00000000000E+00  0.10400090174E+04  0.10400090174E+04  0.50400001928E-02 0.  1.
        1   -1    0    0  501    0  0.00000000000E+00  0.00000000000E+00 -0.24607846467E+04  0.24607846467E+04  0.50400001928E-02 0. -1.
    10030    2    1    2    0    0  0.00000000000E+00  0.00000000000E+00 -0.14207756294E+04  0.35007936641E+04  0.31995238536E+04 0.  0.
        5    1    3    3  502    0 -0.86419588013E+02 -0.12420493148E+04 -0.18094947146E+04  0.21964626238E+04  0.46999998093E+01 0. -1.
       -5    1    3    3    0  502  0.86419588013E+02  0.12420493148E+04  0.38871908526E+03  0.13043310403E+04  0.46999998093E+01 0.  1.
</event>
<event>
 5   0  0.3750285E-07  0.3189035E+04  0.7818609E-02  0.8191719E-01
       -2   -1    0    0    0  501  0.00000000000E+00  0.00000000000E+00  0.21484464126E+04  0.21484464126E+04  0.25500000920E-02 0.  1.
        2   -1    0    0  501    0  0.00000000000E+00  0.00000000000E+00 -0.11834070126E+04  0.11834070126E+04  0.25500000920E-02 0. -1.
    10030    2    1    2    0    0  0.00000000000E+00  0.00000000000E+00  0.96503940001E+03  0.33318534253E+04  0.31890353093E+04 0.  0.
        1    1    3    3  502    0  0.46901065404E+03  0.10352845897E+04 -0.68591211464E+03  0.13275016400E+04  0.50400001928E-02 0. -1.
       -1    1    3    3    0  502 -0.46901065404E+03 -0.10352845897E+04  0.16509515147E+04  0.20043517852E+04  0.50400001928E-02 0.  1.
</event>
<event>
 5   0  0.3830207E-07  0.3192486E+04  0.7818609E-02  0.8190804E-01
        2   -1    0    0  501    0  0.00000000000E+00  0.00000000000E+00  0.23699407781E+04  0.23699407781E+04  0.25500000920E-02 0. -1.
       -2   -1    0    0    0  501  0.00000000000E+00  0.00000000000E+00 -0.10751289799E+04  0.10751289799E+04  0.25500000920E-02 0.  1.
    10030    2    1    2    0    0  0.00000000000E+00  0.00000000000E+00  0.12948117981E+04  0.34450697580E+04  0.31924861856E+04 0.  0.
        4    1    3    3  502    0  0.46773790412E+03 -0.11596600879E+04  0.17180739051E+04  0.21249399574E+04  0.12699999809E+01 0. -1.
       -4    1    3    3    0  502 -0.46773790412E+03  0.11596600879E+04 -0.42326210693E+03  0.13201298006E+04  0.12699999809E+01 0.  1.
</event>
<event>
 5   0  0.3858721E-07  0.3200082E+04  0.7818609E-02  0.8188795E-01
        2   -1    0    0  501    0  0.00000000000E+00  0.00000000000E+00  0.16468885190E+04  0.16468885190E+04  0.25500000920E-02 0. -1.
       -2   -1    0    0    0  501  0.00000000000E+00  0.00000000000E+00 -0.15545265787E+04  0.15545265787E+04  0.25500000920E-02 0.  1.
    10030    2    1    2    0    0  0.00000000000E+00  0.00000000000E+00  0.92361940285E+02  0.32014150976E+04  0.32000824832E+04 0.  0.
        2    1    3    3  502    0  0.11171160116E+04  0.46232903720E+03 -0.10023182855E+04  0.15704579802E+04  0.25500000920E-02 0.  1.
       -2    1    3    3    0  502 -0.11171160116E+04 -0.46232903720E+03  0.10946802258E+04  0.16309571174E+04  0.25500000920E-02 0. -1.
</event>
<event>
 5   0  0.3858721E-07  0.3162892E+04  0.7818609E-02  0.8198687E-01
        2   -1    0    0  501    0  0.00000000000E+00  0.00000000000E+00  0.12835316567E+04  0.12835316567E+04  0.25500000920E-02 0. -1.
       -2   -1    0    0    0  501  0.00000000000E+00  0.00000000000E+00 -0.19485081903E+04  0.19485081903E+04  0.25500000920E-02 0.  1.
    10030    2    1    2    0    0  0.00000000000E+00  0.00000000000E+00 -0.66497653366E+03  0.32320398470E+04  0.31628923128E+04 0.  0.
        2    1    3    3  502    0 -0.67291621084E+02 -0.10961168704E+04 -0.14953348497E+04  0.18552699719E+04  0.25500000920E-02 0.  1.
       -2    1    3    3    0  502  0.67291621084E+02  0.10961168704E+04  0.83035831604E+03  0.13767698751E+04  0.25500000920E-02 0. -1.
</event>
<event>
 5   0  0.1288096E-07  0.3189473E+04  0.7818609E-02  0.8191603E-01
        1   -1    0    0  501    0  0.00000000000E+00  0.00000000000E+00  0.14296497927E+04  0.14296497927E+04  0.50400001928E-02 0.  1.
       -1   -1    0    0    0  501  0.00000000000E+00  0.00000000000E+00 -0.17788868768E+04  0.17788868768E+04  0.50400001928E-02 0. -1.
    10030    2    1    2    0    0  0.00000000000E+00  0.00000000000E+00 -0.34923708410E+03  0.32085366696E+04  0.31894734705E+04 0.  0.
        2    1    3    3  502    0  0.71309445514E+02 -0.13685935465E+04  0.64576282813E+03  0.15149729247E+04  0.25500000920E-02 0.  1.
       -2    1    3    3    0  502 -0.71309445514E+02  0.13685935465E+04 -0.99499991224E+03  0.16935637448E+04  0.25500000920E-02 0. -1.
</event>
<event>
 5   0  0.1365455E-07  0.3203374E+04  0.7818609E-02  0.8187927E-01
        1   -1    0    0  501    0  0.00000000000E+00  0.00000000000E+00  0.15179207772E+04  0.15179207772E+04  0.50400001928E-02 0.  1.
       -1   -1    0    0    0  501  0.00000000000E+00  0.00000000000E+00 -0.16900760496E+04  0.16900760496E+04  0.50400001928E-02 0. -1.
    10030    2    1    2    0    0  0.00000000000E+00  0.00000000000E+00 -0.17215527243E+03  0.32079968268E+04  0.32033741903E+04 0.  0.
        3    1    3    3  502    0  0.27765682809E+03  0.73509552478E+03  0.13116236262E+04  0.15289915931E+04  0.10100000352E+00 0.  1.
       -3    1    3    3    0  502 -0.27765682809E+03 -0.73509552478E+03 -0.14837788986E+04  0.16790052338E+04  0.10100000352E+00 0. -1.
</event>
<event>
 5   0  0.3764056E-07  0.3186746E+04  0.7818609E-02  0.8192326E-01
       -2   -1    0    0    0  501  0.00000000000E+00  0.00000000000E+00  0.12331277696E+04  0.12331277696E+04  0.25500000920E-02 0.  1.
        2   -1    0    0  501    0  0.00000000000E+00  0.00000000000E+00 -0.20588603113E+04  0.20588603113E+04  0.25500000920E-02 0. -1.
    10030    2    1    2    0    0  0.00000000000E+00  0.00000000000E+00 -0.82573254174E+03  0.32919880809E+04  0.31867461923E+04 0.  0.
        5    1    3    3  502    0  0.91220626055E+03  0.53358461218E+03 -0.16447166757E+04  0.19549802642E+04  0.46999998093E+01 0. -1.
       -5    1    3    3    0  502 -0.91220626055E+03 -0.53358461218E+03  0.81898413396E+03  0.13370078167E+04  0.46999998093E+01 0.  1.
</event>
<event>
 5   0  0.3750285E-07  0.3201698E+04  0.7818609E-02  0.8188369E-01
        2   -1    0    0  501    0  0.00000000000E+00  0.00000000000E+00  0.19106355909E+04  0.19106355909E+04  0.25500000920E-02 0.  1.
       -2   -1    0    0    0  501  0.00000000000E+00  0.00000000000E+00 -0.13412902585E+04  0.13412902585E+04  0.25500000920E-02 0. -1.
    10030    2    1    2    0    0  0.00000000000E+00  0.00000000000E+00  0.56934533241E+03  0.32519258493E+04  0.32016976156E+04 0.  0.
        1    1    3    3  502    0 -0.10335883166E+04 -0.55905719105E+03  0.13888648110E+04  0.18192842588E+04  0.50400001928E-02 0.  1.
       -1    1    3    3    0  502  0.10335883166E+04  0.55905719105E+03 -0.81951947857E+03  0.14326415905E+04  0.50400001928E-02 0. -1.
</event>
<event>
 5   0  0.1270948E-07  0.3202683E+04  0.7818609E-02  0.8188109E-01
        1   -1    0    0  501    0  0.00000000000E+00  0.00000000000E+00  0.12175685005E+04  0.12175685005E+04  0.50400001928E-02 0. -1.
       -1   -1    0    0    0  501  0.00000000000E+00  0.00000000000E+00 -0.21060777532E+04  0.21060777532E+04  0.50400001928E-02 0.  1.
    10030    2    1    2    0    0  0.00000000000E+00  0.00000000000E+00 -0.88850925271E+03  0.33236462537E+04  0.32026825830E+04 0.  0.
        4    1    3    3  502    0  0.11149996517E+04  0.97050679176E+03  0.19478277572E+03  0.14909894697E+04  0.12699999809E+01 0. -1.
       -4    1    3    3    0  502 -0.11149996517E+04 -0.97050679176E+03 -0.10832920284E+04  0.18326567840E+04  0.12699999809E+01 0.  1.
</event>
<event>
 5   0  0.1365455E-07  0.3197680E+04  0.7818609E-02  0.8189430E-01
       -1   -1    0    0    0  501  0.00000000000E+00  0.00000000000E+00  0.12844308643E+04  0.12844308643E+04  0.50400001928E-02 0.  1.
        1   -1    0    0  501    0  0.00000000000E+00  0.00000000000E+00 -0.19902115191E+04  0.19902115191E+04  0.50400001928E-02 0. -1.
    10030    2    1    2    0    0  0.00000000000E+00  0.00000000000E+00 -0.70578065486E+03  0.32746423834E+04  0.31976798474E+04 0.  0.
        3    1    3    3  502    0  0.72565036504E+02 -0.15955349016E+04 -0.42738581644E+03  0.16533771358E+04  0.10100000352E+00 0. -1.
       -3    1    3    3    0  502 -0.72565036504E+02  0.15955349016E+04 -0.27839483841E+03  0.16212652476E+04  0.10100000352E+00 0.  1.
</event>
<event>
 5   0  0.3764056E-07  0.3199620E+04  0.7818609E-02  0.8188918E-01
       -2   -1    0    0    0  501  0.00000000000E+00  0.00000000000E+00  0.11658330256E+04  0.11658330257E+04  0.25500000920E-02 0. -1.
        2   -1    0    0  501    0  0.00000000000E+00  0.00000000000E+00 -0.21953333531E+04  0.21953333531E+04  0.25500000920E-02 0.  1.
    10030    2    1    2    0    0  0.00000000000E+00  0.00000000000E+00 -0.10295003274E+04  0.33611663787E+04  0.31996200558E+04 0.  0.
        5    1    3    3  502    0  0.12417155907E+04 -0.56954826118E+03 -0.13893272061E+04  0.19484596495E+04  0.46999998093E+01 0.  1.
       -5    1    3    3    0  502 -0.12417155907E+04  0.56954826118E+03  0.35982687871E+03  0.14127067292E+04  0.46999998093E+01 0. -1.
</event>
<event>
 5   0  0.1230450E-07  0.3199095E+04  0.7818609E-02  0.8189056E-01
       -4   -1    0    0    0  501  0.00000000000E+00  0.00000000000E+00  0.13519032645E+04  0.13519038611E+04  0.12699999809E+01 0.  1.
        4   -1    0    0  501    0  0.00000000000E+00  0.00000000000E+00 -0.18925550093E+04  0.18925554354E+04  0.12699999809E+01 0. -1.
    10030    2    1    2    0    0  0.00000000000E+00  0.00000000000E+00 -0.54065174478E+03  0.32444592965E+04  0.31990954687E+04 0.  0.
        2    1    3    3  502    0  0.44249776909E+03  0.66383347902E+03 -0.16763739074E+04  0.18565313466E+04  0.25500000920E-02 0. -1.
       -2    1    3    3    0  502 -0.44249776909E+03 -0.66383347902E+03  0.11357221626E+04  0.13879279499E+04  0.25500000920E-02 0.  1.
</event>
<event>
 5   0  0.3858721E-07  0.3197267E+04  0.7818609E-02  0.8189539E-01
       -2   -1    0    0    0  501  0.00000000000E+00  0.00000000000E+00  0.14067358116E+04  0.14067358116E+04  0.25500000920E-02 0. -1.
        2   -1    0    0  501    0  0.00000000000E+00  0.00000000000E+00 -0.18167084923E+04  0.18167084923E+04  0.25500000920E-02 0.  1.
    10030    2    1    2    0    0  0.00000000000E+00  0.00000000000E+00 -0.40997268071E+03  0.32234443039E+04  0.31972668924E+04 0.  0.
        2    1    3    3  502    0  0.93053464723E+03 -0.32863262376E+03 -0.14729538053E+04  0.17729881679E+04  0.25500000920E-02 0.  1.
       -2    1    3    3    0  502 -0.93053464723E+03  0.32863262376E+03  0.10629811246E+04  0.14504561360E+04  0.25500000920E-02 0. -1.
</event>
<event>
 5   0  0.3830207E-07  0.3201918E+04  0.7818609E-02  0.8188311E-01
       -2   -1    0    0    0  501  0.00000000000E+00  0.00000000000E+00  0.11144712198E+04  0.11144712198E+04  0.25500000920E-02 0.  1.
        2   -1    0    0  501    0  0.00000000000E+00  0.00000000000E+00 -0.22998080901E+04  0.22998080901E+04  0.25500000920E-02 0. -1.
    10030    2    1    2    0    0  0.00000000000E+00  0.00000000000E+00 -0.11853368703E+04  0.34142793099E+04  0.32019181298E+04 0.  0.
        4    1    3    3  502    0 -0.45619564349E+03 -0.39762220554E+03 -0.21731486661E+04  0.22558356814E+04  0.12699999809E+01 0. -1.
       -4    1    3    3    0  502  0.45619564349E+03  0.39762220554E+03  0.98781179588E+03  0.11584436285E+04  0.12699999809E+01 0.  1.
</event>
<event>
 5   0  0.1317293E-07  0.3204751E+04  0.7818609E-02  0.8187563E-01
       -1   -1    0    0    0  501  0.00000000000E+00  0.00000000000E+00  0.15300119880E+04  0.15300119880E+04  0.50400001928E-02 0. -1.
        1   -1    0    0  501    0  0.00000000000E+00  0.00000000000E+00 -0.16781620280E+04  0.16781620281E+04  0.50400001928E-02 0.  1.
    10030    2    1    2    0    0  0.00000000000E+00  0.00000000000E+00 -0.14815004001E+03  0.32081740161E+04  0.32047514854E+04 0.  0.
        1    1    3    3  502    0  0.10780355550E+03  0.11863005829E+04 -0.11469832746E+04  0.16536327621E+04  0.50400001928E-02 0.  1.
       -1    1    3    3    0  502 -0.10780355550E+03 -0.11863005829E+04  0.99883323463E+03  0.15545412540E+04  0.50400001928E-02 0. -1.
</event>
<event>
 5   0  0.1317293E-07  0.3196296E+04  0.7818609E-02  0.8189796E-01
        1   -1    0    0  501    0  0.00000000000E+00  0.00000000000E+00  0.17064584575E+04  0.17064584575E+04  0.50400001928E-02 0.  1.
       -1   -1    0    0    0  501  0.00000000000E+00  0.00000000000E+00 -0.14967124279E+04  0.14967124280E+04  0.50400001928E-02 0. -1.
    10030    2    1    2    0    0  0.00000000000E+00  0.00000000000E+00  0.20974602958E+03  0.32031708855E+04  0.31962963449E+04 0.  0.
        1    1    3    3  502    0  0.26320625750E+03 -0.52975050299E+03 -0.13829630003E+04  0.15041608257E+04  0.50400001928E-02 0. -1.
       -1    1    3    3    0  502 -0.26320625750E+03  0.52975050299E+03  0.15927090299E+04  0.16990100598E+04  0.50400001928E-02 0.  1.
</event>
<event>
 5   0  0.1277374E-07  0.3229485E+04  0.7818609E-02  0.8181073E-01
        1   -1    0    0  501    0  0.00000000000E+00  0.00000000000E+00  0.21664014813E+04  0.21664014813E+04  0.50400001928E-02 0. -1.
       -1   -1    0    0    0  501  0.00000000000E+00  0.00000000000E+00 -0.12035598921E+04  0.12035598921E+04  0.50400001928E-02 0.  1.
    10030    2    1    2    0    0  0.00000000000E+00  0.00000000000E+00  0.96284158920E+03  0.33699613735E+04  0.32294853666E+04 0.  0.
        5    1    3    3  502    0 -0.32727678156E+02 -0.40278158595E+03  0.21127748279E+04  0.21510796522E+04  0.46999998093E+01 0. -1.
       -5    1    3    3    0  502  0.32727678156E+02  0.40278158595E+03 -0.11499332387E+04  0.12188817212E+04  0.46999998093E+01 0.  1.
</event>
<event>
 5   0  0.3750285E-07  0.3196516E+04  0.7818609E-02  0.8189738E-01
       -2   -1    0    0    0  501  0.00000000000E+00  0.00000000000E+00  0.12446820434E+04  0.12446820434E+04  0.25500000920E-02 0. -1.
        2   -1    0    0  501    0  0.00000000000E+00  0.00000000000E+00 -0.20522738917E+04  0.20522738917E+04  0.25500000920E-02 0.  1.
    10030    2    1    2    0    0  0.00000000000E+00  0.00000000000E+00 -0.80759184836E+03  0.32969559351E+04  0.31965158915E+04 0.  0.
        1    1    3    3  502    0 -0.12061312608E+04 -0.68342908962E+03 -0.12241494479E+04  0.18494241833E+04  0.50400001928E-02 0.  1.
       -1    1    3    3    0  502  0.12061312608E+04  0.68342908962E+03  0.41655759952E+03  0.14475317518E+04  0.50400001928E-02 0. -1.
</event>
<event>
 5   0  0.3830207E-07  0.3196600E+04  0.7818609E-02  0.8189716E-01
       -2   -1    0    0    0  501  0.00000000000E+00  0.00000000000E+00  0.13785492431E+04  0.13785492431E+04  0.25500000920E-02 0.  1.
        2   -1    0    0  501    0  0.00000000000E+00  0.00000000000E+00 -0.18530807947E+04  0.18530807947E+04  0.25500000920E-02 0. -1.
    10030    2    1    2    0    0  0.00000000000E+00  0.00000000000E+00 -0.47453155150E+03  0.32316300378E+04  0.31966001483E+04 0.  0.
        4    1    3    3  502    0  0.14688657889E+04  0.61189385099E+03 -0.38918133117E+03  0.16381222519E+04  0.12699999809E+01 0.  1.
       -4    1    3    3    0  502 -0.14688657889E+04 -0.61189385099E+03 -0.85350220336E+02  0.15935077859E+04  0.12699999809E+01 0. -1.
</event>
<event>
 5   0  0.1270948E-07  0.3203826E+04  0.7818609E-02  0.8187808E-01
       -1   -1    0    0    0  501  0.00000000000E+00  0.00000000000E+00  0.97803051267E+03  0.97803051269E+03  0.50400001928E-02 0.  1.
        1   -1    0    0  501    0  0.00000000000E+00  0.00000000000E+00 -0.26237677775E+04  0.26237677775E+04  0.50400001928E-02 0. -1.
    10030    2    1    2    0    0  0.00000000000E+00  0.00000000000E+00 -0.16457372648E+04  0.36017982902E+04  0.32038258034E+04 0.  0.
        4    1    3    3  502    0  0.12610673967E+04 -0.63309088157E+03  0.29632761541E+02  0.14113733584E+04  0.12699999809E+01 0.  1.
       -4    1    3    3    0  502 -0.12610673967E+04  0.63309088157E+03 -0.16753700263E+04  0.21904249317E+04  0.12699999809E+01 0. -1.
</event>
<event>
 5   0  0.1277374E-07  0.3200474E+04  0.7818609E-02  0.8188692E-01
        1   -1    0    0  501    0  0.00000000000E+00  0.00000000000E+00  0.19561365651E+04  0.19561365651E+04  0.50400001928E-02 0.  1.
       -1   -1    0    0    0  501  0.00000000000E+00  0.00000000000E+00 -0.13090894443E+04  0.13090894443E+04  0.50400001928E-02 0. -1.
    10030    2    1    2    0    0  0.00000000000E+00  0.00000000000E+00  0.64704712083E+03  0.32652260094E+04  0.32004735456E+04 0.  0.
        5    1    3    3  502    0 -0.26866243488E+03  0.54271594365E+03 -0.11876656881E+04  0.13331511452E+04  0.46999998093E+01 0. -1.
       -5    1    3    3    0  502  0.26866243488E+03 -0.54271594365E+03  0.18347128089E+04  0.19320748641E+04  0.46999998093E+01 0.  1.
</event>
<event>
 5   0  0.3750285E-07  0.3198796E+04  0.7818609E-02  0.8189135E-01
        2   -1    0    0  501    0  0.00000000000E+00  0.00000000000E+00  0.20310511496E+04  0.20310511496E+04  0.25500000920E-02 0. -1.
       -2   -1    0    0    0  501  0.00000000000E+00  0.00000000000E+00 -0.12594831387E+04  0.12594831387E+04  0.25500000920E-02 0.  1.
    10030    2    1    2    0    0  0.00000000000E+00  0.00000000000E+00  0.77156801092E+03  0.32905342884E+04  0.31987964467E+04 0.  0.
        1    1    3    3  502    0 -0.33533194753E+03 -0.97122890938E+03  0.16466361386E+04  0.19409131054E+04  0.50400001928E-02 0. -1.
       -1    1    3    3    0  502  0.33533194753E+03  0.97122890938E+03 -0.87506812771E+03  0.13496211830E+04  0.50400001928E-02 0.  1.
</event>
<event>
 5   0  0.1365455E-07  0.3248982E+04  0.7818609E-02  0.8176000E-01
        1   -1    0    0  501    0  0.00000000000E+00  0.00000000000E+00  0.17185781143E+04  0.17185781143E+04  0.50400001928E-02 0. -1.
       -1   -1    0    0    0  501  0.00000000000E+00  0.00000000000E+00 -0.15355544428E+04  0.15355544428E+04  0.50400001928E-02 0.  1.
    10030    2    1    2    0    0  0.00000000000E+00  0.00000000000E+00  0.18302367150E+03  0.32541325571E+04  0.32489815381E+04 0.  0.
        3    1    3    3  502    0 -0.47129424391E+03  0.11585825896E+04 -0.94673104041E+03  0.15686719078E+04  0.10100000352E+00 0.  1.
       -3    1    3    3    0  502  0.47129424391E+03 -0.11585825896E+04  0.11297547119E+04  0.16854606494E+04  0.10100000352E+00 0. -1.
</event>
<event>
 5   0  0.3858721E-07  0.3191205E+04  0.7818609E-02  0.8191144E-01
       -2   -1    0    0    0  501  0.00000000000E+00  0.00000000000E+00  0.15703755083E+04  0.15703755083E+04  0.25500000920E-02 0.  1.
        2   -1    0    0  501    0  0.00000000000E+00  0.00000000000E+00 -0.16212351884E+04  0.16212351884E+04  0.25500000920E-02 0. -1.
    10030    2    1    2    0    0  0.00000000000E+00  0.00000000000E+00 -0.50859680112E+02  0.31916106967E+04  0.31912054356E+04 0.  0.
        2    1    3    3  502    0 -0.59749239281E+03  0.10532771814E+03 -0.15013736486E+04  0.16193251435E+04  0.25500000920E-02 0. -1.
       -2    1    3    3    0  502  0.59749239281E+03 -0.10532771814E+03  0.14505139685E+04  0.15722855531E+04  0.25500000920E-02 0.  1.
</event>
<event>
 5   0  0.3858721E-07  0.3201218E+04  0.7818609E-02  0.8188496E-01
       -2   -1    0    0    0  501  0.00000000000E+00  0.00000000000E+00  0.10757251918E+04  0.10757251918E+04  0.25500000920E-02 0. -1.
        2   -1    0    0  501    0  0.00000000000E+00  0.00000000000E+00 -0.23816015660E+04  0.23816015660E+04  0.25500000920E-02 0.  1.
    10030    2    1    2    0    0  0.00000000000E+00  0.00000000000E+00 -0.13058763742E+04  0.34573267578E+04  0.32012177691E+04 0.  0.
        2    1    3    3  502    0 -0.73670083658E+03  0.13060245563E+04 -0.12576635805E+04  0.19570758662E+04  0.25500000920E-02 0.  1.
       -2    1    3    3    0  502  0.73670083658E+03 -0.13060245563E+04 -0.48212793647E+02  0.15002508916E+04  0.25500000920E-02 0. -1.
</event>
<event>
 5   0  0.3830207E-07  0.3201911E+04  0.7818609E-02  0.8188313E-01
        2   -1    0    0  501    0  0.00000000000E+00  0.00000000000E+00  0.29588602112E+04  0.29588602112E+04  0.25500000920E-02 0. -1.
       -2   -1    0    0    0  501  0.00000000000E+00  0.00000000000E+00 -0.86623172607E+03  0.86623172607E+03  0.25500000920E-02 0.  1.
    10030    2    1    2    0    0  0.00000000000E+00  0.00000000000E+00  0.20926284851E+04  0.38250919373E+04  0.32019110468E+04 0.  0.
        4    1    3    3  502    0 -0.34672464623E+03 -0.76159156419E+03 -0.58417427594E+03  0.10205395085E+04  0.12699999809E+01 0.  1.
       -4    1    3    3    0  502  0.34672464623E+03  0.76159156419E+03  0.26768027611E+04  0.28045524287E+04  0.12699999809E+01 0. -1.
</event>
<event>
 5   0  0.3764056E-07  0.3197544E+04  0.7818609E-02  0.8189466E-01
       -2   -1    0    0    0  501  0.00000000000E+00  0.00000000000E+00  0.19017108641E+04  0.19017108641E+04  0.25500000920E-02 0. -1.
        2   -1    0    0  501    0  0.00000000000E+00  0.00000000000E+00 -0.13440907117E+04  0.13440907117E+04  0.25500000920E-02 0.  1.
    10030    2    1    2    0    0  0.00000000000E+00  0.00000000000E+00  0.55762015234E+03  0.32458015758E+04  0.31975440005E+04 0.  0.
        5    1    3    3  502    0 -0.78611639256E+03 -0.34458437658E+03 -0.10903728332E+04  0.13876787743E+04  0.46999998093E+01 0.  1.
       -5    1    3    3    0  502  0.78611639256E+03  0.34458437658E+03  0.16479929855E+04  0.18581228015E+04  0.46999998093E+01 0. -1.
</event>
<event>
 5   0  0.3750285E-07  0.3241995E+04  0.7818609E-02  0.8177814E-01
       -2   -1    0    0    0  501  0.00000000000E+00  0.00000000000E+00  0.15996667261E+04  0.15996667261E+04  0.25500000920E-02 0. -1.
        2   -1    0    0  501    0  0.00000000000E+00  0.00000000000E+00 -0.16426122463E+04  0.16426122463E+04  0.25500000920E-02 0.  1.
    10030    2    1    2    0    0  0.00000000000E+00  0.00000000000E+00 -0.42945520143E+02  0.32422789724E+04  0.32419945430E+04 0.  0.
        1    1    3    3  502    0 -0.11779075200E+04 -0.96879707121E+03  0.52775504864E+03  0.16138647038E+04  0.50400001928E-02 0. -1.
       -1    1    3    3    0  502  0.11779075200E+04  0.96879707121E+03 -0.57070056879E+03  0.16284142686E+04  0.50400001928E-02 0.  1.
</event>
<event>
 5   0  0.3764056E-07  0.3199089E+04  0.7818609E-02  0.8189058E-01
        2   -1    0    0  501    0  0.00000000000E+00  0.00000000000E+00  0.24464518074E+04  0.24464518074E+04  0.25500000920E-02 0.  1.
       -2   -1    0    0    0  501  0.00000000000E+00  0.00000000000E+00 -0.10458176138E+04  0.10458176138E+04  0.25500000920E-02 0. -1.
    10030    2    1    2    0    0  0.00000000000E+00  0.00000000000E+00  0.14006341937E+04  0.34922694212E+04  0.31990888649E+04 0.  0.
        5    1    3    3  502    0  0.12106801682E+04 -0.64298860378E+03  0.16000733355E+04  0.21069972907E+04  0.46999998093E+01 0.  1.
       -5    1    3    3    0  502 -0.12106801682E+04  0.64298860378E+03 -0.19943914181E+03  0.13852721305E+04  0.46999998093E+01 0. -1.
</event>
<event>
 5   0  0.1270948E-07  0.3184135E+04  0.7818609E-02  0.8193020E-01
        1   -1    0    0  501    0  0.00000000000E+00  0.00000000000E+00  0.18971190343E+04  0.18971190343E+04  0.50400001928E-02 0. -1.
       -1   -1    0    0    0  501  0.00000000000E+00  0.00000000000E+00 -0.13360675973E+04  0.13360675973E+04  0.50400001928E-02 0.  1.
    10030    2    1    2    0    0  0.00000000000E+00  0.00000000000E+00  0.56105143699E+03  0.32331866317E+04  0.31841352170E+04 0.  0.
        4    1    3    3  502    0 -0.42128461448E+03 -0.12378273853E+04  0.12028020426E+04  0.17766349453E+04  0.12699999809E+01 0. -1.
       -4    1    3    3    0  502  0.42128461448E+03  0.12378273853E+04 -0.64175060562E+03  0.14565516864E+04  0.12699999809E+01 0.  1.
</event>
<event>
 5   0  0.1277374E-07  0.3213448E+04  0.7818609E-02  0.8185275E-01
       -1   -1    0    0    0  501  0.00000000000E+00  0.00000000000E+00  0.14365161601E+04  0.14365161601E+04  0.50400001928E-02 0. -1.
        1   -1    0    0  501    0  0.00000000000E+00  0.00000000000E+00 -0.17970986868E+04  0.17970986868E+04  0.50400001928E-02 0.  1.
    10030    2    1    2    0    0  0.00000000000E+00  0.00000000000E+00 -0.36058252671E+03  0.32336148468E+04  0.32134475597E+04 0.  0.
        5    1    3    3  502    0 -0.10611670404E+04  0.35772102655E+03  0.97911125390E+03  0.14875216832E+04  0.46999998093E+01 0. -1.
       -5    1    3    3    0  502  0.10611670404E+04 -0.35772102655E+03 -0.13396937806E+04  0.17460931637E+04  0.46999998093E+01 0.  1.
</event>
<event>
 5   0  0.3830207E-07  0.3200506E+04  0.7818609E-02  0.8188684E-01
       -2   -1    0    0    0  501  0.00000000000E+00  0.00000000000E+00  0.14039189162E+04  0.14039189162E+04  0.25500000920E-02 0. -1.
        2   -1    0    0  501    0  0.00000000000E+00  0.00000000000E+00 -0.18240440786E+04  0.18240440786E+04  0.25500000920E-02 0.  1.
    10030    2    1    2    0    0  0.00000000000E+00  0.00000000000E+00 -0.42012516237E+03  0.32279629949E+04  0.32005062012E+04 0.  0.
        4    1    3    3  502    0 -0.15867838587E+04 -0.17770249862E+03 -0.10262558401E+03  0.15999983799E+04  0.12699999809E+01 0. -1.
       -4    1    3    3    0  502  0.15867838587E+04  0.17770249862E+03 -0.31749957836E+03  0.16279646149E+04  0.12699999809E+01 0.  1.
</event>
<event>
 5   0  0.3858721E-07  0.3199473E+04  0.7818609E-02  0.8188956E-01
        2   -1    0    0  501    0  0.00000000000E+00  0.00000000000E+00  0.14869154688E+04  0.14869154688E+04  0.25500000920E-02 0. -1.
       -2   -1    0    0    0  501  0.00000000000E+00  0.00000000000E+00 -0.17211179025E+04  0.17211179025E+04  0.25500000920E-02 0.  1.
    10030    2    1    2    0    0  0.00000000000E+00  0.00000000000E+00 -0.23420243373E+03  0.32080333713E+04  0.31994729771E+04 0.  0.
        2    1    3    3  502    0 -0.14790701270E+04  0.35315861136E+03  0.38100494140E+03  0.15676524522E+04  0.25500000920E-02 0. -1.
       -2    1    3    3    0  502  0.14790701270E+04 -0.35315861136E+03 -0.61520737513E+03  0.16403809191E+04  0.25500000920E-02 0.  1.
</event>
<event>
 5   0  0.1277374E-07  0.3197566E+04  0.7818609E-02  0.8189460E-01
        1   -1    0    0  501    0  0.00000000000E+00  0.00000000000E+00  0.19180394135E+04  0.19180394135E+04  0.50400001928E-02 0. -1.
       -1   -1    0    0    0  501  0.00000000000E+00  0.00000000000E+00 -0.13326663945E+04  0.13326663945E+04  0.50400001928E-02 0.  1.
    10030    2    1    2    0    0  0.00000000000E+00  0.00000000000E+00  0.58537301903E+03  0.32507058080E+04  0.31975657427E+04 0.  0.
        5    1    3    3  502    0 -0.13795509021E+04  0.31160471372E+03  0.10506141866E+04  0.17618372366E+04  0.46999998093E+01 0. -1.
       -5    1    3    3    0  502  0.13795509021E+04 -0.31160471372E+03 -0.46524116758E+03  0.14888685714E+04  0.46999998093E+01 0.  1.
</event>
<event>
 5   0  0.1270948E-07  0.3199935E+04  0.7818609E-02  0.8188834E-01
       -1   -1    0    0    0  501  0.00000000000E+00  0.00000000000E+00  0.12936767965E+04  0.12936767965E+04  0.50400001928E-02 0.  1.
        1   -1    0    0  501    0  0.00000000000E+00  0.00000000000E+00 -0.19787751175E+04  0.19787751175E+04  0.50400001928E-02 0. -1.
    10030    2    1    2    0    0  0.00000000000E+00  0.00000000000E+00 -0.68509832103E+03  0.32724519140E+04  0.31999346587E+04 0.  0.
        4    1    3    3  502    0 -0.11592977969E+04  0.32890454436E+03 -0.14188952015E+04  0.18615624585E+04  0.12699999809E+01 0. -1.
       -4    1    3    3    0  502  0.11592977969E+04 -0.32890454436E+03  0.73379688045E+03  0.14108894556E+04  0.12699999809E+01 0.  1.
</event>
<event>
 5   0  0.3764056E-07  0.3203891E+04  0.7818609E-02  0.8187790E-01
        2   -1    0    0  501    0  0.00000000000E+00  0.00000000000E+00  0.90086814318E+03  0.90086814318E+03  0.25500000920E-02 0.  1.
       -2   -1    0    0    0  501  0.00000000000E+00  0.00000000000E+00 -0.28486181915E+04  0.28486181915E+04  0.25500000920E-02 0. -1.
    10030    2    1    2    0    0  0.00000000000E+00  0.00000000000E+00 -0.19477500483E+04  0.37494863347E+04  0.32038909974E+04 0.  0.
        5    1    3    3  502    0  0.13046269708E+04  0.18678070535E+03  0.91841467937E+02  0.13211341757E+04  0.46999998093E+01 0.  1.
       -5    1    3    3    0  502 -0.13046269708E+04 -0.18678070535E+03 -0.20395915162E+04  0.24283521590E+04  0.46999998093E+01 0. -1.
</event>
<event>
 5   0  0.1288096E-07  0.3197599E+04  0.7818609E-02  0.8189452E-01
        1   -1    0    0  501    0  0.00000000000E+00  0.00000000000E+00  0.25299763353E+04  0.25299763353E+04  0.50400001928E-02 0.  1.
       -1   -1    0    0    0  501  0.00000000000E+00  0.00000000000E+00 -0.10103492523E+04  0.10103492523E+04  0.50400001928E-02 0. -1.
    10030    2    1    2    0    0  0.00000000000E+00  0.00000000000E+00  0.15196270830E+04  0.35403255876E+04  0.31975989109E+04 0.  0.
        2    1    3    3  502    0 -0.11844445312E+04  0.97082888408E+03  0.25154304807E+03  0.15519959648E+04  0.25500000920E-02 0. -1.
       -2    1    3    3    0  502  0.11844445312E+04 -0.97082888408E+03  0.12680840349E+04  0.19883296229E+04  0.25500000920E-02 0.  1.
</event>
<event>
 5   0  0.1365455E-07  0.3190315E+04  0.7818609E-02  0.8191380E-01
       -1   -1    0    0    0  501  0.00000000000E+00  0.00000000000E+00  0.14248048842E+04  0.14248048843E+04  0.50400001928E-02 0. -1.
        1   -1    0    0  501    0  0.00000000000E+00  0.00000000000E+00 -0.17858783667E+04  0.17858783667E+04  0.50400001928E-02 0.  1.
    10030    2    1    2    0    0  0.00000000000E+00  0.00000000000E+00 -0.36107348243E+03  0.32106832509E+04  0.31903154825E+04 0.  0.
        3    1    3    3  502    0  0.12523943274E+04 -0.38201757528E+03  0.73637775001E+03  0.15022254092E+04  0.10100000352E+00 0. -1.
       -3    1    3    3    0  502 -0.12523943274E+04  0.38201757528E+03 -0.10974512324E+04  0.17084578417E+04  0.10100000352E+00 0.  1.
</event>
<event>
 5   0  0.1317293E-07  0.3192436E+04  0.7818609E-02  0.8190818E-01
       -1   -1    0    0    0  501  0.00000000000E+00  0.00000000000E+00  0.16993503654E+04  0.16993503654E+04  0.50400001928E-02 0. -1.
        1   -1    0    0  501    0  0.00000000000E+00  0.00000000000E+00 -0.14993449326E+04  0.14993449326E+04  0.50400001928E-02 0.  1.
    10030    2    1    2    0    0  0.00000000000E+00  0.00000000000E+00  0.20000543282E+03  0.31986952980E+04  0.31924362854E+04 0.  0.
        1    1    3    3  502    0  0.15739652926E+03  0.15870901051E+04  0.16558093898E+03  0.16034480711E+04  0.50400001928E-02 0. -1.
       -1    1    3    3    0  502 -0.15739652926E+03 -0.15870901051E+04  0.34424493840E+02  0.15952472269E+04  0.50400001928E-02 0.  1.
</event>
<event>
 5   0  0.3750285E-07  0.3205678E+04  0.7818609E-02  0.8187319E-01
       -2   -1    0    0    0  501  0.00000000000E+00  0.00000000000E+00  0.11241345087E+04  0.11241345087E+04  0.25500000920E-02 0.  1.
        2   -1    0    0  501    0  0.00000000000E+00  0.00000000000E+00 -0.22853957870E+04  0.22853957870E+04  0.25500000920E-02 0. -1.
    10030    2    1    2    0    0  0.00000000000E+00  0.00000000000E+00 -0.11612612783E+04  0.34095302957E+04  0.32056776321E+04 0.  0.
        1    1    3    3  502    0 -0.81232895004E+03  0.85443017775E+03 -0.17355765138E+04  0.20981313322E+04  0.50400001928E-02 0. -1.
       -1    1    3    3    0  502  0.81232895004E+03 -0.85443017775E+03  0.57431523555E+03  0.13113989635E+04  0.50400001928E-02 0.  1.
</event>
<event>
 5   0  0.3942564E-07  0.3204112E+04  0.7818609E-02  0.8187732E-01
        2   -1    0    0  501    0  0.00000000000E+00  0.00000000000E+00  0.15600293783E+04  0.15600293783E+04  0.25500000920E-02 0. -1.
       -2   -1    0    0    0  501  0.00000000000E+00  0.00000000000E+00 -0.16452148466E+04  0.16452148466E+04  0.25500000920E-02 0.  1.
    10030    2    1    2    0    0  0.00000000000E+00  0.00000000000E+00 -0.85185468301E+02  0.32052442250E+04  0.32041120420E+04 0.  0.
        3    1    3    3  502    0  0.53951966733E+03 -0.58462032150E+02 -0.15504687845E+04  0.16426967896E+04  0.10100000352E+00 0.  1.
       -3    1    3    3    0  502 -0.53951966733E+03  0.58462032150E+02  0.14652833162E+04  0.15625474353E+04  0.10100000352E+00 0. -1.
</event>
<event>
 5   0  0.3764056E-07  0.3202604E+04  0.7818609E-02  0.8188130E-01
        2   -1    0    0  501    0  0.00000000000E+00  0.00000000000E+00  0.20205157602E+04  0.20205157602E+04  0.25500000920E-02 0. -1.
       -2   -1    0    0    0  501  0.00000000000E+00  0.00000000000E+00 -0.12690658846E+04  0.12690658846E+04  0.25500000920E-02 0.  1.
    10030    2    1    2    0    0  0.00000000000E+00  0.00000000000E+00  0.75144987561E+03  0.32895816448E+04  0.32026037036E+04 0.  0.
        5    1    3    3  502    0 -0.13528949008E+02 -0.25762089267E+03 -0.12475735612E+04  0.12739754462E+04  0.46999998093E+01 0.  1.
       -5    1    3    3    0  502  0.13528949008E+02  0.25762089267E+03  0.19990234368E+04  0.20156061986E+04  0.46999998093E+01 0. -1.
</event>
<event>
 5   0  0.3830207E-07  0.3203956E+04  0.7818609E-02  0.8187773E-01
        2   -1    0    0  501    0  0.00000000000E+00  0.00000000000E+00  0.21652358269E+04  0.21652358269E+04  0.25500000920E-02 0. -1.
       -2   -1    0    0    0  501  0.00000000000E+00  0.00000000000E+00 -0.11852446665E+04  0.11852446665E+04  0.25500000920E-02 0.  1.
    10030    2    1    2    0    0  0.00000000000E+00  0.00000000000E+00  0.97999116040E+03  0.33504804935E+04  0.32039564389E+04 0.  0.
        4    1    3    3  502    0  0.65175311661E+03  0.46215459629E+03 -0.96201542122E+03  0.12505375962E+04  0.12699999809E+01 0.  1.
       -4    1    3    3    0  502 -0.65175311661E+03 -0.46215459629E+03  0.19420065816E+04  0.20999428973E+04  0.12699999809E+01 0. -1.
</event>
<event>
 5   0  0.3750285E-07  0.3200429E+04  0.7818609E-02  0.8188704E-01
        2   -1    0    0  501    0  0.00000000000E+00  0.00000000000E+00  0.21314490253E+04  0.21314490253E+04  0.25500000920E-02 0.  1.
       -2   -1    0    0    0  501  0.00000000000E+00  0.00000000000E+00 -0.12013830114E+04  0.12013830114E+04  0.25500000920E-02 0. -1.
    10030    2    1    2    0    0  0.00000000000E+00  0.00000000000E+00  0.93006601395E+03  0.33328320367E+04  0.32004291266E+04 0.  0.
        1    1    3    3  502    0 -0.14815110742E+04 -0.95851807251E+02  0.10869186156E+04  0.18399605183E+04  0.50400001928E-02 0.  1.
       -1    1    3    3    0  502  0.14815110742E+04  0.95851807251E+02 -0.15685260170E+03  0.14928715184E+04  0.50400001928E-02 0. -1.
</event>
<event>
 5   0  0.1288096E-07  0.3112192E+04  0.7818609E-02  0.8212400E-01
       -1   -1    0    0    0  501  0.00000000000E+00  0.00000000000E+00  0.17332105440E+04  0.17332105440E+04  0.50400001928E-02 0. -1.
        1   -1    0    0  501    0  0.00000000000E+00  0.00000000000E+00 -0.13970807176E+04  0.13970807176E+04  0.50400001928E-02 0.  1.
    10030    2    1    2    0    0  0.00000000000E+00  0.00000000000E+00  0.33612982638E+03  0.31302912615E+04  0.31121921730E+04 0.  0.
        2    1    3    3  502    0  0.12516483521E+04 -0.41455928877E+02  0.10970665751E+04  0.16649015772E+04  0.25500000920E-02 0. -1.
       -2    1    3    3    0  502 -0.12516483521E+04  0.41455928877E+02 -0.76093674876E+03  0.14653896844E+04  0.25500000920E-02 0.  1.
</event>
<event>
 5   0  0.1365455E-07  0.3199521E+04  0.7818609E-02  0.8188944E-01
        1   -1    0    0  501    0  0.00000000000E+00  0.00000000000E+00  0.14351946196E+04  0.14351946196E+04  0.50400001928E-02 0.  1.
       -1   -1    0    0    0  501  0.00000000000E+00  0.00000000000E+00 -0.17831962793E+04  0.17831962793E+04  0.50400001928E-02 0. -1.
    10030    2    1    2    0    0  0.00000000000E+00  0.00000000000E+00 -0.34800165969E+03  0.32183908989E+04  0.31995210303E+04 0.  0.
        3    1    3    3  502    0  0.11110885670E+04  0.95867575752E+03  0.46666732938E+03  0.15399205883E+04  0.10100000352E+00 0.  1.
       -3    1    3    3    0  502 -0.11110885670E+04 -0.95867575752E+03 -0.81466898907E+03  0.16784703106E+04  0.10100000352E+00 0. -1.
</event>
<event>
 5   0  0.3942564E-07  0.3199450E+04  0.7818609E-02  0.8188962E-01
       -2   -1    0    0    0  501  0.00000000000E+00  0.00000000000E+00  0.19279717943E+04  0.19279717943E+04  0.25500000920E-02 0. -1.
        2   -1    0    0  501    0  0.00000000000E+00  0.00000000000E+00 -0.13273639299E+04  0.13273639299E+04  0.25500000920E-02 0.  1.
    10030    2    1    2    0    0  0.00000000000E+00  0.00000000000E+00  0.60060786436E+03  0.32553357242E+04  0.31994500888E+04 0.  0.
        3    1    3    3  502    0 -0.11237297475E+04  0.11380032346E+04  0.33699346880E+03  0.16344370638E+04  0.10100000352E+00 0.  1.
       -3    1    3    3    0  502  0.11237297475E+04 -0.11380032346E+04  0.26361439556E+03  0.16208986604E+04  0.10100000352E+00 0. -1.
</event>
<event>
 5   0  0.3942564E-07  0.3196892E+04  0.7818609E-02  0.8189639E-01
       -2   -1    0    0    0  501  0.00000000000E+00  0.00000000000E+00  0.12864181124E+04  0.12864181124E+04  0.25500000920E-02 0. -1.
        2   -1    0    0  501    0  0.00000000000E+00  0.00000000000E+00 -0.19861574375E+04  0.19861574375E+04  0.25500000920E-02 0.  1.
    10030    2    1    2    0    0  0.00000000000E+00  0.00000000000E+00 -0.69973932503E+03  0.32725755499E+04  0.31968915538E+04 0.  0.
        3    1    3    3  502    0 -0.10096804040E+04  0.15054694563E+03  0.90925381702E+03  0.13670630618E+04  0.10100000352E+00 0. -1.
       -3    1    3    3    0  502  0.10096804040E+04 -0.15054694563E+03 -0.16089931420E+04  0.19055124881E+04  0.10100000352E+00 0.  1.
</event>
<event>
 5   0  0.1270948E-07  0.3247878E+04  0.7818609E-02  0.8176286E-01
       -1   -1    0    0    0  501  0.00000000000E+00  0.00000000000E+00  0.18253766086E+04  0.18253766086E+04  0.50400001928E-02 0. -1.
        1   -1    0    0  501    0  0.00000000000E+00  0.00000000000E+00 -0.14447306655E+04  0.14447306655E+04  0.50400001928E-02 0.  1.
    10030    2    1    2    0    0  0.00000000000E+00  0.00000000000E+00  0.38064594311E+03  0.32701072742E+04  0.32478778072E+04 0.  0.
        4    1    3    3  502    0  0.61413911279E+03 -0.84649590903E+03 -0.10605382580E+04  0.14894513028E+04  0.12699999809E+01 0.  1.
       -4    1    3    3    0  502 -0.61413911279E+03  0.84649590903E+03  0.14411842011E+04  0.17806559714E+04  0.12699999809E+01 0. -1.
</event>
<event>
 5   0  0.1317293E-07  0.3206101E+04  0.7818609E-02  0.8187208E-01
        1   -1    0    0  501    0  0.00000000000E+00  0.00000000000E+00  0.29791742980E+04  0.29791742980E+04  0.50400001928E-02 0. -1.
       -1   -1    0    0    0  501  0.00000000000E+00  0.00000000000E+00 -0.86257836241E+03  0.86257836242E+03  0.50400001928E-02 0.  1.
    10030    2    1    2    0    0  0.00000000000E+00  0.00000000000E+00  0.21165959356E+04  0.38417526604E+04  0.32061012382E+04 0.  0.
        1    1    3    3  502    0 -0.48701441357E+03  0.14106295100E+04  0.35681484573E+03  0.15343974347E+04  0.50400001928E-02 0. -1.
       -1    1    3    3    0  502  0.48701441357E+03 -0.14106295100E+04  0.17597810899E+04  0.23073552257E+04  0.50400001928E-02 0.  1.
</event>
<event>
 5   0  0.3764056E-07  0.3198378E+04  0.7818609E-02  0.8189246E-01
       -2   -1    0    0    0  501  0.00000000000E+00  0.00000000000E+00  0.14309201478E+04  0.14309201478E+04  0.25500000920E-02 0.  1.
        2   -1    0    0  501    0  0.00000000000E+00  0.00000000000E+00 -0.17872450797E+04  0.17872450797E+04  0.25500000920E-02 0. -1.
    10030    2    1    2    0    0  0.00000000000E+00  0.00000000000E+00 -0.35632493196E+03  0.32181652275E+04  0.31983777098E+04 0.  0.
        5    1    3    3  502    0 -0.13376127746E+03 -0.11898241831E+04  0.88849477686E+03  0.14909791161E+04  0.46999998093E+01 0.  1.
       -5    1    3    3    0  502  0.13376127746E+03  0.11898241831E+04 -0.12448197088E+04  0.17271861114E+04  0.46999998093E+01 0. -1.
</event>
<event>
 5   0  0.1270948E-07  0.3198665E+04  0.7818609E-02  0.8189170E-01
        1   -1    0    0  501    0  0.00000000000E+00  0.00000000000E+00  0.16942785660E+04  0.16942785660E+04  0.50400001928E-02 0. -1.
       -1   -1    0    0    0  501  0.00000000000E+00  0.00000000000E+00 -0.15097073197E+04  0.15097073197E+04  0.50400001928E-02 0.  1.
    10030    2    1    2    0    0  0.00000000000E+00  0.00000000000E+00  0.18457124637E+03  0.32039858857E+04  0.31986651920E+04 0.  0.
        4    1    3    3  502    0  0.46678482527E+03  0.55724939021E+03  0.15192423186E+04  0.16841952949E+04  0.12699999809E+01 0. -1.
       -4    1    3    3    0  502 -0.46678482527E+03 -0.55724939021E+03 -0.13346710722E+04  0.15197905908E+04  0.12699999809E+01 0.  1.
</event>
<event>
 5   0  0.1317293E-07  0.3192842E+04  0.7818609E-02  0.8190710E-01
        1   -1    0    0  501    0  0.00000000000E+00  0.00000000000E+00  0.18423179015E+04  0.18423179015E+04  0.50400001928E-02 0.  1.
       -1   -1    0    0    0  501  0.00000000000E+00  0.00000000000E+00 -0.13833445754E+04  0.13833445754E+04  0.50400001928E-02 0. -1.
    10030    2    1    2    0    0  0.00000000000E+00  0.00000000000E+00  0.45897332603E+03  0.32256624769E+04  0.31928422919E+04 0.  0.
        1    1    3    3  502    0  0.40138292653E+03  0.85433522743E+03 -0.10712115620E+04  0.14277573831E+04  0.50400001928E-02 0. -1.
       -1    1    3    3    0  502 -0.40138292653E+03 -0.85433522743E+03  0.15301848880E+04  0.17979050937E+04  0.50400001928E-02 0.  1.
</event>
<event>
 5   0  0.3830207E-07  0.3173334E+04  0.7818609E-02  0.8195895E-01
        2   -1    0    0  501    0  0.00000000000E+00  0.00000000000E+00  0.22797497512E+04  0.22797497512E+04  0.25500000920E-02 0. -1.
       -2   -1    0    0    0  501  0.00000000000E+00  0.00000000000E+00 -0.11042933203E+04  0.11042933203E+04  0.25500000920E-02 0.  1.
    10030    2    1    2    0    0  0.00000000000E+00  0.00000000000E+00  0.11754564309E+04  0.33840430715E+04  0.31733341596E+04 0.  0.
        4    1    3    3  502    0  0.58160823502E+03  0.90029074167E+03 -0.65987723396E+03  0.12586624390E+04  0.12699999809E+01 0.  1.
       -4    1    3    3    0  502 -0.58160823502E+03 -0.90029074167E+03  0.18353336649E+04  0.21253806325E+04  0.12699999809E+01 0. -1.
</event>
<event>
 5   0  0.1365455E-07  0.3201444E+04  0.7818609E-02  0.8188436E-01
       -1   -1    0    0    0  501  0.00000000000E+00  0.00000000000E+00  0.13934893235E+04  0.13934893235E+04  0.50400001928E-02 0.  1.
        1   -1    0    0  501    0  0.00000000000E+00  0.00000000000E+00 -0.18387737700E+04  0.18387737700E+04  0.50400001928E-02 0. -1.
    10030    2    1    2    0    0  0.00000000000E+00  0.00000000000E+00 -0.44528444651E+03  0.32322630935E+04  0.32014444346E+04 0.  0.
        3    1    3    3  502    0 -0.15618366413E+02 -0.15075169299E+04  0.32055219478E+03  0.15412997590E+04  0.10100000352E+00 0.  1.
       -3    1    3    3    0  502  0.15618366413E+02  0.15075169299E+04 -0.76583664129E+03  0.16909633345E+04  0.10100000352E+00 0. -1.
</event>
<event>
 5   0  0.1317293E-07  0.3195035E+04  0.7818609E-02  0.8190130E-01
        1   -1    0    0  501    0  0.00000000000E+00  0.00000000000E+00  0.22293422297E+04  0.22293422297E+04  0.50400001928E-02 0. -1.
       -1   -1    0    0    0  501  0.00000000000E+00  0.00000000000E+00 -0.11447599505E+04  0.11447599505E+04  0.50400001928E-02 0.  1.
    10030    2    1    2    0    0  0.00000000000E+00  0.00000000000E+00  0.10845822791E+04  0.33741021802E+04  0.31950347106E+04 0.  0.
        1    1    3    3  502    0  0.15330855858E+04 -0.32233499901E+03  0.21201648573E+03  0.15808865409E+04  0.50400001928E-02 0.  1.
       -1    1    3    3    0  502 -0.15330855858E+04  0.32233499901E+03  0.87256579339E+03  0.17932156393E+04  0.50400001928E-02 0. -1.
</event>
<event>
 5   0  0.1317293E-07  0.3195468E+04  0.7818609E-02  0.8190015E-01
        1   -1    0    0  501    0  0.00000000000E+00  0.00000000000E+00  0.15728659101E+04  0.15728659101E+04  0.50400001928E-02 0.  1.
       -1   -1    0    0    0  501  0.00000000000E+00  0.00000000000E+00 -0.16229957527E+04  0.16229957527E+04  0.50400001928E-02 0. -1.
    10030    2    1    2    0    0  0.00000000000E+00  0.00000000000E+00 -0.50129842596E+02  0.31958616629E+04  0.31954684738E+04 0.  0.
        1    1    3    3  502    0  0.37725874920E+03 -0.13760955057E+04  0.69390578259E+03  0.15866531567E+04  0.50400001928E-02 0. -1.
       -1    1    3    3    0  502 -0.37725874920E+03  0.13760955057E+04 -0.74403562518E+03  0.16092085061E+04  0.50400001928E-02 0.  1.
</event>
<event>
 5   0  0.1277374E-07  0.3196275E+04  0.7818609E-02  0.8189802E-01
        1   -1    0    0  501    0  0.00000000000E+00  0.00000000000E+00  0.12159700633E+04  0.12159700633E+04  0.50400001928E-02 0. -1.
       -1   -1    0    0    0  501  0.00000000000E+00  0.00000000000E+00 -0.21004169061E+04  0.21004169061E+04  0.50400001928E-02 0.  1.
    10030    2    1    2    0    0  0.00000000000E+00  0.00000000000E+00 -0.88444684285E+03  0.33163869694E+04  0.31962753813E+04 0.  0.
        5    1    3    3  502    0 -0.30470329410E+03  0.30234415196E+03  0.11550296564E+04  0.12322222531E+04  0.46999998093E+01 0. -1.
       -5    1    3    3    0  502  0.30470329410E+03 -0.30234415196E+03 -0.20394764993E+04  0.20841647163E+04  0.46999998093E+01 0.  1.
</event>
<event>
 5   0  0.1277374E-07  0.3205266E+04  0.7818609E-02  0.8187428E-01
        1   -1    0    0  501    0  0.00000000000E+00  0.00000000000E+00  0.29262186664E+04  0.29262186665E+04  0.50400001928E-02 0.  1.
       -1   -1    0    0    0  501  0.00000000000E+00  0.00000000000E+00 -0.87773076071E+03  0.87773076072E+03  0.50400001928E-02 0. -1.
    10030    2    1    2    0    0  0.00000000000E+00  0.00000000000E+00  0.20484879057E+04  0.38039494272E+04  0.32052657526E+04 0.  0.
        5    1    3    3  502    0 -0.85295100194E+03 -0.90942791907E+03 -0.17071309553E+03  0.12584711370E+04  0.46999998093E+01 0. -1.
       -5    1    3    3    0  502  0.85295100194E+03  0.90942791907E+03  0.22192010013E+04  0.25454782902E+04  0.46999998093E+01 0.  1.
</event>
<event>
 5   0  0.1288096E-07  0.3199535E+04  0.7818609E-02  0.8188940E-01
        1   -1    0    0  501    0  0.00000000000E+00  0.00000000000E+00  0.18119088315E+04  0.18119088315E+04  0.50400001928E-02 0.  1.
       -1   -1    0    0    0  501  0.00000000000E+00  0.00000000000E+00 -0.14124643026E+04  0.14124643026E+04  0.50400001928E-02 0. -1.
    10030    2    1    2    0    0  0.00000000000E+00  0.00000000000E+00  0.39944452890E+03  0.32243731341E+04  0.31995353063E+04 0.  0.
        2    1    3    3  502    0  0.24650160277E+02 -0.13849934640E+04 -0.60676645233E+03  0.15122764474E+04  0.25500000920E-02 0. -1.
       -2    1    3    3    0  502 -0.24650160277E+02  0.13849934640E+04  0.10062109812E+04  0.17120966867E+04  0.25500000920E-02 0.  1.
</event>
<event>
 5   0  0.1288096E-07  0.3202828E+04  0.7818609E-02  0.8188071E-01
        1   -1    0    0  501    0  0.00000000000E+00  0.00000000000E+00  0.13718664600E+04  0.13718664601E+04  0.50400001928E-02 0.  1.
       -1   -1    0    0    0  501  0.00000000000E+00  0.00000000000E+00 -0.18693706440E+04  0.18693706440E+04  0.50400001928E-02 0. -1.
    10030    2    1    2    0    0  0.00000000000E+00  0.00000000000E+00 -0.49750418396E+03  0.32412371041E+04  0.32028280553E+04 0.  0.
        2    1    3    3  502    0 -0.14996625328E+04 -0.18903727868E+02 -0.81689522336E+03  0.17078240158E+04  0.25500000920E-02 0. -1.
       -2    1    3    3    0  502  0.14996625328E+04  0.18903727868E+02  0.31939103940E+03  0.15334130882E+04  0.25500000920E-02 0.  1.
</event>
<event>
 5   0  0.1288096E-07  0.3242722E+04  0.7818609E-02  0.8177625E-01
        1   -1    0    0  501    0  0.00000000000E+00  0.00000000000E+00  0.24512306799E+04  0.24512306799E+04  0.50400001928E-02 0.  1.
       -1   -1    0    0    0  501  0.00000000000E+00  0.00000000000E+00 -0.10724455959E+04  0.10724455959E+04  0.50400001928E-02 0. -1.
    10030    2    1    2    0    0  0.00000000000E+00  0.00000000000E+00  0.13787850840E+04  0.35236762758E+04  0.32427220339E+04 0.  0.
        2    1    3    3  502    0 -0.11533853523E+04 -0.11046081264E+04  0.38522091236E+03  0.16428183208E+04  0.25500000920E-02 0. -1.
       -2    1    3    3    0  502  0.11533853523E+04  0.11046081264E+04  0.99356417168E+03  0.18808579550E+04  0.25500000920E-02 0.  1.
</event>
<event>
 5   0  0.3764056E-07  0.3197949E+04  0.7818609E-02  0.8189359E-01
       -2   -1    0    0    0  501  0.00000000000E+00  0.00000000000E+00  0.17628649823E+04  0.17628649823E+04  0.25500000920E-02 0. -1.
        2   -1    0    0  501    0  0.00000000000E+00  0.00000000000E+00 -0.14503209143E+04  0.14503209143E+04  0.25500000920E-02 0.  1.
    10030    2    1    2    0    0  0.00000000000E+00  0.00000000000E+00  0.31254406804E+03  0.32131858966E+04  0.31979493135E+04 0.  0.
        5    1    3    3  502    0 -0.15205284588E+03  0.13630142853E+04  0.98224091033E+03  0.16869342921E+04  0.46999998093E+01 0.  1.
       -5    1    3    3    0  502  0.15205284588E+03 -0.13630142853E+04 -0.66969684229E+03  0.15262516045E+04  0.46999998093E+01 0. -1.
</event>
<event>
 5   0  0.1317293E-07  0.3202513E+04  0.7818609E-02  0.8188154E-01
        1   -1    0    0  501    0  0.00000000000E+00  0.00000000000E+00  0.24552910070E+04  0.24552910071E+04  0.50400001928E-02 0. -1.
       -1   -1    0    0    0  501  0.00000000000E+00  0.00000000000E+00 -0.10442846694E+04  0.10442846695E+04  0.50400001928E-02 0.  1.
    10030    2    1    2    0    0  0.00000000000E+00  0.00000000000E+00  0.14110063376E+04  0.34995756765E+04  0.32025132366E+04 0.  0.
        1    1    3    3  502    0  0.68543640201E+03  0.48024080990E+03 -0.78625055908E+03  0.11483223582E+04  0.50400001928E-02 0.  1.
       -1    1    3    3    0  502 -0.68543640201E+03 -0.48024080990E+03  0.21972568967E+04  0.23512533183E+04  0.50400001928E-02 0. -1.
</event>
<event>
 5   0  0.1230450E-07  0.3197246E+04  0.7818609E-02  0.8189545E-01
       -3   -1    0    0    0  501  0.00000000000E+00  0.00000000000E+00  0.21884407732E+04  0.21884407755E+04  0.10100000352E+00 0. -1.
        3   -1    0    0  501    0  0.00000000000E+00  0.00000000000E+00 -0.11677697101E+04  0.11677697145E+04  0.10100000352E+00 0.  1.
    10030    2    1    2    0    0  0.00000000000E+00  0.00000000000E+00  0.10206710631E+04  0.33562104900E+04  0.31972456012E+04 0.  0.
        5    1    3    3  502    0  0.23851921238E+03 -0.11517602068E+04  0.16468135550E+04  0.20237242805E+04  0.46999998093E+01 0. -1.
       -5    1    3    3    0  502 -0.23851921238E+03  0.11517602068E+04 -0.62614249186E+03  0.13324862096E+04  0.46999998093E+01 0.  1.
</event>
<event>
 5   0  0.3764056E-07  0.3200036E+04  0.7818609E-02  0.8188808E-01
       -2   -1    0    0    0  501  0.00000000000E+00  0.00000000000E+00  0.10265839173E+04  0.10265839173E+04  0.25500000920E-02 0.  1.
        2   -1    0    0  501    0  0.00000000000E+00  0.00000000000E+00 -0.24937637450E+04  0.24937637450E+04  0.25500000920E-02 0. -1.
    10030    2    1    2    0    0  0.00000000000E+00  0.00000000000E+00 -0.14671798277E+04  0.35203476623E+04  0.32000360962E+04 0.  0.
        5    1    3    3  502    0  0.53584842168E+03 -0.92805952653E+03  0.57344647815E+03  0.12154385913E+04  0.46999998093E+01 0.  1.
       -5    1    3    3    0  502 -0.53584842168E+03  0.92805952653E+03 -0.20406263059E+04  0.23049090711E+04  0.46999998093E+01 0. -1.
</event>
<event>
 5   0  0.1270948E-07  0.3192987E+04  0.7818609E-02  0.8190672E-01
        1   -1    0    0  501    0  0.00000000000E+00  0.00000000000E+00  0.21720594295E+04  0.21720594295E+04  0.50400001928E-02 0.  1.
       -1   -1    0    0    0  501  0.00000000000E+00  0.00000000000E+00 -0.11734447749E+04  0.11734447749E+04  0.50400001928E-02 0. -1.
    10030    2    1    2    0    0  0.00000000000E+00  0.00000000000E+00  0.99861465461E+03  0.33455042044E+04  0.31929871834E+04 0.  0.
        4    1    3    3  502    0 -0.38633267178E+03 -0.15166248444E+04  0.82962188730E+03  0.17713491865E+04  0.12699999809E+01 0. -1.
       -4    1    3    3    0  502  0.38633267178E+03  0.15166248444E+04  0.16899276732E+03  0.15741550178E+04  0.12699999809E+01 0.  1.
</event>
<event>
 5   0  0.3830207E-07  0.3194992E+04  0.7818609E-02  0.8190141E-01
        2   -1    0    0  501    0  0.00000000000E+00  0.00000000000E+00  0.27620321747E+04  0.27620321747E+04  0.25500000920E-02 0. -1.
       -2   -1    0    0    0  501  0.00000000000E+00  0.00000000000E+00 -0.92395527883E+03  0.92395527884E+03  0.25500000920E-02 0.  1.
    10030    2    1    2    0    0  0.00000000000E+00  0.00000000000E+00  0.18380768959E+04  0.36859874536E+04  0.31949924621E+04 0.  0.
        4    1    3    3  502    0  0.10409703907E+04 -0.51470751991E+03  0.21846427252E+04  0.24741076442E+04  0.12699999809E+01 0. -1.
       -4    1    3    3    0  502 -0.10409703907E+04  0.51470751991E+03 -0.34656582934E+03  0.12118798094E+04  0.12699999809E+01 0.  1.
</event>
<event>
 5   0  0.3750285E-07  0.3202084E+04  0.7818609E-02  0.8188267E-01
       -2   -1    0    0    0  501  0.00000000000E+00  0.00000000000E+00  0.12011575809E+04  0.12011575809E+04  0.25500000920E-02 0. -1.
        2   -1    0    0  501    0  0.00000000000E+00  0.00000000000E+00 -0.21340547430E+04  0.21340547430E+04  0.25500000920E-02 0.  1.
    10030    2    1    2    0    0  0.00000000000E+00  0.00000000000E+00 -0.93289716214E+03  0.33352123239E+04  0.32020843416E+04 0.  0.
        1    1    3    3  502    0  0.11429214316E+04  0.11140047253E+04 -0.59844584307E+03  0.17045273110E+04  0.50400001928E-02 0.  1.
       -1    1    3    3    0  502 -0.11429214316E+04 -0.11140047253E+04 -0.33445131908E+03  0.16306850130E+04  0.50400001928E-02 0. -1.
</event>
<event>
 5   0  0.1365455E-07  0.3189225E+04  0.7818609E-02  0.8191669E-01
       -1   -1    0    0    0  501  0.00000000000E+00  0.00000000000E+00  0.13168921610E+04  0.13168921610E+04  0.50400001928E-02 0.  1.
        1   -1    0    0  501    0  0.00000000000E+00  0.00000000000E+00 -0.19309012048E+04  0.19309012048E+04  0.50400001928E-02 0. -1.
    10030    2    1    2    0    0  0.00000000000E+00  0.00000000000E+00 -0.61400904384E+03  0.32477933658E+04  0.31892247712E+04 0.  0.
        3    1    3    3  502    0 -0.11355040282E+04 -0.96344372622E+03 -0.88773615628E+03  0.17336864495E+04  0.10100000352E+00 0. -1.
       -3    1    3    3    0  502  0.11355040282E+04  0.96344372622E+03  0.27372711244E+03  0.15141069163E+04  0.10100000352E+00 0.  1.
</event>
<event>
 5   0  0.3942564E-07  0.3216607E+04  0.7818609E-02  0.8184445E-01
       -2   -1    0    0    0  501  0.00000000000E+00  0.00000000000E+00  0.12945866586E+04  0.12945866586E+04  0.25500000920E-02 0.  1.
        2   -1    0    0  501    0  0.00000000000E+00  0.00000000000E+00 -0.19980433351E+04  0.19980433351E+04  0.25500000920E-02 0. -1.
    10030    2    1    2    0    0  0.00000000000E+00  0.00000000000E+00 -0.70345667652E+03  0.32926299937E+04  0.32166070601E+04 0.  0.
        3    1    3    3  502    0 -0.88158196888E+03  0.17234928632E+03  0.10138742183E+04  0.13545597016E+04  0.10100000352E+00 0.  1.
       -3    1    3    3    0  502  0.88158196888E+03 -0.17234928632E+03 -0.17173308949E+04  0.19380702921E+04  0.10100000352E+00 0. -1.
</event>
<event>
 5   0  0.1270948E-07  0.3189090E+04  0.7818609E-02  0.8191705E-01
       -1   -1    0    0    0  501  0.00000000000E+00  0.00000000000E+00  0.17126318840E+04  0.17126318840E+04  0.50400001928E-02 0. -1.
        1   -1    0    0  501    0  0.00000000000E+00  0.00000000000E+00 -0.14845999698E+04  0.14845999698E+04  0.50400001928E-02 0.  1.
    10030    2    1    2    0    0  0.00000000000E+00  0.00000000000E+00  0.22803191422E+03  0.31972318538E+04  0.31890896778E+04 0.  0.
        4    1    3    3  502    0  0.80181729442E+03  0.13438569952E+04 -0.19288491876E+03  0.15767272440E+04  0.12699999809E+01 0. -1.
       -4    1    3    3    0  502 -0.80181729442E+03 -0.13438569952E+04  0.42091683298E+03  0.16205046098E+04  0.12699999809E+01 0.  1.
</event>
<event>
 5   0  0.3858721E-07  0.3198643E+04  0.7818609E-02  0.8189176E-01
        2   -1    0    0  501    0  0.00000000000E+00  0.00000000000E+00  0.22349871706E+04  0.22349871706E+04  0.25500000920E-02 0. -1.
       -2   -1    0    0    0  501  0.00000000000E+00  0.00000000000E+00 -0.11444489698E+04  0.11444489698E+04  0.25500000920E-02 0.  1.
    10030    2    1    2    0    0  0.00000000000E+00  0.00000000000E+00  0.10905382009E+04  0.33794361404E+04  0.31986426902E+04 0.  0.
        2    1    3    3  502    0 -0.65683287484E+03  0.98496070852E+03 -0.59079991439E+03  0.13231105629E+04  0.25500000920E-02 0.  1.
       -2    1    3    3    0  502  0.65683287484E+03 -0.98496070852E+03  0.16813381153E+04  0.20563255775E+04  0.25500000920E-02 0. -1.
</event>
<event>
 5   0  0.1270948E-07  0.3197070E+04  0.7818609E-02  0.8189591E-01
       -1   -1    0    0    0  501  0.00000000000E+00  0.00000000000E+00  0.16874071931E+04  0.16874071931E+04  0.50400001928E-02 0.  1.
        1   -1    0    0  501    0  0.00000000000E+00  0.00000000000E+00 -0.15143439415E+04  0.15143439416E+04  0.50400001928E-02 0. -1.
    10030    2    1    2    0    0  0.00000000000E+00  0.00000000000E+00  0.17306325159E+03  0.32017511347E+04  0.31970704464E+04 0.  0.
        4    1    3    3  502    0 -0.11718085143E+04 -0.59560404957E+03 -0.82443404899E+03  0.15516354250E+04  0.12699999809E+01 0. -1.
       -4    1    3    3    0  502  0.11718085143E+04  0.59560404957E+03  0.99749730058E+03  0.16501157097E+04  0.12699999809E+01 0.  1.
</event>
<event>
 5   0  0.1270948E-07  0.3171779E+04  0.7818609E-02  0.8196310E-01
        1   -1    0    0  501    0  0.00000000000E+00  0.00000000000E+00  0.23196744029E+04  0.23196744029E+04  0.50400001928E-02 0.  1.
       -1   -1    0    0    0  501  0.00000000000E+00  0.00000000000E+00 -0.10842235662E+04  0.10842235662E+04  0.50400001928E-02 0. -1.
    10030    2    1    2    0    0  0.00000000000E+00  0.00000000000E+00  0.12354508367E+04  0.34038979691E+04  0.31717790929E+04 0.  0.
        4    1    3    3  502    0 -0.12122911281E+04 -0.10199034296E+04  0.69504861640E+03  0.17300135771E+04  0.12699999809E+01 0.  1.
       -4    1    3    3    0  502  0.12122911281E+04  0.10199034296E+04  0.54040222031E+03  0.16738843920E+04  0.12699999809E+01 0. -1.
</event>
<event>
 5   0  0.1288096E-07  0.3203276E+04  0.7818609E-02  0.8187953E-01
       -1   -1    0    0    0  501  0.00000000000E+00  0.00000000000E+00  0.10584265470E+04  0.10584265470E+04  0.50400001928E-02 0.  1.
        1   -1    0    0  501    0  0.00000000000E+00  0.00000000000E+00 -0.24236386783E+04  0.24236386783E+04  0.50400001928E-02 0. -1.
    10030    2    1    2    0    0  0.00000000000E+00  0.00000000000E+00 -0.13652121313E+04  0.34820652252E+04  0.32032755219E+04 0.  0.
        2    1    3    3  502    0  0.95167663344E+03 -0.79149657465E+03 -0.17874764260E+04  0.21742187599E+04  0.25500000920E-02 0. -1.
       -2    1    3    3    0  502 -0.95167663344E+03  0.79149657465E+03  0.42226429472E+03  0.13078464653E+04  0.25500000920E-02 0.  1.
</event>
<event>
 5   0  0.3858721E-07  0.3199142E+04  0.7818609E-02  0.8189044E-01
        2   -1    0    0  501    0  0.00000000000E+00  0.00000000000E+00  0.13873628030E+04  0.13873628030E+04  0.25500000920E-02 0.  1.
       -2   -1    0    0    0  501  0.00000000000E+00  0.00000000000E+00 -0.18442383846E+04  0.18442383846E+04  0.25500000920E-02 0. -1.
    10030    2    1    2    0    0  0.00000000000E+00  0.00000000000E+00 -0.45687558153E+03  0.32316011876E+04  0.31991422192E+04 0.  0.
        2    1    3    3  502    0  0.30407988910E+02 -0.11664449909E+04  0.87678820413E+03  0.14595465452E+04  0.25500000920E-02 0.  1.
       -2    1    3    3    0  502 -0.30407988910E+02  0.11664449909E+04 -0.13336637857E+04  0.17720546424E+04  0.25500000920E-02 0. -1.
</event>
<event>
 5   0  0.3750285E-07  0.3197819E+04  0.7818609E-02  0.8189393E-01
       -2   -1    0    0    0  501  0.00000000000E+00  0.00000000000E+00  0.16479959279E+04  0.16479959279E+04  0.25500000920E-02 0.  1.
        2   -1    0    0  501    0  0.00000000000E+00  0.00000000000E+00 -0.15512850755E+04  0.15512850755E+04  0.25500000920E-02 0. -1.
    10030    2    1    2    0    0  0.00000000000E+00  0.00000000000E+00  0.96710852394E+02  0.31992810034E+04  0.31978189363E+04 0.  0.
        1    1    3    3  502    0  0.15661266939E+04  0.31878308871E+03  0.21173236647E+01  0.15982427732E+04  0.50400001928E-02 0.  1.
       -1    1    3    3    0  502 -0.15661266939E+04 -0.31878308871E+03  0.94593528729E+02  0.16010382302E+04  0.50400001928E-02 0. -1.
</event>
<event>
 5   0  0.1230450E-07  0.3200417E+04  0.7818609E-02  0.8188707E-01
       -4   -1    0    0    0  501  0.00000000000E+00  0.00000000000E+00  0.16556546771E+04  0.16556551642E+04  0.12699999809E+01 0.  1.
        4   -1    0    0  501    0  0.00000000000E+00  0.00000000000E+00 -0.15466186439E+04  0.15466191653E+04  0.12699999809E+01 0. -1.
    10030    2    1    2    0    0  0.00000000000E+00  0.00000000000E+00  0.10903603326E+03  0.32022743295E+04  0.32004174766E+04 0.  0.
        5    1    3    3  502    0  0.19857475904E+03  0.11499527777E+04 -0.10410248103E+04  0.15638344131E+04  0.46999998093E+01 0. -1.
       -5    1    3    3    0  502 -0.19857475904E+03 -0.11499527777E+04  0.11500608435E+04  0.16384399164E+04  0.46999998093E+01 0.  1.
</event>
<event>
 5   0  0.3750285E-07  0.3199608E+04  0.7818609E-02  0.8188921E-01
       -2   -1    0    0    0  501  0.00000000000E+00  0.00000000000E+00  0.17327708118E+04  0.17327708118E+04  0.25500000920E-02 0.  1.
        2   -1    0    0  501    0  0.00000000000E+00  0.00000000000E+00 -0.14770402087E+04  0.14770402087E+04  0.25500000920E-02 0. -1.
    10030    2    1    2    0    0  0.00000000000E+00  0.00000000000E+00  0.25573060311E+03  0.32098110205E+04  0.31996075769E+04 0.  0.
        1    1    3    3  502    0 -0.19658228957E+03  0.73848968944E+03 -0.12820919148E+04  0.14925720405E+04  0.50400001928E-02 0. -1.
       -1    1    3    3    0  502  0.19658228957E+03 -0.73848968944E+03  0.15378225179E+04  0.17172389800E+04  0.50400001928E-02 0.  1.
</event>
<event>
 5   0  0.1317293E-07  0.3201601E+04  0.7818609E-02  0.8188394E-01
        1   -1    0    0  501    0  0.00000000000E+00  0.00000000000E+00  0.10416949383E+04  0.10416949383E+04  0.50400001928E-02 0.  1.
       -1   -1    0    0    0  501  0.00000000000E+00  0.00000000000E+00 -0.24599933079E+04  0.24599933079E+04  0.50400001928E-02 0. -1.
    10030    2    1    2    0    0  0.00000000000E+00  0.00000000000E+00 -0.14182983695E+04  0.35016882462E+04  0.32016012101E+04 0.  0.
        1    1    3    3  502    0 -0.21290351369E+03 -0.94910648358E+03  0.68140815824E+03  0.11876228785E+04  0.50400001928E-02 0.  1.
       -1    1    3    3    0  502  0.21290351369E+03  0.94910648358E+03 -0.20997065278E+04  0.23140653677E+04  0.50400001928E-02 0. -1.
</event>
<event>
 5   0  0.3764056E-07  0.3199090E+04  0.7818609E-02  0.8189057E-01
       -2   -1    0    0    0  501  0.00000000000E+00  0.00000000000E+00  0.15833103828E+04  0.15833103828E+04  0.25500000920E-02 0.  1.
        2   -1    0    0  501    0  0.00000000000E+00  0.00000000000E+00 -0.16159465762E+04  0.16159465762E+04  0.25500000920E-02 0. -1.
    10030    2    1    2    0    0  0.00000000000E+00  0.00000000000E+00 -0.32636193427E+02  0.31992569591E+04  0.31990904909E+04 0.  0.
        5    1    3    3  502    0 -0.83618755327E+02  0.12683183155E+04 -0.98739872609E+03  0.16095346470E+04  0.46999998093E+01 0. -1.
       -5    1    3    3    0  502  0.83618755327E+02 -0.12683183155E+04  0.95476253266E+03  0.15897223120E+04  0.46999998093E+01 0.  1.
</event>
<event>
 5   0  0.3830207E-07  0.3204921E+04  0.7818609E-02  0.8187519E-01
        2   -1    0    0  501    0  0.00000000000E+00  0.00000000000E+00  0.19710647826E+04  0.19710647826E+04  0.25500000920E-02 0. -1.
       -2   -1    0    0    0  501  0.00000000000E+00  0.00000000000E+00 -0.13027876501E+04  0.13027876501E+04  0.25500000920E-02 0.  1.
    10030    2    1    2    0    0  0.00000000000E+00  0.00000000000E+00  0.66827713245E+03  0.32738524328E+04  0.32049205022E+04 0.  0.
        4    1    3    3  502    0 -0.30504672298E+03  0.21096059868E+03 -0.12583396944E+04  0.13118606163E+04  0.12699999809E+01 0.  1.
       -4    1    3    3    0  502  0.30504672298E+03 -0.21096059868E+03  0.19266168268E+04  0.19619918164E+04  0.12699999809E+01 0. -1.
</event>
<event>
 5   0  0.3830207E-07  0.3223760E+04  0.7818609E-02  0.8182570E-01
       -2   -1    0    0    0  501  0.00000000000E+00  0.00000000000E+00  0.18650032990E+04  0.18650032990E+04  0.25500000920E-02 0.  1.
        2   -1    0    0  501    0  0.00000000000E+00  0.00000000000E+00 -0.13931114496E+04  0.13931114496E+04  0.25500000920E-02 0. -1.
    10030    2    1    2    0    0  0.00000000000E+00  0.00000000000E+00  0.47189184932E+03  0.32581147486E+04  0.32237601954E+04 0.  0.
        4    1    3    3  502    0 -0.72482980860E+03  0.10955285137E+04  0.11800284794E+04  0.17657943824E+04  0.12699999809E+01 0.  1.
       -4    1    3    3    0  502  0.72482980860E+03 -0.10955285137E+04 -0.70813663009E+03  0.14923203662E+04  0.12699999809E+01 0. -1.
</event>
<event>
 5   0  0.1288096E-07  0.3202740E+04  0.7818609E-02  0.8188094E-01
       -1   -1    0    0    0  501  0.00000000000E+00  0.00000000000E+00  0.16669464946E+04  0.16669464946E+04  0.50400001928E-02 0. -1.
        1   -1    0    0  501    0  0.00000000000E+00  0.00000000000E+00 -0.15383728317E+04  0.15383728317E+04  0.50400001928E-02 0.  1.
    10030    2    1    2    0    0  0.00000000000E+00  0.00000000000E+00  0.12857366290E+03  0.32053193263E+04  0.32027395768E+04 0.  0.
        2    1    3    3  502    0  0.57840891415E+03  0.28976255115E+03  0.15303442303E+04  0.16614670238E+04  0.25500000920E-02 0. -1.
       -2    1    3    3    0  502 -0.57840891415E+03 -0.28976255115E+03 -0.14017705674E+04  0.15438523024E+04  0.25500000920E-02 0.  1.
</event>
<event>
 5   0  0.1365455E-07  0.3201346E+04  0.7818609E-02  0.8188462E-01
        1   -1    0    0  501    0  0.00000000000E+00  0.00000000000E+00  0.18918601715E+04  0.18918601715E+04  0.50400001928E-02 0. -1.
       -1   -1    0    0    0  501  0.00000000000E+00  0.00000000000E+00 -0.13543040891E+04  0.13543040891E+04  0.50400001928E-02 0.  1.
    10030    2    1    2    0    0  0.00000000000E+00  0.00000000000E+00  0.53755608244E+03  0.32461642606E+04  0.32013459458E+04 0.  0.
        3    1    3    3  502    0  0.14337457469E+02  0.13076605996E+04 -0.66716750802E+03  0.14680920613E+04  0.10100000352E+00 0.  1.
       -3    1    3    3    0  502 -0.14337457469E+02 -0.13076605996E+04  0.12047235905E+04  0.17780721993E+04  0.10100000352E+00 0. -1.
</event>
<event>
 5   0  0.1277374E-07  0.3186572E+04  0.7818609E-02  0.8192372E-01
       -1   -1    0    0    0  501  0.00000000000E+00  0.00000000000E+00  0.14117103875E+04  0.14117103875E+04  0.50400001928E-02 0. -1.
        1   -1    0    0  501    0  0.00000000000E+00  0.00000000000E+00 -0.17982163862E+04  0.17982163862E+04  0.50400001928E-02 0.  1.
    10030    2    1    2    0    0  0.00000000000E+00  0.00000000000E+00 -0.38650599867E+03  0.32099267737E+04  0.31865722972E+04 0.  0.
        5    1    3    3  502    0  0.19306891809E+03 -0.15801788482E+04 -0.25929155601E+03  0.16129150630E+04  0.46999998093E+01 0. -1.
       -5    1    3    3    0  502 -0.19306891809E+03  0.15801788482E+04 -0.12721444266E+03  0.15970117106E+04  0.46999998093E+01 0.  1.
</event>
<event>
 5   0  0.3830207E-07  0.3203593E+04  0.7818609E-02  0.8187869E-01
        2   -1    0    0  501    0  0.00000000000E+00  0.00000000000E+00  0.20574951859E+04  0.20574951860E+04  0.25500000920E-02 0. -1.
       -2   -1    0    0    0  501  0.00000000000E+00  0.00000000000E+00 -0.12470266360E+04  0.12470266360E+04  0.25500000920E-02 0.  1.
    10030    2    1    2    0    0  0.00000000000E+00  0.00000000000E+00  0.81046854995E+03  0.33045218219E+04  0.32035925461E+04 0.  0.
        4    1    3    3  502    0  0.11452166370E+02  0.20282500527E+03  0.20441528007E+04  0.20542228264E+04  0.12699999809E+01 0. -1.
       -4    1    3    3    0  502 -0.11452166370E+02 -0.20282500527E+03 -0.12336842508E+04  0.12502989956E+04  0.12699999809E+01 0.  1.
</event>
<event>
 5   0  0.3764056E-07  0.3200561E+04  0.7818609E-02  0.8188669E-01
       -2   -1    0    0    0  501  0.00000000000E+00  0.00000000000E+00  0.27124338234E+04  0.27124338234E+04  0.25500000920E-02 0. -1.
        2   -1    0    0  501    0  0.00000000000E+00  0.00000000000E+00 -0.94413301658E+03  0.94413301659E+03  0.25500000920E-02 0.  1.
    10030    2    1    2    0    0  0.00000000000E+00  0.00000000000E+00  0.17683008068E+04  0.36565668400E+04  0.32005614058E+04 0.  0.
        5    1    3    3  502    0  0.10025302955E+04  0.92480374548E+03  0.18403885775E+04  0.22907163000E+04  0.46999998093E+01 0. -1.
       -5    1    3    3    0  502 -0.10025302955E+04 -0.92480374548E+03 -0.72087770602E+02  0.13658505400E+04  0.46999998093E+01 0.  1.
</event>
<event>
 5   0  0.3750285E-07  0.3175790E+04  0.7818609E-02  0.8195240E-01
       -2   -1    0    0    0  501  0.00000000000E+00  0.00000000000E+00  0.17383289150E+04  0.17383289150E+04  0.25500000920E-02 0. -1.
        2   -1    0    0  501    0  0.00000000000E+00  0.00000000000E+00 -0.14504798873E+04  0.14504798873E+04  0.25500000920E-02 0.  1.
    10030    2    1    2    0    0  0.00000000000E+00  0.00000000000E+00  0.28784902770E+03  0.31888088023E+04  0.31757903764E+04 0.  0.
        1    1    3    3  502    0 -0.30979506165E+03 -0.54524224450E+03 -0.13208732622E+04  0.14621792846E+04  0.50400001928E-02 0.  1.
       -1    1    3    3    0  502  0.30979506165E+03  0.54524224450E+03  0.16087222899E+04  0.17266295177E+04  0.50400001928E-02 0. -1.
</event>
<event>
 5   0  0.3750285E-07  0.3202069E+04  0.7818609E-02  0.8188271E-01
       -2   -1    0    0    0  501  0.00000000000E+00  0.00000000000E+00  0.14742221714E+04  0.14742221714E+04  0.25500000920E-02 0. -1.
        2   -1    0    0  501    0  0.00000000000E+00  0.00000000000E+00 -0.17387549175E+04  0.17387549175E+04  0.25500000920E-02 0.  1.
    10030    2    1    2    0    0  0.00000000000E+00  0.00000000000E+00 -0.26453274612E+03  0.32129770889E+04  0.32020687376E+04 0.  0.
        1    1    3    3  502    0  0.14986944792E+04  0.43124220429E+03  0.23126062931E+03  0.15765584225E+04  0.50400001928E-02 0.  1.
       -1    1    3    3    0  502 -0.14986944792E+04 -0.43124220429E+03 -0.49579337543E+03  0.16364186665E+04  0.50400001928E-02 0. -1.
</event>
<event>
 5   0  0.1230450E-07  0.3199909E+04  0.7818609E-02  0.8188841E-01
        3   -1    0    0  501    0  0.00000000000E+00  0.00000000000E+00  0.19055917386E+04  0.19055917413E+04  0.10100000352E+00 0. -1.
       -3   -1    0    0    0  501  0.00000000000E+00  0.00000000000E+00 -0.13433379196E+04  0.13433379234E+04  0.10100000352E+00 0.  1.
    10030    2    1    2    0    0  0.00000000000E+00  0.00000000000E+00  0.56225381905E+03  0.32489296646E+04  0.31999085313E+04 0.  0.
        4    1    3    3  502    0  0.10567220443E+04 -0.35572228585E+03 -0.88390623875E+03  0.14228463288E+04  0.12699999809E+01 0.  1.
       -4    1    3    3    0  502 -0.10567220443E+04  0.35572228585E+03  0.14461600578E+04  0.18260833358E+04  0.12699999809E+01 0. -1.
</event>
<event>
 5   0  0.1230450E-07  0.3203676E+04  0.7818609E-02  0.8187847E-01
        3   -1    0    0  501    0  0.00000000000E+00  0.00000000000E+00  0.23780250419E+04  0.23780250440E+04  0.10100000352E+00 0. -1.
       -3   -1    0    0    0  501  0.00000000000E+00  0.00000000000E+00 -0.10789984048E+04  0.10789984095E+04  0.10100000352E+00 0.  1.
    10030    2    1    2    0    0  0.00000000000E+00  0.00000000000E+00  0.12990266371E+04  0.34570234536E+04  0.32036761626E+04 0.  0.
        1    1    3    3  502    0 -0.94476367802E+03  0.80473721811E+02  0.20426684407E+04  0.22520099436E+04  0.50400001928E-02 0. -1.
       -1    1    3    3    0  502  0.94476367802E+03 -0.80473721811E+02 -0.74364180364E+03  0.12050135100E+04  0.50400001928E-02 0.  1.
</event>
<event>
 5   0  0.3830207E-07  0.3200752E+04  0.7818609E-02  0.8188619E-01
       -2   -1    0    0    0  501  0.00000000000E+00  0.00000000000E+00  0.11201164534E+04  0.11201164534E+04  0.25500000920E-02 0.  1.
        2   -1    0    0  501    0  0.00000000000E+00  0.00000000000E+00 -0.22865504039E+04  0.22865504039E+04  0.25500000920E-02 0. -1.
    10030    2    1    2    0    0  0.00000000000E+00  0.00000000000E+00 -0.11664339505E+04  0.34066668572E+04  0.32007516172E+04 0.  0.
        4    1    3    3  502    0  0.79325440571E+03  0.11116421529E+04  0.30484809987E+03  0.13992622361E+04  0.12699999809E+01 0.  1.
       -4    1    3    3    0  502 -0.79325440571E+03 -0.11116421529E+04 -0.14712820504E+04  0.20074046212E+04  0.12699999809E+01 0. -1.
</event>
<event>
 5   0  0.1270948E-07  0.3200078E+04  0.7818609E-02  0.8188797E-01
       -1   -1    0    0    0  501  0.00000000000E+00  0.00000000000E+00  0.11834623730E+04  0.11834623730E+04  0.50400001928E-02 0. -1.
        1   -1    0    0  501    0  0.00000000000E+00  0.00000000000E+00 -0.21632500582E+04  0.21632500582E+04  0.50400001928E-02 0.  1.
    10030    2    1    2    0    0  0.00000000000E+00  0.00000000000E+00 -0.97978768520E+03  0.33467124313E+04  0.32000781537E+04 0.  0.
        4    1    3    3  502    0  0.93264849962E+03 -0.64333411514E+03  0.69165901172E+03  0.13274433355E+04  0.12699999809E+01 0. -1.
       -4    1    3    3    0  502 -0.93264849962E+03  0.64333411514E+03 -0.16714466969E+04  0.20192690958E+04  0.12699999809E+01 0.  1.
</event>
<event>
 5   0  0.3830207E-07  0.3201101E+04  0.7818609E-02  0.8188526E-01
       -2   -1    0    0    0  501  0.00000000000E+00  0.00000000000E+00  0.26150158384E+04  0.26150158384E+04  0.25500000920E-02 0.  1.
        2   -1    0    0  501    0  0.00000000000E+00  0.00000000000E+00 -0.97963561445E+03  0.97963561445E+03  0.25500000920E-02 0. -1.
    10030    2    1    2    0    0  0.00000000000E+00  0.00000000000E+00  0.16353802240E+04  0.35946514529E+04  0.32011014652E+04 0.  0.
        4    1    3    3  502    0  0.13118797789E+03 -0.15950539173E+04  0.79656953684E+03  0.17877169587E+04  0.12699999809E+01 0. -1.
       -4    1    3    3    0  502 -0.13118797789E+03  0.15950539173E+04  0.83881068713E+03  0.18069344942E+04  0.12699999809E+01 0.  1.
</event>
<event>
 5   0  0.1365455E-07  0.3200194E+04  0.7818609E-02  0.8188766E-01
       -1   -1    0    0    0  501  0.00000000000E+00  0.00000000000E+00  0.10673029491E+04  0.10673029491E+04  0.50400001928E-02 0.  1.
        1   -1    0    0  501    0  0.00000000000E+00  0.00000000000E+00 -0.23988595431E+04  0.23988595431E+04  0.50400001928E-02 0. -1.
    10030    2    1    2    0    0  0.00000000000E+00  0.00000000000E+00 -0.13315565940E+04  0.34661624922E+04  0.32001936597E+04 0.  0.
        3    1    3    3  502    0  0.56905797695E+03  0.47321479311E+03 -0.22023260635E+04  0.23233594904E+04  0.10100000352E+00 0. -1.
       -3    1    3    3    0  502 -0.56905797695E+03 -0.47321479311E+03  0.87076946954E+03  0.11428030018E+04  0.10100000352E+00 0.  1.
</event>
<event>
 5   0  0.1270948E-07  0.3229400E+04  0.7818609E-02  0.8181096E-01
       -1   -1    0    0    0  501  0.00000000000E+00  0.00000000000E+00  0.10105198587E+04  0.10105198588E+04  0.50400001928E-02 0.  1.
        1   -1    0    0  501    0  0.00000000000E+00  0.00000000000E+00 -0.25801140076E+04  0.25801140076E+04  0.50400001928E-02 0. -1.
    10030    2    1    2    0    0  0.00000000000E+00  0.00000000000E+00 -0.15695941488E+04  0.35906338664E+04  0.32294002183E+04 0.  0.
        4    1    3    3  502    0  0.66097354689E+00  0.84585432588E+03 -0.23140704384E+04  0.24638168732E+04  0.12699999809E+01 0. -1.
       -4    1    3    3    0  502 -0.66097354689E+00 -0.84585432588E+03  0.74447628960E+03  0.11268169932E+04  0.12699999809E+01 0.  1.
</event>
<event>
 5   0  0.1288096E-07  0.3199674E+04  0.7818609E-02  0.8188903E-01
        1   -1    0    0  501    0  0.00000000000E+00  0.00000000000E+00  0.17248898164E+04  0.17248898164E+04  0.50400001928E-02 0.  1.
       -1   -1    0    0    0  501  0.00000000000E+00  0.00000000000E+00 -0.14838505402E+04  0.14838505402E+04  0.50400001928E-02 0. -1.
    10030    2    1    2    0    0  0.00000000000E+00  0.00000000000E+00  0.24103927627E+03  0.32087403566E+04  0.31996741621E+04 0.  0.
        2    1    3    3  502    0 -0.69377326267E+03 -0.12861354281E+04  0.77352750216E+03  0.16534238646E+04  0.25500000920E-02 0. -1.
       -2    1    3    3    0  502  0.69377326267E+03  0.12861354281E+04 -0.53248822589E+03  0.15553164920E+04  0.25500000920E-02 0.  1.
</event>
<event>
 5   0  0.3750285E-07  0.3195841E+04  0.7818609E-02  0.8189916E-01
        2   -1    0    0  501    0  0.00000000000E+00  0.00000000000E+00  0.34587329711E+04  0.34587329711E+04  0.25500000920E-02 0.  1.
       -2   -1    0    0    0  501  0.00000000000E+00  0.00000000000E+00 -0.73823296823E+03  0.73823296823E+03  0.25500000920E-02 0. -1.
    10030    2    1    2    0    0  0.00000000000E+00  0.00000000000E+00  0.27205000028E+04  0.41969659393E+04  0.31958414902E+04 0.  0.
        1    1    3    3  502    0 -0.23299311258E+03  0.25898572441E+03 -0.68775599324E+03  0.77095246431E+03  0.50400001928E-02 0. -1.
       -1    1    3    3    0  502  0.23299311258E+03 -0.25898572441E+03  0.34082559961E+04  0.34260134750E+04  0.50400001928E-02 0.  1.
</event>
<event>
 5   0  0.1365455E-07  0.3199430E+04  0.7818609E-02  0.8188968E-01
        1   -1    0    0  501    0  0.00000000000E+00  0.00000000000E+00  0.15842526053E+04  0.15842526053E+04  0.50400001928E-02 0. -1.
       -1   -1    0    0    0  501  0.00000000000E+00  0.00000000000E+00 -0.16153285490E+04  0.16153285490E+04  0.50400001928E-02 0.  1.
    10030    2    1    2    0    0  0.00000000000E+00  0.00000000000E+00 -0.31075943643E+02  0.31995811543E+04  0.31994302382E+04 0.  0.
        3    1    3    3  502    0  0.11481922305E+03 -0.18846331237E+03 -0.16000326584E+04  0.16151799876E+04  0.10100000352E+00 0.  1.
       -3    1    3    3    0  502 -0.11481922305E+03  0.18846331237E+03  0.15689567148E+04  0.15844011667E+04  0.10100000352E+00 0. -1.
</event>
<event>
 5   0  0.3750285E-07  0.3190725E+04  0.7818609E-02  0.8191271E-01
       -2   -1    0    0    0  501  0.00000000000E+00  0.00000000000E+00  0.17014694475E+04  0.17014694475E+04  0.25500000920E-02 0.  1.
        2   -1    0    0  501    0  0.00000000000E+00  0.00000000000E+00 -0.14958727442E+04  0.14958727442E+04  0.25500000920E-02 0. -1.
    10030    2    1    2    0    0  0.00000000000E+00  0.00000000000E+00  0.20559670332E+03  0.31973421917E+04  0.31907251662E+04 0.  0.
        1    1    3    3  502    0  0.85343858009E+03  0.74754268403E+03  0.12267322842E+04  0.16709427194E+04  0.50400001928E-02 0.  1.
       -1    1    3    3    0  502 -0.85343858009E+03 -0.74754268403E+03 -0.10211355809E+04  0.15263994723E+04  0.50400001928E-02 0. -1.
</event>
<event>
 5   0  0.3858721E-07  0.3201375E+04  0.7818609E-02  0.8188454E-01
        2   -1    0    0  501    0  0.00000000000E+00  0.00000000000E+00  0.22384911021E+04  0.22384911021E+04  0.25500000920E-02 0.  1.
       -2   -1    0    0    0  501  0.00000000000E+00  0.00000000000E+00 -0.11446103455E+04  0.11446103455E+04  0.25500000920E-02 0. -1.
    10030    2    1    2    0    0  0.00000000000E+00  0.00000000000E+00  0.10938807566E+04  0.33831014475E+04  0.32013747507E+04 0.  0.
        2    1    3    3  502    0  0.57532284451E+02 -0.59407414883E+03  0.21165003500E+04  0.21990470185E+04  0.25500000920E-02 0.  1.
       -2    1    3    3    0  502 -0.57532284451E+02  0.59407414883E+03 -0.10226195934E+04  0.11840544290E+04  0.25500000920E-02 0. -1.
</event>
<event>
 5   0  0.3830207E-07  0.3205022E+04  0.7818609E-02  0.8187492E-01
        2   -1    0    0  501    0  0.00000000000E+00  0.00000000000E+00  0.15534372827E+04  0.15534372828E+04  0.25500000920E-02 0.  1.
       -2   -1    0    0    0  501  0.00000000000E+00  0.00000000000E+00 -0.16531345398E+04  0.16531345398E+04  0.25500000920E-02 0. -1.
    10030    2    1    2    0    0  0.00000000000E+00  0.00000000000E+00 -0.99697257051E+02  0.32065718226E+04  0.32050215772E+04 0.  0.
        4    1    3    3  502    0  0.57057858621E+03 -0.49302497203E+03  0.13648387334E+04  0.15593011021E+04  0.12699999809E+01 0.  1.
       -4    1    3    3    0  502 -0.57057858621E+03  0.49302497203E+03 -0.14645359904E+04  0.16472707204E+04  0.12699999809E+01 0. -1.
</event>
<event>
 5   0  0.1270948E-07  0.3202872E+04  0.7818609E-02  0.8188059E-01
        1   -1    0    0  501    0  0.00000000000E+00  0.00000000000E+00  0.20811109274E+04  0.20811109274E+04  0.50400001928E-02 0.  1.
       -1   -1    0    0    0  501  0.00000000000E+00  0.00000000000E+00 -0.12323216230E+04  0.12323216230E+04  0.50400001928E-02 0. -1.
    10030    2    1    2    0    0  0.00000000000E+00  0.00000000000E+00  0.84878930441E+03  0.33134325504E+04  0.32028724581E+04 0.  0.
        4    1    3    3  502    0 -0.15390667839E+04 -0.43570740125E+03  0.50472076136E+03  0.16772931064E+04  0.12699999809E+01 0.  1.
       -4    1    3    3    0  502  0.15390667839E+04  0.43570740125E+03  0.34406854304E+03  0.16361394440E+04  0.12699999809E+01 0. -1.
</event>
<event>
 5   0  0.1317293E-07  0.3200028E+04  0.7818609E-02  0.8188810E-01
        1   -1    0    0  501    0  0.00000000000E+00  0.00000000000E+00  0.24164063582E+04  0.24164063582E+04  0.50400001928E-02 0.  1.
       -1   -1    0    0    0  501  0.00000000000E+00  0.00000000000E+00 -0.10594431330E+04  0.10594431330E+04  0.50400001928E-02 0. -1.
    10030    2    1    2    0    0  0.00000000000E+00  0.00000000000E+00  0.13569632252E+04  0.34758494912E+04  0.32000282016E+04 0.  0.
        1    1    3    3  502    0  0.84640811261E+03  0.80187064945E+03  0.18686650518E+04  0.22025694785E+04  0.50400001928E-02 0.  1.
       -1    1    3    3    0  502 -0.84640811261E+03 -0.80187064945E+03 -0.51170182663E+03  0.12732800128E+04  0.50400001928E-02 0. -1.
</event>
<event>
 5   0  0.3830207E-07  0.3221579E+04  0.7818609E-02  0.8183141E-01
        2   -1    0    0  501    0  0.00000000000E+00  0.00000000000E+00  0.20348185200E+04  0.20348185200E+04  0.25500000920E-02 0. -1.
       -2   -1    0    0    0  501  0.00000000000E+00  0.00000000000E+00 -0.12751225655E+04  0.12751225655E+04  0.25500000920E-02 0.  1.
    10030    2    1    2    0    0  0.00000000000E+00  0.00000000000E+00  0.75969595450E+03  0.33099410855E+04  0.32215791230E+04 0.  0.
        4    1    3    3  502    0 -0.10857383693E+04  0.94284953854E+03  0.11255997071E+04  0.18261350915E+04  0.12699999809E+01 0. -1.
       -4    1    3    3    0  502  0.10857383693E+04 -0.94284953854E+03 -0.36590375258E+03  0.14838059940E+04  0.12699999809E+01 0.  1.
</event>
<event>
 5   0  0.3764056E-07  0.3201421E+04  0.7818609E-02  0.8188442E-01
       -2   -1    0    0    0  501  0.00000000000E+00  0.00000000000E+00  0.17941002204E+04  0.17941002204E+04  0.25500000920E-02 0. -1.
        2   -1    0    0  501    0  0.00000000000E+00  0.00000000000E+00 -0.14281665006E+04  0.14281665006E+04  0.25500000920E-02 0.  1.
    10030    2    1    2    0    0  0.00000000000E+00  0.00000000000E+00  0.36593371980E+03  0.32222667211E+04  0.32014208306E+04 0.  0.
        5    1    3    3  502    0 -0.13310493470E+04 -0.42629242732E+03  0.96832585150E+03  0.17003219231E+04  0.46999998093E+01 0. -1.
       -5    1    3    3    0  502  0.13310493470E+04  0.42629242732E+03 -0.60239213170E+03  0.15219447979E+04  0.46999998093E+01 0.  1.
</event>
<event>
 5   0  0.1288096E-07  0.3196619E+04  0.7818609E-02  0.8189711E-01
       -1   -1    0    0    0  501  0.00000000000E+00  0.00000000000E+00  0.11413629966E+04  0.11413629966E+04  0.50400001928E-02 0.  1.
        1   -1    0    0  501    0  0.00000000000E+00  0.00000000000E+00 -0.22381959554E+04  0.22381959554E+04  0.50400001928E-02 0. -1.
    10030    2    1    2    0    0  0.00000000000E+00  0.00000000000E+00 -0.10968329589E+04  0.33795589520E+04  0.31966194911E+04 0.  0.
        2    1    3    3  502    0 -0.74291811644E+03  0.11607069531E+04  0.30749912435E+03  0.14119928010E+04  0.25500000920E-02 0.  1.
       -2    1    3    3    0  502  0.74291811644E+03 -0.11607069531E+04 -0.14043320832E+04  0.19675661510E+04  0.25500000920E-02 0. -1.
</event>
<event>
 5   0  0.1365455E-07  0.3196478E+04  0.7818609E-02  0.8189748E-01
        1   -1    0    0  501    0  0.00000000000E+00  0.00000000000E+00  0.10332050519E+04  0.10332050519E+04  0.50400001928E-02 0. -1.
       -1   -1    0    0    0  501  0.00000000000E+00  0.00000000000E+00 -0.24722756570E+04  0.24722756570E+04  0.50400001928E-02 0.  1.
    10030    2    1    2    0    0  0.00000000000E+00  0.00000000000E+00 -0.14390706051E+04  0.35054807088E+04  0.31964778732E+04 0.  0.
        3    1    3    3  502    0 -0.10641652795E+04 -0.16383615871E+03 -0.20148493368E+04  0.22844929173E+04  0.10100000352E+00 0.  1.
       -3    1    3    3    0  502  0.10641652795E+04  0.16383615871E+03  0.57577873168E+03  0.12209877915E+04  0.10100000352E+00 0. -1.
</event>
<event>
 5   0  0.3858721E-07  0.3197888E+04  0.7818609E-02  0.8189375E-01
       -2   -1    0    0    0  501  0.00000000000E+00  0.00000000000E+00  0.10726192556E+04  0.10726192556E+04  0.25500000920E-02 0.  1.
        2   -1    0    0  501    0  0.00000000000E+00  0.00000000000E+00 -0.23835323557E+04  0.23835323557E+04  0.25500000920E-02 0. -1.
    10030    2    1    2    0    0  0.00000000000E+00  0.00000000000E+00 -0.13109131001E+04  0.34561516113E+04  0.31978884916E+04 0.  0.
        2    1    3    3  502    0  0.14606639768E+04 -0.63360900718E+03 -0.49653302609E+03  0.16677963524E+04  0.25500000920E-02 0.  1.
       -2    1    3    3    0  502 -0.14606639768E+04  0.63360900718E+03 -0.81438007403E+03  0.17883552589E+04  0.25500000920E-02 0. -1.
</event>
<event>
 5   0  0.3830207E-07  0.3197706E+04  0.7818609E-02  0.8189423E-01
        2   -1    0    0  501    0  0.00000000000E+00  0.00000000000E+00  0.23360741567E+04  0.23360741567E+04  0.25500000920E-02 0.  1.
       -2   -1    0    0    0  501  0.00000000000E+00  0.00000000000E+00 -0.10942852427E+04  0.10942852427E+04  0.25500000920E-02 0. -1.
    10030    2    1    2    0    0  0.00000000000E+00  0.00000000000E+00  0.12417889139E+04  0.34303593994E+04  0.31977063502E+04 0.  0.
        4    1    3    3  502    0 -0.76541524995E+03 -0.64608599076E+02 -0.88337414652E+03  0.11706349865E+04  0.12699999809E+01 0. -1.
       -4    1    3    3    0  502  0.76541524995E+03  0.64608599076E+02  0.21251630605E+04  0.22597244129E+04  0.12699999809E+01 0.  1.
</event>
<event>
 5   0  0.1317293E-07  0.3194853E+04  0.7818609E-02  0.8190178E-01
       -1   -1    0    0    0  501  0.00000000000E+00  0.00000000000E+00  0.17042011967E+04  0.17042011967E+04  0.50400001928E-02 0.  1.
        1   -1    0    0  501    0  0.00000000000E+00  0.00000000000E+00 -0.14973417384E+04  0.14973417384E+04  0.50400001928E-02 0. -1.
    10030    2    1    2    0    0  0.00000000000E+00  0.00000000000E+00  0.20685945829E+03  0.32015429352E+04  0.31948531000E+04 0.  0.
        1    1    3    3  502    0  0.49858663553E+03  0.13287285871E+04  0.83822039289E+03  0.16482480755E+04  0.50400001928E-02 0.  1.
       -1    1    3    3    0  502 -0.49858663553E+03 -0.13287285871E+04 -0.63136093460E+03  0.15532948597E+04  0.50400001928E-02 0. -1.
</event>
<event>
 5   0  0.1317293E-07  0.3199206E+04  0.7818609E-02  0.8189027E-01
       -1   -1    0    0    0  501  0.00000000000E+00  0.00000000000E+00  0.14923477826E+04  0.14923477826E+04  0.50400001928E-02 0. -1.
        1   -1    0    0  501    0  0.00000000000E+00  0.00000000000E+00 -0.17145670814E+04  0.17145670814E+04  0.50400001928E-02 0.  1.
    10030    2    1    2    0    0  0.00000000000E+00  0.00000000000E+00 -0.22221929874E+03  0.32069148640E+04  0.31992063904E+04 0.  0.
        1    1    3    3  502    0 -0.56810512739E+03 -0.54036204935E+03  0.12865223432E+04  0.15066102083E+04  0.50400001928E-02 0. -1.
       -1    1    3    3    0  502  0.56810512739E+03  0.54036204935E+03 -0.15087416419E+04  0.17003046557E+04  0.50400001928E-02 0.  1.
</event>
<event>
 5   0  0.3942564E-07  0.3167329E+04  0.7818609E-02  0.8197499E-01
       -2   -1    0    0    0  501  0.00000000000E+00  0.00000000000E+00  0.13406981119E+04  0.13406981119E+04  0.25500000920E-02 0. -1.
        2   -1    0    0  501    0  0.00000000000E+00  0.00000000000E+00 -0.18706623867E+04  0.18706623867E+04  0.25500000920E-02 0.  1.
    10030    2    1    2    0    0  0.00000000000E+00  0.00000000000E+00 -0.52996427484E+03  0.32113604986E+04  0.31673291776E+04 0.  0.
        3    1    3    3  502    0  0.23655751733E+03 -0.62518464159E+03 -0.17206209681E+04  0.18459013574E+04  0.10100000352E+00 0.  1.
       -3    1    3    3    0  502 -0.23655751733E+03  0.62518464159E+03  0.11906566932E+04  0.13654591413E+04  0.10100000352E+00 0. -1.
</event>
<event>
 5   0  0.1270948E-07  0.3168582E+04  0.7818609E-02  0.8197164E-01
        1   -1    0    0  501    0  0.00000000000E+00  0.00000000000E+00  0.15060163894E+04  0.15060163894E+04  0.50400001928E-02 0. -1.
       -1   -1    0    0    0  501  0.00000000000E+00  0.00000000000E+00 -0.16666344083E+04  0.16666344083E+04  0.50400001928E-02 0.  1.
    10030    2    1    2    0    0  0.00000000000E+00  0.00000000000E+00 -0.16061801897E+03  0.31726507977E+04  0.31685824806E+04 0.  0.
        4    1    3    3  502    0 -0.34412407863E+03  0.14504504336E+04  0.45680240164E+03  0.15591336982E+04  0.12699999809E+01 0. -1.
       -4    1    3    3    0  502  0.34412407863E+03 -0.14504504336E+04 -0.61742042061E+03  0.16135170995E+04  0.12699999809E+01 0.  1.
</event>
<event>
 5   0  0.1365455E-07  0.3204746E+04  0.7818609E-02  0.8187565E-01
       -1   -1    0    0    0  501  0.00000000000E+00  0.00000000000E+00  0.15377121473E+04  0.15377121473E+04  0.50400001928E-02 0. -1.
        1   -1    0    0  501    0  0.00000000000E+00  0.00000000000E+00 -0.16697530213E+04  0.16697530213E+04  0.50400001928E-02 0.  1.
    10030    2    1    2    0    0  0.00000000000E+00  0.00000000000E+00 -0.13204087400E+03  0.32074651687E+04  0.32047461703E+04 0.  0.
        3    1    3    3  502    0 -0.12939548188E+04 -0.86764269995E+03  0.30909959131E+03  0.15882901169E+04  0.10100000352E+00 0. -1.
       -3    1    3    3    0  502  0.12939548188E+04  0.86764269995E+03 -0.44114046531E+03  0.16191750518E+04  0.10100000352E+00 0.  1.
</event>
<event>
 5   0  0.1317293E-07  0.3203874E+04  0.7818609E-02  0.8187795E-01
        1   -1    0    0  501    0  0.00000000000E+00  0.00000000000E+00  0.15903544361E+04  0.15903544361E+04  0.50400001928E-02 0. -1.
       -1   -1    0    0    0  501  0.00000000000E+00  0.00000000000E+00 -0.16136037780E+04  0.16136037780E+04  0.50400001928E-02 0.  1.
    10030    2    1    2    0    0  0.00000000000E+00  0.00000000000E+00 -0.23249341912E+02  0.32039582141E+04  0.32038738592E+04 0.  0.
        1    1    3    3  502    0 -0.73677407467E+03  0.55852682050E+03  0.12966198784E+04  0.15924859043E+04  0.50400001928E-02 0. -1.
       -1    1    3    3    0  502  0.73677407467E+03 -0.55852682050E+03 -0.13198692203E+04  0.16114723097E+04  0.50400001928E-02 0.  1.
</event>
<event>
 5   0  0.1365455E-07  0.3175308E+04  0.7818609E-02  0.8195369E-01
       -1   -1    0    0    0  501  0.00000000000E+00  0.00000000000E+00  0.10974464247E+04  0.10974464247E+04  0.50400001928E-02 0.  1.
        1   -1    0    0  501    0  0.00000000000E+00  0.00000000000E+00 -0.22968281063E+04  0.22968281063E+04  0.50400001928E-02 0. -1.
    10030    2    1    2    0    0  0.00000000000E+00  0.00000000000E+00 -0.11993816817E+04  0.33942745310E+04  0.31753083588E+04 0.  0.
        3    1    3    3  502    0 -0.12265765456E+04 -0.15246025031E+03 -0.16648545425E+04  0.20735174964E+04  0.10100000352E+00 0. -1.
       -3    1    3    3    0  502  0.12265765456E+04  0.15246025031E+03  0.46547286077E+03  0.13207570346E+04  0.10100000352E+00 0.  1.
</event>
<event>
 5   0  0.3764056E-07  0.3200995E+04  0.7818609E-02  0.8188554E-01
        2   -1    0    0  501    0  0.00000000000E+00  0.00000000000E+00  0.10635275591E+04  0.10635275591E+04  0.25500000920E-02 0.  1.
       -2   -1    0    0    0  501  0.00000000000E+00  0.00000000000E+00 -0.24085813417E+04  0.24085813417E+04  0.25500000920E-02 0. -1.
    10030    2    1    2    0    0  0.00000000000E+00  0.00000000000E+00 -0.13450537826E+04  0.34721089008E+04  0.32009952423E+04 0.  0.
        5    1    3    3  502    0 -0.36177848414E+03  0.10280728112E+02  0.10185500780E+04  0.10809513015E+04  0.46999998093E+01 0.  1.
       -5    1    3    3    0  502  0.36177848414E+03 -0.10280728112E+02 -0.23636038606E+04  0.23911575993E+04  0.46999998093E+01 0. -1.
</event>
<event>
 5   0  0.1270948E-07  0.3199050E+04  0.7818609E-02  0.8189068E-01
        1   -1    0    0  501    0  0.00000000000E+00  0.00000000000E+00  0.21371688266E+04  0.21371688266E+04  0.50400001928E-02 0. -1.
       -1   -1    0    0    0  501  0.00000000000E+00  0.00000000000E+00 -0.11971355884E+04  0.11971355884E+04  0.50400001928E-02 0.  1.
    10030    2    1    2    0    0  0.00000000000E+00  0.00000000000E+00  0.94003323820E+03  0.33343044151E+04  0.31990503972E+04 0.  0.
        4    1    3    3  502    0 -0.61586914294E+03 -0.12570853725E+04  0.12766364004E+04  0.18945607793E+04  0.12699999809E+01 0. -1.
       -4    1    3    3    0  502  0.61586914294E+03  0.12570853725E+04 -0.33660316220E+03  0.14397436357E+04  0.12699999809E+01 0.  1.
</event>
<event>
 5   0  0.1317293E-07  0.3202152E+04  0.7818609E-02  0.8188249E-01
        1   -1    0    0  501    0  0.00000000000E+00  0.00000000000E+00  0.17996826705E+04  0.17996826705E+04  0.50400001928E-02 0. -1.
       -1   -1    0    0    0  501  0.00000000000E+00  0.00000000000E+00 -0.14243864661E+04  0.14243864661E+04  0.50400001928E-02 0.  1.
    10030    2    1    2    0    0  0.00000000000E+00  0.00000000000E+00  0.37529620436E+03  0.32240691366E+04  0.32021515511E+04 0.  0.
        1    1    3    3  502    0 -0.86068744933E+03  0.12443286241E+04 -0.33968001904E+03  0.15506511941E+04  0.50400001928E-02 0.  1.
       -1    1    3    3    0  502  0.86068744933E+03 -0.12443286241E+04  0.71497622340E+03  0.16734179425E+04  0.50400001928E-02 0. -1.
</event>
<event>
 5   0  0.1365455E-07  0.3193391E+04  0.7818609E-02  0.8190565E-01
        1   -1    0    0  501    0  0.00000000000E+00  0.00000000000E+00  0.10527356495E+04  0.10527356495E+04  0.50400001928E-02 0. -1.
       -1   -1    0    0    0  501  0.00000000000E+00  0.00000000000E+00 -0.24217246454E+04  0.24217246454E+04  0.50400001928E-02 0.  1.
    10030    2    1    2    0    0  0.00000000000E+00  0.00000000000E+00 -0.13689889959E+04  0.34744602950E+04  0.31933905916E+04 0.  0.
        3    1    3    3  502    0  0.14089857485E+04 -0.57484423146E+03 -0.12105242530E+04  0.19444936892E+04  0.10100000352E+00 0.  1.
       -3    1    3    3    0  502 -0.14089857485E+04  0.57484423146E+03 -0.15846474295E+03  0.15299666058E+04  0.10100000352E+00 0. -1.
</event>
<event>
 5   0  0.3764056E-07  0.3272974E+04  0.7818609E-02  0.8169806E-01
        2   -1    0    0  501    0  0.00000000000E+00  0.00000000000E+00  0.20161211302E+04  0.20161211302E+04  0.25500000920E-02 0. -1.
       -2   -1    0    0    0  501  0.00000000000E+00  0.00000000000E+00 -0.13283376072E+04  0.13283376072E+04  0.25500000920E-02 0.  1.
    10030    2    1    2    0    0  0.00000000000E+00  0.00000000000E+00  0.68778352297E+03  0.33444587374E+04  0.32729738880E+04 0.  0.
        5    1    3    3  502    0  0.51033511406E+02 -0.15229769264E+04 -0.26580082971E+03  0.15468468924E+04  0.46999998093E+01 0.  1.
       -5    1    3    3    0  502 -0.51033511406E+02  0.15229769264E+04  0.95358435269E+03  0.17976118450E+04  0.46999998093E+01 0. -1.
</event>
<event>
 5   0  0.3830207E-07  0.3196330E+04  0.7818609E-02  0.8189787E-01
       -2   -1    0    0    0  501  0.00000000000E+00  0.00000000000E+00  0.14846029096E+04  0.14846029096E+04  0.25500000920E-02 0.  1.
        2   -1    0    0  501    0  0.00000000000E+00  0.00000000000E+00 -0.17204139136E+04  0.17204139136E+04  0.25500000920E-02 0. -1.
    10030    2    1    2    0    0  0.00000000000E+00  0.00000000000E+00 -0.23581100400E+03  0.32050168232E+04  0.31963300842E+04 0.  0.
        4    1    3    3  502    0  0.25505460350E+03  0.63836297842E+03  0.13287801512E+04  0.14960676610E+04  0.12699999809E+01 0.  1.
       -4    1    3    3    0  502 -0.25505460350E+03 -0.63836297842E+03 -0.15645911552E+04  0.17089491622E+04  0.12699999809E+01 0. -1.
</event>
<event>
 5   0  0.1277374E-07  0.3176112E+04  0.7818609E-02  0.8195155E-01
        1   -1    0    0  501    0  0.00000000000E+00  0.00000000000E+00  0.12327388192E+04  0.12327388192E+04  0.50400001928E-02 0. -1.
       -1   -1    0    0    0  501  0.00000000000E+00  0.00000000000E+00 -0.20457876955E+04  0.20457876955E+04  0.50400001928E-02 0.  1.
    10030    2    1    2    0    0  0.00000000000E+00  0.00000000000E+00 -0.81304887629E+03  0.32785265147E+04  0.31761120308E+04 0.  0.
        5    1    3    3  502    0  0.72899909696E+03 -0.85441128261E+03  0.75237094709E+03  0.13518662860E+04  0.46999998093E+01 0. -1.
       -5    1    3    3    0  502 -0.72899909696E+03  0.85441128261E+03 -0.15654198234E+04  0.19266602286E+04  0.46999998093E+01 0.  1.
</event>
<event>
 5   0  0.3830207E-07  0.3194869E+04  0.7818609E-02  0.8190173E-01
        2   -1    0    0  501    0  0.00000000000E+00  0.00000000000E+00  0.15003073393E+04  0.15003073393E+04  0.25500000920E-02 0. -1.
       -2   -1    0    0    0  501  0.00000000000E+00  0.00000000000E+00 -0.17008500079E+04  0.17008500079E+04  0.25500000920E-02 0.  1.
    10030    2    1    2    0    0  0.00000000000E+00  0.00000000000E+00 -0.20054266866E+03  0.32011573472E+04  0.31948694808E+04 0.  0.
        4    1    3    3  502    0  0.66843953804E+02 -0.73636741533E+03 -0.15190705849E+04  0.16894620858E+04  0.12699999809E+01 0.  1.
       -4    1    3    3    0  502 -0.66843953804E+02  0.73636741533E+03  0.13185279162E+04  0.15116952614E+04  0.12699999809E+01 0. -1.
</event>
<event>
 5   0  0.1365455E-07  0.3204950E+04  0.7818609E-02  0.8187511E-01
       -1   -1    0    0    0  501  0.00000000000E+00  0.00000000000E+00  0.92012654822E+03  0.92012654823E+03  0.50400001928E-02 0.  1.
        1   -1    0    0  501    0  0.00000000000E+00  0.00000000000E+00 -0.27908400648E+04  0.27908400648E+04  0.50400001928E-02 0. -1.
    10030    2    1    2    0    0  0.00000000000E+00  0.00000000000E+00 -0.18707135165E+04  0.37109666130E+04  0.32049499437E+04 0.  0.
        3    1    3    3  502    0  0.15986138864E+04 -0.11104007786E+03 -0.92903925201E+03  0.18522986256E+04  0.10100000352E+00 0. -1.
       -3    1    3    3    0  502 -0.15986138864E+04  0.11104007786E+03 -0.94167426452E+03  0.18586679874E+04  0.10100000352E+00 0.  1.
</event>
<event>
 5   0  0.3858721E-07  0.3194519E+04  0.7818609E-02  0.8190266E-01
       -2   -1    0    0    0  501  0.00000000000E+00  0.00000000000E+00  0.18363865600E+04  0.18363865600E+04  0.25500000920E-02 0. -1.
        2   -1    0    0  501    0  0.00000000000E+00  0.00000000000E+00 -0.13892703122E+04  0.13892703122E+04  0.25500000920E-02 0.  1.
    10030    2    1    2    0    0  0.00000000000E+00  0.00000000000E+00  0.44711624779E+03  0.32256568722E+04  0.31945186364E+04 0.  0.
        2    1    3    3  502    0  0.86013044355E+03  0.10190211757E+04  0.11113373095E+04  0.17358856967E+04  0.25500000920E-02 0. -1.
       -2    1    3    3    0  502 -0.86013044355E+03 -0.10190211757E+04 -0.66422106172E+03  0.14897711755E+04  0.25500000920E-02 0.  1.
</event>
<event>
 5   0  0.3750285E-07  0.3215046E+04  0.7818609E-02  0.8184855E-01
        2   -1    0    0  501    0  0.00000000000E+00  0.00000000000E+00  0.13940043916E+04  0.13940043916E+04  0.25500000920E-02 0. -1.
       -2   -1    0    0    0  501  0.00000000000E+00  0.00000000000E+00 -0.18537465352E+04  0.18537465352E+04  0.25500000920E-02 0.  1.
    10030    2    1    2    0    0  0.00000000000E+00  0.00000000000E+00 -0.45974214361E+03  0.32477509268E+04  0.32150463829E+04 0.  0.
        1    1    3    3  502    0 -0.11276073346E+04  0.41320802243E+03 -0.13093344656E+04  0.17766811513E+04  0.50400001928E-02 0.  1.
       -1    1    3    3    0  502  0.11276073346E+04 -0.41320802243E+03  0.84959232195E+03  0.14710697755E+04  0.50400001928E-02 0. -1.
</event>
<event>
 5   0  0.1270948E-07  0.3202762E+04  0.7818609E-02  0.8188088E-01
        1   -1    0    0  501    0  0.00000000000E+00  0.00000000000E+00  0.27158073263E+04  0.27158073263E+04  0.50400001928E-02 0.  1.
       -1   -1    0    0    0  501  0.00000000000E+00  0.00000000000E+00 -0.94425745320E+03  0.94425745321E+03  0.50400001928E-02 0. -1.
    10030    2    1    2    0    0  0.00000000000E+00  0.00000000000E+00  0.17715498731E+04  0.36600647795E+04  0.32027621263E+04 0.  0.
        4    1    3    3  502    0  0.78816557564E+03  0.34243796297E+03 -0.65844317903E+03  0.10825976935E+04  0.12699999809E+01 0. -1.
       -4    1    3    3    0  502 -0.78816557564E+03 -0.34243796297E+03  0.24299930521E+04  0.25774670860E+04  0.12699999809E+01 0.  1.
</event>
<event>
 5   0  0.3750285E-07  0.3197531E+04  0.7818609E-02  0.8189470E-01
        2   -1    0    0  501    0  0.00000000000E+00  0.00000000000E+00  0.18992528549E+04  0.18992528549E+04  0.25500000920E-02 0. -1.
       -2   -1    0    0    0  501  0.00000000000E+00  0.00000000000E+00 -0.13458191156E+04  0.13458191156E+04  0.25500000920E-02 0.  1.
    10030    2    1    2    0    0  0.00000000000E+00  0.00000000000E+00  0.55343373929E+03  0.32450719705E+04  0.31975307958E+04 0.  0.
        1    1    3    3  502    0  0.81235486686E+03  0.13716761720E+03 -0.11138062693E+04  0.13853879567E+04  0.50400001928E-02 0.  1.
       -1    1    3    3    0  502 -0.81235486686E+03 -0.13716761720E+03  0.16672400086E+04  0.18596840138E+04  0.50400001928E-02 0. -1.
</event>
<event>
 5   0  0.1288096E-07  0.3196462E+04  0.7818609E-02  0.8189752E-01
       -1   -1    0    0    0  501  0.00000000000E+00  0.00000000000E+00  0.16470974119E+04  0.16470974119E+04  0.50400001928E-02 0.  1.
        1   -1    0    0  501    0  0.00000000000E+00  0.00000000000E+00 -0.15508146552E+04  0.15508146552E+04  0.50400001928E-02 0. -1.
    10030    2    1    2    0    0  0.00000000000E+00  0.00000000000E+00  0.96282756769E+02  0.31979120671E+04  0.31964622976E+04 0.  0.
        2    1    3    3  502    0  0.72492068908E+03 -0.99116427694E+03  0.10715550842E+04  0.16297689799E+04  0.25500000920E-02 0.  1.
       -2    1    3    3    0  502 -0.72492068908E+03  0.99116427694E+03 -0.97527232743E+03  0.15681430872E+04  0.25500000920E-02 0. -1.
</event>
<event>
 5   0  0.3830207E-07  0.3193919E+04  0.7818609E-02  0.8190425E-01
       -2   -1    0    0    0  501  0.00000000000E+00  0.00000000000E+00  0.10053070644E+04  0.10053070644E+04  0.25500000920E-02 0.  1.
        2   -1    0    0  501    0  0.00000000000E+00  0.00000000000E+00 -0.25368163228E+04  0.25368163228E+04  0.25500000920E-02 0. -1.
    10030    2    1    2    0    0  0.00000000000E+00  0.00000000000E+00 -0.15315092585E+04  0.35421233872E+04  0.31939188283E+04 0.  0.
        4    1    3    3  502    0  0.86117427470E+03 -0.45443451558E+03  0.63799883760E+03  0.11641202644E+04  0.12699999809E+01 0.  1.
       -4    1    3    3    0  502 -0.86117427470E+03  0.45443451558E+03 -0.21695080961E+04  0.23780031228E+04  0.12699999809E+01 0. -1.
</event>
<event>
 5   0  0.3942564E-07  0.3201408E+04  0.7818609E-02  0.8188445E-01
        2   -1    0    0  501    0  0.00000000000E+00  0.00000000000E+00  0.14087989086E+04  0.14087989086E+04  0.25500000920E-02 0.  1.
       -2   -1    0    0    0  501  0.00000000000E+00  0.00000000000E+00 -0.18187503224E+04  0.18187503224E+04  0.25500000920E-02 0. -1.
    10030    2    1    2    0    0  0.00000000000E+00  0.00000000000E+00 -0.40995141376E+03  0.32275492310E+04  0.32014081084E+04 0.  0.
        3    1    3    3  502    0 -0.11381552440E+04 -0.61892607330E+02 -0.13379964943E+04  0.17576867421E+04  0.10100000352E+00 0. -1.
       -3    1    3    3    0  502  0.11381552440E+04  0.61892607330E+02  0.92804508055E+03  0.14698624888E+04  0.10100000352E+00 0.  1.
</event>
<event>
 5   0  0.1288096E-07  0.3144659E+04  0.7818609E-02  0.8203587E-01
       -1   -1    0    0    0  501  0.00000000000E+00  0.00000000000E+00  0.18791277038E+04  0.18791277038E+04  0.50400001928E-02 0.  1.
        1   -1    0    0  501    0  0.00000000000E+00  0.00000000000E+00 -0.13156214307E+04  0.13156214307E+04  0.50400001928E-02 0. -1.
    10030    2    1    2    0    0  0.00000000000E+00  0.00000000000E+00  0.56350627307E+03  0.31947491345E+04  0.31446593953E+04 0.  0.
        2    1    3    3  502    0  0.51792446101E+01 -0.99487833734E+03 -0.95518350563E+03  0.13791973246E+04  0.25500000920E-02 0. -1.
       -2    1    3    3    0  502 -0.51792446101E+01  0.99487833734E+03  0.15186897787E+04  0.18155518100E+04  0.25500000920E-02 0.  1.
</event>
<event>
 5   0  0.1270948E-07  0.3211232E+04  0.7818609E-02  0.8185857E-01
       -1   -1    0    0    0  501  0.00000000000E+00  0.00000000000E+00  0.10820884116E+04  0.10820884116E+04  0.50400001928E-02 0.  1.
        1   -1    0    0  501    0  0.00000000000E+00  0.00000000000E+00 -0.23824325048E+04  0.23824325048E+04  0.50400001928E-02 0. -1.
    10030    2    1    2    0    0  0.00000000000E+00  0.00000000000E+00 -0.13003440932E+04  0.34645209164E+04  0.32112319161E+04 0.  0.
        4    1    3    3  502    0  0.14963263805E+04 -0.37064671937E+03 -0.11346214291E+04  0.19140896081E+04  0.12699999809E+01 0. -1.
       -4    1    3    3    0  502 -0.14963263805E+04  0.37064671937E+03 -0.16572266404E+03  0.15504313083E+04  0.12699999809E+01 0.  1.
</event>
<event>
 5   0  0.1365455E-07  0.3200239E+04  0.7818609E-02  0.8188754E-01
       -1   -1    0    0    0  501  0.00000000000E+00  0.00000000000E+00  0.20168979564E+04  0.20168979564E+04  0.50400001928E-02 0.  1.
        1   -1    0    0  501    0  0.00000000000E+00  0.00000000000E+00 -0.12694653349E+04  0.12694653349E+04  0.50400001928E-02 0. -1.
    10030    2    1    2    0    0  0.00000000000E+00  0.00000000000E+00  0.74743262153E+03  0.32863632913E+04  0.32002387659E+04 0.  0.
        3    1    3    3  502    0  0.12426341833E+04  0.46237952410E+03 -0.54618555786E+03  0.14339641598E+04  0.10100000352E+00 0. -1.
       -3    1    3    3    0  502 -0.12426341833E+04 -0.46237952410E+03  0.12936181794E+04  0.18523991314E+04  0.10100000352E+00 0.  1.
</event>
<event>
 5   0  0.1365455E-07  0.3197685E+04  0.7818609E-02  0.8189429E-01
       -1   -1    0    0    0  501  0.00000000000E+00  0.00000000000E+00  0.13906886500E+04  0.13906886500E+04  0.50400001928E-02 0.  1.
        1   -1    0    0  501    0  0.00000000000E+00  0.00000000000E+00 -0.18381519773E+04  0.18381519773E+04  0.50400001928E-02 0. -1.
    10030    2    1    2    0    0  0.00000000000E+00  0.00000000000E+00 -0.44746332734E+03  0.32288406274E+04  0.31976848449E+04 0.  0.
        3    1    3    3  502    0 -0.12981954524E+04  0.91423234017E+03 -0.34381579054E+02  0.15881795577E+04  0.10100000352E+00 0.  1.
       -3    1    3    3    0  502  0.12981954524E+04 -0.91423234017E+03 -0.41308174829E+03  0.16406610696E+04  0.10100000352E+00 0. -1.
</event>
<event>
 5   0  0.3942564E-07  0.3200705E+04  0.7818609E-02  0.8188631E-01
        2   -1    0    0  501    0  0.00000000000E+00  0.00000000000E+00  0.20702694258E+04  0.20702694258E+04  0.25500000920E-02 0. -1.
       -2   -1    0    0    0  501  0.00000000000E+00  0.00000000000E+00 -0.12370990752E+04  0.12370990752E+04  0.25500000920E-02 0.  1.
    10030    2    1    2    0    0  0.00000000000E+00  0.00000000000E+00  0.83317035062E+03  0.33073685010E+04  0.32007051674E+04 0.  0.
        3    1    3    3  502    0 -0.10873538544E+04  0.46098677431E+02 -0.79582907702E+03  0.13482608883E+04  0.10100000352E+00 0.  1.
       -3    1    3    3    0  502  0.10873538544E+04 -0.46098677431E+02  0.16289994276E+04  0.19591076127E+04  0.10100000352E+00 0. -1.
</event>
<event>
 5   0  0.3764056E-07  0.3191423E+04  0.7818609E-02  0.8191086E-01
       -2   -1    0    0    0  501  0.00000000000E+00  0.00000000000E+00  0.15873847059E+04  0.15873847059E+04  0.25500000920E-02 0. -1.
        2   -1    0    0  501    0  0.00000000000E+00  0.00000000000E+00 -0.16040820023E+04  0.16040820023E+04  0.25500000920E-02 0.  1.
    10030    2    1    2    0    0  0.00000000000E+00  0.00000000000E+00 -0.16697296376E+02  0.31914667082E+04  0.31914230289E+04 0.  0.
        5    1    3    3  502    0 -0.61072720779E+03  0.14727840067E+04  0.56403258208E+02  0.15953945814E+04  0.46999998093E+01 0.  1.
       -5    1    3    3    0  502  0.61072720779E+03 -0.14727840067E+04 -0.73100554584E+02  0.15960721268E+04  0.46999998093E+01 0. -1.
</event>
<event>
 5   0  0.3858721E-07  0.3195794E+04  0.7818609E-02  0.8189929E-01
       -2   -1    0    0    0  501  0.00000000000E+00  0.00000000000E+00  0.13674536222E+04  0.13674536222E+04  0.25500000920E-02 0. -1.
        2   -1    0    0  501    0  0.00000000000E+00  0.00000000000E+00 -0.18671747458E+04  0.18671747458E+04  0.25500000920E-02 0.  1.
    10030    2    1    2    0    0  0.00000000000E+00  0.00000000000E+00 -0.49972112353E+03  0.32346283680E+04  0.31957940293E+04 0.  0.
        2    1    3    3  502    0  0.12074342741E+04  0.41313437743E+03  0.72343649856E+03  0.14669485020E+04  0.25500000920E-02 0. -1.
       -2    1    3    3    0  502 -0.12074342741E+04 -0.41313437743E+03 -0.12231576221E+04  0.17676798660E+04  0.25500000920E-02 0.  1.
</event>
<event>
 5   0  0.1317293E-07  0.3196008E+04  0.7818609E-02  0.8189872E-01
        1   -1    0    0  501    0  0.00000000000E+00  0.00000000000E+00  0.19665674146E+04  0.19665674146E+04  0.50400001928E-02 0. -1.
       -1   -1    0    0    0  501  0.00000000000E+00  0.00000000000E+00 -0.12985145266E+04  0.12985145266E+04  0.50400001928E-02 0.  1.
    10030    2    1    2    0    0  0.00000000000E+00  0.00000000000E+00  0.66805288794E+03  0.32650819412E+04  0.31960077318E+04 0.  0.
        1    1    3    3  502    0  0.85143162826E+03 -0.13291760885E+04  0.58834739585E+03  0.16845763711E+04  0.50400001928E-02 0. -1.
       -1    1    3    3    0  502 -0.85143162826E+03  0.13291760885E+04  0.79705492096E+02  0.15805055702E+04  0.50400001928E-02 0.  1.
</event>
<event>
 5   0  0.3858721E-07  0.3230750E+04  0.7818609E-02  0.8180743E-01
        2   -1    0    0  501    0  0.00000000000E+00  0.00000000000E+00  0.12890173555E+04  0.12890173555E+04  0.25500000920E-02 0. -1.
       -2   -1    0    0    0  501  0.00000000000E+00  0.00000000000E+00 -0.20243605611E+04  0.20243605611E+04  0.25500000920E-02 0.  1.
    10030    2    1    2    0    0  0.00000000000E+00  0.00000000000E+00 -0.73534320562E+03  0.33133779166E+04  0.32307496945E+04 0.  0.
        2    1    3    3  502    0 -0.12153900372E+04 -0.75675645430E+03 -0.11348560173E+04  0.18269514098E+04  0.25500000920E-02 0. -1.
       -2    1    3    3    0  502  0.12153900372E+04  0.75675645430E+03  0.39951281168E+03  0.14864265069E+04  0.25500000920E-02 0.  1.
</event>
<event>
 5   0  0.1317293E-07  0.3219163E+04  0.7818609E-02  0.8183774E-01
       -1   -1    0    0    0  501  0.00000000000E+00  0.00000000000E+00  0.28877244133E+04  0.28877244133E+04  0.50400001928E-02 0.  1.
        1   -1    0    0  501    0  0.00000000000E+00  0.00000000000E+00 -0.89716084261E+03  0.89716084262E+03  0.50400001928E-02 0. -1.
    10030    2    1    2    0    0  0.00000000000E+00  0.00000000000E+00  0.19905635707E+04  0.37848852560E+04  0.32191634118E+04 0.  0.
        1    1    3    3  502    0  0.62720457334E+03 -0.30072836017E+03 -0.71133008950E+03  0.99489377306E+03  0.50400001928E-02 0. -1.
       -1    1    3    3    0  502 -0.62720457334E+03  0.30072836017E+03  0.27018936602E+04  0.27899914829E+04  0.50400001928E-02 0.  1.
</event>
<event>
 5   0  0.1277374E-07  0.3192925E+04  0.7818609E-02  0.8190688E-01
        1   -1    0    0  501    0  0.00000000000E+00  0.00000000000E+00  0.17583361613E+04  0.17583361613E+04  0.50400001928E-02 0. -1.
       -1   -1    0    0    0  501  0.00000000000E+00  0.00000000000E+00 -0.14494911798E+04  0.14494911798E+04  0.50400001928E-02 0.  1.
    10030    2    1    2    0    0  0.00000000000E+00  0.00000000000E+00  0.30884498148E+03  0.32078273411E+04  0.31929251522E+04 0.  0.
        5    1    3    3  502    0  0.58885503215E+02  0.15901900293E+04  0.28346978044E+03  0.16163381572E+04  0.46999998093E+01 0. -1.
       -5    1    3    3    0  502 -0.58885503215E+02 -0.15901900293E+04  0.25375201043E+02  0.15914891840E+04  0.46999998093E+01 0.  1.
</event>
<event>
 5   0  0.3830207E-07  0.3200555E+04  0.7818609E-02  0.8188671E-01
       -2   -1    0    0    0  501  0.00000000000E+00  0.00000000000E+00  0.14185503466E+04  0.14185503466E+04  0.25500000920E-02 0.  1.
        2   -1    0    0  501    0  0.00000000000E+00  0.00000000000E+00 -0.18052856148E+04  0.18052856148E+04  0.25500000920E-02 0. -1.
    10030    2    1    2    0    0  0.00000000000E+00  0.00000000000E+00 -0.38673526820E+03  0.32238359614E+04  0.32005552860E+04 0.  0.
        4    1    3    3  502    0 -0.10788620932E+04 -0.62493522134E+03 -0.12038594551E+04  0.17331378040E+04  0.12699999809E+01 0. -1.
       -4    1    3    3    0  502  0.10788620932E+04  0.62493522134E+03  0.81712418687E+03  0.14906981575E+04  0.12699999809E+01 0.  1.
</event>
<event>
 5   0  0.1365455E-07  0.3195409E+04  0.7818609E-02  0.8190031E-01
       -1   -1    0    0    0  501  0.00000000000E+00  0.00000000000E+00  0.17121316876E+04  0.17121316876E+04  0.50400001928E-02 0. -1.
        1   -1    0    0  501    0  0.00000000000E+00  0.00000000000E+00 -0.14909249939E+04  0.14909249939E+04  0.50400001928E-02 0.  1.
    10030    2    1    2    0    0  0.00000000000E+00  0.00000000000E+00  0.22120669375E+03  0.32030566815E+04  0.31954091606E+04 0.  0.
        3    1    3    3  502    0  0.92960730243E+03 -0.87096546039E+03 -0.85602261285E+03  0.15347720658E+04  0.10100000352E+00 0.  1.
       -3    1    3    3    0  502 -0.92960730243E+03  0.87096546039E+03  0.10772293066E+04  0.16682846157E+04  0.10100000352E+00 0. -1.
</event>
<event>
 5   0  0.1230450E-07  0.3204022E+04  0.7818609E-02  0.8187756E-01
        3   -1    0    0  501    0  0.00000000000E+00  0.00000000000E+00  0.22046639630E+04  0.22046639653E+04  0.10100000352E+00 0. -1.
       -3   -1    0    0    0  501  0.00000000000E+00  0.00000000000E+00 -0.11640952076E+04  0.11640952119E+04  0.10100000352E+00 0.  1.
    10030    2    1    2    0    0  0.00000000000E+00  0.00000000000E+00  0.10405687555E+04  0.33687591773E+04  0.32040217009E+04 0.  0.
        5    1    3    3  502    0 -0.49594479790E+03 -0.57718493957E+03 -0.96191849642E+03  0.12265451401E+04  0.46999998093E+01 0.  1.
       -5    1    3    3    0  502  0.49594479790E+03  0.57718493957E+03  0.20024872519E+04  0.21422140372E+04  0.46999998093E+01 0. -1.
</event>
<event>
 5   0  0.1317293E-07  0.3205616E+04  0.7818609E-02  0.8187336E-01
        1   -1    0    0  501    0  0.00000000000E+00  0.00000000000E+00  0.21724771143E+04  0.21724771143E+04  0.50400001928E-02 0.  1.
       -1   -1    0    0    0  501  0.00000000000E+00  0.00000000000E+00 -0.11825179495E+04  0.11825179495E+04  0.50400001928E-02 0. -1.
    10030    2    1    2    0    0  0.00000000000E+00  0.00000000000E+00  0.98995916483E+03  0.33549950638E+04  0.32056158113E+04 0.  0.
        1    1    3    3  502    0  0.12095517388E+04  0.10119691237E+04  0.79449036745E+03  0.17658742481E+04  0.50400001928E-02 0. -1.
       -1    1    3    3    0  502 -0.12095517388E+04 -0.10119691237E+04  0.19546879738E+03  0.15891208157E+04  0.50400001928E-02 0.  1.
</event>
<event>
 5   0  0.1288096E-07  0.3204454E+04  0.7818609E-02  0.8187642E-01
       -1   -1    0    0    0  501  0.00000000000E+00  0.00000000000E+00  0.12384043590E+04  0.12384043591E+04  0.50400001928E-02 0.  1.
        1   -1    0    0  501    0  0.00000000000E+00  0.00000000000E+00 -0.20729349078E+04  0.20729349078E+04  0.50400001928E-02 0. -1.
    10030    2    1    2    0    0  0.00000000000E+00  0.00000000000E+00 -0.83453054879E+03  0.33113392669E+04  0.32044541663E+04 0.  0.
        2    1    3    3  502    0 -0.14166721922E+04 -0.67294164845E+03 -0.75579132813E+03  0.17409856674E+04  0.25500000920E-02 0. -1.
       -2    1    3    3    0  502  0.14166721922E+04  0.67294164845E+03 -0.78739220651E+02  0.15703535995E+04  0.25500000920E-02 0.  1.
</event>
<event>
 5   0  0.1270948E-07  0.3201753E+04  0.7818609E-02  0.8188354E-01
        1   -1    0    0  501    0  0.00000000000E+00  0.00000000000E+00  0.14247377594E+04  0.14247377594E+04  0.50400001928E-02 0. -1.
       -1   -1    0    0    0  501  0.00000000000E+00  0.00000000000E+00 -0.17987911904E+04  0.17987911904E+04  0.50400001928E-02 0.  1.
    10030    2    1    2    0    0  0.00000000000E+00  0.00000000000E+00 -0.37405343100E+03  0.32235289498E+04  0.32017531011E+04 0.  0.
        4    1    3    3  502    0  0.76116399012E+02  0.30851189245E+01 -0.17969648065E+04  0.17985792596E+04  0.12699999809E+01 0.  1.
       -4    1    3    3    0  502 -0.76116399012E+02 -0.30851189245E+01  0.14229113755E+04  0.14249496902E+04  0.12699999809E+01 0. -1.
</event>
<event>
 5   0  0.1230450E-07  0.3198421E+04  0.7818609E-02  0.8189234E-01
        3   -1    0    0  501    0  0.00000000000E+00  0.00000000000E+00  0.12906364309E+04  0.12906364348E+04  0.10100000352E+00 0. -1.
       -3   -1    0    0    0  501  0.00000000000E+00  0.00000000000E+00 -0.19815603875E+04  0.19815603901E+04  0.10100000352E+00 0.  1.
    10030    2    1    2    0    0  0.00000000000E+00  0.00000000000E+00 -0.69092395663E+03  0.32721968249E+04  0.31984208834E+04 0.  0.
        4    1    3    3  502    0  0.30948322759E+03 -0.10660050347E+04 -0.15232445845E+04  0.18847870647E+04  0.12699999809E+01 0.  1.
       -4    1    3    3    0  502 -0.30948322759E+03  0.10660050347E+04  0.83232062788E+03  0.13874097602E+04  0.12699999809E+01 0. -1.
</event>
<event>
 5   0  0.3750285E-07  0.3188316E+04  0.7818609E-02  0.8191910E-01
        2   -1    0    0  501    0  0.00000000000E+00  0.00000000000E+00  0.16972512296E+04  0.16972512296E+04  0.25500000920E-02 0. -1.
       -2   -1    0    0    0  501  0.00000000000E+00  0.00000000000E+00 -0.14973265639E+04  0.14973265639E+04  0.25500000920E-02 0.  1.
    10030    2    1    2    0    0  0.00000000000E+00  0.00000000000E+00  0.19992466568E+03  0.31945777935E+04  0.31883157633E+04 0.  0.
        1    1    3    3  502    0 -0.67796898318E+03 -0.65245166702E+03  0.13893480739E+04  0.16779818802E+04  0.50400001928E-02 0. -1.
       -1    1    3    3    0  502  0.67796898318E+03  0.65245166702E+03 -0.11894234082E+04  0.15165959132E+04  0.50400001928E-02 0.  1.
</event>
<event>
 5   0  0.1288096E-07  0.3188859E+04  0.7818609E-02  0.8191766E-01
        1   -1    0    0  501    0  0.00000000000E+00  0.00000000000E+00  0.21042150849E+04  0.21042150849E+04  0.50400001928E-02 0.  1.
       -1   -1    0    0    0  501  0.00000000000E+00  0.00000000000E+00 -0.12081488916E+04  0.12081488916E+04  0.50400001928E-02 0. -1.
    10030    2    1    2    0    0  0.00000000000E+00  0.00000000000E+00  0.89606619332E+03  0.33123639765E+04  0.31888588068E+04 0.  0.
        2    1    3    3  502    0 -0.14593418017E+04  0.14957698025E+03 -0.20078123651E+03  0.14806636594E+04  0.25500000920E-02 0. -1.
       -2    1    3    3    0  502  0.14593418017E+04 -0.14957698025E+03  0.10968474298E+04  0.18317003171E+04  0.25500000920E-02 0.  1.
</event>
<event>
 5   0  0.3942564E-07  0.3199548E+04  0.7818609E-02  0.8188937E-01
       -2   -1    0    0    0  501  0.00000000000E+00  0.00000000000E+00  0.14357658828E+04  0.14357658828E+04  0.25500000920E-02 0. -1.
        2   -1    0    0  501    0  0.00000000000E+00  0.00000000000E+00 -0.17825170146E+04  0.17825170146E+04  0.25500000920E-02 0.  1.
    10030    2    1    2    0    0  0.00000000000E+00  0.00000000000E+00 -0.34675113175E+03  0.32182828974E+04  0.31995481650E+04 0.  0.
        3    1    3    3  502    0 -0.65248942258E+03 -0.45157182216E+03  0.12238649968E+04  0.14585969621E+04  0.10100000352E+00 0. -1.
       -3    1    3    3    0  502  0.65248942258E+03  0.45157182216E+03 -0.15706161286E+04  0.17596859353E+04  0.10100000352E+00 0.  1.
</event>
<event>
 5   0  0.1270948E-07  0.3254082E+04  0.7818609E-02  0.8174678E-01
       -1   -1    0    0    0  501  0.00000000000E+00  0.00000000000E+00  0.15631037257E+04  0.15631037258E+04  0.50400001928E-02 0. -1.
        1   -1    0    0  501    0  0.00000000000E+00  0.00000000000E+00 -0.16935937716E+04  0.16935937716E+04  0.50400001928E-02 0.  1.
    10030    2    1    2    0    0  0.00000000000E+00  0.00000000000E+00 -0.13049004587E+03  0.32566974974E+04  0.32540821958E+04 0.  0.
        4    1    3    3  502    0 -0.76001037386E+03  0.14134919178E+04  0.20271248367E+03  0.16176121705E+04  0.12699999809E+01 0.  1.
       -4    1    3    3    0  502  0.76001037386E+03 -0.14134919178E+04 -0.33320252954E+03  0.16390853269E+04  0.12699999809E+01 0. -1.
</event>
<event>
 5   0  0.3750285E-07  0.3204365E+04  0.7818609E-02  0.8187665E-01
       -2   -1    0    0    0  501  0.00000000000E+00  0.00000000000E+00  0.13844633701E+04  0.13844633701E+04  0.25500000920E-02 0. -1.
        2   -1    0    0  501    0  0.00000000000E+00  0.00000000000E+00 -0.18541399341E+04  0.18541399341E+04  0.25500000920E-02 0.  1.
    10030    2    1    2    0    0  0.00000000000E+00  0.00000000000E+00 -0.46967656402E+03  0.32386033042E+04  0.32043650365E+04 0.  0.
        1    1    3    3  502    0  0.35260214041E+03 -0.15369754103E+04  0.51681774384E+02  0.15777492472E+04  0.50400001928E-02 0. -1.
       -1    1    3    3    0  502 -0.35260214041E+03  0.15369754103E+04 -0.52135833840E+03  0.16608540569E+04  0.50400001928E-02 0.  1.
</event>
<event>
 5   0  0.1365455E-07  0.3197236E+04  0.7818609E-02  0.8189547E-01
        1   -1    0    0  501    0  0.00000000000E+00  0.00000000000E+00  0.11332447934E+04  0.11332447934E+04  0.50400001928E-02 0. -1.
       -1   -1    0    0    0  501  0.00000000000E+00  0.00000000000E+00 -0.22550995928E+04  0.22550995928E+04  0.50400001928E-02 0.  1.
    10030    2    1    2    0    0  0.00000000000E+00  0.00000000000E+00 -0.11218547994E+04  0.33883443862E+04  0.31972362266E+04 0.  0.
        3    1    3    3  502    0  0.37749382684E+03 -0.15345085310E+04 -0.81694941486E+03  0.17789391158E+04  0.10100000352E+00 0. -1.
       -3    1    3    3    0  502 -0.37749382684E+03  0.15345085310E+04 -0.30490538453E+03  0.16094052705E+04  0.10100000352E+00 0.  1.
</event>
<event>
 5   0  0.3830207E-07  0.3203602E+04  0.7818609E-02  0.8187867E-01
       -2   -1    0    0    0  501  0.00000000000E+00  0.00000000000E+00  0.13198121749E+04  0.13198121749E+04  0.25500000920E-02 0. -1.
        2   -1    0    0  501    0  0.00000000000E+00  0.00000000000E+00 -0.19440390190E+04  0.19440390190E+04  0.25500000920E-02 0.  1.
    10030    2    1    2    0    0  0.00000000000E+00  0.00000000000E+00 -0.62422684414E+03  0.32638511939E+04  0.32036019514E+04 0.  0.
        4    1    3    3  502    0  0.40778520690E+03  0.27979491178E+03 -0.18643117793E+04  0.19287908106E+04  0.12699999809E+01 0.  1.
       -4    1    3    3    0  502 -0.40778520690E+03 -0.27979491178E+03  0.12400849352E+04  0.13350603833E+04  0.12699999809E+01 0. -1.
</event>
<event>
 5   0  0.3830207E-07  0.3191479E+04  0.7818609E-02  0.8191071E-01
       -2   -1    0    0    0  501  0.00000000000E+00  0.00000000000E+00  0.10078051106E+04  0.10078051106E+04  0.25500000920E-02 0.  1.
        2   -1    0    0  501    0  0.00000000000E+00  0.00000000000E+00 -0.25266634711E+04  0.25266634711E+04  0.25500000920E-02 0. -1.
    10030    2    1    2    0    0  0.00000000000E+00  0.00000000000E+00 -0.15188583605E+04  0.35344685817E+04  0.31914788791E+04 0.  0.
        4    1    3    3  502    0 -0.38745301867E+03  0.13226380596E+04 -0.16501628365E+04  0.21500070414E+04  0.12699999809E+01 0. -1.
       -4    1    3    3    0  502  0.38745301867E+03 -0.13226380596E+04  0.13130447595E+03  0.13844615403E+04  0.12699999809E+01 0.  1.
</event>
<event>
 5   0  0.3764056E-07  0.3198912E+04  0.7818609E-02  0.8189105E-01
       -2   -1    0    0    0  501  0.00000000000E+00  0.00000000000E+00  0.12170684494E+04  0.12170684494E+04  0.25500000920E-02 0.  1.
        2   -1    0    0  501    0  0.00000000000E+00  0.00000000000E+00 -0.21019842418E+04  0.21019842418E+04  0.25500000920E-02 0. -1.
    10030    2    1    2    0    0  0.00000000000E+00  0.00000000000E+00 -0.88491579246E+03  0.33190526912E+04  0.31989115035E+04 0.  0.
        5    1    3    3  502    0 -0.42990612656E+03 -0.58889355388E+03  0.10346025464E+04  0.12657169567E+04  0.46999998093E+01 0.  1.
       -5    1    3    3    0  502  0.42990612656E+03  0.58889355388E+03 -0.19195183389E+04  0.20533357345E+04  0.46999998093E+01 0. -1.
</event>
<event>
 5   0  0.3858721E-07  0.3207930E+04  0.7818609E-02  0.8186726E-01
        2   -1    0    0  501    0  0.00000000000E+00  0.00000000000E+00  0.18039319774E+04  0.18039319774E+04  0.25500000920E-02 0. -1.
       -2   -1    0    0    0  501  0.00000000000E+00  0.00000000000E+00 -0.14261643798E+04  0.14261643798E+04  0.25500000920E-02 0.  1.
    10030    2    1    2    0    0  0.00000000000E+00  0.00000000000E+00  0.37776759762E+03  0.32300963572E+04  0.32079298806E+04 0.  0.
        2    1    3    3  502    0  0.13723625399E+03 -0.86115370688E+02 -0.14179039764E+04  0.14271304540E+04  0.25500000920E-02 0.  1.
       -2    1    3    3    0  502 -0.13723625399E+03  0.86115370688E+02  0.17956715740E+04  0.18029659032E+04  0.25500000920E-02 0. -1.
</event>
<event>
 5   0  0.3942564E-07  0.3196740E+04  0.7818609E-02  0.8189679E-01
       -2   -1    0    0    0  501  0.00000000000E+00  0.00000000000E+00  0.13842524760E+04  0.13842524760E+04  0.25500000920E-02 0.  1.
        2   -1    0    0  501    0  0.00000000000E+00  0.00000000000E+00 -0.18456070123E+04  0.18456070123E+04  0.25500000920E-02 0. -1.
    10030    2    1    2    0    0  0.00000000000E+00  0.00000000000E+00 -0.46135453627E+03  0.32298594883E+04  0.31967396369E+04 0.  0.
        3    1    3    3  502    0  0.42285024293E+03  0.37252779140E+03 -0.17419033033E+04  0.18307939293E+04  0.10100000352E+00 0. -1.
       -3    1    3    3    0  502 -0.42285024293E+03 -0.37252779140E+03  0.12805487670E+04  0.13990655590E+04  0.10100000352E+00 0.  1.
</event>
<event>
 5   0  0.3942564E-07  0.3200477E+04  0.7818609E-02  0.8188691E-01
       -2   -1    0    0    0  501  0.00000000000E+00  0.00000000000E+00  0.90220357098E+03  0.90220357099E+03  0.25500000920E-02 0.  1.
        2   -1    0    0  501    0  0.00000000000E+00  0.00000000000E+00 -0.28383436887E+04  0.28383436887E+04  0.25500000920E-02 0. -1.
    10030    2    1    2    0    0  0.00000000000E+00  0.00000000000E+00 -0.19361401177E+04  0.37405472597E+04  0.32004773467E+04 0.  0.
        3    1    3    3  502    0  0.76798396859E+03 -0.13654081634E+04 -0.58643360196E+03  0.16727352475E+04  0.10100000352E+00 0.  1.
       -3    1    3    3    0  502 -0.76798396859E+03  0.13654081634E+04 -0.13497065157E+04  0.20678120121E+04  0.10100000352E+00 0. -1.
</event>
<event>
 5   0  0.3858721E-07  0.3173517E+04  0.7818609E-02  0.8195846E-01
        2   -1    0    0  501    0  0.00000000000E+00  0.00000000000E+00  0.21151810465E+04  0.21151810465E+04  0.25500000920E-02 0. -1.
       -2   -1    0    0    0  501  0.00000000000E+00  0.00000000000E+00 -0.11903485120E+04  0.11903485120E+04  0.25500000920E-02 0.  1.
    10030    2    1    2    0    0  0.00000000000E+00  0.00000000000E+00  0.92483253456E+03  0.33055295585E+04  0.31735170466E+04 0.  0.
        2    1    3    3  502    0 -0.29030375221E+03  0.10580895670E+04  0.16563862239E+04  0.19868178384E+04  0.25500000920E-02 0. -1.
       -2    1    3    3    0  502  0.29030375221E+03 -0.10580895670E+04 -0.73155368934E+03  0.13187117201E+04  0.25500000920E-02 0.  1.
</event>
<event>
 5   0  0.1288096E-07  0.3199029E+04  0.7818609E-02  0.8189074E-01
       -1   -1    0    0    0  501  0.00000000000E+00  0.00000000000E+00  0.14885318282E+04  0.14885318282E+04  0.50400001928E-02 0. -1.
        1   -1    0    0  501    0  0.00000000000E+00  0.00000000000E+00 -0.17187721302E+04  0.17187721302E+04  0.50400001928E-02 0.  1.
    10030    2    1    2    0    0  0.00000000000E+00  0.00000000000E+00 -0.23024030201E+03  0.32073039584E+04  0.31990292411E+04 0.  0.
        2    1    3    3  502    0 -0.14975637224E+04 -0.50591888991E+03  0.13004456165E+03  0.15860525255E+04  0.25500000920E-02 0.  1.
       -2    1    3    3    0  502  0.14975637224E+04  0.50591888991E+03 -0.36028486366E+03  0.16212514329E+04  0.25500000920E-02 0. -1.
</event>
<event>
 5   0  0.3942564E-07  0.3205869E+04  0.7818609E-02  0.8187269E-01
        2   -1    0    0  501    0  0.00000000000E+00  0.00000000000E+00  0.21611708901E+04  0.21611708901E+04  0.25500000920E-02 0.  1.
       -2   -1    0    0    0  501  0.00000000000E+00  0.00000000000E+00 -0.11888918875E+04  0.11888918875E+04  0.25500000920E-02 0. -1.
    10030    2    1    2    0    0  0.00000000000E+00  0.00000000000E+00  0.97227900258E+03  0.33500627777E+04  0.32058687053E+04 0.  0.
        3    1    3    3  502    0  0.29426130297E+03 -0.26578182215E+03 -0.11368326383E+04  0.12040008925E+04  0.10100000352E+00 0. -1.
       -3    1    3    3    0  502 -0.29426130297E+03  0.26578182215E+03  0.21091116408E+04  0.21460618852E+04  0.10100000352E+00 0.  1.
</event>
<event>
 5   0  0.1270948E-07  0.3199740E+04  0.7818609E-02  0.8188886E-01
       -1   -1    0    0    0  501  0.00000000000E+00  0.00000000000E+00  0.11392258493E+04  0.11392258493E+04  0.50400001928E-02 0. -1.
        1   -1    0    0  501    0  0.00000000000E+00  0.00000000000E+00 -0.22467746200E+04  0.22467746200E+04  0.50400001928E-02 0.  1.
    10030    2    1    2    0    0  0.00000000000E+00  0.00000000000E+00 -0.11075487707E+04  0.33860004694E+04  0.31997398174E+04 0.  0.
        4    1    3    3  502    0  0.42160839459E+03  0.48052512840E+03 -0.21057499835E+04  0.22006459605E+04  0.12699999809E+01 0.  1.
       -4    1    3    3    0  502 -0.42160839459E+03 -0.48052512840E+03  0.99820121286E+03  0.11853545089E+04  0.12699999809E+01 0. -1.
</event>
<event>
 5   0  0.3750285E-07  0.3193012E+04  0.7818609E-02  0.8190665E-01
        2   -1    0    0  501    0  0.00000000000E+00  0.00000000000E+00  0.19498056303E+04  0.19498056303E+04  0.25500000920E-02 0. -1.
       -2   -1    0    0    0  501  0.00000000000E+00  0.00000000000E+00 -0.13072237273E+04  0.13072237273E+04  0.25500000920E-02 0.  1.
    10030    2    1    2    0    0  0.00000000000E+00  0.00000000000E+00  0.64258190298E+03  0.32570293576E+04  0.31930124858E+04 0.  0.
        1    1    3    3  502    0 -0.34292934094E+03 -0.12380859398E+04 -0.64553845375E+03  0.14377681393E+04  0.50400001928E-02 0.  1.
       -1    1    3    3    0  502  0.34292934094E+03  0.12380859398E+04  0.12881203567E+04  0.18192612183E+04  0.50400001928E-02 0. -1.
</event>
<event>
 5   0  0.3858721E-07  0.3256206E+04  0.7818609E-02  0.8174129E-01
       -2   -1    0    0    0  501  0.00000000000E+00  0.00000000000E+00  0.14768278053E+04  0.14768278053E+04  0.25500000920E-02 0. -1.
        2   -1    0    0  501    0  0.00000000000E+00  0.00000000000E+00 -0.17948741789E+04  0.17948741789E+04  0.25500000920E-02 0.  1.
    10030    2    1    2    0    0  0.00000000000E+00  0.00000000000E+00 -0.31804637355E+03  0.32717019842E+04  0.32562064397E+04 0.  0.
        2    1    3    3  502    0  0.34277359206E+03  0.11926524148E+04 -0.12179867756E+04  0.17387942097E+04  0.25500000920E-02 0.  1.
       -2    1    3    3    0  502 -0.34277359206E+03 -0.11926524148E+04  0.89994040206E+03  0.15329077746E+04  0.25500000920E-02 0. -1.
</event>
<event>
 5   0  0.1288096E-07  0.3198798E+04  0.7818609E-02  0.8189135E-01
        1   -1    0    0  501    0  0.00000000000E+00  0.00000000000E+00  0.28516206726E+04  0.28516206726E+04  0.50400001928E-02 0.  1.
       -1   -1    0    0    0  501  0.00000000000E+00  0.00000000000E+00 -0.89706059324E+03  0.89706059325E+03  0.50400001928E-02 0. -1.
    10030    2    1    2    0    0  0.00000000000E+00  0.00000000000E+00  0.19545600793E+04  0.37486812658E+04  0.31987976068E+04 0.  0.
        2    1    3    3  502    0 -0.78205197106E+03 -0.60080691017E+03  0.24529022794E+04  0.26437291505E+04  0.25500000920E-02 0.  1.
       -2    1    3    3    0  502  0.78205197106E+03  0.60080691017E+03 -0.49834220011E+03  0.11049521153E+04  0.25500000920E-02 0. -1.
</event>
<event>
 5   0  0.3764056E-07  0.3226172E+04  0.7818609E-02  0.8181939E-01
        2   -1    0    0  501    0  0.00000000000E+00  0.00000000000E+00  0.21896042250E+04  0.21896042250E+04  0.25500000920E-02 0. -1.
       -2   -1    0    0    0  501  0.00000000000E+00  0.00000000000E+00 -0.11883638149E+04  0.11883638149E+04  0.25500000920E-02 0.  1.
    10030    2    1    2    0    0  0.00000000000E+00  0.00000000000E+00  0.10012404101E+04  0.33779680398E+04  0.32261719916E+04 0.  0.
        5    1    3    3  502    0  0.93906833139E+03 -0.12985308223E+04  0.30757415043E+03  0.16317645588E+04  0.46999998093E+01 0.  1.
       -5    1    3    3    0  502 -0.93906833139E+03  0.12985308223E+04  0.69366625970E+03  0.17462034810E+04  0.46999998093E+01 0. -1.
</event>
<event>
 5   0  0.1365455E-07  0.3198862E+04  0.7818609E-02  0.8189118E-01
       -1   -1    0    0    0  501  0.00000000000E+00  0.00000000000E+00  0.14455614869E+04  0.14455614869E+04  0.50400001928E-02 0. -1.
        1   -1    0    0  501    0  0.00000000000E+00  0.00000000000E+00 -0.17696787835E+04  0.17696787835E+04  0.50400001928E-02 0.  1.
    10030    2    1    2    0    0  0.00000000000E+00  0.00000000000E+00 -0.32411729662E+03  0.32152402704E+04  0.31988619812E+04 0.  0.
        3    1    3    3  502    0 -0.87940094042E+03  0.56191367750E+03 -0.13803232141E+04  0.17304291897E+04  0.10100000352E+00 0.  1.
       -3    1    3    3    0  502  0.87940094042E+03 -0.56191367750E+03  0.10562059175E+04  0.14848110807E+04  0.10100000352E+00 0. -1.
</event>
<event>
 5   0  0.1365455E-07  0.3206454E+04  0.7818609E-02  0.8187115E-01
        1   -1    0    0  501    0  0.00000000000E+00  0.00000000000E+00  0.13384511875E+04  0.13384511875E+04  0.50400001928E-02 0.  1.
       -1   -1    0    0    0  501  0.00000000000E+00  0.00000000000E+00 -0.19203811497E+04  0.19203811497E+04  0.50400001928E-02 0. -1.
    10030    2    1    2    0    0  0.00000000000E+00  0.00000000000E+00 -0.58192996222E+03  0.32588323372E+04  0.32064537610E+04 0.  0.
        3    1    3    3  502    0  0.90469193416E+01  0.66534903100E+03 -0.17734096027E+04  0.18941364283E+04  0.10100000352E+00 0. -1.
       -3    1    3    3    0  502 -0.90469193416E+01 -0.66534903100E+03  0.11914796405E+04  0.13646959089E+04  0.10100000352E+00 0.  1.
</event>
<event>
 5   0  0.1270948E-07  0.3176797E+04  0.7818609E-02  0.8194972E-01
        1   -1    0    0  501    0  0.00000000000E+00  0.00000000000E+00  0.20995106002E+04  0.20995106002E+04  0.50400001928E-02 0.  1.
       -1   -1    0    0    0  501  0.00000000000E+00  0.00000000000E+00 -0.12017134459E+04  0.12017134459E+04  0.50400001928E-02 0. -1.
    10030    2    1    2    0    0  0.00000000000E+00  0.00000000000E+00  0.89779715423E+03  0.33012240461E+04  0.31767972035E+04 0.  0.
        4    1    3    3  502    0 -0.15219917605E+03 -0.68234926857E+03  0.19310308535E+04  0.20536910390E+04  0.12699999809E+01 0.  1.
       -4    1    3    3    0  502  0.15219917605E+03  0.68234926857E+03 -0.10332336993E+04  0.12475330071E+04  0.12699999809E+01 0. -1.
</event>
<event>
 5   0  0.3830207E-07  0.3199361E+04  0.7818609E-02  0.8188986E-01
       -2   -1    0    0    0  501  0.00000000000E+00  0.00000000000E+00  0.93357520468E+03  0.93357520468E+03  0.25500000920E-02 0. -1.
        2   -1    0    0  501    0  0.00000000000E+00  0.00000000000E+00 -0.27410513898E+04  0.27410513898E+04  0.25500000920E-02 0.  1.
    10030    2    1    2    0    0  0.00000000000E+00  0.00000000000E+00 -0.18074761851E+04  0.36746265944E+04  0.31993609438E+04 0.  0.
        4    1    3    3  502    0  0.14022042103E+04 -0.76789657131E+03 -0.96803852091E+03  0.18689414069E+04  0.12699999809E+01 0.  1.
       -4    1    3    3    0  502 -0.14022042103E+04  0.76789657131E+03 -0.83943766417E+03  0.18056851875E+04  0.12699999809E+01 0. -1.
</event>
<event>
 5   0  0.3858721E-07  0.3200590E+04  0.7818609E-02  0.8188661E-01
       -2   -1    0    0    0  501  0.00000000000E+00  0.00000000000E+00  0.16386387305E+04  0.16386387305E+04  0.25500000920E-02 0. -1.
        2   -1    0    0  501    0  0.00000000000E+00  0.00000000000E+00 -0.15628487974E+04  0.15628487974E+04  0.25500000920E-02 0.  1.
    10030    2    1    2    0    0  0.00000000000E+00  0.00000000000E+00  0.75789933062E+02  0.32014875280E+04  0.32005903014E+04 0.  0.
        2    1    3    3  502    0 -0.20388543928E+03  0.15436054162E+04  0.40767090629E+03  0.16094975990E+04  0.25500000920E-02 0. -1.
       -2    1    3    3    0  502  0.20388543928E+03 -0.15436054162E+04 -0.33188097323E+03  0.15919899289E+04  0.25500000920E-02 0.  1.
</event>
<event>
 5   0  0.3830207E-07  0.3199672E+04  0.7818609E-02  0.8188904E-01
        2   -1    0    0  501    0  0.00000000000E+00  0.00000000000E+00  0.13569020822E+04  0.13569020822E+04  0.25500000920E-02 0.  1.
       -2   -1    0    0    0  501  0.00000000000E+00  0.00000000000E+00 -0.18862634336E+04  0.18862634336E+04  0.25500000920E-02 0. -1.
    10030    2    1    2    0    0  0.00000000000E+00  0.00000000000E+00 -0.52936135146E+03  0.32431655158E+04  0.31996717211E+04 0.  0.
        4    1    3    3  502    0  0.14269945599E+03 -0.14970698046E+03  0.13432940933E+04  0.13591232280E+04  0.12699999809E+01 0.  1.
       -4    1    3    3    0  502 -0.14269945599E+03  0.14970698046E+03 -0.18726554448E+04  0.18840422879E+04  0.12699999809E+01 0. -1.
</event>
<event>
 5   0  0.3750285E-07  0.3244525E+04  0.7818609E-02  0.8177156E-01
        2   -1    0    0  501    0  0.00000000000E+00  0.00000000000E+00  0.11388305355E+04  0.11388305355E+04  0.25500000920E-02 0. -1.
       -2   -1    0    0    0  501  0.00000000000E+00  0.00000000000E+00 -0.23109103038E+04  0.23109103038E+04  0.25500000920E-02 0.  1.
    10030    2    1    2    0    0  0.00000000000E+00  0.00000000000E+00 -0.11720797683E+04  0.34497408392E+04  0.32445247533E+04 0.  0.
        1    1    3    3  502    0  0.59878205833E+03 -0.67989120938E+03 -0.20168690814E+04  0.22110072143E+04  0.50400001928E-02 0.  1.
       -1    1    3    3    0  502 -0.59878205833E+03  0.67989120938E+03  0.84478931315E+03  0.12387336250E+04  0.50400001928E-02 0. -1.
</event>
<event>
 5   0  0.3942564E-07  0.3204913E+04  0.7818609E-02  0.8187521E-01
        2   -1    0    0  501    0  0.00000000000E+00  0.00000000000E+00  0.16453849236E+04  0.16453849236E+04  0.25500000920E-02 0. -1.
       -2   -1    0    0    0  501  0.00000000000E+00  0.00000000000E+00 -0.15606483374E+04  0.15606483374E+04  0.25500000920E-02 0.  1.
    10030    2    1    2    0    0  0.00000000000E+00  0.00000000000E+00  0.84736586201E+02  0.32060332611E+04  0.32049132566E+04 0.  0.
        3    1    3    3  502    0  0.14549786158E+04  0.95033113230E+02  0.70733600844E+03  0.16205919610E+04  0.10100000352E+00 0.  1.
       -3    1    3    3    0  502 -0.14549786158E+04 -0.95033113230E+02 -0.62259942224E+03  0.15854413001E+04  0.10100000352E+00 0. -1.
</event>
<event>
 5   0  0.1317293E-07  0.3205921E+04  0.7818609E-02  0.8187255E-01
       -1   -1    0    0    0  501  0.00000000000E+00  0.00000000000E+00  0.13012576947E+04  0.13012576947E+04  0.50400001928E-02 0.  1.
        1   -1    0    0  501    0  0.00000000000E+00  0.00000000000E+00 -0.19746143194E+04  0.19746143194E+04  0.50400001928E-02 0. -1.
    10030    2    1    2    0    0  0.00000000000E+00  0.00000000000E+00 -0.67335662468E+03  0.32758720142E+04  0.32059208208E+04 0.  0.
        1    1    3    3  502    0 -0.26199949628E+03 -0.75115417678E+02 -0.19507635591E+04  0.19697117874E+04  0.50400001928E-02 0. -1.
       -1    1    3    3    0  502  0.26199949628E+03  0.75115417678E+02  0.12774069344E+04  0.13061602268E+04  0.50400001928E-02 0.  1.
</event>
<event>
 5   0  0.3858721E-07  0.3199605E+04  0.7818609E-02  0.8188922E-01
        2   -1    0    0  501    0  0.00000000000E+00  0.00000000000E+00  0.98392125715E+03  0.98392125715E+03  0.25500000920E-02 0.  1.
       -2   -1    0    0    0  501  0.00000000000E+00  0.00000000000E+00 -0.26011916217E+04  0.26011916217E+04  0.25500000920E-02 0. -1.
    10030    2    1    2    0    0  0.00000000000E+00  0.00000000000E+00 -0.16172703646E+04  0.35851128789E+04  0.31996048072E+04 0.  0.
        2    1    3    3  502    0  0.14972116480E+03 -0.13537159861E+04  0.13177538957E+03  0.13683304249E+04  0.25500000920E-02 0.  1.
       -2    1    3    3    0  502 -0.14972116480E+03  0.13537159861E+04 -0.17490457542E+04  0.22167824540E+04  0.25500000920E-02 0. -1.
</event>
<event>
 5   0  0.1270948E-07  0.3198910E+04  0.7818609E-02  0.8189105E-01
       -1   -1    0    0    0  501  0.00000000000E+00  0.00000000000E+00  0.14770979872E+04  0.14770979872E+04  0.50400001928E-02 0.  1.
        1   -1    0    0  501    0  0.00000000000E+00  0.00000000000E+00 -0.17319477133E+04  0.17319477133E+04  0.50400001928E-02 0. -1.
    10030    2    1    2    0    0  0.00000000000E+00  0.00000000000E+00 -0.25484972615E+03  0.32090457005E+04  0.31989101151E+04 0.  0.
        4    1    3    3  502    0  0.43000255926E+03  0.96337671924E+03  0.10785730337E+04  0.15087472638E+04  0.12699999809E+01 0.  1.
       -4    1    3    3    0  502 -0.43000255926E+03 -0.96337671924E+03 -0.13334227599E+04  0.17002984366E+04  0.12699999809E+01 0. -1.
</event>
<event>
 5   0  0.3830207E-07  0.3204861E+04  0.7818609E-02  0.8187535E-01
       -2   -1    0    0    0  501  0.00000000000E+00  0.00000000000E+00  0.30097350563E+04  0.30097350563E+04  0.25500000920E-02 0. -1.
        2   -1    0    0  501    0  0.00000000000E+00  0.00000000000E+00 -0.85315915533E+03  0.85315915534E+03  0.25500000920E-02 0.  1.
    10030    2    1    2    0    0  0.00000000000E+00  0.00000000000E+00  0.21565759010E+04  0.38628942117E+04  0.32048606949E+04 0.  0.
        4    1    3    3  502    0 -0.21530704619E+03  0.62186166273E+03 -0.68276875221E+03  0.94828467962E+03  0.12699999809E+01 0.  1.
       -4    1    3    3    0  502  0.21530704619E+03 -0.62186166273E+03  0.28393446532E+04  0.29146095321E+04  0.12699999809E+01 0. -1.
</event>
<event>
 5   0  0.3830207E-07  0.3193342E+04  0.7818609E-02  0.8190578E-01
       -2   -1    0    0    0  501  0.00000000000E+00  0.00000000000E+00  0.10908239466E+04  0.10908239466E+04  0.25500000920E-02 0. -1.
        2   -1    0    0  501    0  0.00000000000E+00  0.00000000000E+00 -0.23370945169E+04  0.23370945169E+04  0.25500000920E-02 0.  1.
    10030    2    1    2    0    0  0.00000000000E+00  0.00000000000E+00 -0.12462705703E+04  0.34279184636E+04  0.31933422395E+04 0.  0.
        4    1    3    3  502    0  0.13451964889E+04  0.11282732596E+02 -0.15463566107E+04  0.20496100298E+04  0.12699999809E+01 0.  1.
       -4    1    3    3    0  502 -0.13451964889E+04 -0.11282732596E+02  0.30008604046E+03  0.13783084337E+04  0.12699999809E+01 0. -1.
</event>
<event>
 5   0  0.1317293E-07  0.3176264E+04  0.7818609E-02  0.8195114E-01
        1   -1    0    0  501    0  0.00000000000E+00  0.00000000000E+00  0.18144706014E+04  0.18144706014E+04  0.50400001928E-02 0.  1.
       -1   -1    0    0    0  501  0.00000000000E+00  0.00000000000E+00 -0.13900271503E+04  0.13900271503E+04  0.50400001928E-02 0. -1.
    10030    2    1    2    0    0  0.00000000000E+00  0.00000000000E+00  0.42444345112E+03  0.32044977518E+04  0.31762640945E+04 0.  0.
        1    1    3    3  502    0  0.71826492336E+03  0.94973430098E+03  0.12724020878E+04  0.17426723203E+04  0.50400001928E-02 0.  1.
       -1    1    3    3    0  502 -0.71826492336E+03 -0.94973430098E+03 -0.84795863673E+03  0.14618254315E+04  0.50400001928E-02 0. -1.
</event>
<event>
 5   0  0.1365455E-07  0.3195959E+04  0.7818609E-02  0.8189885E-01
        1   -1    0    0  501    0  0.00000000000E+00  0.00000000000E+00  0.21997146374E+04  0.21997146374E+04  0.50400001928E-02 0. -1.
       -1   -1    0    0    0  501  0.00000000000E+00  0.00000000000E+00 -0.11608501051E+04  0.11608501051E+04  0.50400001928E-02 0.  1.
    10030    2    1    2    0    0  0.00000000000E+00  0.00000000000E+00  0.10388645323E+04  0.33605647425E+04  0.31959593039E+04 0.  0.
        3    1    3    3  502    0  0.85705669026E+03 -0.99247178823E+03  0.14796994959E+04  0.19771335385E+04  0.10100000352E+00 0. -1.
       -3    1    3    3    0  502 -0.85705669026E+03  0.99247178823E+03 -0.44083496359E+03  0.13834312040E+04  0.10100000352E+00 0.  1.
</event>
<event>
 5   0  0.3942564E-07  0.3299609E+04  0.7818609E-02  0.8162995E-01
       -2   -1    0    0    0  501  0.00000000000E+00  0.00000000000E+00  0.12508425530E+04  0.12508425530E+04  0.25500000920E-02 0. -1.
        2   -1    0    0  501    0  0.00000000000E+00  0.00000000000E+00 -0.21760170066E+04  0.21760170066E+04  0.25500000920E-02 0.  1.
    10030    2    1    2    0    0  0.00000000000E+00  0.00000000000E+00 -0.92517445358E+03  0.34268595595E+04  0.32996088664E+04 0.  0.
        3    1    3    3  502    0 -0.11720942763E+04 -0.90999463769E+03 -0.12114781584E+04  0.19156133669E+04  0.10100000352E+00 0.  1.
       -3    1    3    3    0  502  0.11720942763E+04  0.90999463769E+03  0.28630370484E+03  0.15112461926E+04  0.10100000352E+00 0. -1.
</event>
<event>
 5   0  0.1277374E-07  0.3202750E+04  0.7818609E-02  0.8188091E-01
       -1   -1    0    0    0  501  0.00000000000E+00  0.00000000000E+00  0.11531353417E+04  0.11531353417E+04  0.50400001928E-02 0. -1.
        1   -1    0    0  501    0  0.00000000000E+00  0.00000000000E+00 -0.22238513282E+04  0.22238513282E+04  0.50400001928E-02 0.  1.
    10030    2    1    2    0    0  0.00000000000E+00  0.00000000000E+00 -0.10707159865E+04  0.33769866699E+04  0.32027497943E+04 0.  0.
        5    1    3    3  502    0 -0.12045446684E+04  0.13071654835E+03  0.56867963532E+03  0.13384443551E+04  0.46999998093E+01 0. -1.
       -5    1    3    3    0  502  0.12045446684E+04 -0.13071654835E+03 -0.16393956219E+04  0.20385423148E+04  0.46999998093E+01 0.  1.
</event>
<event>
 5   0  0.1270948E-07  0.3200104E+04  0.7818609E-02  0.8188790E-01
       -1   -1    0    0    0  501  0.00000000000E+00  0.00000000000E+00  0.92922335749E+03  0.92922335750E+03  0.50400001928E-02 0. -1.
        1   -1    0    0  501    0  0.00000000000E+00  0.00000000000E+00 -0.27551680024E+04  0.27551680024E+04  0.50400001928E-02 0.  1.
    10030    2    1    2    0    0  0.00000000000E+00  0.00000000000E+00 -0.18259446450E+04  0.36843913599E+04  0.32001040369E+04 0.  0.
        4    1    3    3  502    0 -0.12999370968E+04 -0.85847266841E+03 -0.49253315436E+03  0.16338305601E+04  0.12699999809E+01 0.  1.
       -4    1    3    3    0  502  0.12999370968E+04  0.85847266841E+03 -0.13334114906E+04  0.20505607999E+04  0.12699999809E+01 0. -1.
</event>
<event>
 5   0  0.3830207E-07  0.3197211E+04  0.7818609E-02  0.8189554E-01
       -2   -1    0    0    0  501  0.00000000000E+00  0.00000000000E+00  0.91536202968E+03  0.91536202969E+03  0.25500000920E-02 0. -1.
        2   -1    0    0  501    0  0.00000000000E+00  0.00000000000E+00 -0.27918349858E+04  0.27918349858E+04  0.25500000920E-02 0.  1.
    10030    2    1    2    0    0  0.00000000000E+00  0.00000000000E+00 -0.18764729561E+04  0.37071970155E+04  0.31972111217E+04 0.  0.
        4    1    3    3  502    0 -0.14416014477E+03 -0.14718263272E+04 -0.23438144188E+03  0.14973280061E+04  0.12699999809E+01 0. -1.
       -4    1    3    3    0  502  0.14416014477E+03  0.14718263272E+04 -0.16420915143E+04  0.22098690094E+04  0.12699999809E+01 0.  1.
</event>
<event>
 5   0  0.3750285E-07  0.3195414E+04  0.7818609E-02  0.8190029E-01
       -2   -1    0    0    0  501  0.00000000000E+00  0.00000000000E+00  0.91831208874E+03  0.91831208874E+03  0.25500000920E-02 0. -1.
        2   -1    0    0  501    0  0.00000000000E+00  0.00000000000E+00 -0.27797390422E+04  0.27797390422E+04  0.25500000920E-02 0.  1.
    10030    2    1    2    0    0  0.00000000000E+00  0.00000000000E+00 -0.18614269535E+04  0.36980511310E+04  0.31954141929E+04 0.  0.
        1    1    3    3  502    0  0.11579376799E+03  0.60689610249E+03 -0.26358900250E+04  0.27073321370E+04  0.50400001928E-02 0.  1.
       -1    1    3    3    0  502 -0.11579376799E+03 -0.60689610249E+03  0.77446307151E+03  0.99071899401E+03  0.50400001928E-02 0. -1.
</event>
<event>
 5   0  0.1288096E-07  0.3203243E+04  0.7818609E-02  0.8187961E-01
        1   -1    0    0  501    0  0.00000000000E+00  0.00000000000E+00  0.13690398790E+04  0.13690398790E+04  0.50400001928E-02 0. -1.
       -1   -1    0    0    0  501  0.00000000000E+00  0.00000000000E+00 -0.18737156672E+04  0.18737156672E+04  0.50400001928E-02 0.  1.
    10030    2    1    2    0    0  0.00000000000E+00  0.00000000000E+00 -0.50467578814E+03  0.32427555462E+04  0.32032430256E+04 0.  0.
        2    1    3    3  502    0 -0.51801390286E+03 -0.12578084668E+04  0.60353202261E+03  0.14881772223E+04  0.25500000920E-02 0. -1.
       -2    1    3    3    0  502  0.51801390286E+03  0.12578084668E+04 -0.11082078108E+04  0.17545783239E+04  0.25500000920E-02 0.  1.
</event>
<event>
 5   0  0.3858721E-07  0.3198914E+04  0.7818609E-02  0.8189104E-01
       -2   -1    0    0    0  501  0.00000000000E+00  0.00000000000E+00  0.12383744653E+04  0.12383744653E+04  0.25500000920E-02 0.  1.
        2   -1    0    0  501    0  0.00000000000E+00  0.00000000000E+00 -0.20658230255E+04  0.20658230255E+04  0.25500000920E-02 0. -1.
    10030    2    1    2    0    0  0.00000000000E+00  0.00000000000E+00 -0.82744856020E+03  0.33041974909E+04  0.31989138686E+04 0.  0.
        2    1    3    3  502    0 -0.12559922460E+04 -0.98897151417E+03 -0.46720985936E+03  0.16654927891E+04  0.25500000920E-02 0. -1.
       -2    1    3    3    0  502  0.12559922460E+04  0.98897151417E+03 -0.36023870084E+03  0.16387047017E+04  0.25500000920E-02 0.  1.
</event>
<event>
 5   0  0.3750285E-07  0.3185812E+04  0.7818609E-02  0.8192574E-01
        2   -1    0    0  501    0  0.00000000000E+00  0.00000000000E+00  0.25004037734E+04  0.25004037734E+04  0.25500000920E-02 0.  1.
       -2   -1    0    0    0  501  0.00000000000E+00  0.00000000000E+00 -0.10147757522E+04  0.10147757522E+04  0.25500000920E-02 0. -1.
    10030    2    1    2    0    0  0.00000000000E+00  0.00000000000E+00  0.14856280212E+04  0.35151795256E+04  0.31858117458E+04 0.  0.
        1    1    3    3  502    0  0.49486815948E+03  0.61539324788E+03  0.22692181086E+04  0.24026972696E+04  0.50400001928E-02 0.  1.
       -1    1    3    3    0  502 -0.49486815948E+03 -0.61539324788E+03 -0.78359008742E+03  0.11124822560E+04  0.50400001928E-02 0. -1.
</event>
<event>
 5   0  0.3942564E-07  0.3228368E+04  0.7818609E-02  0.8181365E-01
        2   -1    0    0  501    0  0.00000000000E+00  0.00000000000E+00  0.24778757730E+04  0.24778757730E+04  0.25500000920E-02 0. -1.
       -2   -1    0    0    0  501  0.00000000000E+00  0.00000000000E+00 -0.10515416406E+04  0.10515416406E+04  0.25500000920E-02 0.  1.
    10030    2    1    2    0    0  0.00000000000E+00  0.00000000000E+00  0.14263341325E+04  0.35294174136E+04  0.32283677334E+04 0.  0.
        3    1    3    3  502    0  0.15665517977E+04  0.24579089355E+03  0.10431259156E+04  0.18980541046E+04  0.10100000352E+00 0.  1.
       -3    1    3    3    0  502 -0.15665517977E+04 -0.24579089355E+03  0.38320821690E+03  0.16313633090E+04  0.10100000352E+00 0. -1.
</event>
<event>
 5   0  0.3858721E-07  0.3195583E+04  0.7818609E-02  0.8189985E-01
       -2   -1    0    0    0  501  0.00000000000E+00  0.00000000000E+00  0.12723377953E+04  0.12723377953E+04  0.25500000920E-02 0. -1.
        2   -1    0    0  501    0  0.00000000000E+00  0.00000000000E+00 -0.20064933147E+04  0.20064933147E+04  0.25500000920E-02 0.  1.
    10030    2    1    2    0    0  0.00000000000E+00  0.00000000000E+00 -0.73415551937E+03  0.32788311100E+04  0.31955827514E+04 0.  0.
        2    1    3    3  502    0  0.75996814044E+03  0.11482935472E+04 -0.11986271991E+04  0.18256058741E+04  0.25500000920E-02 0.  1.
       -2    1    3    3    0  502 -0.75996814044E+03 -0.11482935472E+04  0.46447167969E+03  0.14532252359E+04  0.25500000920E-02 0. -1.
</event>
<event>
 5   0  0.1277374E-07  0.3197410E+04  0.7818609E-02  0.8189502E-01
       -1   -1    0    0    0  501  0.00000000000E+00  0.00000000000E+00  0.14806081870E+04  0.14806081870E+04  0.50400001928E-02 0.  1.
        1   -1    0    0  501    0  0.00000000000E+00  0.00000000000E+00 -0.17262210058E+04  0.17262210058E+04  0.50400001928E-02 0. -1.
    10030    2    1    2    0    0  0.00000000000E+00  0.00000000000E+00 -0.24561281880E+03  0.32068291928E+04  0.31974095476E+04 0.  0.
        5    1    3    3  502    0 -0.34187839358E+01  0.12641547152E+04  0.85871657587E+03  0.15282392089E+04  0.46999998093E+01 0. -1.
       -5    1    3    3    0  502  0.34187839358E+01 -0.12641547152E+04 -0.11043293947E+04  0.16785899839E+04  0.46999998093E+01 0.  1.
</event>
<event>
 5   0  0.3830207E-07  0.3205033E+04  0.7818609E-02  0.8187489E-01
       -2   -1    0    0    0  501  0.00000000000E+00  0.00000000000E+00  0.12449123143E+04  0.12449123143E+04  0.25500000920E-02 0.  1.
        2   -1    0    0  501    0  0.00000000000E+00  0.00000000000E+00 -0.20628427781E+04  0.20628427781E+04  0.25500000920E-02 0. -1.
    10030    2    1    2    0    0  0.00000000000E+00  0.00000000000E+00 -0.81793046385E+03  0.33077550924E+04  0.32050325284E+04 0.  0.
        4    1    3    3  502    0 -0.13855807554E+04 -0.68988397690E+03  0.19407587827E+02  0.15479509678E+04  0.12699999809E+01 0.  1.
       -4    1    3    3    0  502  0.13855807554E+04  0.68988397690E+03 -0.83733805167E+03  0.17598041246E+04  0.12699999809E+01 0. -1.
</event>
<event>
 5   0  0.1365455E-07  0.3202022E+04  0.7818609E-02  0.8188283E-01
        1   -1    0    0  501    0  0.00000000000E+00  0.00000000000E+00  0.16572383888E+04  0.16572383888E+04  0.50400001928E-02 0. -1.
       -1   -1    0    0    0  501  0.00000000000E+00  0.00000000000E+00 -0.15466914012E+04  0.15466914012E+04  0.50400001928E-02 0.  1.
    10030    2    1    2    0    0  0.00000000000E+00  0.00000000000E+00  0.11054698755E+03  0.32039297900E+04  0.32020220897E+04 0.  0.
        3    1    3    3  502    0 -0.54060551062E+03  0.26753518093E+03  0.15391968307E+04  0.16531655347E+04  0.10100000352E+00 0. -1.
       -3    1    3    3    0  502  0.54060551062E+03 -0.26753518093E+03 -0.14286498432E+04  0.15507642554E+04  0.10100000352E+00 0.  1.
</event>
<event>
 5   0  0.1365455E-07  0.3194603E+04  0.7818609E-02  0.8190244E-01
        1   -1    0    0  501    0  0.00000000000E+00  0.00000000000E+00  0.35074107771E+04  0.35074107771E+04  0.50400001928E-02 0. -1.
       -1   -1    0    0    0  501  0.00000000000E+00  0.00000000000E+00 -0.72742336021E+03  0.72742336022E+03  0.50400001928E-02 0.  1.
    10030    2    1    2    0    0  0.00000000000E+00  0.00000000000E+00  0.27799874169E+04  0.42348341373E+04  0.31946032825E+04 0.  0.
        3    1    3    3  502    0 -0.52290071531E+03  0.99325641748E+03  0.28964204697E+04  0.31063217825E+04  0.10100000352E+00 0. -1.
       -3    1    3    3    0  502  0.52290071531E+03 -0.99325641748E+03 -0.11643305284E+03  0.11285123548E+04  0.10100000352E+00 0.  1.
</event>
<event>
 5   0  0.3942564E-07  0.3203730E+04  0.7818609E-02  0.8187833E-01
       -2   -1    0    0    0  501  0.00000000000E+00  0.00000000000E+00  0.12936916788E+04  0.12936916788E+04  0.25500000920E-02 0. -1.
        2   -1    0    0  501    0  0.00000000000E+00  0.00000000000E+00 -0.19834486035E+04  0.19834486035E+04  0.25500000920E-02 0.  1.
    10030    2    1    2    0    0  0.00000000000E+00  0.00000000000E+00 -0.68975692471E+03  0.32771402824E+04  0.32037296726E+04 0.  0.
        3    1    3    3  502    0  0.52769625975E+03 -0.11341251388E+04  0.67868385109E+03  0.14231356060E+04  0.10100000352E+00 0. -1.
       -3    1    3    3    0  502 -0.52769625975E+03  0.11341251388E+04 -0.13684407758E+04  0.18540046764E+04  0.10100000352E+00 0.  1.
</event>
<event>
 5   0  0.1230450E-07  0.3128280E+04  0.7818609E-02  0.8208019E-01
       -3   -1    0    0    0  501  0.00000000000E+00  0.00000000000E+00  0.17435827236E+04  0.17435827265E+04  0.10100000352E+00 0.  1.
        3   -1    0    0  501    0  0.00000000000E+00  0.00000000000E+00 -0.14031650638E+04  0.14031650674E+04  0.10100000352E+00 0. -1.
    10030    2    1    2    0    0  0.00000000000E+00  0.00000000000E+00  0.34041765981E+03  0.31467477939E+04  0.31282802776E+04 0.  0.
        5    1    3    3  502    0  0.11452855647E+04 -0.87344789651E+03 -0.44324549453E+03  0.15070099240E+04  0.46999998093E+01 0. -1.
       -5    1    3    3    0  502 -0.11452855647E+04  0.87344789651E+03  0.78366315434E+03  0.16397378699E+04  0.46999998093E+01 0.  1.
</event>
<event>
 5   0  0.1365455E-07  0.3199116E+04  0.7818609E-02  0.8189051E-01
       -1   -1    0    0    0  501  0.00000000000E+00  0.00000000000E+00  0.11311999007E+04  0.11311999007E+04  0.50400001928E-02 0.  1.
        1   -1    0    0  501    0  0.00000000000E+00  0.00000000000E+00 -0.22618335904E+04  0.22618335904E+04  0.50400001928E-02 0. -1.
    10030    2    1    2    0    0  0.00000000000E+00  0.00000000000E+00 -0.11306336897E+04  0.33930334911E+04  0.31991160859E+04 0.  0.
        3    1    3    3  502    0 -0.74289721974E+03 -0.13910086269E+04 -0.84948402661E+03  0.17912075259E+04  0.10100000352E+00 0.  1.
       -3    1    3    3    0  502  0.74289721974E+03  0.13910086269E+04 -0.28114966307E+03  0.16018259651E+04  0.10100000352E+00 0. -1.
</event>
<event>
 5   0  0.1270948E-07  0.3192467E+04  0.7818609E-02  0.8190809E-01
        1   -1    0    0  501    0  0.00000000000E+00  0.00000000000E+00  0.17106995398E+04  0.17106995398E+04  0.50400001928E-02 0.  1.
       -1   -1    0    0    0  501  0.00000000000E+00  0.00000000000E+00 -0.14894265681E+04  0.14894265681E+04  0.50400001928E-02 0. -1.
    10030    2    1    2    0    0  0.00000000000E+00  0.00000000000E+00  0.22127297174E+03  0.32001261079E+04  0.31924669738E+04 0.  0.
        4    1    3    3  502    0 -0.11771631490E+04  0.15567031821E+03  0.11799729307E+04  0.16740024066E+04  0.12699999809E+01 0.  1.
       -4    1    3    3    0  502  0.11771631490E+04 -0.15567031821E+03 -0.95869995897E+03  0.15261237013E+04  0.12699999809E+01 0. -1.
</event>
<event>
 5   0  0.1277374E-07  0.3192073E+04  0.7818609E-02  0.8190914E-01
       -1   -1    0    0    0  501  0.00000000000E+00  0.00000000000E+00  0.16899964198E+04  0.16899964198E+04  0.50400001928E-02 0.  1.
        1   -1    0    0  501    0  0.00000000000E+00  0.00000000000E+00 -0.15073004125E+04  0.15073004125E+04  0.50400001928E-02 0. -1.
    10030    2    1    2    0    0  0.00000000000E+00  0.00000000000E+00  0.18269600731E+03  0.31972968323E+04  0.31920728692E+04 0.  0.
        5    1    3    3  502    0  0.10565162746E+04  0.99787323180E+03  0.75222517222E+03  0.16364114473E+04  0.46999998093E+01 0. -1.
       -5    1    3    3    0  502 -0.10565162746E+04 -0.99787323180E+03 -0.56952916491E+03  0.15608853849E+04  0.46999998093E+01 0.  1.
</event>
<event>
 5   0  0.1270948E-07  0.3195409E+04  0.7818609E-02  0.8190031E-01
        1   -1    0    0  501    0  0.00000000000E+00  0.00000000000E+00  0.17998490442E+04  0.17998490442E+04  0.50400001928E-02 0.  1.
       -1   -1    0    0    0  501  0.00000000000E+00  0.00000000000E+00 -0.14182632605E+04  0.14182632605E+04  0.50400001928E-02 0. -1.
    10030    2    1    2    0    0  0.00000000000E+00  0.00000000000E+00  0.38158578371E+03  0.32181123048E+04  0.31954090655E+04 0.  0.
        4    1    3    3  502    0  0.85483212483E+03 -0.85910744182E+03 -0.85768733862E+03  0.14847332225E+04  0.12699999809E+01 0. -1.
       -4    1    3    3    0  502 -0.85483212483E+03  0.85910744182E+03  0.12392731223E+04  0.17333790823E+04  0.12699999809E+01 0.  1.
</event>
<event>
 5   0  0.3942564E-07  0.3209630E+04  0.7818609E-02  0.8186279E-01
       -2   -1    0    0    0  501  0.00000000000E+00  0.00000000000E+00  0.10201467632E+04  0.10201467632E+04  0.25500000920E-02 0. -1.
        2   -1    0    0  501    0  0.00000000000E+00  0.00000000000E+00 -0.25245689034E+04  0.25245689034E+04  0.25500000920E-02 0.  1.
    10030    2    1    2    0    0  0.00000000000E+00  0.00000000000E+00 -0.15044221402E+04  0.35447156666E+04  0.32096297576E+04 0.  0.
        3    1    3    3  502    0 -0.15965777265E+04  0.16230025781E+03 -0.75815585464E+03  0.17748808750E+04  0.10100000352E+00 0.  1.
       -3    1    3    3    0  502  0.15965777265E+04 -0.16230025781E+03 -0.74626628553E+03  0.17698347916E+04  0.10100000352E+00 0. -1.
</event>
<event>
 5   0  0.1317293E-07  0.3204247E+04  0.7818609E-02  0.8187696E-01
        1   -1    0    0  501    0  0.00000000000E+00  0.00000000000E+00  0.16548365476E+04  0.16548365477E+04  0.50400001928E-02 0.  1.
       -1   -1    0    0    0  501  0.00000000000E+00  0.00000000000E+00 -0.15510897392E+04  0.15510897392E+04  0.50400001928E-02 0. -1.
    10030    2    1    2    0    0  0.00000000000E+00  0.00000000000E+00  0.10374680844E+03  0.32059262869E+04  0.32042471747E+04 0.  0.
        1    1    3    3  502    0 -0.89608261924E+03  0.12290801007E+04  0.55532496041E+03  0.16192553122E+04  0.50400001928E-02 0.  1.
       -1    1    3    3    0  502  0.89608261924E+03 -0.12290801007E+04 -0.45157815197E+03  0.15866709747E+04  0.50400001928E-02 0. -1.
</event>
<event>
 5   0  0.3942564E-07  0.3199188E+04  0.7818609E-02  0.8189032E-01
       -2   -1    0    0    0  501  0.00000000000E+00  0.00000000000E+00  0.16227901804E+04  0.16227901804E+04  0.25500000920E-02 0. -1.
        2   -1    0    0  501    0  0.00000000000E+00  0.00000000000E+00 -0.15767293476E+04  0.15767293476E+04  0.25500000920E-02 0.  1.
    10030    2    1    2    0    0  0.00000000000E+00  0.00000000000E+00  0.46060832833E+02  0.31995195280E+04  0.31991879610E+04 0.  0.
        3    1    3    3  502    0 -0.24572995462E+02 -0.54254782717E+03 -0.14816981877E+04  0.15780974325E+04  0.10100000352E+00 0.  1.
       -3    1    3    3    0  502  0.24572995462E+02  0.54254782717E+03  0.15277590205E+04  0.16214220955E+04  0.10100000352E+00 0. -1.
</event>
<event>
 5   0  0.3830207E-07  0.3198976E+04  0.7818609E-02  0.8189088E-01
        2   -1    0    0  501    0  0.00000000000E+00  0.00000000000E+00  0.21374961567E+04  0.21374961567E+04  0.25500000920E-02 0. -1.
       -2   -1    0    0    0  501  0.00000000000E+00  0.00000000000E+00 -0.11968963617E+04  0.11968963617E+04  0.25500000920E-02 0.  1.
    10030    2    1    2    0    0  0.00000000000E+00  0.00000000000E+00  0.94059979503E+03  0.33343925184E+04  0.31989756942E+04 0.  0.
        4    1    3    3  502    0  0.44460747616E+03  0.54927815872E+03  0.19659554180E+04  0.20891061778E+04  0.12699999809E+01 0. -1.
       -4    1    3    3    0  502 -0.44460747616E+03 -0.54927815872E+03 -0.10253556230E+04  0.12452863406E+04  0.12699999809E+01 0.  1.
</event>
<event>
 5   0  0.1270948E-07  0.3200236E+04  0.7818609E-02  0.8188755E-01
       -1   -1    0    0    0  501  0.00000000000E+00  0.00000000000E+00  0.13243829082E+04  0.13243829082E+04  0.50400001928E-02 0. -1.
        1   -1    0    0  501    0  0.00000000000E+00  0.00000000000E+00 -0.19332612100E+04  0.19332612100E+04  0.50400001928E-02 0.  1.
    10030    2    1    2    0    0  0.00000000000E+00  0.00000000000E+00 -0.60887830174E+03  0.32576441182E+04  0.32002363060E+04 0.  0.
        4    1    3    3  502    0 -0.13420375602E+04 -0.64056589868E+03 -0.90578763324E+03  0.17412186345E+04  0.12699999809E+01 0.  1.
       -4    1    3    3    0  502  0.13420375602E+04  0.64056589868E+03  0.29690933150E+03  0.15164254837E+04  0.12699999809E+01 0. -1.
</event>
<event>
 5   0  0.1317293E-07  0.3202081E+04  0.7818609E-02  0.8188268E-01
       -1   -1    0    0    0  501  0.00000000000E+00  0.00000000000E+00  0.17461760593E+04  0.17461760593E+04  0.50400001928E-02 0.  1.
        1   -1    0    0  501    0  0.00000000000E+00  0.00000000000E+00 -0.14679682050E+04  0.14679682050E+04  0.50400001928E-02 0. -1.
    10030    2    1    2    0    0  0.00000000000E+00  0.00000000000E+00  0.27820785432E+03  0.32141442643E+04  0.32020811578E+04 0.  0.
        1    1    3    3  502    0 -0.16377323639E+03  0.13735027807E+04 -0.67015872863E+03  0.15370244900E+04  0.50400001928E-02 0. -1.
       -1    1    3    3    0  502  0.16377323639E+03 -0.13735027807E+04  0.94836658296E+03  0.16771197742E+04  0.50400001928E-02 0.  1.
</event>
<event>
 5   0  0.3858721E-07  0.3198259E+04  0.7818609E-02  0.8189277E-01
       -2   -1    0    0    0  501  0.00000000000E+00  0.00000000000E+00  0.11175760506E+04  0.11175760507E+04  0.25500000920E-02 0. -1.
        2   -1    0    0  501    0  0.00000000000E+00  0.00000000000E+00 -0.22881803863E+04  0.22881803863E+04  0.25500000920E-02 0.  1.
    10030    2    1    2    0    0  0.00000000000E+00  0.00000000000E+00 -0.11706043357E+04  0.34057564370E+04  0.31982592761E+04 0.  0.
        2    1    3    3  502    0  0.12487584863E+04 -0.65056845385E+02  0.47615513491E+03  0.13380410542E+04  0.25500000920E-02 0. -1.
       -2    1    3    3    0  502 -0.12487584863E+04  0.65056845385E+02 -0.16467594706E+04  0.20677153828E+04  0.25500000920E-02 0.  1.
</event>
<event>
 5   0  0.3942564E-07  0.3196705E+04  0.7818609E-02  0.8189688E-01
        2   -1    0    0  501    0  0.00000000000E+00  0.00000000000E+00  0.27466824309E+04  0.27466824309E+04  0.25500000920E-02 0.  1.
       -2   -1    0    0    0  501  0.00000000000E+00  0.00000000000E+00 -0.93011524751E+03  0.93011524752E+03  0.25500000920E-02 0. -1.
    10030    2    1    2    0    0  0.00000000000E+00  0.00000000000E+00  0.18165671834E+04  0.36767976784E+04  0.31967053096E+04 0.  0.
        3    1    3    3  502    0  0.99028357755E+03 -0.10595836116E+04  0.13555867827E+03  0.14566245774E+04  0.10100000352E+00 0. -1.
       -3    1    3    3    0  502 -0.99028357755E+03  0.10595836116E+04  0.16810085051E+04  0.22201731010E+04  0.10100000352E+00 0.  1.
</event>
<event>
 5   0  0.1270948E-07  0.3199725E+04  0.7818609E-02  0.8188890E-01
        1   -1    0    0  501    0  0.00000000000E+00  0.00000000000E+00  0.15211249035E+04  0.15211249035E+04  0.50400001928E-02 0.  1.
       -1   -1    0    0    0  501  0.00000000000E+00  0.00000000000E+00 -0.16826753527E+04  0.16826753527E+04  0.50400001928E-02 0. -1.
    10030    2    1    2    0    0  0.00000000000E+00  0.00000000000E+00 -0.16155044921E+03  0.32038002562E+04  0.31997246029E+04 0.  0.
        4    1    3    3  502    0 -0.35347808169E+02 -0.48657972267E+03 -0.16063788409E+04  0.16788281292E+04  0.12699999809E+01 0. -1.
       -4    1    3    3    0  502  0.35347808169E+02  0.48657972267E+03  0.14448283916E+04  0.15249721270E+04  0.12699999809E+01 0.  1.
</event>
<event>
 5   0  0.1288096E-07  0.3197999E+04  0.7818609E-02  0.8189346E-01
       -1   -1    0    0    0  501  0.00000000000E+00  0.00000000000E+00  0.16145880447E+04  0.16145880447E+04  0.50400001928E-02 0.  1.
        1   -1    0    0  501    0  0.00000000000E+00  0.00000000000E+00 -0.15835617525E+04  0.15835617525E+04  0.50400001928E-02 0. -1.
    10030    2    1    2    0    0  0.00000000000E+00  0.00000000000E+00  0.31026292214E+02  0.31981497972E+04  0.31979992956E+04 0.  0.
        2    1    3    3  502    0 -0.12311298001E+03  0.12414576141E+04 -0.98474693244E+03  0.15893710500E+04  0.25500000920E-02 0. -1.
       -2    1    3    3    0  502  0.12311298001E+03 -0.12414576141E+04  0.10157732247E+04  0.16087787472E+04  0.25500000920E-02 0.  1.
</event>
<event>
 5   0  0.1317293E-07  0.3202479E+04  0.7818609E-02  0.8188163E-01
       -1   -1    0    0    0  501  0.00000000000E+00  0.00000000000E+00  0.13439727882E+04  0.13439727882E+04  0.50400001928E-02 0.  1.
        1   -1    0    0  501    0  0.00000000000E+00  0.00000000000E+00 -0.19077527401E+04  0.19077527401E+04  0.50400001928E-02 0. -1.
    10030    2    1    2    0    0  0.00000000000E+00  0.00000000000E+00 -0.56377995198E+03  0.32517255283E+04  0.32024788957E+04 0.  0.
        1    1    3    3  502    0  0.18627826886E+03  0.48498816623E+03  0.12560149371E+04  0.13592228062E+04  0.50400001928E-02 0.  1.
       -1    1    3    3    0  502 -0.18627826886E+03 -0.48498816623E+03 -0.18197948890E+04  0.18925027221E+04  0.50400001928E-02 0. -1.
</event>
<event>
 5   0  0.3858721E-07  0.3103536E+04  0.7818609E-02  0.8214768E-01
       -2   -1    0    0    0  501  0.00000000000E+00  0.00000000000E+00  0.11869235305E+04  0.11869235305E+04  0.25500000920E-02 0. -1.
        2   -1    0    0  501    0  0.00000000000E+00  0.00000000000E+00 -0.20287602890E+04  0.20287602890E+04  0.25500000920E-02 0.  1.
    10030    2    1    2    0    0  0.00000000000E+00  0.00000000000E+00 -0.84183675851E+03  0.32156838195E+04  0.31035356127E+04 0.  0.
        2    1    3    3  502    0  0.14799495473E+04  0.18852266200E+03  0.21345123930E+02  0.14920613496E+04  0.25500000920E-02 0. -1.
       -2    1    3    3    0  502 -0.14799495473E+04 -0.18852266200E+03 -0.86318188244E+03  0.17236224699E+04  0.25500000920E-02 0.  1.
</event>
<event>
 5   0  0.1277374E-07  0.3200679E+04  0.7818609E-02  0.8188638E-01
       -1   -1    0    0    0  501  0.00000000000E+00  0.00000000000E+00  0.14406291700E+04  0.14406291700E+04  0.50400001928E-02 0.  1.
        1   -1    0    0  501    0  0.00000000000E+00  0.00000000000E+00 -0.17777556274E+04  0.17777556274E+04  0.50400001928E-02 0. -1.
    10030    2    1    2    0    0  0.00000000000E+00  0.00000000000E+00 -0.33712645741E+03  0.32183847974E+04  0.32006790616E+04 0.  0.
        5    1    3    3  502    0  0.14945916162E+04 -0.21516431651E+03  0.36443007289E+03  0.15533612427E+04  0.46999998093E+01 0.  1.
       -5    1    3    3    0  502 -0.14945916162E+04  0.21516431651E+03 -0.70155653030E+03  0.16650235547E+04  0.46999998093E+01 0. -1.
</event>
<event>
 5   0  0.1365455E-07  0.3238971E+04  0.7818609E-02  0.8178600E-01
       -1   -1    0    0    0  501  0.00000000000E+00  0.00000000000E+00  0.16429938565E+04  0.16429938565E+04  0.50400001928E-02 0.  1.
        1   -1    0    0  501    0  0.00000000000E+00  0.00000000000E+00 -0.15963132228E+04  0.15963132228E+04  0.50400001928E-02 0. -1.
    10030    2    1    2    0    0  0.00000000000E+00  0.00000000000E+00  0.46680633692E+02  0.32393070792E+04  0.32389707118E+04 0.  0.
        3    1    3    3  502    0 -0.56083485058E+03  0.12201570739E+04 -0.88196846717E+03  0.16066074200E+04  0.10100000352E+00 0. -1.
       -3    1    3    3    0  502  0.56083485058E+03 -0.12201570739E+04  0.92864910086E+03  0.16326996593E+04  0.10100000352E+00 0.  1.
</event>
<event>
 5   0  0.3942564E-07  0.3202663E+04  0.7818609E-02  0.8188114E-01
       -2   -1    0    0    0  501  0.00000000000E+00  0.00000000000E+00  0.22967830054E+04  0.22967830054E+04  0.25500000920E-02 0.  1.
        2   -1    0    0  501    0  0.00000000000E+00  0.00000000000E+00 -0.11164582962E+04  0.11164582962E+04  0.25500000920E-02 0. -1.
    10030    2    1    2    0    0  0.00000000000E+00  0.00000000000E+00  0.11803247092E+04  0.34132413016E+04  0.32026629176E+04 0.  0.
        3    1    3    3  502    0  0.10226567064E+04 -0.68862624633E+03 -0.49890253600E+03  0.13300137582E+04  0.10100000352E+00 0. -1.
       -3    1    3    3    0  502 -0.10226567064E+04  0.68862624633E+03  0.16792272452E+04  0.20832275434E+04  0.10100000352E+00 0.  1.
</event>
<event>
 5   0  0.3942564E-07  0.3196798E+04  0.7818609E-02  0.8189663E-01
       -2   -1    0    0    0  501  0.00000000000E+00  0.00000000000E+00  0.16579543698E+04  0.16579543698E+04  0.25500000920E-02 0.  1.
        2   -1    0    0  501    0  0.00000000000E+00  0.00000000000E+00 -0.15409832822E+04  0.15409832822E+04  0.25500000920E-02 0. -1.
    10030    2    1    2    0    0  0.00000000000E+00  0.00000000000E+00  0.11697108764E+03  0.31989376520E+04  0.31967983775E+04 0.  0.
        3    1    3    3  502    0  0.13262184613E+04  0.41639842576E+02  0.95031181373E+03  0.16320789923E+04  0.10100000352E+00 0.  1.
       -3    1    3    3    0  502 -0.13262184613E+04 -0.41639842576E+02 -0.83334072609E+03  0.15668586597E+04  0.10100000352E+00 0. -1.
</event>
<event>
 5   0  0.1317293E-07  0.3196452E+04  0.7818609E-02  0.8189755E-01
       -1   -1    0    0    0  501  0.00000000000E+00  0.00000000000E+00  0.13045374173E+04  0.13045374173E+04  0.50400001928E-02 0.  1.
        1   -1    0    0  501    0  0.00000000000E+00  0.00000000000E+00 -0.19580318979E+04  0.19580318979E+04  0.50400001928E-02 0. -1.
    10030    2    1    2    0    0  0.00000000000E+00  0.00000000000E+00 -0.65349448058E+03  0.32625693152E+04  0.31964517047E+04 0.  0.
        1    1    3    3  502    0 -0.24605683351E+03  0.85000851252E+03  0.10316715169E+04  0.13591926116E+04  0.50400001928E-02 0.  1.
       -1    1    3    3    0  502  0.24605683351E+03 -0.85000851252E+03 -0.16851659975E+04  0.19033767036E+04  0.50400001928E-02 0. -1.
</event>
<event>
 5   0  0.3750285E-07  0.3194012E+04  0.7818609E-02  0.8190400E-01
       -2   -1    0    0    0  501  0.00000000000E+00  0.00000000000E+00  0.20960766564E+04  0.20960766564E+04  0.25500000920E-02 0.  1.
        2   -1    0    0  501    0  0.00000000000E+00  0.00000000000E+00 -0.12167631787E+04  0.12167631787E+04  0.25500000920E-02 0. -1.
    10030    2    1    2    0    0  0.00000000000E+00  0.00000000000E+00  0.87931347775E+03  0.33128398352E+04  0.31940124579E+04 0.  0.
        1    1    3    3  502    0  0.24972807895E+03 -0.11409063207E+04 -0.69008442806E+03  0.13565573574E+04  0.50400001928E-02 0. -1.
       -1    1    3    3    0  502 -0.24972807895E+03  0.11409063207E+04  0.15693979058E+04  0.19562824778E+04  0.50400001928E-02 0.  1.
</event>
<event>
 5   0  0.1270948E-07  0.3205785E+04  0.7818609E-02  0.8187291E-01
        1   -1    0    0  501    0  0.00000000000E+00  0.00000000000E+00  0.19031662903E+04  0.19031662903E+04  0.50400001928E-02 0. -1.
       -1   -1    0    0    0  501  0.00000000000E+00  0.00000000000E+00 -0.13499946594E+04  0.13499946594E+04  0.50400001928E-02 0.  1.
    10030    2    1    2    0    0  0.00000000000E+00  0.00000000000E+00  0.55317163093E+03  0.32531609497E+04  0.32057849759E+04 0.  0.
        4    1    3    3  502    0  0.14661567546E+04 -0.64700277910E+03  0.24394700820E+03  0.16210305305E+04  0.12699999809E+01 0.  1.
       -4    1    3    3    0  502 -0.14661567546E+04  0.64700277910E+03  0.30922462273E+03  0.16321304192E+04  0.12699999809E+01 0. -1.
</event>
<event>
 5   0  0.1317293E-07  0.3199448E+04  0.7818609E-02  0.8188963E-01
        1   -1    0    0  501    0  0.00000000000E+00  0.00000000000E+00  0.14018407178E+04  0.14018407178E+04  0.50400001928E-02 0.  1.
       -1   -1    0    0    0  501  0.00000000000E+00  0.00000000000E+00 -0.18255407592E+04  0.18255407592E+04  0.50400001928E-02 0. -1.
    10030    2    1    2    0    0  0.00000000000E+00  0.00000000000E+00 -0.42370004141E+03  0.32273814770E+04  0.31994483076E+04 0.  0.
        1    1    3    3  502    0  0.57214487323E+03  0.14923046905E+04 -0.14200445410E+03  0.16045212091E+04  0.50400001928E-02 0. -1.
       -1    1    3    3    0  502 -0.57214487323E+03 -0.14923046905E+04 -0.28169558730E+03  0.16228602679E+04  0.50400001928E-02 0.  1.
</event>
<event>
 5   0  0.1288096E-07  0.3195268E+04  0.7818609E-02  0.8190068E-01
       -1   -1    0    0    0  501  0.00000000000E+00  0.00000000000E+00  0.11624840152E+04  0.11624840153E+04  0.50400001928E-02 0. -1.
        1   -1    0    0  501    0  0.00000000000E+00  0.00000000000E+00 -0.21956722774E+04  0.21956722774E+04  0.50400001928E-02 0.  1.
    10030    2    1    2    0    0  0.00000000000E+00  0.00000000000E+00 -0.10331882621E+04  0.33581562927E+04  0.31952677041E+04 0.  0.
        2    1    3    3  502    0 -0.28283889917E+03 -0.13520584421E+04  0.32705657954E+03  0.14195160725E+04  0.25500000920E-02 0. -1.
       -2    1    3    3    0  502  0.28283889917E+03  0.13520584421E+04 -0.13602448417E+04  0.19386402202E+04  0.25500000920E-02 0.  1.
</event>
<event>
 5   0  0.3750285E-07  0.3265651E+04  0.7818609E-02  0.8171691E-01
        2   -1    0    0  501    0  0.00000000000E+00  0.00000000000E+00  0.13022090038E+04  0.13022090038E+04  0.25500000920E-02 0.  1.
       -2   -1    0    0    0  501  0.00000000000E+00  0.00000000000E+00 -0.20473819813E+04  0.20473819813E+04  0.25500000920E-02 0. -1.
    10030    2    1    2    0    0  0.00000000000E+00  0.00000000000E+00 -0.74517297752E+03  0.33495909851E+04  0.32656510838E+04 0.  0.
        1    1    3    3  502    0 -0.14505976824E+03 -0.59095391478E+03  0.11815665767E+04  0.13290479453E+04  0.50400001928E-02 0.  1.
       -1    1    3    3    0  502  0.14505976824E+03  0.59095391478E+03 -0.19267395542E+04  0.20205430398E+04  0.50400001928E-02 0. -1.
</event>
<event>
 5   0  0.1270948E-07  0.3202437E+04  0.7818609E-02  0.8188174E-01
       -1   -1    0    0    0  501  0.00000000000E+00  0.00000000000E+00  0.16973754126E+04  0.16973754127E+04  0.50400001928E-02 0.  1.
        1   -1    0    0  501    0  0.00000000000E+00  0.00000000000E+00 -0.15105085987E+04  0.15105085987E+04  0.50400001928E-02 0. -1.
    10030    2    1    2    0    0  0.00000000000E+00  0.00000000000E+00  0.18686681391E+03  0.32078840114E+04  0.32024366698E+04 0.  0.
        4    1    3    3  502    0 -0.23066941958E+03  0.54550270645E+03 -0.13967519447E+04  0.15171351923E+04  0.12699999809E+01 0. -1.
       -4    1    3    3    0  502  0.23066941958E+03 -0.54550270645E+03  0.15836187586E+04  0.16907488191E+04  0.12699999809E+01 0.  1.
</event>
<event>
 5   0  0.1288096E-07  0.3197493E+04  0.7818609E-02  0.8189480E-01
       -1   -1    0    0    0  501  0.00000000000E+00  0.00000000000E+00  0.10380512131E+04  0.10380512131E+04  0.50400001928E-02 0. -1.
        1   -1    0    0  501    0  0.00000000000E+00  0.00000000000E+00 -0.24622966031E+04  0.24622966031E+04  0.50400001928E-02 0.  1.
    10030    2    1    2    0    0  0.00000000000E+00  0.00000000000E+00 -0.14242453900E+04  0.35003478162E+04  0.31974927527E+04 0.  0.
        2    1    3    3  502    0  0.47954358872E+03 -0.10470736425E+04 -0.19260564467E+04  0.22441075514E+04  0.25500000920E-02 0.  1.
       -2    1    3    3    0  502 -0.47954358872E+03  0.10470736425E+04  0.50181105675E+03  0.12562402648E+04  0.25500000920E-02 0. -1.
</event>
<event>
 5   0  0.3858721E-07  0.3214273E+04  0.7818609E-02  0.8185058E-01
        2   -1    0    0  501    0  0.00000000000E+00  0.00000000000E+00  0.20575754223E+04  0.20575754223E+04  0.25500000920E-02 0.  1.
       -2   -1    0    0    0  501  0.00000000000E+00  0.00000000000E+00 -0.12553065260E+04  0.12553065260E+04  0.25500000920E-02 0. -1.
    10030    2    1    2    0    0  0.00000000000E+00  0.00000000000E+00  0.80226889638E+03  0.33128819483E+04  0.32142730782E+04 0.  0.
        2    1    3    3  502    0  0.12515663229E+04 -0.91221075399E+03 -0.41386993041E+02  0.15492771229E+04  0.25500000920E-02 0. -1.
       -2    1    3    3    0  502 -0.12515663229E+04  0.91221075399E+03  0.84365588942E+03  0.17636048254E+04  0.25500000920E-02 0.  1.
</event>
<event>
 5   0  0.1365455E-07  0.3199899E+04  0.7818609E-02  0.8188844E-01
        1   -1    0    0  501    0  0.00000000000E+00  0.00000000000E+00  0.22031750114E+04  0.22031750114E+04  0.50400001928E-02 0. -1.
       -1   -1    0    0    0  501  0.00000000000E+00  0.00000000000E+00 -0.11618863063E+04  0.11618863064E+04  0.50400001928E-02 0.  1.
    10030    2    1    2    0    0  0.00000000000E+00  0.00000000000E+00  0.10412887050E+04  0.33650613177E+04  0.31998992960E+04 0.  0.
        3    1    3    3  502    0 -0.15052012819E+03  0.15786862549E+04  0.74355757530E+03  0.17515092002E+04  0.10100000352E+00 0.  1.
       -3    1    3    3    0  502  0.15052012819E+03 -0.15786862549E+04  0.29773112973E+03  0.16135521176E+04  0.10100000352E+00 0. -1.
</event>
<event>
 5   0  0.3764056E-07  0.3203351E+04  0.7818609E-02  0.8187933E-01
       -2   -1    0    0    0  501  0.00000000000E+00  0.00000000000E+00  0.14806237605E+04  0.14806237606E+04  0.25500000920E-02 0. -1.
        2   -1    0    0  501    0  0.00000000000E+00  0.00000000000E+00 -0.17326244837E+04  0.17326244837E+04  0.25500000920E-02 0.  1.
    10030    2    1    2    0    0  0.00000000000E+00  0.00000000000E+00 -0.25200072313E+03  0.32132482442E+04  0.32033513567E+04 0.  0.
        5    1    3    3  502    0  0.10707136219E+04  0.63759785958E+03  0.88328129779E+03  0.15274706647E+04  0.46999998093E+01 0. -1.
       -5    1    3    3    0  502 -0.10707136219E+04 -0.63759785958E+03 -0.11352820209E+04  0.16857775795E+04  0.46999998093E+01 0.  1.
</event>
<event>
 5   0  0.1365455E-07  0.3209291E+04  0.7818609E-02  0.8186368E-01
        1   -1    0    0  501    0  0.00000000000E+00  0.00000000000E+00  0.18022530736E+04  0.18022530736E+04  0.50400001928E-02 0.  1.
       -1   -1    0    0    0  501  0.00000000000E+00  0.00000000000E+00 -0.14287048738E+04  0.14287048738E+04  0.50400001928E-02 0. -1.
    10030    2    1    2    0    0  0.00000000000E+00  0.00000000000E+00  0.37354819982E+03  0.32309579475E+04  0.32092913549E+04 0.  0.
        3    1    3    3  502    0 -0.22959957219E+02 -0.11069252557E+04 -0.98256517801E+03  0.14802854524E+04  0.10100000352E+00 0. -1.
       -3    1    3    3    0  502  0.22959957219E+02  0.11069252557E+04  0.13561133778E+04  0.17506724951E+04  0.10100000352E+00 0.  1.
</event>
<event>
 5   0  0.3858721E-07  0.3202585E+04  0.7818609E-02  0.8188135E-01
        2   -1    0    0  501    0  0.00000000000E+00  0.00000000000E+00  0.26318956605E+04  0.26318956605E+04  0.25500000920E-02 0. -1.
       -2   -1    0    0    0  501  0.00000000000E+00  0.00000000000E+00 -0.97425532287E+03  0.97425532287E+03  0.25500000920E-02 0.  1.
    10030    2    1    2    0    0  0.00000000000E+00  0.00000000000E+00  0.16576403377E+04  0.36061509834E+04  0.32025854284E+04 0.  0.
        2    1    3    3  502    0 -0.10509455539E+04  0.34669304151E+03  0.21320090489E+04  0.24021126549E+04  0.25500000920E-02 0. -1.
       -2    1    3    3    0  502  0.10509455539E+04 -0.34669304151E+03 -0.47436871119E+03  0.12040383285E+04  0.25500000920E-02 0.  1.
</event>
<event>
 5   0  0.3858721E-07  0.3283606E+04  0.7818609E-02  0.8167079E-01
        2   -1    0    0  501    0  0.00000000000E+00  0.00000000000E+00  0.94752978275E+03  0.94752978275E+03  0.25500000920E-02 0.  1.
       -2   -1    0    0    0  501  0.00000000000E+00  0.00000000000E+00 -0.28447831012E+04  0.28447831012E+04  0.25500000920E-02 0. -1.
    10030    2    1    2    0    0  0.00000000000E+00  0.00000000000E+00 -0.18972533185E+04  0.37923128840E+04  0.32836057704E+04 0.  0.
        2    1    3    3  502    0 -0.12673784168E+04  0.31155412365E+03 -0.20990385223E+04  0.24716951150E+04  0.25500000920E-02 0. -1.
       -2    1    3    3    0  502  0.12673784168E+04 -0.31155412365E+03  0.20178520386E+03  0.13206177690E+04  0.25500000920E-02 0.  1.
</event>
<event>
 5   0  0.1317293E-07  0.3194675E+04  0.7818609E-02  0.8190225E-01
       -1   -1    0    0    0  501  0.00000000000E+00  0.00000000000E+00  0.20211129011E+04  0.20211129011E+04  0.50400001928E-02 0. -1.
        1   -1    0    0  501    0  0.00000000000E+00  0.00000000000E+00 -0.12624168206E+04  0.12624168206E+04  0.50400001928E-02 0.  1.
    10030    2    1    2    0    0  0.00000000000E+00  0.00000000000E+00  0.75869608054E+03  0.32835297217E+04  0.31946748960E+04 0.  0.
        1    1    3    3  502    0  0.11860533286E+04 -0.43878791836E+03 -0.62361543684E+03  0.14100189887E+04  0.50400001928E-02 0.  1.
       -1    1    3    3    0  502 -0.11860533286E+04  0.43878791836E+03  0.13823115174E+04  0.18735107330E+04  0.50400001928E-02 0. -1.
</event>
<event>
 5   0  0.3942564E-07  0.3201614E+04  0.7818609E-02  0.8188391E-01
        2   -1    0    0  501    0  0.00000000000E+00  0.00000000000E+00  0.22852231143E+04  0.22852231143E+04  0.25500000920E-02 0.  1.
       -2   -1    0    0    0  501  0.00000000000E+00  0.00000000000E+00 -0.11213712511E+04  0.11213712511E+04  0.25500000920E-02 0. -1.
    10030    2    1    2    0    0  0.00000000000E+00  0.00000000000E+00  0.11638518631E+04  0.34065943654E+04  0.32016142821E+04 0.  0.
        3    1    3    3  502    0 -0.15280875131E+03 -0.12760402716E+04  0.15974721356E+04  0.20502552337E+04  0.10100000352E+00 0.  1.
       -3    1    3    3    0  502  0.15280875131E+03  0.12760402716E+04 -0.43362027245E+03  0.13563391317E+04  0.10100000352E+00 0. -1.
</event>
<event>
 5   0  0.3858721E-07  0.3187917E+04  0.7818609E-02  0.8192015E-01
        2   -1    0    0  501    0  0.00000000000E+00  0.00000000000E+00  0.24760545206E+04  0.24760545206E+04  0.25500000920E-02 0. -1.
       -2   -1    0    0    0  501  0.00000000000E+00  0.00000000000E+00 -0.10261100163E+04  0.10261100163E+04  0.25500000920E-02 0.  1.
    10030    2    1    2    0    0  0.00000000000E+00  0.00000000000E+00  0.14499445042E+04  0.35021645369E+04  0.31879174045E+04 0.  0.
        2    1    3    3  502    0  0.14229685607E+04 -0.67729400369E+03  0.98756980932E+03  0.18598012852E+04  0.25500000920E-02 0. -1.
       -2    1    3    3    0  502 -0.14229685607E+04  0.67729400369E+03  0.46237469491E+03  0.16423632517E+04  0.25500000920E-02 0.  1.
</event>
<event>
 5   0  0.1365455E-07  0.3199778E+04  0.7818609E-02  0.8188876E-01
        1   -1    0    0  501    0  0.00000000000E+00  0.00000000000E+00  0.16980999979E+04  0.16980999979E+04  0.50400001928E-02 0. -1.
       -1   -1    0    0    0  501  0.00000000000E+00  0.00000000000E+00 -0.15073581150E+04  0.15073581150E+04  0.50400001928E-02 0.  1.
    10030    2    1    2    0    0  0.00000000000E+00  0.00000000000E+00  0.19074188292E+03  0.32054581130E+04  0.31997779998E+04 0.  0.
        3    1    3    3  502    0 -0.16850005417E+03 -0.65191832635E+03  0.15492414789E+04  0.16892421208E+04  0.10100000352E+00 0. -1.
       -3    1    3    3    0  502  0.16850005417E+03  0.65191832635E+03 -0.13584995960E+04  0.15162159922E+04  0.10100000352E+00 0.  1.
</event>
<event>
 5   0  0.1365455E-07  0.3203554E+04  0.7818609E-02  0.8187879E-01
       -1   -1    0    0    0  501  0.00000000000E+00  0.00000000000E+00  0.92726122309E+03  0.92726122310E+03  0.50400001928E-02 0. -1.
        1   -1    0    0  501    0  0.00000000000E+00  0.00000000000E+00 -0.27669541076E+04  0.27669541076E+04  0.50400001928E-02 0.  1.
    10030    2    1    2    0    0  0.00000000000E+00  0.00000000000E+00 -0.18396928846E+04  0.36942153307E+04  0.32035538080E+04 0.  0.
        3    1    3    3  502    0  0.32226362780E+03  0.14989670055E+04 -0.14544625593E+04  0.21133426783E+04  0.10100000352E+00 0.  1.
       -3    1    3    3    0  502 -0.32226362780E+03 -0.14989670055E+04 -0.38523032523E+03  0.15808726524E+04  0.10100000352E+00 0. -1.
</event>
<event>
 5   0  0.1270948E-07  0.3205469E+04  0.7818609E-02  0.8187374E-01
       -1   -1    0    0    0  501  0.00000000000E+00  0.00000000000E+00  0.14152673656E+04  0.14152673656E+04  0.50400001928E-02 0.  1.
        1   -1    0    0  501    0  0.00000000000E+00  0.00000000000E+00 -0.18150338814E+04  0.18150338814E+04  0.50400001928E-02 0. -1.
    10030    2    1    2    0    0  0.00000000000E+00  0.00000000000E+00 -0.39976651582E+03  0.32303012470E+04  0.32054692136E+04 0.  0.
        4    1    3    3  502    0  0.33538747278E+03 -0.10883976240E+04  0.93653274496E+03  0.14745132553E+04  0.12699999809E+01 0.  1.
       -4    1    3    3    0  502 -0.33538747278E+03  0.10883976240E+04 -0.13362992608E+04  0.17557879918E+04  0.12699999809E+01 0. -1.
</event>
<event>
 5   0  0.3942564E-07  0.3191779E+04  0.7818609E-02  0.8190992E-01
        2   -1    0    0  501    0  0.00000000000E+00  0.00000000000E+00  0.18934038763E+04  0.18934038763E+04  0.25500000920E-02 0.  1.
       -2   -1    0    0    0  501  0.00000000000E+00  0.00000000000E+00 -0.13451239614E+04  0.13451239614E+04  0.25500000920E-02 0. -1.
    10030    2    1    2    0    0  0.00000000000E+00  0.00000000000E+00  0.54827991496E+03  0.32385278377E+04  0.31917787659E+04 0.  0.
        3    1    3    3  502    0  0.63548217237E+03  0.13498510353E+04  0.84894202585E+03  0.17165774036E+04  0.10100000352E+00 0. -1.
       -3    1    3    3    0  502 -0.63548217237E+03 -0.13498510353E+04 -0.30066211090E+03  0.15219504342E+04  0.10100000352E+00 0.  1.
</event>
<event>
 5   0  0.3858721E-07  0.3197350E+04  0.7818609E-02  0.8189517E-01
       -2   -1    0    0    0  501  0.00000000000E+00  0.00000000000E+00  0.15305385783E+04  0.15305385783E+04  0.25500000920E-02 0.  1.
        2   -1    0    0  501    0  0.00000000000E+00  0.00000000000E+00 -0.16698446776E+04  0.16698446776E+04  0.25500000920E-02 0. -1.
    10030    2    1    2    0    0  0.00000000000E+00  0.00000000000E+00 -0.13930609923E+03  0.32003832559E+04  0.31973499645E+04 0.  0.
        2    1    3    3  502    0 -0.74350295796E+03  0.14148239189E+04 -0.34429767774E+02  0.15986584310E+04  0.25500000920E-02 0. -1.
       -2    1    3    3    0  502  0.74350295796E+03 -0.14148239189E+04 -0.10487633145E+03  0.16017248249E+04  0.25500000920E-02 0.  1.
</event>
<event>
 5   0  0.3830207E-07  0.3193490E+04  0.7818609E-02  0.8190539E-01
       -2   -1    0    0    0  501  0.00000000000E+00  0.00000000000E+00  0.15890670294E+04  0.15890670294E+04  0.25500000920E-02 0.  1.
        2   -1    0    0  501    0  0.00000000000E+00  0.00000000000E+00 -0.16044595860E+04  0.16044595860E+04  0.25500000920E-02 0. -1.
    10030    2    1    2    0    0  0.00000000000E+00  0.00000000000E+00 -0.15392556520E+02  0.31935266154E+04  0.31934895197E+04 0.  0.
        4    1    3    3  502    0  0.83592810059E+03  0.24619122663E+03  0.13303051777E+04  0.15903142420E+04  0.12699999809E+01 0.  1.
       -4    1    3    3    0  502 -0.83592810059E+03 -0.24619122663E+03 -0.13456977343E+04  0.16032123734E+04  0.12699999809E+01 0. -1.
</event>
<event>
 5   0  0.1288096E-07  0.3201203E+04  0.7818609E-02  0.8188500E-01
       -1   -1    0    0    0  501  0.00000000000E+00  0.00000000000E+00  0.13819319069E+04  0.13819319069E+04  0.50400001928E-02 0.  1.
        1   -1    0    0  501    0  0.00000000000E+00  0.00000000000E+00 -0.18538721208E+04  0.18538721208E+04  0.50400001928E-02 0. -1.
    10030    2    1    2    0    0  0.00000000000E+00  0.00000000000E+00 -0.47194021390E+03  0.32358040278E+04  0.32012029209E+04 0.  0.
        2    1    3    3  502    0  0.11057234944E+04 -0.60483429238E+03  0.76134327478E+03  0.14724444130E+04  0.25500000920E-02 0.  1.
       -2    1    3    3    0  502 -0.11057234944E+04  0.60483429238E+03 -0.12332834887E+04  0.17633596147E+04  0.25500000920E-02 0. -1.
</event>
<event>
 5   0  0.3942564E-07  0.3201311E+04  0.7818609E-02  0.8188471E-01
       -2   -1    0    0    0  501  0.00000000000E+00  0.00000000000E+00  0.11517563244E+04  0.11517563244E+04  0.25500000920E-02 0.  1.
        2   -1    0    0  501    0  0.00000000000E+00  0.00000000000E+00 -0.22245140592E+04  0.22245140592E+04  0.25500000920E-02 0. -1.
    10030    2    1    2    0    0  0.00000000000E+00  0.00000000000E+00 -0.10727577348E+04  0.33762703836E+04  0.32013110667E+04 0.  0.
        3    1    3    3  502    0 -0.10618679488E+03 -0.14371808255E+03  0.11412040247E+04  0.11551091545E+04  0.10100000352E+00 0.  1.
       -3    1    3    3    0  502  0.10618679488E+03  0.14371808255E+03 -0.22139617595E+04  0.22211612291E+04  0.10100000352E+00 0. -1.
</event>
<event>
 5   0  0.3858721E-07  0.3179760E+04  0.7818609E-02  0.8194183E-01
       -2   -1    0    0    0  501  0.00000000000E+00  0.00000000000E+00  0.25736368953E+04  0.25736368953E+04  0.25500000920E-02 0.  1.
        2   -1    0    0  501    0  0.00000000000E+00  0.00000000000E+00 -0.98215820193E+03  0.98215820194E+03  0.25500000920E-02 0. -1.
    10030    2    1    2    0    0  0.00000000000E+00  0.00000000000E+00  0.15914786934E+04  0.35557950973E+04  0.31797601077E+04 0.  0.
        2    1    3    3  502    0 -0.40284610334E+03  0.59733647893E+03  0.23806017285E+04  0.24872395224E+04  0.25500000920E-02 0.  1.
       -2    1    3    3    0  502  0.40284610334E+03 -0.59733647893E+03 -0.78912303510E+03  0.10685555749E+04  0.25500000920E-02 0. -1.
</event>
<event>
 5   0  0.1317293E-07  0.3195797E+04  0.7818609E-02  0.8189928E-01
       -1   -1    0    0    0  501  0.00000000000E+00  0.00000000000E+00  0.12288811486E+04  0.12288811486E+04  0.50400001928E-02 0. -1.
        1   -1    0    0  501    0  0.00000000000E+00  0.00000000000E+00 -0.20777264842E+04  0.20777264843E+04  0.50400001928E-02 0.  1.
    10030    2    1    2    0    0  0.00000000000E+00  0.00000000000E+00 -0.84884533563E+03  0.33066076329E+04  0.31957965570E+04 0.  0.
        1    1    3    3  502    0 -0.67333128992E+03  0.11264869544E+03 -0.19192362833E+04  0.20370401729E+04  0.50400001928E-02 0.  1.
       -1    1    3    3    0  502  0.67333128992E+03 -0.11264869544E+03  0.10703909477E+04  0.12695674600E+04  0.50400001928E-02 0. -1.
</event>
<event>
 5   0  0.1277374E-07  0.3188374E+04  0.7818609E-02  0.8191894E-01
       -1   -1    0    0    0  501  0.00000000000E+00  0.00000000000E+00  0.12190324137E+04  0.12190324137E+04  0.50400001928E-02 0. -1.
        1   -1    0    0  501    0  0.00000000000E+00  0.00000000000E+00 -0.20847950938E+04  0.20847950938E+04  0.50400001928E-02 0.  1.
    10030    2    1    2    0    0  0.00000000000E+00  0.00000000000E+00 -0.86576268011E+03  0.33038275075E+04  0.31883743790E+04 0.  0.
        5    1    3    3  502    0  0.52734031534E+03  0.15101316982E+02  0.11259510892E+04  0.12434242249E+04  0.46999998093E+01 0. -1.
       -5    1    3    3    0  502 -0.52734031534E+03 -0.15101316982E+02 -0.19917137693E+04  0.20604032825E+04  0.46999998093E+01 0.  1.
</event>
<event>
 5   0  0.1270948E-07  0.3200276E+04  0.7818609E-02  0.8188744E-01
       -1   -1    0    0    0  501  0.00000000000E+00  0.00000000000E+00  0.11716070398E+04  0.11716070398E+04  0.50400001928E-02 0. -1.
        1   -1    0    0  501    0  0.00000000000E+00  0.00000000000E+00 -0.21854099620E+04  0.21854099620E+04  0.50400001928E-02 0.  1.
    10030    2    1    2    0    0  0.00000000000E+00  0.00000000000E+00 -0.10138029222E+04  0.33570170018E+04  0.32002760483E+04 0.  0.
        4    1    3    3  502    0  0.53263099856E+03  0.15069689101E+04 -0.42708947403E+03  0.16544056662E+04  0.12699999809E+01 0. -1.
       -4    1    3    3    0  502 -0.53263099856E+03 -0.15069689101E+04 -0.58671344820E+03  0.17026113356E+04  0.12699999809E+01 0.  1.
</event>
<event>
 5   0  0.1365455E-07  0.3194422E+04  0.7818609E-02  0.8190292E-01
       -1   -1    0    0    0  501  0.00000000000E+00  0.00000000000E+00  0.83284744201E+03  0.83284744203E+03  0.50400001928E-02 0.  1.
        1   -1    0    0  501    0  0.00000000000E+00  0.00000000000E+00 -0.30630859885E+04  0.30630859885E+04  0.50400001928E-02 0. -1.
    10030    2    1    2    0    0  0.00000000000E+00  0.00000000000E+00 -0.22302385465E+04  0.38959334305E+04  0.31944222202E+04 0.  0.
        3    1    3    3  502    0 -0.82870656726E+03 -0.80082689220E+03  0.23363654682E+03  0.11758674807E+04  0.10100000352E+00 0.  1.
       -3    1    3    3    0  502  0.82870656726E+03  0.80082689220E+03 -0.24638750933E+04  0.27200659498E+04  0.10100000352E+00 0. -1.
</event>
<event>
 5   0  0.3942564E-07  0.3200908E+04  0.7818609E-02  0.8188578E-01
       -2   -1    0    0    0  501  0.00000000000E+00  0.00000000000E+00  0.14169256736E+04  0.14169256736E+04  0.25500000920E-02 0.  1.
        2   -1    0    0  501    0  0.00000000000E+00  0.00000000000E+00 -0.18077535550E+04  0.18077535550E+04  0.25500000920E-02 0. -1.
    10030    2    1    2    0    0  0.00000000000E+00  0.00000000000E+00 -0.39082788140E+03  0.32246792286E+04  0.32009076360E+04 0.  0.
        3    1    3    3  502    0 -0.10113945365E+04 -0.62223575732E+03  0.88556746463E+03  0.14813257545E+04  0.10100000352E+00 0.  1.
       -3    1    3    3    0  502  0.10113945365E+04  0.62223575732E+03 -0.12763953460E+04  0.17433534741E+04  0.10100000352E+00 0. -1.
</event>
<event>
 5   0  0.1270948E-07  0.3201435E+04  0.7818609E-02  0.8188438E-01
        1   -1    0    0  501    0  0.00000000000E+00  0.00000000000E+00  0.10175817086E+04  0.10175817086E+04  0.50400001928E-02 0. -1.
       -1   -1    0    0    0  501  0.00000000000E+00  0.00000000000E+00 -0.25180250800E+04  0.25180250800E+04  0.50400001928E-02 0.  1.
    10030    2    1    2    0    0  0.00000000000E+00  0.00000000000E+00 -0.15004433715E+04  0.35356067886E+04  0.32014348428E+04 0.  0.
        4    1    3    3  502    0  0.32464229308E+03 -0.52695593161E+03 -0.23805301293E+04  0.24596748732E+04  0.12699999809E+01 0.  1.
       -4    1    3    3    0  502 -0.32464229308E+03  0.52695593161E+03  0.88008675788E+03  0.10759319154E+04  0.12699999809E+01 0. -1.
</event>
<event>
 5   0  0.3750285E-07  0.3198242E+04  0.7818609E-02  0.8189282E-01
       -2   -1    0    0    0  501  0.00000000000E+00  0.00000000000E+00  0.13499674813E+04  0.13499674813E+04  0.25500000920E-02 0.  1.
        2   -1    0    0  501    0  0.00000000000E+00  0.00000000000E+00 -0.18942593368E+04  0.18942593368E+04  0.25500000920E-02 0. -1.
    10030    2    1    2    0    0  0.00000000000E+00  0.00000000000E+00 -0.54429185545E+03  0.32442268182E+04  0.31982423335E+04 0.  0.
        1    1    3    3  502    0  0.14400729154E+03  0.15024957711E+04  0.26361170656E+03  0.15322280425E+04  0.50400001928E-02 0. -1.
       -1    1    3    3    0  502 -0.14400729154E+03 -0.15024957711E+04 -0.80790356201E+03  0.17119987757E+04  0.50400001928E-02 0.  1.
</event>
<event>
 5   0  0.1288096E-07  0.3201967E+04  0.7818609E-02  0.8188298E-01
        1   -1    0    0  501    0  0.00000000000E+00  0.00000000000E+00  0.23735377787E+04  0.23735377787E+04  0.50400001928E-02 0.  1.
       -1   -1    0    0    0  501  0.00000000000E+00  0.00000000000E+00 -0.10798853139E+04  0.10798853139E+04  0.50400001928E-02 0. -1.
    10030    2    1    2    0    0  0.00000000000E+00  0.00000000000E+00  0.12936524648E+04  0.34534230926E+04  0.32019672636E+04 0.  0.
        2    1    3    3  502    0  0.69372648580E+03 -0.85049620957E+03  0.19039280402E+04  0.21976219470E+04  0.25500000920E-02 0.  1.
       -2    1    3    3    0  502 -0.69372648580E+03  0.85049620957E+03 -0.61027557536E+03  0.12558011457E+04  0.25500000920E-02 0. -1.
</event>
<event>
 5   0  0.1365455E-07  0.3213386E+04  0.7818609E-02  0.8185291E-01
        1   -1    0    0  501    0  0.00000000000E+00  0.00000000000E+00  0.23330933095E+04  0.23330933095E+04  0.50400001928E-02 0.  1.
       -1   -1    0    0    0  501  0.00000000000E+00  0.00000000000E+00 -0.11064546248E+04  0.11064546248E+04  0.50400001928E-02 0. -1.
    10030    2    1    2    0    0  0.00000000000E+00  0.00000000000E+00  0.12266386847E+04  0.34395479343E+04  0.32133856802E+04 0.  0.
        3    1    3    3  502    0 -0.24160590877E+03 -0.87321688097E+03  0.20335748595E+04  0.22262766799E+04  0.10100000352E+00 0.  1.
       -3    1    3    3    0  502  0.24160590877E+03  0.87321688097E+03 -0.80693617474E+03  0.12132712544E+04  0.10100000352E+00 0. -1.
</event>
<event>
 5   0  0.3750285E-07  0.3199333E+04  0.7818609E-02  0.8188993E-01
       -2   -1    0    0    0  501  0.00000000000E+00  0.00000000000E+00  0.13164896329E+04  0.13164896329E+04  0.25500000920E-02 0. -1.
        2   -1    0    0  501    0  0.00000000000E+00  0.00000000000E+00 -0.19437541788E+04  0.19437541788E+04  0.25500000920E-02 0.  1.
    10030    2    1    2    0    0  0.00000000000E+00  0.00000000000E+00 -0.62726454591E+03  0.32602438117E+04  0.31993325712E+04 0.  0.
        1    1    3    3  502    0  0.11195638704E+03 -0.37658671225E+03  0.12665615031E+04  0.13260957076E+04  0.50400001928E-02 0. -1.
       -1    1    3    3    0  502 -0.11195638704E+03  0.37658671225E+03 -0.18938260490E+04  0.19341481041E+04  0.50400001928E-02 0.  1.
</event>
<event>
 5   0  0.1270948E-07  0.3211846E+04  0.7818609E-02  0.8185696E-01
       -1   -1    0    0    0  501  0.00000000000E+00  0.00000000000E+00  0.11370851408E+04  0.11370851408E+04  0.50400001928E-02 0.  1.
        1   -1    0    0  501    0  0.00000000000E+00  0.00000000000E+00 -0.22680700420E+04  0.22680700420E+04  0.50400001928E-02 0. -1.
    10030    2    1    2    0    0  0.00000000000E+00  0.00000000000E+00 -0.11309849013E+04  0.34051551828E+04  0.32118460381E+04 0.  0.
        4    1    3    3  502    0 -0.10181074459E+03 -0.35826486955E+03  0.10906624386E+04  0.11525039316E+04  0.12699999809E+01 0.  1.
       -4    1    3    3    0  502  0.10181074459E+03  0.35826486955E+03 -0.22216473398E+04  0.22526512513E+04  0.12699999809E+01 0. -1.
</event>
<event>
 5   0  0.3858721E-07  0.3201211E+04  0.7818609E-02  0.8188497E-01
        2   -1    0    0  501    0  0.00000000000E+00  0.00000000000E+00  0.23200734283E+04  0.23200734283E+04  0.25500000920E-02 0.  1.
       -2   -1    0    0    0  501  0.00000000000E+00  0.00000000000E+00 -0.11042489424E+04  0.11042489424E+04  0.25500000920E-02 0. -1.
    10030    2    1    2    0    0  0.00000000000E+00  0.00000000000E+00  0.12158244860E+04  0.34243223707E+04  0.32012114141E+04 0.  0.
        2    1    3    3  502    0 -0.96581176327E+03  0.12072796551E+04  0.10510583051E+04  0.18695026313E+04  0.25500000920E-02 0.  1.
       -2    1    3    3    0  502  0.96581176327E+03 -0.12072796551E+04  0.16476618082E+03  0.15548197394E+04  0.25500000920E-02 0. -1.
</event>
<event>
 5   0  0.1277374E-07  0.3198165E+04  0.7818609E-02  0.8189302E-01
        1   -1    0    0  501    0  0.00000000000E+00  0.00000000000E+00  0.20103510004E+04  0.20103510004E+04  0.50400001928E-02 0.  1.
       -1   -1    0    0    0  501  0.00000000000E+00  0.00000000000E+00 -0.12719497657E+04  0.12719497657E+04  0.50400001928E-02 0. -1.
    10030    2    1    2    0    0  0.00000000000E+00  0.00000000000E+00  0.73840123468E+03  0.32823007661E+04  0.31981654016E+04 0.  0.
        5    1    3    3  502    0 -0.10361138259E+04  0.11334437745E+04 -0.88418260434E+02  0.15382023693E+04  0.46999998093E+01 0. -1.
       -5    1    3    3    0  502  0.10361138259E+04 -0.11334437745E+04  0.82681949511E+03  0.17440983968E+04  0.46999998093E+01 0.  1.
</event>
<event>
 5   0  0.3942564E-07  0.3236356E+04  0.7818609E-02  0.8179281E-01
        2   -1    0    0  501    0  0.00000000000E+00  0.00000000000E+00  0.25510466359E+04  0.25510466359E+04  0.25500000920E-02 0.  1.
       -2   -1    0    0    0  501  0.00000000000E+00  0.00000000000E+00 -0.10264415534E+04  0.10264415534E+04  0.25500000920E-02 0. -1.
    10030    2    1    2    0    0  0.00000000000E+00  0.00000000000E+00  0.15246050825E+04  0.35774881894E+04  0.32363561435E+04 0.  0.
        3    1    3    3  502    0  0.15690620933E+04 -0.22862903899E+03  0.40535187813E+03  0.16366237336E+04  0.10100000352E+00 0. -1.
       -3    1    3    3    0  502 -0.15690620933E+04  0.22862903899E+03  0.11192532044E+04  0.19408644558E+04  0.10100000352E+00 0.  1.
</event>
<event>
 5   0  0.1288096E-07  0.3197927E+04  0.7818609E-02  0.8189365E-01
       -1   -1    0    0    0  501  0.00000000000E+00  0.00000000000E+00  0.15327746995E+04  0.15327746995E+04  0.50400001928E-02 0. -1.
        1   -1    0    0  501    0  0.00000000000E+00  0.00000000000E+00 -0.16680099987E+04  0.16680099987E+04  0.50400001928E-02 0.  1.
    10030    2    1    2    0    0  0.00000000000E+00  0.00000000000E+00 -0.13523529922E+03  0.32007846982E+04  0.31979265311E+04 0.  0.
        2    1    3    3  502    0 -0.10348116446E+04  0.36025690021E+03 -0.12331597614E+04  0.16496372847E+04  0.25500000920E-02 0.  1.
       -2    1    3    3    0  502  0.10348116446E+04 -0.36025690021E+03  0.10979244621E+04  0.15511474136E+04  0.25500000920E-02 0. -1.
</event>
<event>
 5   0  0.3858721E-07  0.3207091E+04  0.7818609E-02  0.8186947E-01
       -2   -1    0    0    0  501  0.00000000000E+00  0.00000000000E+00  0.96916785476E+03  0.96916785476E+03  0.25500000920E-02 0. -1.
        2   -1    0    0  501    0  0.00000000000E+00  0.00000000000E+00 -0.26531607185E+04  0.26531607185E+04  0.25500000920E-02 0.  1.
    10030    2    1    2    0    0  0.00000000000E+00  0.00000000000E+00 -0.16839928637E+04  0.36223285732E+04  0.32070909447E+04 0.  0.
        2    1    3    3  502    0  0.63239678661E+03  0.13869053835E+04 -0.14043862712E+04  0.20726150239E+04  0.25500000920E-02 0.  1.
       -2    1    3    3    0  502 -0.63239678661E+03 -0.13869053835E+04 -0.27960659246E+03  0.15497135493E+04  0.25500000920E-02 0. -1.
</event>
<event>
 5   0  0.3750285E-07  0.3200572E+04  0.7818609E-02  0.8188666E-01
        2   -1    0    0  501    0  0.00000000000E+00  0.00000000000E+00  0.13502100114E+04  0.13502100114E+04  0.25500000920E-02 0.  1.
       -2   -1    0    0    0  501  0.00000000000E+00  0.00000000000E+00 -0.18966792158E+04  0.18966792158E+04  0.25500000920E-02 0. -1.
    10030    2    1    2    0    0  0.00000000000E+00  0.00000000000E+00 -0.54646920437E+03  0.32468892273E+04  0.32005719899E+04 0.  0.
        1    1    3    3  502    0  0.37664022089E+03  0.86494001441E+02 -0.18486328802E+04  0.18885927549E+04  0.50400001928E-02 0. -1.
       -1    1    3    3    0  502 -0.37664022089E+03 -0.86494001441E+02  0.13021636758E+04  0.13582964724E+04  0.50400001928E-02 0.  1.
</event>
<event>
 5   0  0.1365455E-07  0.3153824E+04  0.7818609E-02  0.8201120E-01
        1   -1    0    0  501    0  0.00000000000E+00  0.00000000000E+00  0.18037571906E+04  0.18037571906E+04  0.50400001928E-02 0.  1.
       -1   -1    0    0    0  501  0.00000000000E+00  0.00000000000E+00 -0.13785955416E+04  0.13785955416E+04  0.50400001928E-02 0. -1.
    10030    2    1    2    0    0  0.00000000000E+00  0.00000000000E+00  0.42516164896E+03  0.31823527322E+04  0.31538241049E+04 0.  0.
        3    1    3    3  502    0  0.10331341221E+04 -0.65293679773E+03 -0.79290629815E+03  0.14568435001E+04  0.10100000352E+00 0. -1.
       -3    1    3    3    0  502 -0.10331341221E+04  0.65293679773E+03  0.12180679471E+04  0.17255092321E+04  0.10100000352E+00 0.  1.
</event>
<event>
 5   0  0.1270948E-07  0.3196431E+04  0.7818609E-02  0.8189760E-01
       -1   -1    0    0    0  501  0.00000000000E+00  0.00000000000E+00  0.27635297800E+04  0.27635297800E+04  0.50400001928E-02 0.  1.
        1   -1    0    0  501    0  0.00000000000E+00  0.00000000000E+00 -0.92428611016E+03  0.92428611017E+03  0.50400001928E-02 0. -1.
    10030    2    1    2    0    0  0.00000000000E+00  0.00000000000E+00  0.18392436698E+04  0.36878158902E+04  0.31964306285E+04 0.  0.
        4    1    3    3  502    0  0.11704932773E+04  0.85624611122E+03  0.16944940525E+04  0.22303640111E+04  0.12699999809E+01 0.  1.
       -4    1    3    3    0  502 -0.11704932773E+04 -0.85624611122E+03  0.14474961730E+03  0.14574518790E+04  0.12699999809E+01 0. -1.
</event>
<event>
 5   0  0.3858721E-07  0.3204301E+04  0.7818609E-02  0.8187682E-01
        2   -1    0    0  501    0  0.00000000000E+00  0.00000000000E+00  0.20044016716E+04  0.20044016716E+04  0.25500000920E-02 0.  1.
       -2   -1    0    0    0  501  0.00000000000E+00  0.00000000000E+00 -0.12806245216E+04  0.12806245216E+04  0.25500000920E-02 0. -1.
    10030    2    1    2    0    0  0.00000000000E+00  0.00000000000E+00  0.72377715000E+03  0.32850261933E+04  0.32043008173E+04 0.  0.
        2    1    3    3  502    0 -0.64880690665E+03  0.10219666861E+04 -0.71408517261E+03  0.14054479511E+04  0.25500000920E-02 0. -1.
       -2    1    3    3    0  502  0.64880690665E+03 -0.10219666861E+04  0.14378623226E+04  0.18795782422E+04  0.25500000920E-02 0.  1.
</event>
<event>
 5   0  0.3830207E-07  0.3197920E+04  0.7818609E-02  0.8189367E-01
        2   -1    0    0  501    0  0.00000000000E+00  0.00000000000E+00  0.10053205349E+04  0.10053205349E+04  0.25500000920E-02 0.  1.
       -2   -1    0    0    0  501  0.00000000000E+00  0.00000000000E+00 -0.25431419718E+04  0.25431419718E+04  0.25500000920E-02 0. -1.
    10030    2    1    2    0    0  0.00000000000E+00  0.00000000000E+00 -0.15378214369E+04  0.35484625067E+04  0.31979198535E+04 0.  0.
        4    1    3    3  502    0  0.14517548659E+04 -0.45172518084E+03 -0.13181687686E+04  0.20122669666E+04  0.12699999809E+01 0.  1.
       -4    1    3    3    0  502 -0.14517548659E+04  0.45172518084E+03 -0.21965266830E+03  0.15361955400E+04  0.12699999809E+01 0. -1.
</event>
<event>
 5   0  0.3942564E-07  0.3192901E+04  0.7818609E-02  0.8190695E-01
        2   -1    0    0  501    0  0.00000000000E+00  0.00000000000E+00  0.18824445418E+04  0.18824445418E+04  0.25500000920E-02 0. -1.
       -2   -1    0    0    0  501  0.00000000000E+00  0.00000000000E+00 -0.13539062437E+04  0.13539062437E+04  0.25500000920E-02 0.  1.
    10030    2    1    2    0    0  0.00000000000E+00  0.00000000000E+00  0.52853829817E+03  0.32363507855E+04  0.31929005112E+04 0.  0.
        3    1    3    3  502    0  0.11017279459E+04 -0.10680404670E+04  0.71087667740E+03  0.16911122277E+04  0.10100000352E+00 0. -1.
       -3    1    3    3    0  502 -0.11017279459E+04  0.10680404670E+04 -0.18233837923E+03  0.15452385578E+04  0.10100000352E+00 0.  1.
</event>
<event>
 5   0  0.3764056E-07  0.3204157E+04  0.7818609E-02  0.8187720E-01
       -2   -1    0    0    0  501  0.00000000000E+00  0.00000000000E+00  0.13593192395E+04  0.13593192395E+04  0.25500000920E-02 0. -1.
        2   -1    0    0  501    0  0.00000000000E+00  0.00000000000E+00 -0.18881915804E+04  0.18881915804E+04  0.25500000920E-02 0.  1.
    10030    2    1    2    0    0  0.00000000000E+00  0.00000000000E+00 -0.52887234093E+03  0.32475108199E+04  0.32041567647E+04 0.  0.
        5    1    3    3  502    0 -0.44504624744E+03  0.13672308232E+04  0.45169813948E+03  0.15071295849E+04  0.46999998093E+01 0. -1.
       -5    1    3    3    0  502  0.44504624744E+03 -0.13672308232E+04 -0.98057048041E+03  0.17403812351E+04  0.46999998093E+01 0.  1.
</event>
<event>
 5   0  0.1270948E-07  0.3197467E+04  0.7818609E-02  0.8189487E-01
        1   -1    0    0  501    0  0.00000000000E+00  0.00000000000E+00  0.17091871085E+04  0.17091871085E+04  0.50400001928E-02 0.  1.
       -1   -1    0    0    0  501  0.00000000000E+00  0.00000000000E+00 -0.14954174923E+04  0.14954174923E+04  0.50400001928E-02 0. -1.
    10030    2    1    2    0    0  0.00000000000E+00  0.00000000000E+00  0.21376961622E+03  0.32046046007E+04  0.31974666845E+04 0.  0.
        4    1    3    3  502    0  0.76908249568E+03  0.10681979737E+04 -0.80256134613E+03  0.15416358595E+04  0.12699999809E+01 0.  1.
       -4    1    3    3    0  502 -0.76908249568E+03 -0.10681979737E+04  0.10163309623E+04  0.16629687412E+04  0.12699999809E+01 0. -1.
</event>
<event>
 5   0  0.1277374E-07  0.3181243E+04  0.7818609E-02  0.8193788E-01
        1   -1    0    0  501    0  0.00000000000E+00  0.00000000000E+00  0.26204926912E+04  0.26204926912E+04  0.50400001928E-02 0.  1.
       -1   -1    0    0    0  501  0.00000000000E+00  0.00000000000E+00 -0.96549683302E+03  0.96549683303E+03  0.50400001928E-02 0. -1.
    10030    2    1    2    0    0  0.00000000000E+00  0.00000000000E+00  0.16549958582E+04  0.35859895242E+04  0.31812434011E+04 0.  0.
        5    1    3    3  502    0 -0.10311851290E+04 -0.91921778389E+03 -0.61335609676E+02  0.13827827926E+04  0.46999998093E+01 0. -1.
       -5    1    3    3    0  502  0.10311851290E+04  0.91921778389E+03  0.17163314678E+04  0.22032067316E+04  0.46999998093E+01 0.  1.
</event>
<event>
 5   0  0.1317293E-07  0.3197209E+04  0.7818609E-02  0.8189555E-01
       -1   -1    0    0    0  501  0.00000000000E+00  0.00000000000E+00  0.15020870584E+04  0.15020870584E+04  0.50400001928E-02 0.  1.
        1   -1    0    0  501    0  0.00000000000E+00  0.00000000000E+00 -0.17013237910E+04  0.17013237910E+04  0.50400001928E-02 0. -1.
    10030    2    1    2    0    0  0.00000000000E+00  0.00000000000E+00 -0.19923673257E+03  0.32034108494E+04  0.31972090634E+04 0.  0.
        1    1    3    3  502    0 -0.15098221375E+03 -0.63542037814E+03 -0.15615517293E+04  0.16926306417E+04  0.50400001928E-02 0. -1.
       -1    1    3    3    0  502  0.15098221375E+03  0.63542037814E+03  0.13623149967E+04  0.15107802078E+04  0.50400001928E-02 0.  1.
</event>
<event>
 5   0  0.3830207E-07  0.3204527E+04  0.7818609E-02  0.8187623E-01
        2   -1    0    0  501    0  0.00000000000E+00  0.00000000000E+00  0.19476614861E+04  0.19476614861E+04  0.25500000920E-02 0.  1.
       -2   -1    0    0    0  501  0.00000000000E+00  0.00000000000E+00 -0.13181184977E+04  0.13181184977E+04  0.25500000920E-02 0. -1.
    10030    2    1    2    0    0  0.00000000000E+00  0.00000000000E+00  0.62954298837E+03  0.32657799839E+04  0.32045271927E+04 0.  0.
        4    1    3    3  502    0 -0.87837439288E+03  0.13060285592E+04  0.90459088703E+01  0.15739554037E+04  0.12699999809E+01 0. -1.
       -4    1    3    3    0  502  0.87837439288E+03 -0.13060285592E+04  0.62049707950E+03  0.16918245802E+04  0.12699999809E+01 0.  1.
</event>
<event>
 5   0  0.3830207E-07  0.3217882E+04  0.7818609E-02  0.8184111E-01
        2   -1    0    0  501    0  0.00000000000E+00  0.00000000000E+00  0.17876799244E+04  0.17876799244E+04  0.25500000920E-02 0. -1.
       -2   -1    0    0    0  501  0.00000000000E+00  0.00000000000E+00 -0.14480727603E+04  0.14480727603E+04  0.25500000920E-02 0.  1.
    10030    2    1    2    0    0  0.00000000000E+00  0.00000000000E+00  0.33960716419E+03  0.32357526847E+04  0.32178816651E+04 0.  0.
        4    1    3    3  502    0 -0.26396132652E+03 -0.97030871727E+02  0.17627727383E+04  0.17850658004E+04  0.12699999809E+01 0. -1.
       -4    1    3    3    0  502  0.26396132652E+03  0.97030871727E+02 -0.14231655741E+04  0.14506868843E+04  0.12699999809E+01 0.  1.
</event>
<event>
 5   0  0.1230450E-07  0.3197487E+04  0.7818609E-02  0.8189481E-01
       -3   -1    0    0    0  501  0.00000000000E+00  0.00000000000E+00  0.16119498673E+04  0.16119498704E+04  0.10100000352E+00 0. -1.
        3   -1    0    0  501    0  0.00000000000E+00  0.00000000000E+00 -0.15856454483E+04  0.15856454515E+04  0.10100000352E+00 0.  1.
    10030    2    1    2    0    0  0.00000000000E+00  0.00000000000E+00  0.26304419017E+02  0.31975953219E+04  0.31974871259E+04 0.  0.
        1    1    3    3  502    0  0.15242807842E+04  0.18856624593E+03  0.45700485796E+03  0.16024489316E+04  0.50400001928E-02 0. -1.
       -1    1    3    3    0  502 -0.15242807842E+04 -0.18856624593E+03 -0.43070043895E+03  0.15951463903E+04  0.50400001928E-02 0.  1.
</event>
<event>
 5   0  0.3858721E-07  0.3199250E+04  0.7818609E-02  0.8189015E-01
       -2   -1    0    0    0  501  0.00000000000E+00  0.00000000000E+00  0.22040598549E+04  0.22040598549E+04  0.25500000920E-02 0.  1.
        2   -1    0    0  501    0  0.00000000000E+00  0.00000000000E+00 -0.11609484207E+04  0.11609484207E+04  0.25500000920E-02 0. -1.
    10030    2    1    2    0    0  0.00000000000E+00  0.00000000000E+00  0.10431114342E+04  0.33650082756E+04  0.31992497919E+04 0.  0.
        2    1    3    3  502    0 -0.15929457763E+04 -0.10410654667E+03  0.62925932362E+03  0.17158909393E+04  0.25500000920E-02 0.  1.
       -2    1    3    3    0  502  0.15929457763E+04  0.10410654667E+03  0.41385211054E+03  0.16491173363E+04  0.25500000920E-02 0. -1.
</event>
<event>
 5   0  0.1288096E-07  0.3196714E+04  0.7818609E-02  0.8189685E-01
        1   -1    0    0  501    0  0.00000000000E+00  0.00000000000E+00  0.17038878477E+04  0.17038878477E+04  0.50400001928E-02 0. -1.
       -1   -1    0    0    0  501  0.00000000000E+00  0.00000000000E+00 -0.14993626425E+04  0.14993626425E+04  0.50400001928E-02 0.  1.
    10030    2    1    2    0    0  0.00000000000E+00  0.00000000000E+00  0.20452520519E+03  0.32032504903E+04  0.31967144295E+04 0.  0.
        2    1    3    3  502    0  0.10910570263E+03 -0.88289183191E+03  0.14328872101E+04  0.16865846549E+04  0.25500000920E-02 0. -1.
       -2    1    3    3    0  502 -0.10910570263E+03  0.88289183191E+03 -0.12283620049E+04  0.15166658354E+04  0.25500000920E-02 0.  1.
</event>
<event>
 5   0  0.1365455E-07  0.3197107E+04  0.7818609E-02  0.8189582E-01
       -1   -1    0    0    0  501  0.00000000000E+00  0.00000000000E+00  0.18214492693E+04  0.18214492693E+04  0.50400001928E-02 0.  1.
        1   -1    0    0  501    0  0.00000000000E+00  0.00000000000E+00 -0.14029337947E+04  0.14029337947E+04  0.50400001928E-02 0. -1.
    10030    2    1    2    0    0  0.00000000000E+00  0.00000000000E+00  0.41851547464E+03  0.32243830640E+04  0.31971066515E+04 0.  0.
        3    1    3    3  502    0  0.10986295461E+04  0.67045102325E+03 -0.74692450309E+03  0.14880818787E+04  0.10100000352E+00 0. -1.
       -3    1    3    3    0  502 -0.10986295461E+04 -0.67045102325E+03  0.11654399777E+04  0.17363011853E+04  0.10100000352E+00 0.  1.
</event>
<event>
 5   0  0.3764056E-07  0.3202182E+04  0.7818609E-02  0.8188241E-01
       -2   -1    0    0    0  501  0.00000000000E+00  0.00000000000E+00  0.17637272376E+04  0.17637272376E+04  0.25500000920E-02 0. -1.
        2   -1    0    0  501    0  0.00000000000E+00  0.00000000000E+00 -0.14534515669E+04  0.14534515669E+04  0.25500000920E-02 0.  1.
    10030    2    1    2    0    0  0.00000000000E+00  0.00000000000E+00  0.31027567075E+03  0.32171788045E+04  0.32021818294E+04 0.  0.
        5    1    3    3  502    0  0.29139817287E+03  0.14683119518E+04 -0.41551625050E+03  0.15535535805E+04  0.46999998093E+01 0. -1.
       -5    1    3    3    0  502 -0.29139817287E+03 -0.14683119518E+04  0.72579192125E+03  0.16636252240E+04  0.46999998093E+01 0.  1.
</event>
<event>
 5   0  0.3750285E-07  0.3190313E+04  0.7818609E-02  0.8191380E-01
       -2   -1    0    0    0  501  0.00000000000E+00  0.00000000000E+00  0.15435035045E+04  0.15435035045E+04  0.25500000920E-02 0. -1.
        2   -1    0    0  501    0  0.00000000000E+00  0.00000000000E+00 -0.16485379813E+04  0.16485379813E+04  0.25500000920E-02 0.  1.
    10030    2    1    2    0    0  0.00000000000E+00  0.00000000000E+00 -0.10503447678E+03  0.31920414858E+04  0.31903129322E+04 0.  0.
        1    1    3    3  502    0  0.86079427184E+03  0.81457077786E+03 -0.11208184712E+04  0.16311733127E+04  0.50400001928E-02 0. -1.
       -1    1    3    3    0  502 -0.86079427184E+03 -0.81457077786E+03  0.10157839944E+04  0.15608681731E+04  0.50400001928E-02 0.  1.
</event>
<event>
 5   0  0.1270948E-07  0.3204458E+04  0.7818609E-02  0.8187641E-01
       -1   -1    0    0    0  501  0.00000000000E+00  0.00000000000E+00  0.14509358258E+04  0.14509358258E+04  0.50400001928E-02 0. -1.
        1   -1    0    0  501    0  0.00000000000E+00  0.00000000000E+00 -0.17692984448E+04  0.17692984448E+04  0.50400001928E-02 0.  1.
    10030    2    1    2    0    0  0.00000000000E+00  0.00000000000E+00 -0.31836261902E+03  0.32202342707E+04  0.32044584567E+04 0.  0.
        4    1    3    3  502    0 -0.11619872402E+04  0.10104500887E+04 -0.60398115320E+03  0.16540914649E+04  0.12699999809E+01 0.  1.
       -4    1    3    3    0  502  0.11619872402E+04 -0.10104500887E+04  0.28561853418E+03  0.15661428057E+04  0.12699999809E+01 0. -1.
</event>
<event>
 5   0  0.1270948E-07  0.3201711E+04  0.7818609E-02  0.8188365E-01
        1   -1    0    0  501    0  0.00000000000E+00  0.00000000000E+00  0.18048738262E+04  0.18048738263E+04  0.50400001928E-02 0.  1.
       -1   -1    0    0    0  501  0.00000000000E+00  0.00000000000E+00 -0.14198991469E+04  0.14198991469E+04  0.50400001928E-02 0. -1.
    10030    2    1    2    0    0  0.00000000000E+00  0.00000000000E+00  0.38497467938E+03  0.32247729731E+04  0.32017112962E+04 0.  0.
        4    1    3    3  502    0  0.30112763424E+03 -0.10237007436E+04  0.13944379712E+04  0.17558758307E+04  0.12699999809E+01 0.  1.
       -4    1    3    3    0  502 -0.30112763424E+03  0.10237007436E+04 -0.10094632918E+04  0.14688971424E+04  0.12699999809E+01 0. -1.
</event>
<event>
 5   0  0.1277374E-07  0.3200434E+04  0.7818609E-02  0.8188703E-01
        1   -1    0    0  501    0  0.00000000000E+00  0.00000000000E+00  0.17615851263E+04  0.17615851263E+04  0.50400001928E-02 0.  1.
       -1   -1    0    0    0  501  0.00000000000E+00  0.00000000000E+00 -0.14536309481E+04  0.14536309481E+04  0.50400001928E-02 0. -1.
    10030    2    1    2    0    0  0.00000000000E+00  0.00000000000E+00  0.30795417821E+03  0.32152160743E+04  0.32004341313E+04 0.  0.
        5    1    3    3  502    0  0.14738811926E+04  0.62310574349E+03  0.14465902596E+03  0.16067155508E+04  0.46999998093E+01 0. -1.
       -5    1    3    3    0  502 -0.14738811926E+04 -0.62310574349E+03  0.16329515225E+03  0.16085005235E+04  0.46999998093E+01 0.  1.
</event>
<event>
 5   0  0.3830207E-07  0.3212253E+04  0.7818609E-02  0.8185589E-01
        2   -1    0    0  501    0  0.00000000000E+00  0.00000000000E+00  0.18940705212E+04  0.18940705212E+04  0.25500000920E-02 0. -1.
       -2   -1    0    0    0  501  0.00000000000E+00  0.00000000000E+00 -0.13619570720E+04  0.13619570720E+04  0.25500000920E-02 0.  1.
    10030    2    1    2    0    0  0.00000000000E+00  0.00000000000E+00  0.53211344919E+03  0.32560275932E+04  0.32122532536E+04 0.  0.
        4    1    3    3  502    0  0.28052160453E+03  0.54932648151E+03  0.17692318953E+04  0.18736688784E+04  0.12699999809E+01 0. -1.
       -4    1    3    3    0  502 -0.28052160453E+03 -0.54932648151E+03 -0.12371184461E+04  0.13823587148E+04  0.12699999809E+01 0.  1.
</event>
<event>
 5   0  0.1277374E-07  0.3200996E+04  0.7818609E-02  0.8188554E-01
        1   -1    0    0  501    0  0.00000000000E+00  0.00000000000E+00  0.24252802861E+04  0.24252802862E+04  0.50400001928E-02 0.  1.
       -1   -1    0    0    0  501  0.00000000000E+00  0.00000000000E+00 -0.10562051145E+04  0.10562051145E+04  0.50400001928E-02 0. -1.
    10030    2    1    2    0    0  0.00000000000E+00  0.00000000000E+00  0.13690751717E+04  0.34814854006E+04  0.32009957465E+04 0.  0.
        5    1    3    3  502    0 -0.32963024021E+03 -0.14936030322E+04  0.17200701802E+03  0.15391928460E+04  0.46999998093E+01 0.  1.
       -5    1    3    3    0  502  0.32963024021E+03  0.14936030322E+04  0.11970681537E+04  0.19422925546E+04  0.46999998093E+01 0. -1.
</event>
<event>
 5   0  0.3942564E-07  0.3201584E+04  0.7818609E-02  0.8188399E-01
        2   -1    0    0  501    0  0.00000000000E+00  0.00000000000E+00  0.18307524513E+04  0.18307524513E+04  0.25500000920E-02 0.  1.
       -2   -1    0    0    0  501  0.00000000000E+00  0.00000000000E+00 -0.13997170674E+04  0.13997170674E+04  0.25500000920E-02 0. -1.
    10030    2    1    2    0    0  0.00000000000E+00  0.00000000000E+00  0.43103538385E+03  0.32304695187E+04  0.32015842655E+04 0.  0.
        3    1    3    3  502    0  0.48535842548E+03 -0.15062506345E+04  0.45888176481E+03  0.16477063632E+04  0.10100000352E+00 0.  1.
       -3    1    3    3    0  502 -0.48535842548E+03  0.15062506345E+04 -0.27846380960E+02  0.15827631555E+04  0.10100000352E+00 0. -1.
</event>
<event>
 5   0  0.3942564E-07  0.3181671E+04  0.7818609E-02  0.8193675E-01
        2   -1    0    0  501    0  0.00000000000E+00  0.00000000000E+00  0.17433563819E+04  0.17433563819E+04  0.25500000920E-02 0. -1.
       -2   -1    0    0    0  501  0.00000000000E+00  0.00000000000E+00 -0.14516584515E+04  0.14516584515E+04  0.25500000920E-02 0.  1.
    10030    2    1    2    0    0  0.00000000000E+00  0.00000000000E+00  0.29169793035E+03  0.31950148334E+04  0.31816712751E+04 0.  0.
        3    1    3    3  502    0  0.41495756144E+03 -0.10951188240E+04  0.12270645703E+04  0.16962200583E+04  0.10100000352E+00 0. -1.
       -3    1    3    3    0  502 -0.41495756144E+03  0.10951188240E+04 -0.93536663997E+03  0.14987947751E+04  0.10100000352E+00 0.  1.
</event>
<event>
 5   0  0.1230450E-07  0.3188759E+04  0.7818609E-02  0.8191792E-01
        3   -1    0    0  501    0  0.00000000000E+00  0.00000000000E+00  0.87658028288E+03  0.87658028870E+03  0.10100000352E+00 0.  1.
       -3   -1    0    0    0  501  0.00000000000E+00  0.00000000000E+00 -0.28999582419E+04  0.28999582436E+04  0.10100000352E+00 0. -1.
    10030    2    1    2    0    0  0.00000000000E+00  0.00000000000E+00 -0.20233779590E+04  0.37765385323E+04  0.31887591507E+04 0.  0.
        5    1    3    3  502    0 -0.84556565282E+03  0.54104986248E+03 -0.24786834092E+04  0.26742493825E+04  0.46999998093E+01 0. -1.
       -5    1    3    3    0  502  0.84556565282E+03 -0.54104986248E+03  0.45530545016E+03  0.11022891498E+04  0.46999998093E+01 0.  1.
</event>
<event>
 5   0  0.1277374E-07  0.3205085E+04  0.7818609E-02  0.8187475E-01
       -1   -1    0    0    0  501  0.00000000000E+00  0.00000000000E+00  0.24889956629E+04  0.24889956629E+04  0.50400001928E-02 0.  1.
        1   -1    0    0  501    0  0.00000000000E+00  0.00000000000E+00 -0.10317987744E+04  0.10317987744E+04  0.50400001928E-02 0. -1.
    10030    2    1    2    0    0  0.00000000000E+00  0.00000000000E+00  0.14571968886E+04  0.35207944373E+04  0.32050851311E+04 0.  0.
        5    1    3    3  502    0 -0.10508267030E+04 -0.99906296272E+03 -0.21089980235E+02  0.14501139405E+04  0.46999998093E+01 0. -1.
       -5    1    3    3    0  502  0.10508267030E+04  0.99906296272E+03  0.14782868688E+04  0.20706804968E+04  0.46999998093E+01 0.  1.
</event>
<event>
 5   0  0.3942564E-07  0.3199027E+04  0.7818609E-02  0.8189074E-01
        2   -1    0    0  501    0  0.00000000000E+00  0.00000000000E+00  0.21656175629E+04  0.21656175629E+04  0.25500000920E-02 0. -1.
       -2   -1    0    0    0  501  0.00000000000E+00  0.00000000000E+00 -0.11813924297E+04  0.11813924297E+04  0.25500000920E-02 0.  1.
    10030    2    1    2    0    0  0.00000000000E+00  0.00000000000E+00  0.98422513317E+03  0.33470099926E+04  0.31990274738E+04 0.  0.
        3    1    3    3  502    0 -0.14752124693E+04  0.31006430332E+03  0.10516922004E+04  0.18380555476E+04  0.10100000352E+00 0. -1.
       -3    1    3    3    0  502  0.14752124693E+04 -0.31006430332E+03 -0.67467067214E+02  0.15089544450E+04  0.10100000352E+00 0.  1.
</event>
<event>
 5   0  0.3858721E-07  0.3222915E+04  0.7818609E-02  0.8182792E-01
        2   -1    0    0  501    0  0.00000000000E+00  0.00000000000E+00  0.23670735809E+04  0.23670735809E+04  0.25500000920E-02 0. -1.
       -2   -1    0    0    0  501  0.00000000000E+00  0.00000000000E+00 -0.10970485157E+04  0.10970485157E+04  0.25500000920E-02 0.  1.
    10030    2    1    2    0    0  0.00000000000E+00  0.00000000000E+00  0.12700250652E+04  0.34641220966E+04  0.32229145558E+04 0.  0.
        2    1    3    3  502    0  0.93652643776E+03  0.49675627879E+03 -0.66946862391E+03  0.12538089199E+04  0.25500000920E-02 0.  1.
       -2    1    3    3    0  502 -0.93652643776E+03 -0.49675627879E+03  0.19394936891E+04  0.22103131767E+04  0.25500000920E-02 0. -1.
</event>
<event>
 5   0  0.3750285E-07  0.3201372E+04  0.7818609E-02  0.8188455E-01
        2   -1    0    0  501    0  0.00000000000E+00  0.00000000000E+00  0.24187959145E+04  0.24187959145E+04  0.25500000920E-02 0.  1.
       -2   -1    0    0    0  501  0.00000000000E+00  0.00000000000E+00 -0.10592857027E+04  0.10592857027E+04  0.25500000920E-02 0. -1.
    10030    2    1    2    0    0  0.00000000000E+00  0.00000000000E+00  0.13595102118E+04  0.34780816173E+04  0.32013721621E+04 0.  0.
        1    1    3    3  502    0 -0.14672021159E+04  0.16514546779E+03  0.13514501703E+04  0.20015925253E+04  0.50400001928E-02 0.  1.
       -1    1    3    3    0  502  0.14672021159E+04 -0.16514546779E+03  0.80600415308E+01  0.14764890920E+04  0.50400001928E-02 0. -1.
</event>
<event>
 5   0  0.1317293E-07  0.3193501E+04  0.7818609E-02  0.8190536E-01
       -1   -1    0    0    0  501  0.00000000000E+00  0.00000000000E+00  0.16767402538E+04  0.16767402538E+04  0.50400001928E-02 0. -1.
        1   -1    0    0  501    0  0.00000000000E+00  0.00000000000E+00 -0.15205765117E+04  0.15205765117E+04  0.50400001928E-02 0.  1.
    10030    2    1    2    0    0  0.00000000000E+00  0.00000000000E+00  0.15616374206E+03  0.31973167655E+04  0.31935008039E+04 0.  0.
        1    1    3    3  502    0  0.17624399669E+03  0.45863602749E+03 -0.14430106316E+04  0.15243649941E+04  0.50400001928E-02 0.  1.
       -1    1    3    3    0  502 -0.17624399669E+03 -0.45863602749E+03  0.15991743737E+04  0.16729517715E+04  0.50400001928E-02 0. -1.
</event>
<event>
 5   0  0.3830207E-07  0.3192590E+04  0.7818609E-02  0.8190777E-01
       -2   -1    0    0    0  501  0.00000000000E+00  0.00000000000E+00  0.11931150853E+04  0.11931150853E+04  0.25500000920E-02 0. -1.
        2   -1    0    0  501    0  0.00000000000E+00  0.00000000000E+00 -0.21357178570E+04  0.21357178570E+04  0.25500000920E-02 0.  1.
    10030    2    1    2    0    0  0.00000000000E+00  0.00000000000E+00 -0.94260277167E+03  0.33288329423E+04  0.31925896656E+04 0.  0.
        4    1    3    3  502    0  0.41543597045E+02  0.12593169230E+04  0.55060007573E+03  0.13750516497E+04  0.12699999809E+01 0. -1.
       -4    1    3    3    0  502 -0.41543597045E+02 -0.12593169230E+04 -0.14932028474E+04  0.19537812926E+04  0.12699999809E+01 0.  1.
</event>
<event>
 5   0  0.3830207E-07  0.3202040E+04  0.7818609E-02  0.8188279E-01
        2   -1    0    0  501    0  0.00000000000E+00  0.00000000000E+00  0.11154710888E+04  0.11154710888E+04  0.25500000920E-02 0.  1.
       -2   -1    0    0    0  501  0.00000000000E+00  0.00000000000E+00 -0.22979211240E+04  0.22979211240E+04  0.25500000920E-02 0. -1.
    10030    2    1    2    0    0  0.00000000000E+00  0.00000000000E+00 -0.11824500352E+04  0.34133922128E+04  0.32020397113E+04 0.  0.
        4    1    3    3  502    0 -0.42067269466E+03  0.24228573296E+01  0.10555005707E+04  0.11362457718E+04  0.12699999809E+01 0.  1.
       -4    1    3    3    0  502  0.42067269466E+03 -0.24228573296E+01 -0.22379506059E+04  0.22771464410E+04  0.12699999809E+01 0. -1.
</event>
<event>
 5   0  0.3764056E-07  0.3194304E+04  0.7818609E-02  0.8190323E-01
       -2   -1    0    0    0  501  0.00000000000E+00  0.00000000000E+00  0.13756791672E+04  0.13756791672E+04  0.25500000920E-02 0.  1.
        2   -1    0    0  501    0  0.00000000000E+00  0.00000000000E+00 -0.18542795358E+04  0.18542795358E+04  0.25500000920E-02 0. -1.
    10030    2    1    2    0    0  0.00000000000E+00  0.00000000000E+00 -0.47860036858E+03  0.32299587030E+04  0.31943035094E+04 0.  0.
        5    1    3    3  502    0 -0.62060074666E+03 -0.77542311817E+03 -0.15040394085E+04  0.18023825707E+04  0.46999998093E+01 0. -1.
       -5    1    3    3    0  502  0.62060074666E+03  0.77542311817E+03  0.10254390399E+04  0.14275761323E+04  0.46999998093E+01 0.  1.
</event>
<event>
 5   0  0.1270948E-07  0.3209264E+04  0.7818609E-02  0.8186375E-01
       -1   -1    0    0    0  501  0.00000000000E+00  0.00000000000E+00  0.88775107233E+03  0.88775107234E+03  0.50400001928E-02 0. -1.
        1   -1    0    0  501    0  0.00000000000E+00  0.00000000000E+00 -0.29004113820E+04  0.29004113820E+04  0.50400001928E-02 0.  1.
    10030    2    1    2    0    0  0.00000000000E+00  0.00000000000E+00 -0.20126603097E+04  0.37881624544E+04  0.32092636630E+04 0.  0.
        4    1    3    3  502    0 -0.78951596406E+03  0.85841213844E+03  0.29457628748E+03  0.12029063384E+04  0.12699999809E+01 0. -1.
       -4    1    3    3    0  502  0.78951596406E+03 -0.85841213844E+03 -0.23072365972E+04  0.25852561160E+04  0.12699999809E+01 0.  1.
</event>
<event>
 5   0  0.1288096E-07  0.3195402E+04  0.7818609E-02  0.8190032E-01
       -1   -1    0    0    0  501  0.00000000000E+00  0.00000000000E+00  0.22695345934E+04  0.22695345934E+04  0.50400001928E-02 0.  1.
        1   -1    0    0  501    0  0.00000000000E+00  0.00000000000E+00 -0.11247455011E+04  0.11247455011E+04  0.50400001928E-02 0. -1.
    10030    2    1    2    0    0  0.00000000000E+00  0.00000000000E+00  0.11447890923E+04  0.33942800946E+04  0.31954022117E+04 0.  0.
        2    1    3    3  502    0 -0.12385251388E+04  0.79160823426E+03 -0.92723613458E+02  0.14728155976E+04  0.25500000920E-02 0. -1.
       -2    1    3    3    0  502  0.12385251388E+04 -0.79160823426E+03  0.12375127058E+04  0.19214644969E+04  0.25500000920E-02 0.  1.
</event>
<event>
 5   0  0.3942564E-07  0.3198993E+04  0.7818609E-02  0.8189083E-01
        2   -1    0    0  501    0  0.00000000000E+00  0.00000000000E+00  0.23925299509E+04  0.23925299509E+04  0.25500000920E-02 0. -1.
       -2   -1    0    0    0  501  0.00000000000E+00  0.00000000000E+00 -0.10693235653E+04  0.10693235653E+04  0.25500000920E-02 0.  1.
    10030    2    1    2    0    0  0.00000000000E+00  0.00000000000E+00  0.13232063855E+04  0.34618535162E+04  0.31989927522E+04 0.  0.
        3    1    3    3  502    0 -0.15871219950E+04 -0.14489741270E+03  0.80854400718E+03  0.17870911865E+04  0.10100000352E+00 0. -1.
       -3    1    3    3    0  502  0.15871219950E+04  0.14489741270E+03  0.51466237837E+03  0.16747623297E+04  0.10100000352E+00 0.  1.
</event>
<event>
 5   0  0.3830207E-07  0.3196661E+04  0.7818609E-02  0.8189700E-01
       -2   -1    0    0    0  501  0.00000000000E+00  0.00000000000E+00  0.15044709795E+04  0.15044709795E+04  0.25500000920E-02 0. -1.
        2   -1    0    0  501    0  0.00000000000E+00  0.00000000000E+00 -0.16980453530E+04  0.16980453530E+04  0.25500000920E-02 0.  1.
    10030    2    1    2    0    0  0.00000000000E+00  0.00000000000E+00 -0.19357437352E+03  0.32025163324E+04  0.31966607298E+04 0.  0.
        4    1    3    3  502    0  0.54273415706E+03  0.62758007851E+03 -0.14653939960E+04  0.16839828671E+04  0.12699999809E+01 0.  1.
       -4    1    3    3    0  502 -0.54273415706E+03 -0.62758007851E+03  0.12718196225E+04  0.15185334653E+04  0.12699999809E+01 0. -1.
</event>
<event>
 5   0  0.3830207E-07  0.3200623E+04  0.7818609E-02  0.8188653E-01
        2   -1    0    0  501    0  0.00000000000E+00  0.00000000000E+00  0.14060887949E+04  0.14060887949E+04  0.25500000920E-02 0.  1.
       -2   -1    0    0    0  501  0.00000000000E+00  0.00000000000E+00 -0.18213621208E+04  0.18213621208E+04  0.25500000920E-02 0. -1.
    10030    2    1    2    0    0  0.00000000000E+00  0.00000000000E+00 -0.41527332592E+03  0.32274509157E+04  0.32006229828E+04 0.  0.
        4    1    3    3  502    0 -0.11085247632E+04  0.50776946784E+03  0.83755431090E+03  0.14792416367E+04  0.12699999809E+01 0.  1.
       -4    1    3    3    0  502  0.11085247632E+04 -0.50776946784E+03 -0.12528276368E+04  0.17482092791E+04  0.12699999809E+01 0. -1.
</event>
<event>
 5   0  0.1365455E-07  0.3204891E+04  0.7818609E-02  0.8187527E-01
       -1   -1    0    0    0  501  0.00000000000E+00  0.00000000000E+00  0.16085160540E+04  0.16085160540E+04  0.50400001928E-02 0.  1.
        1   -1    0    0  501    0  0.00000000000E+00  0.00000000000E+00 -0.15963980471E+04  0.15963980471E+04  0.50400001928E-02 0. -1.
    10030    2    1    2    0    0  0.00000000000E+00  0.00000000000E+00  0.12118006978E+02  0.32049141011E+04  0.32048911915E+04 0.  0.
        3    1    3    3  502    0  0.83657138119E+03 -0.64414070996E+03  0.12114982268E+04  0.16070149016E+04  0.10100000352E+00 0.  1.
       -3    1    3    3    0  502 -0.83657138119E+03  0.64414070996E+03 -0.11993802198E+04  0.15978991996E+04  0.10100000352E+00 0. -1.
</event>
<event>
 5   0  0.1317293E-07  0.3200240E+04  0.7818609E-02  0.8188754E-01
       -1   -1    0    0    0  501  0.00000000000E+00  0.00000000000E+00  0.12857329344E+04  0.12857329344E+04  0.50400001928E-02 0.  1.
        1   -1    0    0  501    0  0.00000000000E+00  0.00000000000E+00 -0.19913812482E+04  0.19913812482E+04  0.50400001928E-02 0. -1.
    10030    2    1    2    0    0  0.00000000000E+00  0.00000000000E+00 -0.70564831379E+03  0.32771141826E+04  0.32002402759E+04 0.  0.
        1    1    3    3  502    0 -0.46823662111E+03 -0.50969347466E+03 -0.18301683874E+04  0.19566679068E+04  0.50400001928E-02 0. -1.
       -1    1    3    3    0  502  0.46823662111E+03  0.50969347466E+03  0.11245200736E+04  0.13204462758E+04  0.50400001928E-02 0.  1.
</event>
<event>
 5   0  0.1270948E-07  0.3198000E+04  0.7818609E-02  0.8189346E-01
       -1   -1    0    0    0  501  0.00000000000E+00  0.00000000000E+00  0.17386173869E+04  0.17386173869E+04  0.50400001928E-02 0. -1.
        1   -1    0    0  501    0  0.00000000000E+00  0.00000000000E+00 -0.14705939476E+04  0.14705939476E+04  0.50400001928E-02 0.  1.
    10030    2    1    2    0    0  0.00000000000E+00  0.00000000000E+00  0.26802343934E+03  0.32092113345E+04  0.31979995037E+04 0.  0.
        4    1    3    3  502    0  0.12951650429E+04  0.63082425240E+03  0.83027912708E+03  0.16627557751E+04  0.12699999809E+01 0. -1.
       -4    1    3    3    0  502 -0.12951650429E+04 -0.63082425240E+03 -0.56225568774E+03  0.15464555594E+04  0.12699999809E+01 0.  1.
</event>
<event>
 5   0  0.3750285E-07  0.3196008E+04  0.7818609E-02  0.8189872E-01
       -2   -1    0    0    0  501  0.00000000000E+00  0.00000000000E+00  0.14072734334E+04  0.14072734334E+04  0.25500000920E-02 0. -1.
        2   -1    0    0  501    0  0.00000000000E+00  0.00000000000E+00 -0.18145844472E+04  0.18145844472E+04  0.25500000920E-02 0.  1.
    10030    2    1    2    0    0  0.00000000000E+00  0.00000000000E+00 -0.40731101383E+03  0.32218578806E+04  0.31960078130E+04 0.  0.
        1    1    3    3  502    0  0.18489471728E+03  0.15836428395E+04 -0.31178811663E+03  0.16245991903E+04  0.50400001928E-02 0.  1.
       -1    1    3    3    0  502 -0.18489471728E+03 -0.15836428395E+04 -0.95522897202E+02  0.15972586902E+04  0.50400001928E-02 0. -1.
</event>
<event>
 5   0  0.3830207E-07  0.3203064E+04  0.7818609E-02  0.8188009E-01
       -2   -1    0    0    0  501  0.00000000000E+00  0.00000000000E+00  0.11873274511E+04  0.11873274511E+04  0.25500000920E-02 0. -1.
        2   -1    0    0  501    0  0.00000000000E+00  0.00000000000E+00 -0.21602331047E+04  0.21602331047E+04  0.25500000920E-02 0.  1.
    10030    2    1    2    0    0  0.00000000000E+00  0.00000000000E+00 -0.97290565354E+03  0.33475605558E+04  0.32030635748E+04 0.  0.
        4    1    3    3  502    0  0.60531793049E+03 -0.11046115457E+04 -0.15201770153E+04  0.19742128139E+04  0.12699999809E+01 0.  1.
       -4    1    3    3    0  502 -0.60531793049E+03  0.11046115457E+04  0.54727136172E+03  0.13733477419E+04  0.12699999809E+01 0. -1.
</event>
<event>
 5   0  0.1277374E-07  0.3196139E+04  0.7818609E-02  0.8189838E-01
        1   -1    0    0  501    0  0.00000000000E+00  0.00000000000E+00  0.17821980984E+04  0.17821980984E+04  0.50400001928E-02 0.  1.
       -1   -1    0    0    0  501  0.00000000000E+00  0.00000000000E+00 -0.14329639634E+04  0.14329639634E+04  0.50400001928E-02 0. -1.
    10030    2    1    2    0    0  0.00000000000E+00  0.00000000000E+00  0.34923413505E+03  0.32151620618E+04  0.31961387020E+04 0.  0.
        5    1    3    3  502    0  0.32840826158E+03  0.14582667433E+04 -0.39391018455E+03  0.15458270293E+04  0.46999998093E+01 0. -1.
       -5    1    3    3    0  502 -0.32840826158E+03 -0.14582667433E+04  0.74314431960E+03  0.16693350325E+04  0.46999998093E+01 0.  1.
</event>
<event>
 5   0  0.3750285E-07  0.3202158E+04  0.7818609E-02  0.8188248E-01
       -2   -1    0    0    0  501  0.00000000000E+00  0.00000000000E+00  0.15277063081E+04  0.15277063081E+04  0.25500000920E-02 0.  1.
        2   -1    0    0  501    0  0.00000000000E+00  0.00000000000E+00 -0.16779755376E+04  0.16779755376E+04  0.25500000920E-02 0. -1.
    10030    2    1    2    0    0  0.00000000000E+00  0.00000000000E+00 -0.15026922945E+03  0.32056818457E+04  0.32021579059E+04 0.  0.
        1    1    3    3  502    0 -0.13603769239E+03  0.10824847023E+04  0.10979802215E+04  0.15478501062E+04  0.50400001928E-02 0.  1.
       -1    1    3    3    0  502  0.13603769239E+03 -0.10824847023E+04 -0.12482494509E+04  0.16578317395E+04  0.50400001928E-02 0. -1.
</event>
<event>
 5   0  0.1365455E-07  0.3226124E+04  0.7818609E-02  0.8181952E-01
       -1   -1    0    0    0  501  0.00000000000E+00  0.00000000000E+00  0.17556709067E+04  0.17556709067E+04  0.50400001928E-02 0. -1.
        1   -1    0    0  501    0  0.00000000000E+00  0.00000000000E+00 -0.14820366242E+04  0.14820366243E+04  0.50400001928E-02 0.  1.
    10030    2    1    2    0    0  0.00000000000E+00  0.00000000000E+00  0.27363428248E+03  0.32377075310E+04  0.32261237322E+04 0.  0.
        3    1    3    3  502    0 -0.77742823454E+03  0.11982460571E+04 -0.61539415054E+03  0.15552807605E+04  0.10100000352E+00 0.  1.
       -3    1    3    3    0  502  0.77742823454E+03 -0.11982460571E+04  0.88902843302E+03  0.16824267705E+04  0.10100000352E+00 0. -1.
</event>
<event>
 5   0  0.1230450E-07  0.3201461E+04  0.7818609E-02  0.8188431E-01
       -3   -1    0    0    0  501  0.00000000000E+00  0.00000000000E+00  0.87338163289E+03  0.87338163873E+03  0.10100000352E+00 0.  1.
        3   -1    0    0  501    0  0.00000000000E+00  0.00000000000E+00 -0.29338133859E+04  0.29338133876E+04  0.10100000352E+00 0. -1.
    10030    2    1    2    0    0  0.00000000000E+00  0.00000000000E+00 -0.20604317530E+04  0.38071950263E+04  0.32014613788E+04 0.  0.
        4    1    3    3  502    0 -0.13957440857E+04  0.78014179580E+03 -0.11193218265E+04  0.19518211338E+04  0.12699999809E+01 0. -1.
       -4    1    3    3    0  502  0.13957440857E+04 -0.78014179580E+03 -0.94110992649E+03  0.18553738925E+04  0.12699999809E+01 0.  1.
</event>
<event>
 5   0  0.1277374E-07  0.3229036E+04  0.7818609E-02  0.8181191E-01
        1   -1    0    0  501    0  0.00000000000E+00  0.00000000000E+00  0.97896495411E+03  0.97896495412E+03  0.50400001928E-02 0. -1.
       -1   -1    0    0    0  501  0.00000000000E+00  0.00000000000E+00 -0.26626782764E+04  0.26626782764E+04  0.50400001928E-02 0.  1.
    10030    2    1    2    0    0  0.00000000000E+00  0.00000000000E+00 -0.16837133223E+04  0.36416432305E+04  0.32290362133E+04 0.  0.
        5    1    3    3  502    0 -0.14548551014E+04  0.47351705250E+03 -0.26039340163E+03  0.15519821451E+04  0.46999998093E+01 0. -1.
       -5    1    3    3    0  502  0.14548551014E+04 -0.47351705250E+03 -0.14233199206E+04  0.20896610854E+04  0.46999998093E+01 0.  1.
</event>
<event>
 5   0  0.1230450E-07  0.3196070E+04  0.7818609E-02  0.8189856E-01
       -4   -1    0    0    0  501  0.00000000000E+00  0.00000000000E+00  0.12418628723E+04  0.12418635217E+04  0.12699999809E+01 0.  1.
        4   -1    0    0  501    0  0.00000000000E+00  0.00000000000E+00 -0.20563580823E+04  0.20563584744E+04  0.12699999809E+01 0. -1.
    10030    2    1    2    0    0  0.00000000000E+00  0.00000000000E+00 -0.81449520998E+03  0.32982219961E+04  0.31960703823E+04 0.  0.
        5    1    3    3  502    0 -0.78774792992E+03 -0.13662509909E+04 -0.67337730587E+03  0.17148316703E+04  0.46999998093E+01 0. -1.
       -5    1    3    3    0  502  0.78774792992E+03  0.13662509909E+04 -0.14111790411E+03  0.15833903259E+04  0.46999998093E+01 0.  1.
</event>
<event>
 5   0  0.3764056E-07  0.3202718E+04  0.7818609E-02  0.8188100E-01
       -2   -1    0    0    0  501  0.00000000000E+00  0.00000000000E+00  0.15963935687E+04  0.15963935687E+04  0.25500000920E-02 0.  1.
        2   -1    0    0  501    0  0.00000000000E+00  0.00000000000E+00 -0.16063398560E+04  0.16063398560E+04  0.25500000920E-02 0. -1.
    10030    2    1    2    0    0  0.00000000000E+00  0.00000000000E+00 -0.99462872971E+01  0.32027334248E+04  0.32027179803E+04 0.  0.
        5    1    3    3  502    0 -0.12865116375E+04  0.92392694256E+03 -0.24071849936E+03  0.16020988342E+04  0.46999998093E+01 0. -1.
       -5    1    3    3    0  502  0.12865116375E+04 -0.92392694256E+03  0.23077221206E+03  0.16006345906E+04  0.46999998093E+01 0.  1.
</event>
<event>
 5   0  0.3830207E-07  0.3205901E+04  0.7818609E-02  0.8187261E-01
       -2   -1    0    0    0  501  0.00000000000E+00  0.00000000000E+00  0.93239278577E+03  0.93239278578E+03  0.25500000920E-02 0. -1.
        2   -1    0    0  501    0  0.00000000000E+00  0.00000000000E+00 -0.27557587718E+04  0.27557587718E+04  0.25500000920E-02 0.  1.
    10030    2    1    2    0    0  0.00000000000E+00  0.00000000000E+00 -0.18233659860E+04  0.36881515575E+04  0.32059005587E+04 0.  0.
        4    1    3    3  502    0  0.11290148816E+04 -0.72748465349E+03 -0.19182495644E+04  0.23417069689E+04  0.12699999809E+01 0.  1.
       -4    1    3    3    0  502 -0.11290148816E+04  0.72748465349E+03  0.94883578425E+02  0.13464445886E+04  0.12699999809E+01 0. -1.
</event>
<event>
 5   0  0.1317293E-07  0.3205305E+04  0.7818609E-02  0.8187417E-01
        1   -1    0    0  501    0  0.00000000000E+00  0.00000000000E+00  0.25891497747E+04  0.25891497747E+04  0.50400001928E-02 0. -1.
       -1   -1    0    0    0  501  0.00000000000E+00  0.00000000000E+00 -0.99202278843E+03  0.99202278844E+03  0.50400001928E-02 0.  1.
    10030    2    1    2    0    0  0.00000000000E+00  0.00000000000E+00  0.15971269863E+04  0.35811725631E+04  0.32053053391E+04 0.  0.
        1    1    3    3  502    0 -0.53860959086E+03  0.71108514405E+03 -0.68901530968E+03  0.11271576955E+04  0.50400001928E-02 0.  1.
       -1    1    3    3    0  502  0.53860959086E+03 -0.71108514405E+03  0.22861422959E+04  0.24540148677E+04  0.50400001928E-02 0. -1.
</event>
<event>
 5   0  0.3764056E-07  0.3199265E+04  0.7818609E-02  0.8189011E-01
       -2   -1    0    0    0  501  0.00000000000E+00  0.00000000000E+00  0.15340309783E+04  0.15340309783E+04  0.25500000920E-02 0. -1.
        2   -1    0    0  501    0  0.00000000000E+00  0.00000000000E+00 -0.16680390279E+04  0.16680390279E+04  0.25500000920E-02 0.  1.
    10030    2    1    2    0    0  0.00000000000E+00  0.00000000000E+00 -0.13400804962E+03  0.32020700061E+04  0.31992646291E+04 0.  0.
        5    1    3    3  502    0 -0.79517832141E+03 -0.13879813608E+04 -0.66208916910E+02  0.16010017275E+04  0.46999998093E+01 0.  1.
       -5    1    3    3    0  502  0.79517832141E+03  0.13879813608E+04 -0.67799132713E+02  0.16010682787E+04  0.46999998093E+01 0. -1.
</event>
<event>
 5   0  0.1277374E-07  0.3202042E+04  0.7818609E-02  0.8188278E-01
        1   -1    0    0  501    0  0.00000000000E+00  0.00000000000E+00  0.17506310331E+04  0.17506310331E+04  0.50400001928E-02 0. -1.
       -1   -1    0    0    0  501  0.00000000000E+00  0.00000000000E+00 -0.14641966487E+04  0.14641966487E+04  0.50400001928E-02 0.  1.
    10030    2    1    2    0    0  0.00000000000E+00  0.00000000000E+00  0.28643438439E+03  0.32148276818E+04  0.32020419059E+04 0.  0.
        5    1    3    3  502    0 -0.15351853124E+04  0.28820580462E+03  0.49588818631E+03  0.16388360847E+04  0.46999998093E+01 0. -1.
       -5    1    3    3    0  502  0.15351853124E+04 -0.28820580462E+03 -0.20945380192E+03  0.15759915971E+04  0.46999998093E+01 0.  1.
</event>
<event>
 5   0  0.3942564E-07  0.3197580E+04  0.7818609E-02  0.8189457E-01
        2   -1    0    0  501    0  0.00000000000E+00  0.00000000000E+00  0.13903419691E+04  0.13903419691E+04  0.25500000920E-02 0. -1.
       -2   -1    0    0    0  501  0.00000000000E+00  0.00000000000E+00 -0.18384895112E+04  0.18384895112E+04  0.25500000920E-02 0.  1.
    10030    2    1    2    0    0  0.00000000000E+00  0.00000000000E+00 -0.44814754208E+03  0.32288314803E+04  0.31975797893E+04 0.  0.
        3    1    3    3  502    0  0.75718897666E+02  0.15969577335E+04 -0.21293129068E+03  0.16128692131E+04  0.10100000352E+00 0. -1.
       -3    1    3    3    0  502 -0.75718897666E+02 -0.15969577335E+04 -0.23521625139E+03  0.16159622672E+04  0.10100000352E+00 0.  1.
</event>
<event>
 5   0  0.3764056E-07  0.3194561E+04  0.7818609E-02  0.8190255E-01
        2   -1    0    0  501    0  0.00000000000E+00  0.00000000000E+00  0.23466385087E+04  0.23466385087E+04  0.25500000920E-02 0.  1.
       -2   -1    0    0    0  501  0.00000000000E+00  0.00000000000E+00 -0.10872166789E+04  0.10872166789E+04  0.25500000920E-02 0. -1.
    10030    2    1    2    0    0  0.00000000000E+00  0.00000000000E+00  0.12594218297E+04  0.34338551876E+04  0.31945607060E+04 0.  0.
        5    1    3    3  502    0  0.67488012442E+03 -0.11356597796E+04  0.15947929821E+04  0.20708870232E+04  0.46999998093E+01 0.  1.
       -5    1    3    3    0  502 -0.67488012442E+03  0.11356597796E+04 -0.33537115234E+03  0.13629681644E+04  0.46999998093E+01 0. -1.
</event>
<event>
 5   0  0.1270948E-07  0.3200586E+04  0.7818609E-02  0.8188662E-01
       -1   -1    0    0    0  501  0.00000000000E+00  0.00000000000E+00  0.27223130477E+04  0.27223130477E+04  0.50400001928E-02 0.  1.
        1   -1    0    0  501    0  0.00000000000E+00  0.00000000000E+00 -0.94072118900E+03  0.94072118902E+03  0.50400001928E-02 0. -1.
    10030    2    1    2    0    0  0.00000000000E+00  0.00000000000E+00  0.17815918587E+04  0.36630342367E+04  0.32005859258E+04 0.  0.
        4    1    3    3  502    0  0.11641613252E+04 -0.20122776541E+03 -0.34460083590E+03  0.12306565539E+04  0.12699999809E+01 0. -1.
       -4    1    3    3    0  502 -0.11641613252E+04  0.20122776541E+03  0.21261926946E+04  0.24323776829E+04  0.12699999809E+01 0.  1.
</event>
<event>
 5   0  0.3942564E-07  0.3218323E+04  0.7818609E-02  0.8183995E-01
        2   -1    0    0  501    0  0.00000000000E+00  0.00000000000E+00  0.21820394628E+04  0.21820394628E+04  0.25500000920E-02 0. -1.
       -2   -1    0    0    0  501  0.00000000000E+00  0.00000000000E+00 -0.11866885407E+04  0.11866885407E+04  0.25500000920E-02 0.  1.
    10030    2    1    2    0    0  0.00000000000E+00  0.00000000000E+00  0.99535092205E+03  0.33687280035E+04  0.32183233063E+04 0.  0.
        3    1    3    3  502    0 -0.49320195777E+03 -0.27448361794E+02 -0.11053658070E+04  0.12107167965E+04  0.10100000352E+00 0.  1.
       -3    1    3    3    0  502  0.49320195777E+03  0.27448361794E+02  0.21007167291E+04  0.21580112071E+04  0.10100000352E+00 0. -1.
</event>
<event>
 5   0  0.3858721E-07  0.3198254E+04  0.7818609E-02  0.8189278E-01
       -2   -1    0    0    0  501  0.00000000000E+00  0.00000000000E+00  0.13867336497E+04  0.13867336497E+04  0.25500000920E-02 0. -1.
        2   -1    0    0  501    0  0.00000000000E+00  0.00000000000E+00 -0.18440505536E+04  0.18440505536E+04  0.25500000920E-02 0.  1.
    10030    2    1    2    0    0  0.00000000000E+00  0.00000000000E+00 -0.45731690393E+03  0.32307842033E+04  0.31982538701E+04 0.  0.
        2    1    3    3  502    0  0.99271876863E+03 -0.10137947267E+04 -0.97368059201E+03  0.17208498472E+04  0.25500000920E-02 0.  1.
       -2    1    3    3    0  502 -0.99271876863E+03  0.10137947267E+04  0.51636368808E+03  0.15099343561E+04  0.25500000920E-02 0. -1.
</event>
<event>
 5   0  0.3830207E-07  0.3194403E+04  0.7818609E-02  0.8190297E-01
       -2   -1    0    0    0  501  0.00000000000E+00  0.00000000000E+00  0.13101451137E+04  0.13101451137E+04  0.25500000920E-02 0.  1.
        2   -1    0    0  501    0  0.00000000000E+00  0.00000000000E+00 -0.19471531743E+04  0.19471531743E+04  0.25500000920E-02 0. -1.
    10030    2    1    2    0    0  0.00000000000E+00  0.00000000000E+00 -0.63700806063E+03  0.32572982880E+04  0.31944033664E+04 0.  0.
        4    1    3    3  502    0  0.13475115963E+03  0.29773006236E+03 -0.19126960690E+04  0.19404146285E+04  0.12699999809E+01 0. -1.
       -4    1    3    3    0  502 -0.13475115963E+03 -0.29773006236E+03  0.12756880084E+04  0.13168836595E+04  0.12699999809E+01 0.  1.
</event>
<event>
 5   0  0.3764056E-07  0.3197298E+04  0.7818609E-02  0.8189531E-01
        2   -1    0    0  501    0  0.00000000000E+00  0.00000000000E+00  0.19903231463E+04  0.19903231464E+04  0.25500000920E-02 0.  1.
       -2   -1    0    0    0  501  0.00000000000E+00  0.00000000000E+00 -0.12840518180E+04  0.12840518180E+04  0.25500000920E-02 0. -1.
    10030    2    1    2    0    0  0.00000000000E+00  0.00000000000E+00  0.70627132835E+03  0.32743749644E+04  0.31972976430E+04 0.  0.
        5    1    3    3  502    0  0.24416441026E+03 -0.11694968313E+04 -0.73469396551E+03  0.14025464023E+04  0.46999998093E+01 0. -1.
       -5    1    3    3    0  502 -0.24416441026E+03  0.11694968313E+04  0.14409652939E+04  0.18718285621E+04  0.46999998093E+01 0.  1.
</event>
<event>
 5   0  0.3750285E-07  0.3197000E+04  0.7818609E-02  0.8189610E-01
        2   -1    0    0  501    0  0.00000000000E+00  0.00000000000E+00  0.19430690246E+04  0.19430690246E+04  0.25500000920E-02 0.  1.
       -2   -1    0    0    0  501  0.00000000000E+00  0.00000000000E+00 -0.13150343210E+04  0.13150343210E+04  0.25500000920E-02 0. -1.
    10030    2    1    2    0    0  0.00000000000E+00  0.00000000000E+00  0.62803470358E+03  0.32581033456E+04  0.31970001285E+04 0.  0.
        1    1    3    3  502    0  0.57595541515E+03  0.10637682273E+04  0.13789169374E+04  0.18343226003E+04  0.50400001928E-02 0.  1.
       -1    1    3    3    0  502 -0.57595541515E+03 -0.10637682273E+04 -0.75088223379E+03  0.14237807453E+04  0.50400001928E-02 0. -1.
</event>
<event>
 5   0  0.3750285E-07  0.3165892E+04  0.7818609E-02  0.8197883E-01
       -2   -1    0    0    0  501  0.00000000000E+00  0.00000000000E+00  0.26763956089E+04  0.26763956089E+04  0.25500000920E-02 0.  1.
        2   -1    0    0  501    0  0.00000000000E+00  0.00000000000E+00 -0.93622884579E+03  0.93622884580E+03  0.25500000920E-02 0. -1.
    10030    2    1    2    0    0  0.00000000000E+00  0.00000000000E+00  0.17401667631E+04  0.36126244547E+04  0.31658924630E+04 0.  0.
        1    1    3    3  502    0  0.50872078300E+03  0.65255122443E+03 -0.66981980232E+03  0.10645555425E+04  0.50400001928E-02 0. -1.
       -1    1    3    3    0  502 -0.50872078300E+03 -0.65255122443E+03  0.24099865654E+04  0.25480689122E+04  0.50400001928E-02 0.  1.
</event>
<event>
 5   0  0.1317293E-07  0.3197642E+04  0.7818609E-02  0.8189440E-01
        1   -1    0    0  501    0  0.00000000000E+00  0.00000000000E+00  0.10630799625E+04  0.10630799625E+04  0.50400001928E-02 0. -1.
       -1   -1    0    0    0  501  0.00000000000E+00  0.00000000000E+00 -0.24045501215E+04  0.24045501215E+04  0.50400001928E-02 0.  1.
    10030    2    1    2    0    0  0.00000000000E+00  0.00000000000E+00 -0.13414701590E+04  0.34676300840E+04  0.31976422895E+04 0.  0.
        1    1    3    3  502    0 -0.59456794312E+03 -0.49988383780E+03 -0.21861639793E+04  0.23200663427E+04  0.50400001928E-02 0.  1.
       -1    1    3    3    0  502  0.59456794312E+03  0.49988383780E+03  0.84469382023E+03  0.11475637413E+04  0.50400001928E-02 0. -1.
</event>
<event>
 5   0  0.1288096E-07  0.3232895E+04  0.7818609E-02  0.8180183E-01
       -1   -1    0    0    0  501  0.00000000000E+00  0.00000000000E+00  0.17102570234E+04  0.17102570234E+04  0.50400001928E-02 0. -1.
        1   -1    0    0  501    0  0.00000000000E+00  0.00000000000E+00 -0.15277837678E+04  0.15277837678E+04  0.50400001928E-02 0.  1.
    10030    2    1    2    0    0  0.00000000000E+00  0.00000000000E+00  0.18247325564E+03  0.32380407912E+04  0.32328952467E+04 0.  0.
        2    1    3    3  502    0 -0.74497323663E+03 -0.11569425407E+04 -0.75828889020E+03  0.15711470990E+04  0.25500000920E-02 0.  1.
       -2    1    3    3    0  502  0.74497323663E+03  0.11569425407E+04  0.94076214584E+03  0.16668936921E+04  0.25500000920E-02 0. -1.
</event>
<event>
 5   0  0.3750285E-07  0.3204187E+04  0.7818609E-02  0.8187712E-01
       -2   -1    0    0    0  501  0.00000000000E+00  0.00000000000E+00  0.12794490724E+04  0.12794490724E+04  0.25500000920E-02 0.  1.
        2   -1    0    0  501    0  0.00000000000E+00  0.00000000000E+00 -0.20061007353E+04  0.20061007353E+04  0.25500000920E-02 0. -1.
    10030    2    1    2    0    0  0.00000000000E+00  0.00000000000E+00 -0.72665166290E+03  0.32855498077E+04  0.32041870887E+04 0.  0.
        1    1    3    3  502    0  0.98011198149E+03 -0.11332018011E+04  0.21847755800E+03  0.15140998189E+04  0.50400001928E-02 0.  1.
       -1    1    3    3    0  502 -0.98011198149E+03  0.11332018011E+04 -0.94512922090E+03  0.17714499887E+04  0.50400001928E-02 0. -1.
</event>
<event>
 5   0  0.1277374E-07  0.3198382E+04  0.7818609E-02  0.8189245E-01
       -1   -1    0    0    0  501  0.00000000000E+00  0.00000000000E+00  0.13007859630E+04  0.13007859630E+04  0.50400001928E-02 0. -1.
        1   -1    0    0  501    0  0.00000000000E+00  0.00000000000E+00 -0.19660516171E+04  0.19660516172E+04  0.50400001928E-02 0.  1.
    10030    2    1    2    0    0  0.00000000000E+00  0.00000000000E+00 -0.66526565417E+03  0.32668375801E+04  0.31983823074E+04 0.  0.
        5    1    3    3  502    0 -0.14171696422E+04  0.15670353372E+03  0.40706646308E+03  0.14827848757E+04  0.46999998093E+01 0. -1.
       -5    1    3    3    0  502  0.14171696422E+04 -0.15670353372E+03 -0.10723321173E+04  0.17840527044E+04  0.46999998093E+01 0.  1.
</event>
<event>
 5   0  0.3764056E-07  0.3198399E+04  0.7818609E-02  0.8189240E-01
       -2   -1    0    0    0  501  0.00000000000E+00  0.00000000000E+00  0.16654948470E+04  0.16654948470E+04  0.25500000920E-02 0.  1.
        2   -1    0    0  501    0  0.00000000000E+00  0.00000000000E+00 -0.15355427696E+04  0.15355427696E+04  0.25500000920E-02 0. -1.
    10030    2    1    2    0    0  0.00000000000E+00  0.00000000000E+00  0.12995207735E+03  0.32010376166E+04  0.31983987056E+04 0.  0.
        5    1    3    3  502    0 -0.21606846069E+03  0.76621391495E+03 -0.13231243695E+04  0.15441662897E+04  0.46999998093E+01 0. -1.
       -5    1    3    3    0  502  0.21606846069E+03 -0.76621391495E+03  0.14530764469E+04  0.16568713268E+04  0.46999998093E+01 0.  1.
</event>
<event>
 5   0  0.1365455E-07  0.3142458E+04  0.7818609E-02  0.8204181E-01
        1   -1    0    0  501    0  0.00000000000E+00  0.00000000000E+00  0.21447462864E+04  0.21447462864E+04  0.50400001928E-02 0.  1.
       -1   -1    0    0    0  501  0.00000000000E+00  0.00000000000E+00 -0.11510732979E+04  0.11510732979E+04  0.50400001928E-02 0. -1.
    10030    2    1    2    0    0  0.00000000000E+00  0.00000000000E+00  0.99367298851E+03  0.32958195843E+04  0.31424577521E+04 0.  0.
        3    1    3    3  502    0 -0.45191643283E+03  0.22078382501E+03  0.20580342206E+04  0.21186030357E+04  0.10100000352E+00 0.  1.
       -3    1    3    3    0  502  0.45191643283E+03 -0.22078382501E+03 -0.10643612321E+04  0.11772165486E+04  0.10100000352E+00 0. -1.
</event>
<event>
 5   0  0.3858721E-07  0.3208191E+04  0.7818609E-02  0.8186657E-01
        2   -1    0    0  501    0  0.00000000000E+00  0.00000000000E+00  0.17362951467E+04  0.17362951467E+04  0.25500000920E-02 0.  1.
       -2   -1    0    0    0  501  0.00000000000E+00  0.00000000000E+00 -0.14819616681E+04  0.14819616681E+04  0.25500000920E-02 0. -1.
    10030    2    1    2    0    0  0.00000000000E+00  0.00000000000E+00  0.25433347866E+03  0.32182568148E+04  0.32081912985E+04 0.  0.
        2    1    3    3  502    0 -0.12266664303E+03  0.86678781366E+03  0.14755396832E+04  0.17156880765E+04  0.25500000920E-02 0.  1.
       -2    1    3    3    0  502  0.12266664303E+03 -0.86678781366E+03 -0.12212062045E+04  0.15025687383E+04  0.25500000920E-02 0. -1.
</event>
<event>
 5   0  0.1270948E-07  0.3184353E+04  0.7818609E-02  0.8192962E-01
        1   -1    0    0  501    0  0.00000000000E+00  0.00000000000E+00  0.17965496069E+04  0.17965496069E+04  0.50400001928E-02 0. -1.
       -1   -1    0    0    0  501  0.00000000000E+00  0.00000000000E+00 -0.14110525894E+04  0.14110525894E+04  0.50400001928E-02 0.  1.
    10030    2    1    2    0    0  0.00000000000E+00  0.00000000000E+00  0.38549701744E+03  0.32076021963E+04  0.31843529797E+04 0.  0.
        4    1    3    3  502    0  0.10595846368E+04 -0.10337855675E+04 -0.39769849411E+03  0.15328398178E+04  0.12699999809E+01 0. -1.
       -4    1    3    3    0  502 -0.10595846368E+04  0.10337855675E+04  0.78319551155E+03  0.16747623784E+04  0.12699999809E+01 0.  1.
</event>
<event>
 5   0  0.1277374E-07  0.3231048E+04  0.7818609E-02  0.8180665E-01
       -1   -1    0    0    0  501  0.00000000000E+00  0.00000000000E+00  0.13552105206E+04  0.13552105206E+04  0.50400001928E-02 0. -1.
        1   -1    0    0  501    0  0.00000000000E+00  0.00000000000E+00 -0.19258390424E+04  0.19258390424E+04  0.50400001928E-02 0.  1.
    10030    2    1    2    0    0  0.00000000000E+00  0.00000000000E+00 -0.57062852183E+03  0.32810495631E+04  0.32310477133E+04 0.  0.
        5    1    3    3  502    0  0.13780923140E+04 -0.13294422898E+03  0.56008513336E+03  0.14934959124E+04  0.46999998093E+01 0. -1.
       -5    1    3    3    0  502 -0.13780923140E+04  0.13294422898E+03 -0.11307136552E+04  0.17875536506E+04  0.46999998093E+01 0.  1.
</event>
<event>
 5   0  0.1317293E-07  0.3200745E+04  0.7818609E-02  0.8188621E-01
        1   -1    0    0  501    0  0.00000000000E+00  0.00000000000E+00  0.18174088460E+04  0.18174088460E+04  0.50400001928E-02 0. -1.
       -1   -1    0    0    0  501  0.00000000000E+00  0.00000000000E+00 -0.14092546310E+04  0.14092546310E+04  0.50400001928E-02 0.  1.
    10030    2    1    2    0    0  0.00000000000E+00  0.00000000000E+00  0.40815421503E+03  0.32266634770E+04  0.32007448087E+04 0.  0.
        1    1    3    3  502    0 -0.10876956945E+04  0.46290114070E+03  0.12916236528E+04  0.17509000687E+04  0.50400001928E-02 0. -1.
       -1    1    3    3    0  502  0.10876956945E+04 -0.46290114070E+03 -0.88346943774E+03  0.14757634084E+04  0.50400001928E-02 0.  1.
</event>
<event>
 5   0  0.1288096E-07  0.3196156E+04  0.7818609E-02  0.8189833E-01
       -1   -1    0    0    0  501  0.00000000000E+00  0.00000000000E+00  0.19534740398E+04  0.19534740398E+04  0.50400001928E-02 0. -1.
        1   -1    0    0  501    0  0.00000000000E+00  0.00000000000E+00 -0.13073388794E+04  0.13073388794E+04  0.50400001928E-02 0.  1.
    10030    2    1    2    0    0  0.00000000000E+00  0.00000000000E+00  0.64613516045E+03  0.32608129192E+04  0.31961555420E+04 0.  0.
        2    1    3    3  502    0 -0.15355777192E+04 -0.27716894926E+03  0.67505571591E+03  0.17001534571E+04  0.25500000920E-02 0. -1.
       -2    1    3    3    0  502  0.15355777192E+04  0.27716894926E+03 -0.28920555465E+02  0.15606594621E+04  0.25500000920E-02 0.  1.
</event>
<event>
 5   0  0.3942564E-07  0.3192540E+04  0.7818609E-02  0.8190790E-01
        2   -1    0    0  501    0  0.00000000000E+00  0.00000000000E+00  0.86376003502E+03  0.86376003502E+03  0.25500000920E-02 0. -1.
       -2   -1    0    0    0  501  0.00000000000E+00  0.00000000000E+00 -0.29499830353E+04  0.29499830353E+04  0.25500000920E-02 0.  1.
    10030    2    1    2    0    0  0.00000000000E+00  0.00000000000E+00 -0.20862230002E+04  0.38137430703E+04  0.31925397099E+04 0.  0.
        3    1    3    3  502    0  0.88581159094E+03  0.71233709252E+03 -0.23818890164E+04  0.26392198856E+04  0.10100000352E+00 0.  1.
       -3    1    3    3    0  502 -0.88581159094E+03 -0.71233709252E+03  0.29566601615E+03  0.11745231847E+04  0.10100000352E+00 0. -1.
</event>
<event>
 5   0  0.3750285E-07  0.3201141E+04  0.7818609E-02  0.8188516E-01
        2   -1    0    0  501    0  0.00000000000E+00  0.00000000000E+00  0.20768716409E+04  0.20768716409E+04  0.25500000920E-02 0. -1.
       -2   -1    0    0    0  501  0.00000000000E+00  0.00000000000E+00 -0.12335024710E+04  0.12335024710E+04  0.25500000920E-02 0.  1.
    10030    2    1    2    0    0  0.00000000000E+00  0.00000000000E+00  0.84336916993E+03  0.33103741119E+04  0.32011412346E+04 0.  0.
        1    1    3    3  502    0  0.69182862256E+03 -0.99571242704E+03  0.15022102302E+04  0.19304677299E+04  0.50400001928E-02 0. -1.
       -1    1    3    3    0  502 -0.69182862256E+03  0.99571242704E+03 -0.65884106031E+03  0.13799063820E+04  0.50400001928E-02 0.  1.
</event>
<event>
 5   0  0.1288096E-07  0.3197162E+04  0.7818609E-02  0.8189567E-01
        1   -1    0    0  501    0  0.00000000000E+00  0.00000000000E+00  0.18039940280E+04  0.18039940280E+04  0.50400001928E-02 0. -1.
       -1   -1    0    0    0  501  0.00000000000E+00  0.00000000000E+00 -0.14165573050E+04  0.14165573051E+04  0.50400001928E-02 0.  1.
    10030    2    1    2    0    0  0.00000000000E+00  0.00000000000E+00  0.38743672294E+03  0.32205513330E+04  0.31971618155E+04 0.  0.
        2    1    3    3  502    0 -0.13245106966E+03 -0.45997362720E+03 -0.13426748494E+04  0.14254454654E+04  0.25500000920E-02 0.  1.
       -2    1    3    3    0  502  0.13245106966E+03  0.45997362720E+03  0.17301115723E+04  0.17951058677E+04  0.25500000920E-02 0. -1.
</event>
<event>
 5   0  0.1270948E-07  0.3194716E+04  0.7818609E-02  0.8190214E-01
        1   -1    0    0  501    0  0.00000000000E+00  0.00000000000E+00  0.17002063825E+04  0.17002063825E+04  0.50400001928E-02 0. -1.
       -1   -1    0    0    0  501  0.00000000000E+00  0.00000000000E+00 -0.15007311202E+04  0.15007311202E+04  0.50400001928E-02 0.  1.
    10030    2    1    2    0    0  0.00000000000E+00  0.00000000000E+00  0.19947526228E+03  0.32009375026E+04  0.31947160305E+04 0.  0.
        4    1    3    3  502    0 -0.80837898189E+02 -0.14768781217E+04  0.70410984663E+03  0.16381318754E+04  0.12699999809E+01 0. -1.
       -4    1    3    3    0  502  0.80837898189E+02  0.14768781217E+04 -0.50463458434E+03  0.15628056273E+04  0.12699999809E+01 0.  1.
</event>
<event>
 5   0  0.1365455E-07  0.3221513E+04  0.7818609E-02  0.8183159E-01
       -1   -1    0    0    0  501  0.00000000000E+00  0.00000000000E+00  0.17144370461E+04  0.17144370461E+04  0.50400001928E-02 0.  1.
        1   -1    0    0  501    0  0.00000000000E+00  0.00000000000E+00 -0.15133456854E+04  0.15133456854E+04  0.50400001928E-02 0. -1.
    10030    2    1    2    0    0  0.00000000000E+00  0.00000000000E+00  0.20109136068E+03  0.32277827315E+04  0.32215126302E+04 0.  0.
        3    1    3    3  502    0 -0.81990325367E+03 -0.53795013600E+03  0.13808841915E+04  0.16936566520E+04  0.10100000352E+00 0.  1.
       -3    1    3    3    0  502  0.81990325367E+03  0.53795013600E+03 -0.11797928308E+04  0.15341260796E+04  0.10100000352E+00 0. -1.
</event>
<event>
 5   0  0.1270948E-07  0.3199017E+04  0.7818609E-02  0.8189077E-01
       -1   -1    0    0    0  501  0.00000000000E+00  0.00000000000E+00  0.16012662586E+04  0.16012662586E+04  0.50400001928E-02 0.  1.
        1   -1    0    0  501    0  0.00000000000E+00  0.00000000000E+00 -0.15977531580E+04  0.15977531580E+04  0.50400001928E-02 0. -1.
    10030    2    1    2    0    0  0.00000000000E+00  0.00000000000E+00  0.35131005400E+01  0.31990194166E+04  0.31990174876E+04 0.  0.
        4    1    3    3  502    0  0.28708719239E+02  0.67918007666E+03  0.14496237298E+04  0.16010997277E+04  0.12699999809E+01 0.  1.
       -4    1    3    3    0  502 -0.28708719239E+02 -0.67918007666E+03 -0.14461106293E+04  0.15979196889E+04  0.12699999809E+01 0. -1.
</event>
<event>
 5   0  0.3858721E-07  0.3221185E+04  0.7818609E-02  0.8183245E-01
        2   -1    0    0  501    0  0.00000000000E+00  0.00000000000E+00  0.29101956105E+04  0.29101956105E+04  0.25500000920E-02 0.  1.
       -2   -1    0    0    0  501  0.00000000000E+00  0.00000000000E+00 -0.89135177679E+03  0.89135177680E+03  0.25500000920E-02 0. -1.
    10030    2    1    2    0    0  0.00000000000E+00  0.00000000000E+00  0.20188438337E+04  0.38015473873E+04  0.32211848927E+04 0.  0.
        2    1    3    3  502    0  0.54825312224E+03  0.28993704603E+03 -0.74477481776E+03  0.96919270833E+03  0.25500000920E-02 0. -1.
       -2    1    3    3    0  502 -0.54825312224E+03 -0.28993704603E+03  0.27636186515E+04  0.28323546790E+04  0.25500000920E-02 0.  1.
</event>
<event>
 5   0  0.3750285E-07  0.3205040E+04  0.7818609E-02  0.8187488E-01
        2   -1    0    0  501    0  0.00000000000E+00  0.00000000000E+00  0.19218876455E+04  0.19218876455E+04  0.25500000920E-02 0.  1.
       -2   -1    0    0    0  501  0.00000000000E+00  0.00000000000E+00 -0.13362225333E+04  0.13362225333E+04  0.25500000920E-02 0. -1.
    10030    2    1    2    0    0  0.00000000000E+00  0.00000000000E+00  0.58566511212E+03  0.32581101788E+04  0.32050395183E+04 0.  0.
        1    1    3    3  502    0 -0.46816770156E+03  0.15245065606E+04  0.45281809383E+03  0.16578134624E+04  0.50400001928E-02 0.  1.
       -1    1    3    3    0  502  0.46816770156E+03 -0.15245065606E+04  0.13284701829E+03  0.16002967164E+04  0.50400001928E-02 0. -1.
</event>
<event>
 5   0  0.1317293E-07  0.3200654E+04  0.7818609E-02  0.8188645E-01
        1   -1    0    0  501    0  0.00000000000E+00  0.00000000000E+00  0.14277632323E+04  0.14277632323E+04  0.50400001928E-02 0.  1.
       -1   -1    0    0    0  501  0.00000000000E+00  0.00000000000E+00 -0.17937469889E+04  0.17937469889E+04  0.50400001928E-02 0. -1.
    10030    2    1    2    0    0  0.00000000000E+00  0.00000000000E+00 -0.36598375663E+03  0.32215102212E+04  0.32006536825E+04 0.  0.
        1    1    3    3  502    0 -0.98864934974E+03  0.45096550263E+03 -0.13654873400E+04  0.17450940081E+04  0.50400001928E-02 0. -1.
       -1    1    3    3    0  502  0.98864934974E+03 -0.45096550263E+03  0.99950358337E+03  0.14764162132E+04  0.50400001928E-02 0.  1.
</event>
<event>
 5   0  0.3858721E-07  0.3199231E+04  0.7818609E-02  0.8189020E-01
       -2   -1    0    0    0  501  0.00000000000E+00  0.00000000000E+00  0.16661855753E+04  0.16661855753E+04  0.25500000920E-02 0. -1.
        2   -1    0    0  501    0  0.00000000000E+00  0.00000000000E+00 -0.15357050411E+04  0.15357050411E+04  0.25500000920E-02 0.  1.
    10030    2    1    2    0    0  0.00000000000E+00  0.00000000000E+00  0.13048053422E+03  0.32018906164E+04  0.31992308997E+04 0.  0.
        2    1    3    3  502    0 -0.60047829748E+03 -0.32095920816E+03  0.15139175053E+04  0.16599804854E+04  0.25500000920E-02 0. -1.
       -2    1    3    3    0  502  0.60047829748E+03  0.32095920816E+03 -0.13834369711E+04  0.15419101310E+04  0.25500000920E-02 0.  1.
</event>
<event>
 5   0  0.1365455E-07  0.3196887E+04  0.7818609E-02  0.8189640E-01
       -1   -1    0    0    0  501  0.00000000000E+00  0.00000000000E+00  0.13536948050E+04  0.13536948051E+04  0.50400001928E-02 0.  1.
        1   -1    0    0  501    0  0.00000000000E+00  0.00000000000E+00 -0.18874433085E+04  0.18874433085E+04  0.50400001928E-02 0. -1.
    10030    2    1    2    0    0  0.00000000000E+00  0.00000000000E+00 -0.53374850343E+03  0.32411381135E+04  0.31968873621E+04 0.  0.
        3    1    3    3  502    0 -0.98470759400E+03  0.25046878046E+03  0.98415830410E+03  0.14145498342E+04  0.10100000352E+00 0.  1.
       -3    1    3    3    0  502  0.98470759400E+03 -0.25046878046E+03 -0.15179068075E+04  0.18265882793E+04  0.10100000352E+00 0. -1.
</event>
<event>
 5   0  0.3750285E-07  0.3198112E+04  0.7818609E-02  0.8189316E-01
       -2   -1    0    0    0  501  0.00000000000E+00  0.00000000000E+00  0.17036670526E+04  0.17036670526E+04  0.25500000920E-02 0. -1.
        2   -1    0    0  501    0  0.00000000000E+00  0.00000000000E+00 -0.15008679984E+04  0.15008679984E+04  0.25500000920E-02 0.  1.
    10030    2    1    2    0    0  0.00000000000E+00  0.00000000000E+00  0.20279905417E+03  0.32045350510E+04  0.31981115422E+04 0.  0.
        1    1    3    3  502    0 -0.14024248791E+04 -0.59950959421E+03  0.58275181100E+03  0.16327299128E+04  0.50400001928E-02 0.  1.
       -1    1    3    3    0  502  0.14024248791E+04  0.59950959421E+03 -0.37995275683E+03  0.15718051382E+04  0.50400001928E-02 0. -1.
</event>
<event>
 5   0  0.1365455E-07  0.3207542E+04  0.7818609E-02  0.8186828E-01
        1   -1    0    0  501    0  0.00000000000E+00  0.00000000000E+00  0.25665105646E+04  0.25665105646E+04  0.50400001928E-02 0. -1.
       -1   -1    0    0    0  501  0.00000000000E+00  0.00000000000E+00 -0.10021706434E+04  0.10021706435E+04  0.50400001928E-02 0.  1.
    10030    2    1    2    0    0  0.00000000000E+00  0.00000000000E+00  0.15643399211E+04  0.35686812080E+04  0.32075420770E+04 0.  0.
        3    1    3    3  502    0 -0.82370242173E+03 -0.12703964969E+04  0.13705701043E+04  0.20422672107E+04  0.10100000352E+00 0. -1.
       -3    1    3    3    0  502  0.82370242173E+03  0.12703964969E+04  0.19376981680E+03  0.15264139973E+04  0.10100000352E+00 0.  1.
</event>
<event>
 5   0  0.3764056E-07  0.3199089E+04  0.7818609E-02  0.8189058E-01
        2   -1    0    0  501    0  0.00000000000E+00  0.00000000000E+00  0.15954730984E+04  0.15954730984E+04  0.25500000920E-02 0.  1.
       -2   -1    0    0    0  501  0.00000000000E+00  0.00000000000E+00 -0.16036261204E+04  0.16036261204E+04  0.25500000920E-02 0. -1.
    10030    2    1    2    0    0  0.00000000000E+00  0.00000000000E+00 -0.81530220359E+01  0.31990992188E+04  0.31990888296E+04 0.  0.
        5    1    3    3  502    0 -0.75790917448E+02 -0.38006935715E+03  0.15478058646E+04  0.15955945801E+04  0.46999998093E+01 0.  1.
       -5    1    3    3    0  502  0.75790917448E+02  0.38006935715E+03 -0.15559588866E+04  0.16035046387E+04  0.46999998093E+01 0. -1.
</event>
<event>
 5   0  0.3750285E-07  0.3186749E+04  0.7818609E-02  0.8192326E-01
        2   -1    0    0  501    0  0.00000000000E+00  0.00000000000E+00  0.16360768922E+04  0.16360768922E+04  0.25500000920E-02 0.  1.
       -2   -1    0    0    0  501  0.00000000000E+00  0.00000000000E+00 -0.15517864910E+04  0.15517864910E+04  0.25500000920E-02 0. -1.
    10030    2    1    2    0    0  0.00000000000E+00  0.00000000000E+00  0.84290401186E+02  0.31878633832E+04  0.31867488257E+04 0.  0.
        1    1    3    3  502    0 -0.84689008087E+03 -0.24325061062E+03 -0.12858914670E+04  0.15588170301E+04  0.50400001928E-02 0. -1.
       -1    1    3    3    0  502  0.84689008087E+03  0.24325061062E+03  0.13701818681E+04  0.16290463531E+04  0.50400001928E-02 0.  1.
</event>
<event>
 5   0  0.1288096E-07  0.3199406E+04  0.7818609E-02  0.8188974E-01
        1   -1    0    0  501    0  0.00000000000E+00  0.00000000000E+00  0.25670419267E+04  0.25670419267E+04  0.50400001928E-02 0.  1.
       -1   -1    0    0    0  501  0.00000000000E+00  0.00000000000E+00 -0.99688639224E+03  0.99688639225E+03  0.50400001928E-02 0. -1.
    10030    2    1    2    0    0  0.00000000000E+00  0.00000000000E+00  0.15701555345E+04  0.35639283190E+04  0.31994056730E+04 0.  0.
        2    1    3    3  502    0 -0.12398594697E+03 -0.36464338101E+03 -0.94446896755E+03  0.10199798729E+04  0.25500000920E-02 0. -1.
       -2    1    3    3    0  502  0.12398594697E+03  0.36464338101E+03  0.25146245020E+04  0.25439484461E+04  0.25500000920E-02 0.  1.
</event>
<event>
 5   0  0.3858721E-07  0.3187813E+04  0.7818609E-02  0.8192043E-01
        2   -1    0    0  501    0  0.00000000000E+00  0.00000000000E+00  0.23493992251E+04  0.23493992251E+04  0.25500000920E-02 0.  1.
       -2   -1    0    0    0  501  0.00000000000E+00  0.00000000000E+00 -0.10813561833E+04  0.10813561833E+04  0.25500000920E-02 0. -1.
    10030    2    1    2    0    0  0.00000000000E+00  0.00000000000E+00  0.12680430417E+04  0.34307554084E+04  0.31878126539E+04 0.  0.
        2    1    3    3  502    0 -0.15424087062E+04  0.39926726293E+03  0.68332103596E+03  0.17335993200E+04  0.25500000920E-02 0.  1.
       -2    1    3    3    0  502  0.15424087062E+04 -0.39926726293E+03  0.58472200577E+03  0.16971560884E+04  0.25500000920E-02 0. -1.
</event>
<event>
 5   0  0.3750285E-07  0.3204002E+04  0.7818609E-02  0.8187761E-01
        2   -1    0    0  501    0  0.00000000000E+00  0.00000000000E+00  0.79853169214E+03  0.79853169215E+03  0.25500000920E-02 0.  1.
       -2   -1    0    0    0  501  0.00000000000E+00  0.00000000000E+00 -0.32139080210E+04  0.32139080210E+04  0.25500000920E-02 0. -1.
    10030    2    1    2    0    0  0.00000000000E+00  0.00000000000E+00 -0.24153763288E+04  0.40124397131E+04  0.32040021288E+04 0.  0.
        1    1    3    3  502    0 -0.13933870419E+04  0.26722989342E+03 -0.27601831830E+03  0.14453807030E+04  0.50400001928E-02 0.  1.
       -1    1    3    3    0  502  0.13933870419E+04 -0.26722989342E+03 -0.21393580105E+04  0.25670590101E+04  0.50400001928E-02 0. -1.
</event>
<event>
 5   0  0.1288096E-07  0.3195681E+04  0.7818609E-02  0.8189959E-01
        1   -1    0    0  501    0  0.00000000000E+00  0.00000000000E+00  0.16127570406E+04  0.16127570406E+04  0.50400001928E-02 0.  1.
       -1   -1    0    0    0  501  0.00000000000E+00  0.00000000000E+00 -0.15830615021E+04  0.15830615021E+04  0.50400001928E-02 0. -1.
    10030    2    1    2    0    0  0.00000000000E+00  0.00000000000E+00  0.29695538501E+02  0.31958185428E+04  0.31956805744E+04 0.  0.
        2    1    3    3  502    0 -0.11976260832E+04 -0.10180062767E+04  0.30199875397E+03  0.16005774777E+04  0.25500000920E-02 0.  1.
       -2    1    3    3    0  502  0.11976260832E+04  0.10180062767E+04 -0.27230321547E+03  0.15952410651E+04  0.25500000920E-02 0. -1.
</event>
<event>
 5   0  0.1270948E-07  0.3201940E+04  0.7818609E-02  0.8188305E-01
        1   -1    0    0  501    0  0.00000000000E+00  0.00000000000E+00  0.13922540096E+04  0.13922540097E+04  0.50400001928E-02 0.  1.
       -1   -1    0    0    0  501  0.00000000000E+00  0.00000000000E+00 -0.18409745889E+04  0.18409745889E+04  0.50400001928E-02 0. -1.
    10030    2    1    2    0    0  0.00000000000E+00  0.00000000000E+00 -0.44872057924E+03  0.32332285985E+04  0.32019395704E+04 0.  0.
        4    1    3    3  502    0 -0.15413320782E+04  0.25864755432E+03  0.12616222321E+03  0.15679673632E+04  0.12699999809E+01 0.  1.
       -4    1    3    3    0  502  0.15413320782E+04 -0.25864755432E+03 -0.57488280245E+03  0.16652612354E+04  0.12699999809E+01 0. -1.
</event>
<event>
 5   0  0.3764056E-07  0.3199310E+04  0.7818609E-02  0.8188999E-01
        2   -1    0    0  501    0  0.00000000000E+00  0.00000000000E+00  0.15291785044E+04  0.15291785044E+04  0.25500000920E-02 0.  1.
       -2   -1    0    0    0  501  0.00000000000E+00  0.00000000000E+00 -0.16733795121E+04  0.16733795121E+04  0.25500000920E-02 0. -1.
    10030    2    1    2    0    0  0.00000000000E+00  0.00000000000E+00 -0.14420100774E+03  0.32025580164E+04  0.31993099128E+04 0.  0.
        5    1    3    3  502    0  0.31174792377E+03 -0.79339170288E+03 -0.14270687459E+04  0.16622889212E+04  0.46999998093E+01 0. -1.
       -5    1    3    3    0  502 -0.31174792377E+03  0.79339170288E+03  0.12828677381E+04  0.15402690952E+04  0.46999998093E+01 0.  1.
</event>
<event>
 5   0  0.1277374E-07  0.3207087E+04  0.7818609E-02  0.8186948E-01
       -1   -1    0    0    0  501  0.00000000000E+00  0.00000000000E+00  0.16820230103E+04  0.16820230103E+04  0.50400001928E-02 0.  1.
        1   -1    0    0  501    0  0.00000000000E+00  0.00000000000E+00 -0.15287257871E+04  0.15287257871E+04  0.50400001928E-02 0. -1.
    10030    2    1    2    0    0  0.00000000000E+00  0.00000000000E+00  0.15329722323E+03  0.32107487973E+04  0.32070871209E+04 0.  0.
        5    1    3    3  502    0  0.42434641657E+03 -0.31729731274E+03  0.15918436167E+04  0.16777173945E+04  0.46999998093E+01 0.  1.
       -5    1    3    3    0  502 -0.42434641657E+03  0.31729731274E+03 -0.14385463935E+04  0.15330314028E+04  0.46999998093E+01 0. -1.
</event>
<event>
 5   0  0.1365455E-07  0.3201023E+04  0.7818609E-02  0.8188547E-01
       -1   -1    0    0    0  501  0.00000000000E+00  0.00000000000E+00  0.11652210461E+04  0.11652210461E+04  0.50400001928E-02 0.  1.
        1   -1    0    0  501    0  0.00000000000E+00  0.00000000000E+00 -0.21984130871E+04  0.21984130871E+04  0.50400001928E-02 0. -1.
    10030    2    1    2    0    0  0.00000000000E+00  0.00000000000E+00 -0.10331920410E+04  0.33636341332E+04  0.32010230846E+04 0.  0.
        3    1    3    3  502    0 -0.89418536342E+02 -0.11421388293E+04 -0.16910311952E+04  0.20425629228E+04  0.10100000352E+00 0. -1.
       -3    1    3    3    0  502  0.89418536342E+02  0.11421388293E+04  0.65783915416E+03  0.13210712104E+04  0.10100000352E+00 0.  1.
</event>
<event>
 5   0  0.3942564E-07  0.3196242E+04  0.7818609E-02  0.8189810E-01
        2   -1    0    0  501    0  0.00000000000E+00  0.00000000000E+00  0.24846772684E+04  0.24846772684E+04  0.25500000920E-02 0.  1.
       -2   -1    0    0    0  501  0.00000000000E+00  0.00000000000E+00 -0.10278963842E+04  0.10278963842E+04  0.25500000920E-02 0. -1.
    10030    2    1    2    0    0  0.00000000000E+00  0.00000000000E+00  0.14567808842E+04  0.35125736526E+04  0.31962420309E+04 0.  0.
        3    1    3    3  502    0 -0.12082947921E+04 -0.97486930068E+03  0.31187606415E+03  0.15835444887E+04  0.10100000352E+00 0. -1.
       -3    1    3    3    0  502  0.12082947921E+04  0.97486930068E+03  0.11449048200E+04  0.19290291639E+04  0.10100000352E+00 0.  1.
</event>
<event>
 5   0  0.3764056E-07  0.3170870E+04  0.7818609E-02  0.8196553E-01
        2   -1    0    0  501    0  0.00000000000E+00  0.00000000000E+00  0.13799087852E+04  0.13799087852E+04  0.25500000920E-02 0.  1.
       -2   -1    0    0    0  501  0.00000000000E+00  0.00000000000E+00 -0.18215732091E+04  0.18215732091E+04  0.25500000920E-02 0. -1.
    10030    2    1    2    0    0  0.00000000000E+00  0.00000000000E+00 -0.44166442395E+03  0.32014819943E+04  0.31708704636E+04 0.  0.
        5    1    3    3  502    0  0.14731989411E+04  0.15291716655E+03  0.35021080485E+03  0.15219620487E+04  0.46999998093E+01 0. -1.
       -5    1    3    3    0  502 -0.14731989411E+04 -0.15291716655E+03 -0.79187522879E+03  0.16795199456E+04  0.46999998093E+01 0.  1.
</event>
<event>
 5   0  0.1277374E-07  0.3196296E+04  0.7818609E-02  0.8189796E-01
        1   -1    0    0  501    0  0.00000000000E+00  0.00000000000E+00  0.15114786899E+04  0.15114786899E+04  0.50400001928E-02 0.  1.
       -1   -1    0    0    0  501  0.00000000000E+00  0.00000000000E+00 -0.16897873445E+04  0.16897873446E+04  0.50400001928E-02 0. -1.
    10030    2    1    2    0    0  0.00000000000E+00  0.00000000000E+00 -0.17830865464E+03  0.32012660345E+04  0.31962963328E+04 0.  0.
        5    1    3    3  502    0  0.11704873993E+03  0.12919104063E+04  0.84574363080E+03  0.15485597452E+04  0.46999998093E+01 0.  1.
       -5    1    3    3    0  502 -0.11704873993E+03 -0.12919104063E+04 -0.10240522854E+04  0.16527062893E+04  0.46999998093E+01 0. -1.
</event>
<event>
 5   0  0.1288096E-07  0.3201347E+04  0.7818609E-02  0.8188461E-01
       -1   -1    0    0    0  501  0.00000000000E+00  0.00000000000E+00  0.11491396212E+04  0.11491396212E+04  0.50400001928E-02 0. -1.
        1   -1    0    0  501    0  0.00000000000E+00  0.00000000000E+00 -0.22296300121E+04  0.22296300121E+04  0.50400001928E-02 0.  1.
    10030    2    1    2    0    0  0.00000000000E+00  0.00000000000E+00 -0.10804903909E+04  0.33787696333E+04  0.32013473336E+04 0.  0.
        2    1    3    3  502    0 -0.86654621368E+03 -0.13018001323E+04 -0.17989922181E+03  0.15741504550E+04  0.25500000920E-02 0. -1.
       -2    1    3    3    0  502  0.86654621368E+03  0.13018001323E+04 -0.90059116907E+03  0.18046191783E+04  0.25500000920E-02 0.  1.
</event>
<event>
 5   0  0.3830207E-07  0.3200458E+04  0.7818609E-02  0.8188696E-01
        2   -1    0    0  501    0  0.00000000000E+00  0.00000000000E+00  0.20483047675E+04  0.20483047676E+04  0.25500000920E-02 0.  1.
       -2   -1    0    0    0  501  0.00000000000E+00  0.00000000000E+00 -0.12501721134E+04  0.12501721134E+04  0.25500000920E-02 0. -1.
    10030    2    1    2    0    0  0.00000000000E+00  0.00000000000E+00  0.79813265412E+03  0.32984768810E+04  0.32004584048E+04 0.  0.
        4    1    3    3  502    0  0.65100259083E+03  0.86726857602E+03  0.16118700144E+04  0.19427006234E+04  0.12699999809E+01 0.  1.
       -4    1    3    3    0  502 -0.65100259083E+03 -0.86726857602E+03 -0.81373736024E+03  0.13557762576E+04  0.12699999809E+01 0. -1.
</event>
<event>
 5   0  0.3764056E-07  0.3199173E+04  0.7818609E-02  0.8189036E-01
       -2   -1    0    0    0  501  0.00000000000E+00  0.00000000000E+00  0.21754740127E+04  0.21754740127E+04  0.25500000920E-02 0. -1.
        2   -1    0    0  501    0  0.00000000000E+00  0.00000000000E+00 -0.11761469688E+04  0.11761469688E+04  0.25500000920E-02 0.  1.
    10030    2    1    2    0    0  0.00000000000E+00  0.00000000000E+00  0.99932704390E+03  0.33516209814E+04  0.31991731217E+04 0.  0.
        5    1    3    3  502    0  0.44500502794E+03 -0.18397315467E+03  0.20977297387E+04  0.21522936006E+04  0.46999998093E+01 0. -1.
       -5    1    3    3    0  502 -0.44500502794E+03  0.18397315467E+03 -0.10984026948E+04  0.11993273808E+04  0.46999998093E+01 0.  1.
</event>
<event>
 5   0  0.1317293E-07  0.3200993E+04  0.7818609E-02  0.8188555E-01
        1   -1    0    0  501    0  0.00000000000E+00  0.00000000000E+00  0.16235809664E+04  0.16235809664E+04  0.50400001928E-02 0.  1.
       -1   -1    0    0    0  501  0.00000000000E+00  0.00000000000E+00 -0.15777401329E+04  0.15777401329E+04  0.50400001928E-02 0. -1.
    10030    2    1    2    0    0  0.00000000000E+00  0.00000000000E+00  0.45840833474E+02  0.32013210994E+04  0.32009928771E+04 0.  0.
        1    1    3    3  502    0 -0.14328149991E+04 -0.59927632661E+03 -0.36376882838E+03  0.15951234115E+04  0.50400001928E-02 0.  1.
       -1    1    3    3    0  502  0.14328149991E+04  0.59927632661E+03  0.40960966186E+03  0.16061976879E+04  0.50400001928E-02 0. -1.
</event>
<event>
 5   0  0.3858721E-07  0.3205784E+04  0.7818609E-02  0.8187291E-01
        2   -1    0    0  501    0  0.00000000000E+00  0.00000000000E+00  0.19686303420E+04  0.19686303420E+04  0.25500000920E-02 0. -1.
       -2   -1    0    0    0  501  0.00000000000E+00  0.00000000000E+00 -0.13051013913E+04  0.13051013913E+04  0.25500000920E-02 0.  1.
    10030    2    1    2    0    0  0.00000000000E+00  0.00000000000E+00  0.66352895067E+03  0.32737317333E+04  0.32057836473E+04 0.  0.
        2    1    3    3  502    0 -0.55917085998E+03  0.10258035873E+04 -0.78890957052E+03  0.14097245691E+04  0.25500000920E-02 0.  1.
       -2    1    3    3    0  502  0.55917085998E+03 -0.10258035873E+04  0.14524385212E+04  0.18640071642E+04  0.25500000920E-02 0. -1.
</event>
<event>
 5   0  0.1288096E-07  0.3217770E+04  0.7818609E-02  0.8184140E-01
       -1   -1    0    0    0  501  0.00000000000E+00  0.00000000000E+00  0.11553570339E+04  0.11553570339E+04  0.50400001928E-02 0.  1.
        1   -1    0    0  501    0  0.00000000000E+00  0.00000000000E+00 -0.22404429024E+04  0.22404429024E+04  0.50400001928E-02 0. -1.
    10030    2    1    2    0    0  0.00000000000E+00  0.00000000000E+00 -0.10850858685E+04  0.33957999363E+04  0.32177703251E+04 0.  0.
        2    1    3    3  502    0  0.97961775149E+03 -0.69150638618E+03 -0.16745893428E+04  0.20596313962E+04  0.25500000920E-02 0. -1.
       -2    1    3    3    0  502 -0.97961775149E+03  0.69150638618E+03  0.58950347436E+03  0.13361685401E+04  0.25500000920E-02 0.  1.
</event>
<event>
 5   0  0.3750285E-07  0.3202568E+04  0.7818609E-02  0.8188139E-01
       -2   -1    0    0    0  501  0.00000000000E+00  0.00000000000E+00  0.10663966805E+04  0.10663966805E+04  0.25500000920E-02 0.  1.
        2   -1    0    0  501    0  0.00000000000E+00  0.00000000000E+00 -0.24044616661E+04  0.24044616661E+04  0.25500000920E-02 0. -1.
    10030    2    1    2    0    0  0.00000000000E+00  0.00000000000E+00 -0.13380649856E+04  0.34708583466E+04  0.32025676818E+04 0.  0.
        1    1    3    3  502    0  0.21289287611E+03 -0.81043296892E+03 -0.21478911151E+04  0.23055500897E+04  0.50400001928E-02 0. -1.
       -1    1    3    3    0  502 -0.21289287611E+03  0.81043296892E+03  0.80982612944E+03  0.11653082570E+04  0.50400001928E-02 0.  1.
</event>
<event>
 5   0  0.1365455E-07  0.3210765E+04  0.7818609E-02  0.8185980E-01
        1   -1    0    0  501    0  0.00000000000E+00  0.00000000000E+00  0.23825869458E+04  0.23825869458E+04  0.50400001928E-02 0. -1.
       -1   -1    0    0    0  501  0.00000000000E+00  0.00000000000E+00 -0.10817033145E+04  0.10817033145E+04  0.50400001928E-02 0.  1.
    10030    2    1    2    0    0  0.00000000000E+00  0.00000000000E+00  0.13008836313E+04  0.34642902603E+04  0.32107645172E+04 0.  0.
        3    1    3    3  502    0 -0.11180232354E+03  0.15502088284E+04  0.21669806081E+03  0.15692690117E+04  0.10100000352E+00 0.  1.
       -3    1    3    3    0  502  0.11180232354E+03 -0.15502088284E+04  0.10841855705E+04  0.18950212486E+04  0.10100000352E+00 0. -1.
</event>
<event>
 5   0  0.1365455E-07  0.3210010E+04  0.7818609E-02  0.8186179E-01
       -1   -1    0    0    0  501  0.00000000000E+00  0.00000000000E+00  0.25603816676E+04  0.25603816676E+04  0.50400001928E-02 0.  1.
        1   -1    0    0  501    0  0.00000000000E+00  0.00000000000E+00 -0.10061157606E+04  0.10061157606E+04  0.50400001928E-02 0. -1.
    10030    2    1    2    0    0  0.00000000000E+00  0.00000000000E+00  0.15542659070E+04  0.35664974282E+04  0.32100095632E+04 0.  0.
        3    1    3    3  502    0  0.95212198020E+03 -0.29537239018E+03  0.21747056486E+04  0.23923055370E+04  0.10100000352E+00 0.  1.
       -3    1    3    3    0  502 -0.95212198020E+03  0.29537239018E+03 -0.62043974167E+03  0.11741918912E+04  0.10100000352E+00 0. -1.
</event>
<event>
 5   0  0.3830207E-07  0.3199824E+04  0.7818609E-02  0.8188864E-01
       -2   -1    0    0    0  501  0.00000000000E+00  0.00000000000E+00  0.19490235664E+04  0.19490235664E+04  0.25500000920E-02 0.  1.
        2   -1    0    0  501    0  0.00000000000E+00  0.00000000000E+00 -0.13133336284E+04  0.13133336284E+04  0.25500000920E-02 0. -1.
    10030    2    1    2    0    0  0.00000000000E+00  0.00000000000E+00  0.63568993806E+03  0.32623571948E+04  0.31998238653E+04 0.  0.
        4    1    3    3  502    0 -0.63861523302E+03  0.14667472834E+04  0.29416236601E+03  0.16265638996E+04  0.12699999809E+01 0. -1.
       -4    1    3    3    0  502  0.63861523302E+03 -0.14667472834E+04  0.34152757205E+03  0.16357932952E+04  0.12699999809E+01 0.  1.
</event>
<event>
 5   0  0.3750285E-07  0.3205776E+04  0.7818609E-02  0.8187293E-01
       -2   -1    0    0    0  501  0.00000000000E+00  0.00000000000E+00  0.19329154077E+04  0.19329154077E+04  0.25500000920E-02 0. -1.
        2   -1    0    0  501    0  0.00000000000E+00  0.00000000000E+00 -0.13292098138E+04  0.13292098138E+04  0.25500000920E-02 0.  1.
    10030    2    1    2    0    0  0.00000000000E+00  0.00000000000E+00  0.60370559395E+03  0.32621252215E+04  0.32057761176E+04 0.  0.
        1    1    3    3  502    0 -0.31461858539E+03 -0.19855175159E+00 -0.12974814320E+04  0.13350816305E+04  0.50400001928E-02 0.  1.
       -1    1    3    3    0  502  0.31461858539E+03  0.19855175159E+00  0.19011870260E+04  0.19270435909E+04  0.50400001928E-02 0. -1.
</event>
<event>
 5   0  0.1288096E-07  0.3198610E+04  0.7818609E-02  0.8189184E-01
       -1   -1    0    0    0  501  0.00000000000E+00  0.00000000000E+00  0.17479434469E+04  0.17479434469E+04  0.50400001928E-02 0.  1.
        1   -1    0    0  501    0  0.00000000000E+00  0.00000000000E+00 -0.14633058453E+04  0.14633058453E+04  0.50400001928E-02 0. -1.
    10030    2    1    2    0    0  0.00000000000E+00  0.00000000000E+00  0.28463760157E+03  0.32112492923E+04  0.31986096124E+04 0.  0.
        2    1    3    3  502    0 -0.89202051633E+01 -0.75143758988E+03 -0.12750098158E+04  0.14799959635E+04  0.25500000920E-02 0. -1.
       -2    1    3    3    0  502  0.89202051633E+01  0.75143758988E+03  0.15596474174E+04  0.17312533287E+04  0.25500000920E-02 0.  1.
</event>
<event>
 5   0  0.1270948E-07  0.3201874E+04  0.7818609E-02  0.8188322E-01
        1   -1    0    0  501    0  0.00000000000E+00  0.00000000000E+00  0.18676094460E+04  0.18676094460E+04  0.50400001928E-02 0.  1.
       -1   -1    0    0    0  501  0.00000000000E+00  0.00000000000E+00 -0.13723421686E+04  0.13723421686E+04  0.50400001928E-02 0. -1.
    10030    2    1    2    0    0  0.00000000000E+00  0.00000000000E+00  0.49526727746E+03  0.32399516146E+04  0.32018739496E+04 0.  0.
        4    1    3    3  502    0 -0.32306362076E+03  0.92482505325E+02 -0.13362524194E+04  0.13778589398E+04  0.12699999809E+01 0. -1.
       -4    1    3    3    0  502  0.32306362076E+03 -0.92482505325E+02  0.18315196968E+04  0.18620926748E+04  0.12699999809E+01 0.  1.
</event>
<event>
 5   0  0.1277374E-07  0.3194356E+04  0.7818609E-02  0.8190309E-01
        1   -1    0    0  501    0  0.00000000000E+00  0.00000000000E+00  0.27155857989E+04  0.27155857989E+04  0.50400001928E-02 0. -1.
       -1   -1    0    0    0  501  0.00000000000E+00  0.00000000000E+00 -0.93938397799E+03  0.93938397800E+03  0.50400001928E-02 0.  1.
    10030    2    1    2    0    0  0.00000000000E+00  0.00000000000E+00  0.17762018209E+04  0.36549697769E+04  0.31943561419E+04 0.  0.
        5    1    3    3  502    0 -0.60514940066E+03  0.12441560274E+04  0.18011849272E+04  0.22712153683E+04  0.46999998093E+01 0. -1.
       -5    1    3    3    0  502  0.60514940066E+03 -0.12441560274E+04 -0.24983106299E+02  0.13837544085E+04  0.46999998093E+01 0.  1.
</event>
<event>
 5   0  0.3858721E-07  0.3144427E+04  0.7818609E-02  0.8203650E-01
       -2   -1    0    0    0  501  0.00000000000E+00  0.00000000000E+00  0.16066200790E+04  0.16066200790E+04  0.25500000920E-02 0.  1.
        2   -1    0    0  501    0  0.00000000000E+00  0.00000000000E+00 -0.15385441486E+04  0.15385441486E+04  0.25500000920E-02 0. -1.
    10030    2    1    2    0    0  0.00000000000E+00  0.00000000000E+00  0.68075930396E+02  0.31451642277E+04  0.31444274021E+04 0.  0.
        2    1    3    3  502    0  0.48182114747E+03  0.14503396201E+04 -0.33512749546E+03  0.15645916623E+04  0.25500000920E-02 0. -1.
       -2    1    3    3    0  502 -0.48182114747E+03 -0.14503396201E+04  0.40320342586E+03  0.15805725653E+04  0.25500000920E-02 0.  1.
</event>
<event>
 5   0  0.1270948E-07  0.3195850E+04  0.7818609E-02  0.8189914E-01
        1   -1    0    0  501    0  0.00000000000E+00  0.00000000000E+00  0.16990107012E+04  0.16990107012E+04  0.50400001928E-02 0. -1.
       -1   -1    0    0    0  501  0.00000000000E+00  0.00000000000E+00 -0.15028535373E+04  0.15028535373E+04  0.50400001928E-02 0.  1.
    10030    2    1    2    0    0  0.00000000000E+00  0.00000000000E+00  0.19615716388E+03  0.32018642385E+04  0.31958499603E+04 0.  0.
        4    1    3    3  502    0 -0.12561584078E+04  0.94009632367E+03  0.40138182009E+03  0.16195135139E+04  0.12699999809E+01 0.  1.
       -4    1    3    3    0  502  0.12561584078E+04 -0.94009632367E+03 -0.20522465621E+03  0.15823507246E+04  0.12699999809E+01 0. -1.
</event>
<event>
 5   0  0.3764056E-07  0.3197754E+04  0.7818609E-02  0.8189411E-01
       -2   -1    0    0    0  501  0.00000000000E+00  0.00000000000E+00  0.80722062019E+03  0.80722062019E+03  0.25500000920E-02 0. -1.
        2   -1    0    0  501    0  0.00000000000E+00  0.00000000000E+00 -0.31669255339E+04  0.31669255339E+04  0.25500000920E-02 0.  1.
    10030    2    1    2    0    0  0.00000000000E+00  0.00000000000E+00 -0.23597049137E+04  0.39741461541E+04  0.31977539577E+04 0.  0.
        5    1    3    3  502    0  0.65899043893E+03  0.13042547040E+04 -0.19862678392E+04  0.24658934995E+04  0.46999998093E+01 0.  1.
       -5    1    3    3    0  502 -0.65899043893E+03 -0.13042547040E+04 -0.37343707452E+03  0.15082526546E+04  0.46999998093E+01 0. -1.
</event>
<event>
 5   0  0.1277374E-07  0.3195953E+04  0.7818609E-02  0.8189887E-01
       -1   -1    0    0    0  501  0.00000000000E+00  0.00000000000E+00  0.11440398894E+04  0.11440398894E+04  0.50400001928E-02 0. -1.
        1   -1    0    0  501    0  0.00000000000E+00  0.00000000000E+00 -0.22320277234E+04  0.22320277234E+04  0.50400001928E-02 0.  1.
    10030    2    1    2    0    0  0.00000000000E+00  0.00000000000E+00 -0.10879878340E+04  0.33760676128E+04  0.31959529094E+04 0.  0.
        5    1    3    3  502    0 -0.35328686687E+03  0.98248262611E+03  0.73390261990E+03  0.12762127042E+04  0.46999998093E+01 0. -1.
       -5    1    3    3    0  502  0.35328686687E+03 -0.98248262611E+03 -0.18218904539E+04  0.20998549086E+04  0.46999998093E+01 0.  1.
</event>
<event>
 5   0  0.1317293E-07  0.3202127E+04  0.7818609E-02  0.8188256E-01
       -1   -1    0    0    0  501  0.00000000000E+00  0.00000000000E+00  0.15179419660E+04  0.15179419660E+04  0.50400001928E-02 0. -1.
        1   -1    0    0  501    0  0.00000000000E+00  0.00000000000E+00 -0.16887367525E+04  0.16887367526E+04  0.50400001928E-02 0.  1.
    10030    2    1    2    0    0  0.00000000000E+00  0.00000000000E+00 -0.17079478655E+03  0.32066787186E+04  0.32021270345E+04 0.  0.
        1    1    3    3  502    0  0.59266639638E+03  0.62860189973E+03 -0.14352788157E+04  0.16752370234E+04  0.50400001928E-02 0.  1.
       -1    1    3    3    0  502 -0.59266639638E+03 -0.62860189973E+03  0.12644840291E+04  0.15314416952E+04  0.50400001928E-02 0. -1.
</event>
<event>
 5   0  0.3858721E-07  0.3204795E+04  0.7818609E-02  0.8187552E-01
       -2   -1    0    0    0  501  0.00000000000E+00  0.00000000000E+00  0.12736292587E+04  0.12736292587E+04  0.25500000920E-02 0. -1.
        2   -1    0    0  501    0  0.00000000000E+00  0.00000000000E+00 -0.20160321362E+04  0.20160321362E+04  0.25500000920E-02 0.  1.
    10030    2    1    2    0    0  0.00000000000E+00  0.00000000000E+00 -0.74240287747E+03  0.32896613949E+04  0.32047948547E+04 0.  0.
        2    1    3    3  502    0 -0.17799818774E+03 -0.10813909685E+04  0.82876672152E+03  0.13740247670E+04  0.25500000920E-02 0. -1.
       -2    1    3    3    0  502  0.17799818774E+03  0.10813909685E+04 -0.15711695990E+04  0.19156366279E+04  0.25500000920E-02 0.  1.
</event>
<event>
 5   0  0.1277374E-07  0.3199980E+04  0.7818609E-02  0.8188822E-01
        1   -1    0    0  501    0  0.00000000000E+00  0.00000000000E+00  0.13379887773E+04  0.13379887773E+04  0.50400001928E-02 0.  1.
       -1   -1    0    0    0  501  0.00000000000E+00  0.00000000000E+00 -0.19132960457E+04  0.19132960457E+04  0.50400001928E-02 0. -1.
    10030    2    1    2    0    0  0.00000000000E+00  0.00000000000E+00 -0.57530726836E+03  0.32512848230E+04  0.31999803979E+04 0.  0.
        5    1    3    3  502    0  0.14490190845E+04 -0.53673810177E+03 -0.70927961190E+03  0.17002481451E+04  0.46999998093E+01 0. -1.
       -5    1    3    3    0  502 -0.14490190845E+04  0.53673810177E+03  0.13397234354E+03  0.15510366778E+04  0.46999998093E+01 0.  1.
</event>
<event>
 5   0  0.3750285E-07  0.3209555E+04  0.7818609E-02  0.8186298E-01
        2   -1    0    0  501    0  0.00000000000E+00  0.00000000000E+00  0.26180543466E+04  0.26180543466E+04  0.25500000920E-02 0.  1.
       -2   -1    0    0    0  501  0.00000000000E+00  0.00000000000E+00 -0.98367341950E+03  0.98367341950E+03  0.25500000920E-02 0. -1.
    10030    2    1    2    0    0  0.00000000000E+00  0.00000000000E+00  0.16343809271E+04  0.36017277661E+04  0.32095547801E+04 0.  0.
        1    1    3    3  502    0 -0.19467897402E+03 -0.89247066171E+03  0.22978453289E+04  0.24727508853E+04  0.50400001928E-02 0. -1.
       -1    1    3    3    0  502  0.19467897402E+03  0.89247066171E+03 -0.66346440183E+03  0.11289768808E+04  0.50400001928E-02 0.  1.
</event>
<event>
 5   0  0.1317293E-07  0.3198294E+04  0.7818609E-02  0.8189268E-01
        1   -1    0    0  501    0  0.00000000000E+00  0.00000000000E+00  0.31182791093E+04  0.31182791094E+04  0.50400001928E-02 0. -1.
       -1   -1    0    0    0  501  0.00000000000E+00  0.00000000000E+00 -0.82009055835E+03  0.82009055837E+03  0.50400001928E-02 0.  1.
    10030    2    1    2    0    0  0.00000000000E+00  0.00000000000E+00  0.22981885510E+04  0.39383696677E+04  0.31982940802E+04 0.  0.
        1    1    3    3  502    0  0.47909031822E+03  0.11313596503E+03  0.30226573840E+04  0.30624801943E+04  0.50400001928E-02 0. -1.
       -1    1    3    3    0  502 -0.47909031822E+03 -0.11313596503E+03 -0.72446883300E+03  0.87588947339E+03  0.50400001928E-02 0.  1.
</event>
<event>
 5   0  0.1288096E-07  0.3199526E+04  0.7818609E-02  0.8188942E-01
       -1   -1    0    0    0  501  0.00000000000E+00  0.00000000000E+00  0.12001918549E+04  0.12001918549E+04  0.50400001928E-02 0.  1.
        1   -1    0    0  501    0  0.00000000000E+00  0.00000000000E+00 -0.21323607068E+04  0.21323607068E+04  0.50400001928E-02 0. -1.
    10030    2    1    2    0    0  0.00000000000E+00  0.00000000000E+00 -0.93216885195E+03  0.33325525617E+04  0.31995261849E+04 0.  0.
        2    1    3    3  502    0 -0.38852578065E+03  0.73749608730E+03  0.95611214548E+03  0.12684648973E+04  0.25500000920E-02 0.  1.
       -2    1    3    3    0  502  0.38852578065E+03 -0.73749608730E+03 -0.18882809974E+04  0.20640876644E+04  0.25500000920E-02 0. -1.
</event>
<event>
 5   0  0.3830207E-07  0.3197558E+04  0.7818609E-02  0.8189463E-01
        2   -1    0    0  501    0  0.00000000000E+00  0.00000000000E+00  0.94306864455E+03  0.94306864456E+03  0.25500000920E-02 0.  1.
       -2   -1    0    0    0  501  0.00000000000E+00  0.00000000000E+00 -0.27104003218E+04  0.27104003218E+04  0.25500000920E-02 0. -1.
    10030    2    1    2    0    0  0.00000000000E+00  0.00000000000E+00 -0.17673316773E+04  0.36534689664E+04  0.31975575414E+04 0.  0.
        4    1    3    3  502    0 -0.16098912759E+03 -0.14180531226E+04 -0.60293777440E+02  0.14284358965E+04  0.12699999809E+01 0. -1.
       -4    1    3    3    0  502  0.16098912759E+03  0.14180531226E+04 -0.17070378998E+04  0.22250330699E+04  0.12699999809E+01 0.  1.
</event>
<event>
 5   0  0.3858721E-07  0.3208738E+04  0.7818609E-02  0.8186513E-01
       -2   -1    0    0    0  501  0.00000000000E+00  0.00000000000E+00  0.16429815864E+04  0.16429815864E+04  0.25500000920E-02 0.  1.
        2   -1    0    0  501    0  0.00000000000E+00  0.00000000000E+00 -0.15666639804E+04  0.15666639804E+04  0.25500000920E-02 0. -1.
    10030    2    1    2    0    0  0.00000000000E+00  0.00000000000E+00  0.76317606003E+02  0.32096455669E+04  0.32087381146E+04 0.  0.
        2    1    3    3  502    0 -0.13156009533E+04  0.62109498076E+03 -0.63837205111E+03  0.15887365166E+04  0.25500000920E-02 0. -1.
       -2    1    3    3    0  502  0.13156009533E+04 -0.62109498076E+03  0.71468965711E+03  0.16209090503E+04  0.25500000920E-02 0.  1.
</event>
<event>
 5   0  0.3830207E-07  0.3186580E+04  0.7818609E-02  0.8192370E-01
       -2   -1    0    0    0  501  0.00000000000E+00  0.00000000000E+00  0.89556789076E+03  0.89556789076E+03  0.25500000920E-02 0. -1.
        2   -1    0    0  501    0  0.00000000000E+00  0.00000000000E+00 -0.28345957780E+04  0.28345957780E+04  0.25500000920E-02 0.  1.
    10030    2    1    2    0    0  0.00000000000E+00  0.00000000000E+00 -0.19390278872E+04  0.37301636688E+04  0.31865799611E+04 0.  0.
        4    1    3    3  502    0 -0.22433071812E+02 -0.73184344584E+03 -0.26259948400E+04  0.27261600438E+04  0.12699999809E+01 0.  1.
       -4    1    3    3    0  502  0.22433071812E+02  0.73184344584E+03  0.68696695273E+03  0.10040036250E+04  0.12699999809E+01 0. -1.
</event>
<event>
 5   0  0.1288096E-07  0.3200255E+04  0.7818609E-02  0.8188750E-01
        1   -1    0    0  501    0  0.00000000000E+00  0.00000000000E+00  0.22730726755E+04  0.22730726755E+04  0.50400001928E-02 0.  1.
       -1   -1    0    0    0  501  0.00000000000E+00  0.00000000000E+00 -0.11264080455E+04  0.11264080455E+04  0.50400001928E-02 0. -1.
    10030    2    1    2    0    0  0.00000000000E+00  0.00000000000E+00  0.11466646300E+04  0.33994807209E+04  0.32002545834E+04 0.  0.
        2    1    3    3  502    0  0.13579845837E+04 -0.84442178274E+03  0.63376950972E+03  0.17201261780E+04  0.25500000920E-02 0. -1.
       -2    1    3    3    0  502 -0.13579845837E+04  0.84442178274E+03  0.51289512029E+03  0.16793545430E+04  0.25500000920E-02 0.  1.
</event>
<event>
 5   0  0.3750285E-07  0.3202263E+04  0.7818609E-02  0.8188220E-01
       -2   -1    0    0    0  501  0.00000000000E+00  0.00000000000E+00  0.12684427490E+04  0.12684427490E+04  0.25500000920E-02 0. -1.
        2   -1    0    0  501    0  0.00000000000E+00  0.00000000000E+00 -0.20210788513E+04  0.20210788513E+04  0.25500000920E-02 0.  1.
    10030    2    1    2    0    0  0.00000000000E+00  0.00000000000E+00 -0.75263610232E+03  0.32895216003E+04  0.32022634583E+04 0.  0.
        1    1    3    3  502    0 -0.36763765997E+03  0.15571187986E+04 -0.44002746211E+03  0.16593373886E+04  0.50400001928E-02 0. -1.
       -1    1    3    3    0  502  0.36763765997E+03 -0.15571187986E+04 -0.31260864021E+03  0.16301842116E+04  0.50400001928E-02 0.  1.
</event>
<event>
 5   0  0.1270948E-07  0.3197462E+04  0.7818609E-02  0.8189488E-01
        1   -1    0    0  501    0  0.00000000000E+00  0.00000000000E+00  0.93601590940E+03  0.93601590942E+03  0.50400001928E-02 0.  1.
       -1   -1    0    0    0  501  0.00000000000E+00  0.00000000000E+00 -0.27306588458E+04  0.27306588458E+04  0.50400001928E-02 0. -1.
    10030    2    1    2    0    0  0.00000000000E+00  0.00000000000E+00 -0.17946429363E+04  0.36666747552E+04  0.31974615699E+04 0.  0.
        4    1    3    3  502    0 -0.85991133655E+03 -0.44632481511E+03  0.56102379771E+03  0.11195546712E+04  0.12699999809E+01 0.  1.
       -4    1    3    3    0  502  0.85991133655E+03  0.44632481511E+03 -0.23556667341E+04  0.25471200840E+04  0.12699999809E+01 0. -1.
</event>
<event>
 5   0  0.1288096E-07  0.3201765E+04  0.7818609E-02  0.8188351E-01
        1   -1    0    0  501    0  0.00000000000E+00  0.00000000000E+00  0.26771335372E+04  0.26771335372E+04  0.50400001928E-02 0.  1.
       -1   -1    0    0    0  501  0.00000000000E+00  0.00000000000E+00 -0.95730205793E+03  0.95730205795E+03  0.50400001928E-02 0. -1.
    10030    2    1    2    0    0  0.00000000000E+00  0.00000000000E+00  0.17198314793E+04  0.36344355952E+04  0.32017654159E+04 0.  0.
        2    1    3    3  502    0  0.14662455801E+04  0.42703384558E+03  0.14050067967E+04  0.20751573688E+04  0.25500000920E-02 0.  1.
       -2    1    3    3    0  502 -0.14662455801E+04 -0.42703384558E+03  0.31482468262E+03  0.15592782264E+04  0.25500000920E-02 0. -1.
</event>
<event>
 5   0  0.1317293E-07  0.3201538E+04  0.7818609E-02  0.8188411E-01
       -1   -1    0    0    0  501  0.00000000000E+00  0.00000000000E+00  0.14143981236E+04  0.14143981236E+04  0.50400001928E-02 0. -1.
        1   -1    0    0  501    0  0.00000000000E+00  0.00000000000E+00 -0.18116974042E+04  0.18116974042E+04  0.50400001928E-02 0.  1.
    10030    2    1    2    0    0  0.00000000000E+00  0.00000000000E+00 -0.39729928056E+03  0.32260955278E+04  0.32015380111E+04 0.  0.
        1    1    3    3  502    0  0.14422750554E+04 -0.57740172759E+03  0.19020063917E+03  0.15651601750E+04  0.50400001928E-02 0. -1.
       -1    1    3    3    0  502 -0.14422750554E+04  0.57740172759E+03 -0.58749991973E+03  0.16609353528E+04  0.50400001928E-02 0.  1.
</event>
<event>
 5   0  0.3750285E-07  0.3201394E+04  0.7818609E-02  0.8188449E-01
       -2   -1    0    0    0  501  0.00000000000E+00  0.00000000000E+00  0.16325176671E+04  0.16325176671E+04  0.25500000920E-02 0. -1.
        2   -1    0    0  501    0  0.00000000000E+00  0.00000000000E+00 -0.15694968372E+04  0.15694968372E+04  0.25500000920E-02 0.  1.
    10030    2    1    2    0    0  0.00000000000E+00  0.00000000000E+00  0.63020829851E+02  0.32020145043E+04  0.32013942683E+04 0.  0.
        1    1    3    3  502    0 -0.26840824851E+01 -0.13336907494E+03 -0.15639277103E+04  0.15696064467E+04  0.50400001928E-02 0.  1.
       -1    1    3    3    0  502  0.26840824851E+01  0.13336907494E+03  0.16269485401E+04  0.16324080576E+04  0.50400001928E-02 0. -1.
</event>
<event>
 5   0  0.1365455E-07  0.3204877E+04  0.7818609E-02  0.8187530E-01
        1   -1    0    0  501    0  0.00000000000E+00  0.00000000000E+00  0.15572188692E+04  0.15572188692E+04  0.50400001928E-02 0.  1.
       -1   -1    0    0    0  501  0.00000000000E+00  0.00000000000E+00 -0.16489714768E+04  0.16489714768E+04  0.50400001928E-02 0. -1.
    10030    2    1    2    0    0  0.00000000000E+00  0.00000000000E+00 -0.91752607567E+02  0.32061903460E+04  0.32048772198E+04 0.  0.
        3    1    3    3  502    0 -0.10796812023E+03 -0.15977094128E+04 -0.10486660263E+03  0.16047833179E+04  0.10100000352E+00 0. -1.
       -3    1    3    3    0  502  0.10796812023E+03  0.15977094128E+04  0.13113995063E+02  0.16014070282E+04  0.10100000352E+00 0.  1.
</event>
<event>
 5   0  0.1277374E-07  0.3198916E+04  0.7818609E-02  0.8189103E-01
       -1   -1    0    0    0  501  0.00000000000E+00  0.00000000000E+00  0.17596468993E+04  0.17596468993E+04  0.50400001928E-02 0.  1.
        1   -1    0    0  501    0  0.00000000000E+00  0.00000000000E+00 -0.14538521073E+04  0.14538521073E+04  0.50400001928E-02 0. -1.
    10030    2    1    2    0    0  0.00000000000E+00  0.00000000000E+00  0.30579479201E+03  0.32134990067E+04  0.31989162870E+04 0.  0.
        5    1    3    3  502    0  0.10211360551E+04 -0.75270191816E+03  0.11314866621E+04  0.16998715178E+04  0.46999998093E+01 0.  1.
       -5    1    3    3    0  502 -0.10211360551E+04  0.75270191816E+03 -0.82569187007E+03  0.15136274888E+04  0.46999998093E+01 0. -1.
</event>
<event>
 5   0  0.1365455E-07  0.3194005E+04  0.7818609E-02  0.8190402E-01
        1   -1    0    0  501    0  0.00000000000E+00  0.00000000000E+00  0.20259488451E+04  0.20259488451E+04  0.50400001928E-02 0.  1.
       -1   -1    0    0    0  501  0.00000000000E+00  0.00000000000E+00 -0.12588754405E+04  0.12588754405E+04  0.50400001928E-02 0. -1.
    10030    2    1    2    0    0  0.00000000000E+00  0.00000000000E+00  0.76707340459E+03  0.32848242856E+04  0.31940051627E+04 0.  0.
        3    1    3    3  502    0 -0.15885941663E+04 -0.13531398925E+02  0.55127779722E+03  0.16815831065E+04  0.10100000352E+00 0.  1.
       -3    1    3    3    0  502  0.15885941663E+04  0.13531398925E+02  0.21579560737E+03  0.16032411791E+04  0.10100000352E+00 0. -1.
</event>
<event>
 5   0  0.3858721E-07  0.3200215E+04  0.7818609E-02  0.8188760E-01
       -2   -1    0    0    0  501  0.00000000000E+00  0.00000000000E+00  0.17144747839E+04  0.17144747839E+04  0.25500000920E-02 0. -1.
        2   -1    0    0  501    0  0.00000000000E+00  0.00000000000E+00 -0.14933696583E+04  0.14933696583E+04  0.25500000920E-02 0.  1.
    10030    2    1    2    0    0  0.00000000000E+00  0.00000000000E+00  0.22110512563E+03  0.32078444422E+04  0.32002153816E+04 0.  0.
        2    1    3    3  502    0 -0.87416620630E+03 -0.11330254396E+04  0.82810222896E+03  0.16533803267E+04  0.25500000920E-02 0. -1.
       -2    1    3    3    0  502  0.87416620630E+03  0.11330254396E+04 -0.60699710333E+03  0.15544641155E+04  0.25500000920E-02 0.  1.
</event>
<event>
 5   0  0.3858721E-07  0.3245684E+04  0.7818609E-02  0.8176855E-01
        2   -1    0    0  501    0  0.00000000000E+00  0.00000000000E+00  0.27775919066E+04  0.27775919066E+04  0.25500000920E-02 0. -1.
       -2   -1    0    0    0  501  0.00000000000E+00  0.00000000000E+00 -0.94816509383E+03  0.94816509384E+03  0.25500000920E-02 0.  1.
    10030    2    1    2    0    0  0.00000000000E+00  0.00000000000E+00  0.18294268128E+04  0.37257570004E+04  0.32456837127E+04 0.  0.
        2    1    3    3  502    0 -0.96930320417E+03 -0.12401475065E+02 -0.57929797232E+03  0.11292867833E+04  0.25500000920E-02 0.  1.
       -2    1    3    3    0  502  0.96930320417E+03  0.12401475065E+02  0.24087247851E+04  0.25964702171E+04  0.25500000920E-02 0. -1.
</event>
<event>
 5   0  0.3830207E-07  0.3203705E+04  0.7818609E-02  0.8187839E-01
       -2   -1    0    0    0  501  0.00000000000E+00  0.00000000000E+00  0.29187610626E+04  0.29187610626E+04  0.25500000920E-02 0.  1.
        2   -1    0    0  501    0  0.00000000000E+00  0.00000000000E+00 -0.87911669922E+03  0.87911669923E+03  0.25500000920E-02 0. -1.
    10030    2    1    2    0    0  0.00000000000E+00  0.00000000000E+00  0.20396443634E+04  0.37978777618E+04  0.32037050995E+04 0.  0.
        4    1    3    3  502    0 -0.40995618393E+02 -0.16010553685E+04  0.98483502720E+03  0.18801490838E+04  0.12699999809E+01 0.  1.
       -4    1    3    3    0  502  0.40995618393E+02  0.16010553685E+04  0.10548093362E+04  0.19177286780E+04  0.12699999809E+01 0. -1.
</event>
<event>
 5   0  0.1230450E-07  0.3201681E+04  0.7818609E-02  0.8188373E-01
        3   -1    0    0  501    0  0.00000000000E+00  0.00000000000E+00  0.97492578469E+03  0.97492578992E+03  0.10100000352E+00 0. -1.
       -3   -1    0    0    0  501  0.00000000000E+00  0.00000000000E+00 -0.26285998399E+04  0.26285998418E+04  0.10100000352E+00 0.  1.
    10030    2    1    2    0    0  0.00000000000E+00  0.00000000000E+00 -0.16536740552E+04  0.36035256318E+04  0.32016806677E+04 0.  0.
        5    1    3    3  502    0 -0.14070473889E+03 -0.27155281278E+03  0.94172984515E+03  0.99015955529E+03  0.46999998093E+01 0. -1.
       -5    1    3    3    0  502  0.14070473889E+03  0.27155281278E+03 -0.25954039004E+04  0.26133660765E+04  0.46999998093E+01 0.  1.
</event>
<event>
 5   0  0.1365455E-07  0.3193145E+04  0.7818609E-02  0.8190630E-01
       -1   -1    0    0    0  501  0.00000000000E+00  0.00000000000E+00  0.10928005241E+04  0.10928005241E+04  0.50400001928E-02 0.  1.
        1   -1    0    0  501    0  0.00000000000E+00  0.00000000000E+00 -0.23325797842E+04  0.23325797842E+04  0.50400001928E-02 0. -1.
    10030    2    1    2    0    0  0.00000000000E+00  0.00000000000E+00 -0.12397792601E+04  0.34253803083E+04  0.31931454153E+04 0.  0.
        3    1    3    3  502    0 -0.99380152577E+03  0.75078503734E+03  0.45161850871E+03  0.13248694021E+04  0.10100000352E+00 0.  1.
       -3    1    3    3    0  502  0.99380152577E+03 -0.75078503734E+03 -0.16913977688E+04  0.21005109063E+04  0.10100000352E+00 0. -1.
</event>
<event>
 5   0  0.1270948E-07  0.3221643E+04  0.7818609E-02  0.8183125E-01
        1   -1    0    0  501    0  0.00000000000E+00  0.00000000000E+00  0.23750213199E+04  0.23750213199E+04  0.50400001928E-02 0. -1.
       -1   -1    0    0    0  501  0.00000000000E+00  0.00000000000E+00 -0.10925144651E+04  0.10925144651E+04  0.50400001928E-02 0.  1.
    10030    2    1    2    0    0  0.00000000000E+00  0.00000000000E+00  0.12825068548E+04  0.34675357850E+04  0.32216425294E+04 0.  0.
        4    1    3    3  502    0 -0.92415967508E+03 -0.27079255705E+03  0.20310658331E+04  0.22478055399E+04  0.12699999809E+01 0. -1.
       -4    1    3    3    0  502  0.92415967508E+03  0.27079255705E+03 -0.74855897823E+03  0.12197302451E+04  0.12699999809E+01 0.  1.
</event>
<event>
 5   0  0.3764056E-07  0.3204329E+04  0.7818609E-02  0.8187675E-01
       -2   -1    0    0    0  501  0.00000000000E+00  0.00000000000E+00  0.15645051686E+04  0.15645051686E+04  0.25500000920E-02 0.  1.
        2   -1    0    0  501    0  0.00000000000E+00  0.00000000000E+00 -0.16407308184E+04  0.16407308184E+04  0.25500000920E-02 0. -1.
    10030    2    1    2    0    0  0.00000000000E+00  0.00000000000E+00 -0.76225649802E+02  0.32052359870E+04  0.32043294747E+04 0.  0.
        5    1    3    3  502    0 -0.13761075912E+03  0.74514431124E+03 -0.14501541299E+04  0.16361985992E+04  0.46999998093E+01 0. -1.
       -5    1    3    3    0  502  0.13761075912E+03 -0.74514431124E+03  0.13739284801E+04  0.15690373877E+04  0.46999998093E+01 0.  1.
</event>
<event>
 5   0  0.1277374E-07  0.3197871E+04  0.7818609E-02  0.8189380E-01
        1   -1    0    0  501    0  0.00000000000E+00  0.00000000000E+00  0.15423197726E+04  0.15423197726E+04  0.50400001928E-02 0.  1.
       -1   -1    0    0    0  501  0.00000000000E+00  0.00000000000E+00 -0.16576290265E+04  0.16576290265E+04  0.50400001928E-02 0. -1.
    10030    2    1    2    0    0  0.00000000000E+00  0.00000000000E+00 -0.11530925397E+03  0.31999487991E+04  0.31978705560E+04 0.  0.
        5    1    3    3  502    0 -0.10955551685E+04  0.64959574808E+03 -0.10249038244E+04  0.16348289520E+04  0.46999998093E+01 0. -1.
       -5    1    3    3    0  502  0.10955551685E+04 -0.64959574808E+03  0.90959457047E+03  0.15651198471E+04  0.46999998093E+01 0.  1.
</event>
<event>
 5   0  0.1288096E-07  0.3217692E+04  0.7818609E-02  0.8184160E-01
       -1   -1    0    0    0  501  0.00000000000E+00  0.00000000000E+00  0.17351434606E+04  0.17351434606E+04  0.50400001928E-02 0.  1.
        1   -1    0    0  501    0  0.00000000000E+00  0.00000000000E+00 -0.14917412543E+04  0.14917412543E+04  0.50400001928E-02 0. -1.
    10030    2    1    2    0    0  0.00000000000E+00  0.00000000000E+00  0.24340220629E+03  0.32268847148E+04  0.32176917703E+04 0.  0.
        2    1    3    3  502    0 -0.10492580557E+04 -0.21480411209E+03  0.13256733497E+04  0.17042573468E+04  0.25500000920E-02 0.  1.
       -2    1    3    3    0  502  0.10492580557E+04  0.21480411209E+03 -0.10822711434E+04  0.15226273680E+04  0.25500000920E-02 0. -1.
</event>
<event>
 5   0  0.3942564E-07  0.3265422E+04  0.7818609E-02  0.8171750E-01
        2   -1    0    0  501    0  0.00000000000E+00  0.00000000000E+00  0.15040204941E+04  0.15040204941E+04  0.25500000920E-02 0. -1.
       -2   -1    0    0    0  501  0.00000000000E+00  0.00000000000E+00 -0.17724131042E+04  0.17724131042E+04  0.25500000920E-02 0.  1.
    10030    2    1    2    0    0  0.00000000000E+00  0.00000000000E+00 -0.26839261015E+03  0.32764335983E+04  0.32654222592E+04 0.  0.
        3    1    3    3  502    0  0.62821608456E+01 -0.94167887789E+03 -0.14724656579E+04  0.17478425840E+04  0.10100000352E+00 0.  1.
       -3    1    3    3    0  502 -0.62821608456E+01  0.94167887789E+03  0.12040730477E+04  0.15285910143E+04  0.10100000352E+00 0. -1.
</event>
<event>
 5   0  0.1365455E-07  0.3192524E+04  0.7818609E-02  0.8190794E-01
        1   -1    0    0  501    0  0.00000000000E+00  0.00000000000E+00  0.18663137845E+04  0.18663137845E+04  0.50400001928E-02 0.  1.
       -1   -1    0    0    0  501  0.00000000000E+00  0.00000000000E+00 -0.13652863370E+04  0.13652863370E+04  0.50400001928E-02 0. -1.
    10030    2    1    2    0    0  0.00000000000E+00  0.00000000000E+00  0.50102744749E+03  0.32316001214E+04  0.31925242116E+04 0.  0.
        3    1    3    3  502    0  0.35984647336E+03 -0.36004831815E+03  0.17819520877E+04  0.18532343427E+04  0.10100000352E+00 0.  1.
       -3    1    3    3    0  502 -0.35984647336E+03  0.36004831815E+03 -0.12809246402E+04  0.13783657787E+04  0.10100000352E+00 0. -1.
</event>
<event>
 5   0  0.1365455E-07  0.3197239E+04  0.7818609E-02  0.8189547E-01
        1   -1    0    0  501    0  0.00000000000E+00  0.00000000000E+00  0.27306821741E+04  0.27306821741E+04  0.50400001928E-02 0. -1.
       -1   -1    0    0    0  501  0.00000000000E+00  0.00000000000E+00 -0.93587769196E+03  0.93587769198E+03  0.50400001928E-02 0.  1.
    10030    2    1    2    0    0  0.00000000000E+00  0.00000000000E+00  0.17948044821E+04  0.36665598660E+04  0.31972391406E+04 0.  0.
        3    1    3    3  502    0  0.15717251757E+04 -0.46061023892E+02  0.56673118926E+03  0.16714143403E+04  0.10100000352E+00 0. -1.
       -3    1    3    3    0  502 -0.15717251757E+04  0.46061023892E+02  0.12280732928E+04  0.19951455257E+04  0.10100000352E+00 0.  1.
</event>
<event>
 5   0  0.1365455E-07  0.3199624E+04  0.7818609E-02  0.8188917E-01
        1   -1    0    0  501    0  0.00000000000E+00  0.00000000000E+00  0.16909661390E+04  0.16909661390E+04  0.50400001928E-02 0. -1.
       -1   -1    0    0    0  501  0.00000000000E+00  0.00000000000E+00 -0.15135712151E+04  0.15135712151E+04  0.50400001928E-02 0.  1.
    10030    2    1    2    0    0  0.00000000000E+00  0.00000000000E+00  0.17739492390E+03  0.32045373541E+04  0.31996235239E+04 0.  0.
        3    1    3    3  502    0 -0.30939721368E+03 -0.94446603045E+03 -0.11668844741E+04  0.15327628990E+04  0.10100000352E+00 0.  1.
       -3    1    3    3    0  502  0.30939721368E+03  0.94446603045E+03  0.13442793980E+04  0.16717744551E+04  0.10100000352E+00 0. -1.
</event>
<event>
 5   0  0.1288096E-07  0.3198507E+04  0.7818609E-02  0.8189212E-01
        1   -1    0    0  501    0  0.00000000000E+00  0.00000000000E+00  0.21602721698E+04  0.21602721698E+04  0.50400001928E-02 0. -1.
       -1   -1    0    0    0  501  0.00000000000E+00  0.00000000000E+00 -0.11839304888E+04  0.11839304888E+04  0.50400001928E-02 0.  1.
    10030    2    1    2    0    0  0.00000000000E+00  0.00000000000E+00  0.97634168093E+03  0.33442026586E+04  0.31985072056E+04 0.  0.
        2    1    3    3  502    0  0.10816600117E+04 -0.83976590603E+03  0.13518852203E+04  0.19242631854E+04  0.25500000920E-02 0.  1.
       -2    1    3    3    0  502 -0.10816600117E+04  0.83976590603E+03 -0.37554353932E+03  0.14199394733E+04  0.25500000920E-02 0. -1.
</event>
<event>
 5   0  0.1270948E-07  0.3195275E+04  0.7818609E-02  0.8190066E-01
        1   -1    0    0  501    0  0.00000000000E+00  0.00000000000E+00  0.17509749524E+04  0.17509749524E+04  0.50400001928E-02 0. -1.
       -1   -1    0    0    0  501  0.00000000000E+00  0.00000000000E+00 -0.14577286159E+04  0.14577286160E+04  0.50400001928E-02 0.  1.
    10030    2    1    2    0    0  0.00000000000E+00  0.00000000000E+00  0.29324633648E+03  0.32087035684E+04  0.31952754460E+04 0.  0.
        4    1    3    3  502    0 -0.77323731817E+03 -0.13980077088E+04  0.15776832877E+03  0.16053703505E+04  0.12699999809E+01 0. -1.
       -4    1    3    3    0  502  0.77323731817E+03  0.13980077088E+04  0.13547800771E+03  0.16033332178E+04  0.12699999809E+01 0.  1.
</event>
<event>
 5   0  0.1270948E-07  0.3202019E+04  0.7818609E-02  0.8188284E-01
       -1   -1    0    0    0  501  0.00000000000E+00  0.00000000000E+00  0.11681953377E+04  0.11681953377E+04  0.50400001928E-02 0. -1.
        1   -1    0    0  501    0  0.00000000000E+00  0.00000000000E+00 -0.21941804288E+04  0.21941804288E+04  0.50400001928E-02 0.  1.
    10030    2    1    2    0    0  0.00000000000E+00  0.00000000000E+00 -0.10259850910E+04  0.33623757665E+04  0.32020189550E+04 0.  0.
        4    1    3    3  502    0 -0.86747429074E+03  0.13052955650E+03  0.89336208118E+03  0.12520571198E+04  0.12699999809E+01 0. -1.
       -4    1    3    3    0  502  0.86747429074E+03 -0.13052955650E+03 -0.19193471722E+04  0.21103186467E+04  0.12699999809E+01 0.  1.
</event>
<event>
 5   0  0.3942564E-07  0.3217713E+04  0.7818609E-02  0.8184155E-01
       -2   -1    0    0    0  501  0.00000000000E+00  0.00000000000E+00  0.18097418078E+04  0.18097418078E+04  0.25500000920E-02 0. -1.
        2   -1    0    0  501    0  0.00000000000E+00  0.00000000000E+00 -0.14302699616E+04  0.14302699616E+04  0.25500000920E-02 0.  1.
    10030    2    1    2    0    0  0.00000000000E+00  0.00000000000E+00  0.37947184616E+03  0.32400117694E+04  0.32177130673E+04 0.  0.
        3    1    3    3  502    0 -0.53612921085E+03  0.14851573762E+04 -0.12109795331E+03  0.15836008611E+04  0.10100000352E+00 0.  1.
       -3    1    3    3    0  502  0.53612921085E+03 -0.14851573762E+04  0.50056979947E+03  0.16564109083E+04  0.10100000352E+00 0. -1.
</event>
<event>
 5   0  0.3830207E-07  0.3196574E+04  0.7818609E-02  0.8189723E-01
        2   -1    0    0  501    0  0.00000000000E+00  0.00000000000E+00  0.18562889248E+04  0.18562889248E+04  0.25500000920E-02 0. -1.
       -2   -1    0    0    0  501  0.00000000000E+00  0.00000000000E+00 -0.13761440283E+04  0.13761440283E+04  0.25500000920E-02 0.  1.
    10030    2    1    2    0    0  0.00000000000E+00  0.00000000000E+00  0.48014489653E+03  0.32324329531E+04  0.31965737399E+04 0.  0.
        4    1    3    3  502    0  0.93573118158E+03 -0.42273002245E+03  0.14786497352E+04  0.18001944807E+04  0.12699999809E+01 0. -1.
       -4    1    3    3    0  502 -0.93573118158E+03  0.42273002245E+03 -0.99850483864E+03  0.14322384724E+04  0.12699999809E+01 0.  1.
</event>
<event>
 5   0  0.3830207E-07  0.3193701E+04  0.7818609E-02  0.8190483E-01
       -2   -1    0    0    0  501  0.00000000000E+00  0.00000000000E+00  0.19560445545E+04  0.19560445545E+04  0.25500000920E-02 0. -1.
        2   -1    0    0  501    0  0.00000000000E+00  0.00000000000E+00 -0.13036163966E+04  0.13036163966E+04  0.25500000920E-02 0.  1.
    10030    2    1    2    0    0  0.00000000000E+00  0.00000000000E+00  0.65242815782E+03  0.32596609511E+04  0.31937011468E+04 0.  0.
        4    1    3    3  502    0  0.82525285600E+01  0.33581940717E+02  0.19556618202E+04  0.19559679494E+04  0.12699999809E+01 0. -1.
       -4    1    3    3    0  502 -0.82525285600E+01 -0.33581940717E+02 -0.13032336624E+04  0.13036930017E+04  0.12699999809E+01 0.  1.
</event>
<event>
 5   0  0.1277374E-07  0.3198806E+04  0.7818609E-02  0.8189133E-01
       -1   -1    0    0    0  501  0.00000000000E+00  0.00000000000E+00  0.11397262512E+04  0.11397262513E+04  0.50400001928E-02 0.  1.
        1   -1    0    0  501    0  0.00000000000E+00  0.00000000000E+00 -0.22444778613E+04  0.22444778613E+04  0.50400001928E-02 0. -1.
    10030    2    1    2    0    0  0.00000000000E+00  0.00000000000E+00 -0.11047516101E+04  0.33842041126E+04  0.31988062392E+04 0.  0.
        5    1    3    3  502    0  0.15197924901E+04 -0.40384327000E+03 -0.86120119853E+03  0.17929161146E+04  0.46999998093E+01 0. -1.
       -5    1    3    3    0  502 -0.15197924901E+04  0.40384327000E+03 -0.24355041155E+03  0.15912879980E+04  0.46999998093E+01 0.  1.
</event>
<event>
 5   0  0.1365455E-07  0.3199939E+04  0.7818609E-02  0.8188833E-01
       -1   -1    0    0    0  501  0.00000000000E+00  0.00000000000E+00  0.16456609697E+04  0.16456609697E+04  0.50400001928E-02 0. -1.
        1   -1    0    0  501    0  0.00000000000E+00  0.00000000000E+00 -0.15555469351E+04  0.15555469351E+04  0.50400001928E-02 0.  1.
    10030    2    1    2    0    0  0.00000000000E+00  0.00000000000E+00  0.90114034637E+02  0.32012079048E+04  0.31999392979E+04 0.  0.
        3    1    3    3  502    0  0.57742070429E+03 -0.21452596290E+03 -0.14321687716E+04  0.15590200316E+04  0.10100000352E+00 0.  1.
       -3    1    3    3    0  502 -0.57742070429E+03  0.21452596290E+03  0.15222828062E+04  0.16421878732E+04  0.10100000352E+00 0. -1.
</event>
<event>
 5   0  0.3830207E-07  0.3203376E+04  0.7818609E-02  0.8187926E-01
        2   -1    0    0  501    0  0.00000000000E+00  0.00000000000E+00  0.23542987574E+04  0.23542987574E+04  0.25500000920E-02 0. -1.
       -2   -1    0    0    0  501  0.00000000000E+00  0.00000000000E+00 -0.10896682142E+04  0.10896682142E+04  0.25500000920E-02 0.  1.
    10030    2    1    2    0    0  0.00000000000E+00  0.00000000000E+00  0.12646305432E+04  0.34439669716E+04  0.32033760458E+04 0.  0.
        4    1    3    3  502    0 -0.48237949344E+03 -0.78943051148E+03  0.20379975899E+04  0.22381524295E+04  0.12699999809E+01 0. -1.
       -4    1    3    3    0  502  0.48237949344E+03  0.78943051148E+03 -0.77336704674E+03  0.12058145421E+04  0.12699999809E+01 0.  1.
</event>
<event>
 5   0  0.3764056E-07  0.3222079E+04  0.7818609E-02  0.8183011E-01
        2   -1    0    0  501    0  0.00000000000E+00  0.00000000000E+00  0.20831782481E+04  0.20831782481E+04  0.25500000920E-02 0. -1.
       -2   -1    0    0    0  501  0.00000000000E+00  0.00000000000E+00 -0.12459075806E+04  0.12459075806E+04  0.25500000920E-02 0.  1.
    10030    2    1    2    0    0  0.00000000000E+00  0.00000000000E+00  0.83727066751E+03  0.33290858287E+04  0.32220785658E+04 0.  0.
        5    1    3    3  502    0  0.39951050741E+03 -0.35525679680E+03  0.19888467824E+04  0.20594537263E+04  0.46999998093E+01 0. -1.
       -5    1    3    3    0  502 -0.39951050741E+03  0.35525679680E+03 -0.11515761148E+04  0.12696321024E+04  0.46999998093E+01 0.  1.
</event>
<event>
 5   0  0.1277374E-07  0.3214541E+04  0.7818609E-02  0.8184988E-01
        1   -1    0    0  501    0  0.00000000000E+00  0.00000000000E+00  0.35410743892E+04  0.35410743892E+04  0.50400001928E-02 0.  1.
       -1   -1    0    0    0  501  0.00000000000E+00  0.00000000000E+00 -0.72952937224E+03  0.72952937225E+03  0.50400001928E-02 0. -1.
    10030    2    1    2    0    0  0.00000000000E+00  0.00000000000E+00  0.28115450170E+04  0.42706037615E+04  0.32145405745E+04 0.  0.
        5    1    3    3  502    0  0.22006053447E+02  0.15259704240E+04  0.20756263919E+04  0.25762990917E+04  0.46999998093E+01 0.  1.
       -5    1    3    3    0  502 -0.22006053447E+02 -0.15259704240E+04  0.73591862515E+03  0.16943046698E+04  0.46999998093E+01 0. -1.
</event>
<event>
 5   0  0.1365455E-07  0.3204934E+04  0.7818609E-02  0.8187515E-01
       -1   -1    0    0    0  501  0.00000000000E+00  0.00000000000E+00  0.12765394759E+04  0.12765394759E+04  0.50400001928E-02 0. -1.
        1   -1    0    0  501    0  0.00000000000E+00  0.00000000000E+00 -0.20116102999E+04  0.20116102999E+04  0.50400001928E-02 0.  1.
    10030    2    1    2    0    0  0.00000000000E+00  0.00000000000E+00 -0.73507082403E+03  0.32881497758E+04  0.32049336704E+04 0.  0.
        3    1    3    3  502    0 -0.74714448134E+03 -0.19575646759E+03 -0.18080408680E+04  0.19661020475E+04  0.10100000352E+00 0.  1.
       -3    1    3    3    0  502  0.74714448134E+03  0.19575646759E+03  0.10729700439E+04  0.13220477283E+04  0.10100000352E+00 0. -1.
</event>
<event>
 5   0  0.3858721E-07  0.3201054E+04  0.7818609E-02  0.8188539E-01
        2   -1    0    0  501    0  0.00000000000E+00  0.00000000000E+00  0.14903963791E+04  0.14903963791E+04  0.25500000920E-02 0.  1.
       -2   -1    0    0    0  501  0.00000000000E+00  0.00000000000E+00 -0.17187954093E+04  0.17187954093E+04  0.25500000920E-02 0. -1.
    10030    2    1    2    0    0  0.00000000000E+00  0.00000000000E+00 -0.22839903019E+03  0.32091917884E+04  0.32010538605E+04 0.  0.
        2    1    3    3  502    0  0.45870207781E+03  0.56802882371E+03 -0.15421175155E+04  0.17062211968E+04  0.25500000920E-02 0. -1.
       -2    1    3    3    0  502 -0.45870207781E+03 -0.56802882371E+03  0.13137184853E+04  0.15029705916E+04  0.25500000920E-02 0.  1.
</event>
<event>
 5   0  0.3764056E-07  0.3191420E+04  0.7818609E-02  0.8191087E-01
       -2   -1    0    0    0  501  0.00000000000E+00  0.00000000000E+00  0.14484656715E+04  0.14484656715E+04  0.25500000920E-02 0.  1.
        2   -1    0    0  501    0  0.00000000000E+00  0.00000000000E+00 -0.17579224494E+04  0.17579224494E+04  0.25500000920E-02 0. -1.
    10030    2    1    2    0    0  0.00000000000E+00  0.00000000000E+00 -0.30945677786E+03  0.32063881209E+04  0.31914199480E+04 0.  0.
        5    1    3    3  502    0  0.74655635492E+03  0.64819655179E+03  0.11036487337E+04  0.14817448425E+04  0.46999998093E+01 0.  1.
       -5    1    3    3    0  502 -0.74655635492E+03 -0.64819655179E+03 -0.14131055116E+04  0.17246432784E+04  0.46999998093E+01 0. -1.
</event>
<event>
 5   0  0.3750285E-07  0.3199844E+04  0.7818609E-02  0.8188858E-01
       -2   -1    0    0    0  501  0.00000000000E+00  0.00000000000E+00  0.13359629378E+04  0.13359629378E+04  0.25500000920E-02 0.  1.
        2   -1    0    0  501    0  0.00000000000E+00  0.00000000000E+00 -0.19160339584E+04  0.19160339584E+04  0.25500000920E-02 0. -1.
    10030    2    1    2    0    0  0.00000000000E+00  0.00000000000E+00 -0.58007102059E+03  0.32519968963E+04  0.31998439688E+04 0.  0.
        1    1    3    3  502    0  0.62864398497E+03 -0.26040841154E+03  0.11815790723E+04  0.13635009735E+04  0.50400001928E-02 0.  1.
       -1    1    3    3    0  502 -0.62864398497E+03  0.26040841154E+03 -0.17616500929E+04  0.18884959228E+04  0.50400001928E-02 0. -1.
</event>
<event>
 5   0  0.3830207E-07  0.3200261E+04  0.7818609E-02  0.8188748E-01
       -2   -1    0    0    0  501  0.00000000000E+00  0.00000000000E+00  0.12388878823E+04  0.12388878823E+04  0.25500000920E-02 0.  1.
        2   -1    0    0  501    0  0.00000000000E+00  0.00000000000E+00 -0.20667069186E+04  0.20667069186E+04  0.25500000920E-02 0. -1.
    10030    2    1    2    0    0  0.00000000000E+00  0.00000000000E+00 -0.82781903633E+03  0.33055948009E+04  0.32002613379E+04 0.  0.
        4    1    3    3  502    0 -0.73175771346E+03 -0.10122508505E+04 -0.14469760922E+04  0.19115079283E+04  0.12699999809E+01 0.  1.
       -4    1    3    3    0  502  0.73175771346E+03  0.10122508505E+04  0.61915705588E+03  0.13940868726E+04  0.12699999809E+01 0. -1.
</event>
<event>
 5   0  0.3764056E-07  0.3197339E+04  0.7818609E-02  0.8189520E-01
        2   -1    0    0  501    0  0.00000000000E+00  0.00000000000E+00  0.15751305741E+04  0.15751305741E+04  0.25500000920E-02 0. -1.
       -2   -1    0    0    0  501  0.00000000000E+00  0.00000000000E+00 -0.16225600388E+04  0.16225600388E+04  0.25500000920E-02 0.  1.
    10030    2    1    2    0    0  0.00000000000E+00  0.00000000000E+00 -0.47429464682E+02  0.31976906129E+04  0.31973388468E+04 0.  0.
        5    1    3    3  502    0  0.76380817232E+03  0.10693909433E+04  0.88672707306E+03  0.15853412585E+04  0.46999998093E+01 0. -1.
       -5    1    3    3    0  502 -0.76380817232E+03 -0.10693909433E+04 -0.93415653775E+03  0.16123493544E+04  0.46999998093E+01 0.  1.
</event>
<event>
 5   0  0.3942564E-07  0.3192595E+04  0.7818609E-02  0.8190776E-01
        2   -1    0    0  501    0  0.00000000000E+00  0.00000000000E+00  0.16630365203E+04  0.16630365203E+04  0.25500000920E-02 0.  1.
       -2   -1    0    0    0  501  0.00000000000E+00  0.00000000000E+00 -0.15322364848E+04  0.15322364848E+04  0.25500000920E-02 0. -1.
    10030    2    1    2    0    0  0.00000000000E+00  0.00000000000E+00  0.13080003553E+03  0.31952730051E+04  0.31925947014E+04 0.  0.
        3    1    3    3  502    0  0.49346117400E+03  0.64588411034E+03 -0.13096138794E+04  0.15413496481E+04  0.10100000352E+00 0. -1.
       -3    1    3    3    0  502 -0.49346117400E+03 -0.64588411034E+03  0.14404139150E+04  0.16539233570E+04  0.10100000352E+00 0.  1.
</event>
<event>
 5   0  0.1270948E-07  0.3194063E+04  0.7818609E-02  0.8190387E-01
       -1   -1    0    0    0  501  0.00000000000E+00  0.00000000000E+00  0.11088185509E+04  0.11088185509E+04  0.50400001928E-02 0. -1.
        1   -1    0    0  501    0  0.00000000000E+00  0.00000000000E+00 -0.23002047623E+04  0.23002047623E+04  0.50400001928E-02 0.  1.
    10030    2    1    2    0    0  0.00000000000E+00  0.00000000000E+00 -0.11913862114E+04  0.34090233132E+04  0.31940630622E+04 0.  0.
        4    1    3    3  502    0  0.12211800922E+04 -0.97039737402E+03 -0.96163260231E+03  0.18324002717E+04  0.12699999809E+01 0.  1.
       -4    1    3    3    0  502 -0.12211800922E+04  0.97039737402E+03 -0.22975360906E+03  0.15766230415E+04  0.12699999809E+01 0. -1.
</event>
<event>
 5   0  0.3764056E-07  0.3198985E+04  0.7818609E-02  0.8189085E-01
        2   -1    0    0  501    0  0.00000000000E+00  0.00000000000E+00  0.21233679822E+04  0.21233679822E+04  0.25500000920E-02 0. -1.
       -2   -1    0    0    0  501  0.00000000000E+00  0.00000000000E+00 -0.12048667718E+04  0.12048667718E+04  0.25500000920E-02 0.  1.
    10030    2    1    2    0    0  0.00000000000E+00  0.00000000000E+00  0.91850121039E+03  0.33282347539E+04  0.31989845426E+04 0.  0.
        5    1    3    3  502    0 -0.18833211534E+03 -0.22805259591E+03 -0.11761619440E+04  0.12127885144E+04  0.46999998093E+01 0.  1.
       -5    1    3    3    0  502  0.18833211534E+03  0.22805259591E+03  0.20946631544E+04  0.21154462395E+04  0.46999998093E+01 0. -1.
</event>
<event>
 5   0  0.1277374E-07  0.3200505E+04  0.7818609E-02  0.8188684E-01
        1   -1    0    0  501    0  0.00000000000E+00  0.00000000000E+00  0.13322330749E+04  0.13322330749E+04  0.50400001928E-02 0.  1.
       -1   -1    0    0    0  501  0.00000000000E+00  0.00000000000E+00 -0.19221920178E+04  0.19221920178E+04  0.50400001928E-02 0. -1.
    10030    2    1    2    0    0  0.00000000000E+00  0.00000000000E+00 -0.58995894292E+03  0.32544250927E+04  0.32005048242E+04 0.  0.
        5    1    3    3  502    0  0.14661483122E+04 -0.65678737672E+02  0.35363937592E+03  0.15096315670E+04  0.46999998093E+01 0. -1.
       -5    1    3    3    0  502 -0.14661483122E+04  0.65678737672E+02 -0.94359831884E+03  0.17447935257E+04  0.46999998093E+01 0.  1.
</event>
<event>
 5   0  0.1277374E-07  0.3179888E+04  0.7818609E-02  0.8194149E-01
        1   -1    0    0  501    0  0.00000000000E+00  0.00000000000E+00  0.12713468436E+04  0.12713468436E+04  0.50400001928E-02 0. -1.
       -1   -1    0    0    0  501  0.00000000000E+00  0.00000000000E+00 -0.19883804471E+04  0.19883804471E+04  0.50400001928E-02 0.  1.
    10030    2    1    2    0    0  0.00000000000E+00  0.00000000000E+00 -0.71703360349E+03  0.32597272907E+04  0.31798875485E+04 0.  0.
        5    1    3    3  502    0  0.32974930869E+03  0.59777812954E+03 -0.18304750547E+04  0.19536464149E+04  0.46999998093E+01 0.  1.
       -5    1    3    3    0  502 -0.32974930869E+03 -0.59777812954E+03  0.11134414512E+04  0.13060808757E+04  0.46999998093E+01 0. -1.
</event>
<event>
 5   0  0.1277374E-07  0.3214054E+04  0.7818609E-02  0.8185115E-01
        1   -1    0    0  501    0  0.00000000000E+00  0.00000000000E+00  0.27208261429E+04  0.27208261429E+04  0.50400001928E-02 0. -1.
       -1   -1    0    0    0  501  0.00000000000E+00  0.00000000000E+00 -0.94917358178E+03  0.94917358179E+03  0.50400001928E-02 0.  1.
    10030    2    1    2    0    0  0.00000000000E+00  0.00000000000E+00  0.17716525611E+04  0.36699997247E+04  0.32140543216E+04 0.  0.
        5    1    3    3  502    0  0.11905456518E+04 -0.10578901721E+04  0.11306843907E+04  0.19532024592E+04  0.46999998093E+01 0.  1.
       -5    1    3    3    0  502 -0.11905456518E+04  0.10578901721E+04  0.64096817043E+03  0.17167972655E+04  0.46999998093E+01 0. -1.
</event>
<event>
 5   0  0.1317293E-07  0.3180076E+04  0.7818609E-02  0.8194099E-01
        1   -1    0    0  501    0  0.00000000000E+00  0.00000000000E+00  0.26461810882E+04  0.26461810882E+04  0.50400001928E-02 0.  1.
       -1   -1    0    0    0  501  0.00000000000E+00  0.00000000000E+00 -0.95542250083E+03  0.95542250084E+03  0.50400001928E-02 0. -1.
    10030    2    1    2    0    0  0.00000000000E+00  0.00000000000E+00  0.16907585874E+04  0.36016035891E+04  0.31800760702E+04 0.  0.
        1    1    3    3  502    0  0.32510866995E+03  0.95191904070E+03 -0.54925960216E+03  0.11460940703E+04  0.50400001928E-02 0. -1.
       -1    1    3    3    0  502 -0.32510866995E+03 -0.95191904070E+03  0.22400181896E+04  0.24555095188E+04  0.50400001928E-02 0.  1.
</event>
<event>
 5   0  0.3942564E-07  0.3209448E+04  0.7818609E-02  0.8186326E-01
        2   -1    0    0  501    0  0.00000000000E+00  0.00000000000E+00  0.14398295454E+04  0.14398295454E+04  0.25500000920E-02 0. -1.
       -2   -1    0    0    0  501  0.00000000000E+00  0.00000000000E+00 -0.17885030002E+04  0.17885030002E+04  0.25500000920E-02 0.  1.
    10030    2    1    2    0    0  0.00000000000E+00  0.00000000000E+00 -0.34867345474E+03  0.32283325456E+04  0.32094482153E+04 0.  0.
        3    1    3    3  502    0  0.32568182458E+03  0.74289157574E+02  0.14044692123E+04  0.14436486097E+04  0.10100000352E+00 0. -1.
       -3    1    3    3    0  502 -0.32568182458E+03 -0.74289157574E+02 -0.17531426671E+04  0.17846839359E+04  0.10100000352E+00 0.  1.
</event>
<event>
 5   0  0.1288096E-07  0.3193160E+04  0.7818609E-02  0.8190626E-01
       -1   -1    0    0    0  501  0.00000000000E+00  0.00000000000E+00  0.11077177015E+04  0.11077177015E+04  0.50400001928E-02 0.  1.
        1   -1    0    0  501    0  0.00000000000E+00  0.00000000000E+00 -0.23011891424E+04  0.23011891424E+04  0.50400001928E-02 0. -1.
    10030    2    1    2    0    0  0.00000000000E+00  0.00000000000E+00 -0.11934714409E+04  0.34089068439E+04  0.31931601573E+04 0.  0.
        2    1    3    3  502    0 -0.27353267905E+03  0.12687550422E+04 -0.15893466580E+04  0.20519703416E+04  0.25500000920E-02 0. -1.
       -2    1    3    3    0  502  0.27353267905E+03 -0.12687550422E+04  0.39587521710E+03  0.13569365023E+04  0.25500000920E-02 0.  1.
</event>
<event>
 5   0  0.1270948E-07  0.3202792E+04  0.7818609E-02  0.8188080E-01
        1   -1    0    0  501    0  0.00000000000E+00  0.00000000000E+00  0.19157215466E+04  0.19157215467E+04  0.50400001928E-02 0.  1.
       -1   -1    0    0    0  501  0.00000000000E+00  0.00000000000E+00 -0.13386437731E+04  0.13386437731E+04  0.50400001928E-02 0. -1.
    10030    2    1    2    0    0  0.00000000000E+00  0.00000000000E+00  0.57707777354E+03  0.32543653198E+04  0.32027917319E+04 0.  0.
        4    1    3    3  502    0  0.15103461417E+04  0.75337684077E+02 -0.24686709010E+03  0.15322422157E+04  0.12699999809E+01 0. -1.
       -4    1    3    3    0  502 -0.15103461417E+04 -0.75337684077E+02  0.82394486364E+03  0.17221231041E+04  0.12699999809E+01 0.  1.
</event>
<event>
 5   0  0.3858721E-07  0.3201974E+04  0.7818609E-02  0.8188296E-01
        2   -1    0    0  501    0  0.00000000000E+00  0.00000000000E+00  0.21235074436E+04  0.21235074436E+04  0.25500000920E-02 0.  1.
       -2   -1    0    0    0  501  0.00000000000E+00  0.00000000000E+00 -0.12070405439E+04  0.12070405439E+04  0.25500000920E-02 0. -1.
    10030    2    1    2    0    0  0.00000000000E+00  0.00000000000E+00  0.91646689975E+03  0.33305479875E+04  0.32019741283E+04 0.  0.
        2    1    3    3  502    0 -0.41157054110E+03 -0.11399048056E+04 -0.62990260706E+03  0.13658515917E+04  0.25500000920E-02 0. -1.
       -2    1    3    3    0  502  0.41157054110E+03  0.11399048056E+04  0.15463695068E+04  0.19646963958E+04  0.25500000920E-02 0.  1.
</event>
<event>
 5   0  0.3858721E-07  0.3197684E+04  0.7818609E-02  0.8189429E-01
       -2   -1    0    0    0  501  0.00000000000E+00  0.00000000000E+00  0.13456875662E+04  0.13456875662E+04  0.25500000920E-02 0. -1.
        2   -1    0    0  501    0  0.00000000000E+00  0.00000000000E+00 -0.18996207110E+04  0.18996207110E+04  0.25500000920E-02 0.  1.
    10030    2    1    2    0    0  0.00000000000E+00  0.00000000000E+00 -0.55393314478E+03  0.32453082772E+04  0.31976841440E+04 0.  0.
        2    1    3    3  502    0 -0.87836107252E+03 -0.16222308504E+03  0.10688529448E+04  0.13929397405E+04  0.25500000920E-02 0. -1.
       -2    1    3    3    0  502  0.87836107252E+03  0.16222308504E+03 -0.16227860896E+04  0.18523685367E+04  0.25500000920E-02 0.  1.
</event>
<event>
 5   0  0.1317293E-07  0.3205884E+04  0.7818609E-02  0.8187265E-01
       -1   -1    0    0    0  501  0.00000000000E+00  0.00000000000E+00  0.16592171754E+04  0.16592171754E+04  0.50400001928E-02 0. -1.
        1   -1    0    0  501    0  0.00000000000E+00  0.00000000000E+00 -0.15485754778E+04  0.15485754778E+04  0.50400001928E-02 0.  1.
    10030    2    1    2    0    0  0.00000000000E+00  0.00000000000E+00  0.11064169765E+03  0.32077926532E+04  0.32058839843E+04 0.  0.
        1    1    3    3  502    0 -0.13419772863E+04 -0.38741578234E+03 -0.73154991898E+03  0.15767559447E+04  0.50400001928E-02 0.  1.
       -1    1    3    3    0  502  0.13419772863E+04  0.38741578234E+03  0.84219161664E+03  0.16310367085E+04  0.50400001928E-02 0. -1.
</event>
<event>
 5   0  0.3764056E-07  0.3199653E+04  0.7818609E-02  0.8188909E-01
       -2   -1    0    0    0  501  0.00000000000E+00  0.00000000000E+00  0.13857423939E+04  0.13857423939E+04  0.25500000920E-02 0.  1.
        2   -1    0    0  501    0  0.00000000000E+00  0.00000000000E+00 -0.18469848681E+04  0.18469848681E+04  0.25500000920E-02 0. -1.
    10030    2    1    2    0    0  0.00000000000E+00  0.00000000000E+00 -0.46124247412E+03  0.32327272620E+04  0.31996532516E+04 0.  0.
        5    1    3    3  502    0 -0.42664322892E+03 -0.15062997474E+04 -0.56335776989E+03  0.16638381654E+04  0.46999998093E+01 0.  1.
       -5    1    3    3    0  502  0.42664322892E+03  0.15062997474E+04  0.10211529576E+03  0.15688890966E+04  0.46999998093E+01 0. -1.
</event>
<event>
 5   0  0.1365455E-07  0.3200753E+04  0.7818609E-02  0.8188618E-01
       -1   -1    0    0    0  501  0.00000000000E+00  0.00000000000E+00  0.18529411265E+04  0.18529411265E+04  0.50400001928E-02 0.  1.
        1   -1    0    0  501    0  0.00000000000E+00  0.00000000000E+00 -0.13822377183E+04  0.13822377183E+04  0.50400001928E-02 0. -1.
    10030    2    1    2    0    0  0.00000000000E+00  0.00000000000E+00  0.47070340823E+03  0.32351788448E+04  0.32007531081E+04 0.  0.
        3    1    3    3  502    0 -0.12005049058E+04  0.91220811752E+03  0.77765705431E+03  0.16964923174E+04  0.10100000352E+00 0.  1.
       -3    1    3    3    0  502  0.12005049058E+04 -0.91220811752E+03 -0.30695364608E+03  0.15386865274E+04  0.10100000352E+00 0. -1.
</event>
<event>
 5   0  0.3830207E-07  0.3201739E+04  0.7818609E-02  0.8188358E-01
        2   -1    0    0  501    0  0.00000000000E+00  0.00000000000E+00  0.17386442956E+04  0.17386442956E+04  0.25500000920E-02 0.  1.
       -2   -1    0    0    0  501  0.00000000000E+00  0.00000000000E+00 -0.14740126950E+04  0.14740126950E+04  0.25500000920E-02 0. -1.
    10030    2    1    2    0    0  0.00000000000E+00  0.00000000000E+00  0.26463160064E+03  0.32126569906E+04  0.32017393796E+04 0.  0.
        4    1    3    3  502    0 -0.13801026821E+04  0.53356356843E+02  0.94455230654E+03  0.16732336916E+04  0.12699999809E+01 0.  1.
       -4    1    3    3    0  502  0.13801026821E+04 -0.53356356843E+02 -0.67992070590E+03  0.15394232989E+04  0.12699999809E+01 0. -1.
</event>
<event>
 5   0  0.1288096E-07  0.3197212E+04  0.7818609E-02  0.8189554E-01
       -1   -1    0    0    0  501  0.00000000000E+00  0.00000000000E+00  0.10260931735E+04  0.10260931736E+04  0.50400001928E-02 0.  1.
        1   -1    0    0  501    0  0.00000000000E+00  0.00000000000E+00 -0.24905547909E+04  0.24905547909E+04  0.50400001928E-02 0. -1.
    10030    2    1    2    0    0  0.00000000000E+00  0.00000000000E+00 -0.14644616174E+04  0.35166479645E+04  0.31972120789E+04 0.  0.
        2    1    3    3  502    0  0.54247065352E+02  0.12670330599E+04 -0.18027247119E+04  0.22041170354E+04  0.25500000920E-02 0. -1.
       -2    1    3    3    0  502 -0.54247065352E+02 -0.12670330599E+04  0.33826309446E+03  0.13125309291E+04  0.25500000920E-02 0.  1.
</event>
<event>
 5   0  0.1317293E-07  0.3197509E+04  0.7818609E-02  0.8189475E-01
        1   -1    0    0  501    0  0.00000000000E+00  0.00000000000E+00  0.22909412745E+04  0.22909412745E+04  0.50400001928E-02 0.  1.
       -1   -1    0    0    0  501  0.00000000000E+00  0.00000000000E+00 -0.11157055019E+04  0.11157055019E+04  0.50400001928E-02 0. -1.
    10030    2    1    2    0    0  0.00000000000E+00  0.00000000000E+00  0.11752357726E+04  0.34066467764E+04  0.31975088956E+04 0.  0.
        1    1    3    3  502    0 -0.27972513899E+03 -0.27518606771E+03  0.22388406450E+04  0.22729674346E+04  0.50400001928E-02 0.  1.
       -1    1    3    3    0  502  0.27972513899E+03  0.27518606771E+03 -0.10636048724E+04  0.11336793417E+04  0.50400001928E-02 0. -1.
</event>
<event>
 5   0  0.1317293E-07  0.3198080E+04  0.7818609E-02  0.8189324E-01
       -1   -1    0    0    0  501  0.00000000000E+00  0.00000000000E+00  0.19410953350E+04  0.19410953350E+04  0.50400001928E-02 0. -1.
        1   -1    0    0  501    0  0.00000000000E+00  0.00000000000E+00 -0.13172612693E+04  0.13172612693E+04  0.50400001928E-02 0.  1.
    10030    2    1    2    0    0  0.00000000000E+00  0.00000000000E+00  0.62383406572E+03  0.32583566043E+04  0.31980804898E+04 0.  0.
        1    1    3    3  502    0  0.12255196574E+04 -0.52992029372E+03 -0.58456218443E+03  0.14575413873E+04  0.50400001928E-02 0.  1.
       -1    1    3    3    0  502 -0.12255196574E+04  0.52992029372E+03  0.12083962502E+04  0.18008152170E+04  0.50400001928E-02 0. -1.
</event>
<event>
 5   0  0.1365455E-07  0.3198060E+04  0.7818609E-02  0.8189330E-01
        1   -1    0    0  501    0  0.00000000000E+00  0.00000000000E+00  0.21312076289E+04  0.21312076289E+04  0.50400001928E-02 0.  1.
       -1   -1    0    0    0  501  0.00000000000E+00  0.00000000000E+00 -0.11997410155E+04  0.11997410155E+04  0.50400001928E-02 0. -1.
    10030    2    1    2    0    0  0.00000000000E+00  0.00000000000E+00  0.93146661341E+03  0.33309486445E+04  0.31980601652E+04 0.  0.
        3    1    3    3  502    0 -0.17046587125E+03 -0.11961296629E+04  0.15566883921E+04  0.19705490464E+04  0.10100000352E+00 0.  1.
       -3    1    3    3    0  502  0.17046587125E+03  0.11961296629E+04 -0.62522177872E+03  0.13603995981E+04  0.10100000352E+00 0. -1.
</event>
<event>
 5   0  0.3830207E-07  0.3200844E+04  0.7818609E-02  0.8188594E-01
       -2   -1    0    0    0  501  0.00000000000E+00  0.00000000000E+00  0.13268813287E+04  0.13268813287E+04  0.25500000920E-02 0.  1.
        2   -1    0    0  501    0  0.00000000000E+00  0.00000000000E+00 -0.19303542517E+04  0.19303542517E+04  0.25500000920E-02 0. -1.
    10030    2    1    2    0    0  0.00000000000E+00  0.00000000000E+00 -0.60347292299E+03  0.32572355804E+04  0.32008442726E+04 0.  0.
        4    1    3    3  502    0  0.64630168716E+03  0.12568083477E+04 -0.10660183257E+04  0.17702174379E+04  0.12699999809E+01 0. -1.
       -4    1    3    3    0  502 -0.64630168716E+03 -0.12568083477E+04  0.46254540276E+03  0.14870181425E+04  0.12699999809E+01 0.  1.
</event>
<event>
 5   0  0.3750285E-07  0.3205259E+04  0.7818609E-02  0.8187430E-01
       -2   -1    0    0    0  501  0.00000000000E+00  0.00000000000E+00  0.11541084775E+04  0.11541084775E+04  0.25500000920E-02 0.  1.
        2   -1    0    0  501    0  0.00000000000E+00  0.00000000000E+00 -0.22254597843E+04  0.22254597843E+04  0.25500000920E-02 0. -1.
    10030    2    1    2    0    0  0.00000000000E+00  0.00000000000E+00 -0.10713513069E+04  0.33795682618E+04  0.32052594300E+04 0.  0.
        1    1    3    3  502    0  0.22373691980E+03  0.13153840216E+04 -0.14717203767E+04  0.19865181099E+04  0.50400001928E-02 0. -1.
       -1    1    3    3    0  502 -0.22373691980E+03 -0.13153840216E+04  0.40036906983E+03  0.13930501519E+04  0.50400001928E-02 0.  1.
</event>
<event>
 5   0  0.1288096E-07  0.3199208E+04  0.7818609E-02  0.8189026E-01
       -1   -1    0    0    0  501  0.00000000000E+00  0.00000000000E+00  0.11420187052E+04  0.11420187052E+04  0.50400001928E-02 0.  1.
        1   -1    0    0  501    0  0.00000000000E+00  0.00000000000E+00 -0.22405355056E+04  0.22405355056E+04  0.50400001928E-02 0. -1.
    10030    2    1    2    0    0  0.00000000000E+00  0.00000000000E+00 -0.10985168004E+04  0.33825542109E+04  0.31992083128E+04 0.  0.
        2    1    3    3  502    0  0.20759112434E+03 -0.12520045847E+04  0.48026161346E+03  0.13569306439E+04  0.25500000920E-02 0.  1.
       -2    1    3    3    0  502 -0.20759112434E+03  0.12520045847E+04 -0.15787784139E+04  0.20256235670E+04  0.25500000920E-02 0. -1.
</event>
<event>
 5   0  0.1288096E-07  0.3206165E+04  0.7818609E-02  0.8187191E-01
        1   -1    0    0  501    0  0.00000000000E+00  0.00000000000E+00  0.27082774452E+04  0.27082774452E+04  0.50400001928E-02 0.  1.
       -1   -1    0    0    0  501  0.00000000000E+00  0.00000000000E+00 -0.94889592027E+03  0.94889592028E+03  0.50400001928E-02 0. -1.
    10030    2    1    2    0    0  0.00000000000E+00  0.00000000000E+00  0.17593815250E+04  0.36571733655E+04  0.32061649482E+04 0.  0.
        2    1    3    3  502    0  0.80474272345E+02  0.88155719620E+03 -0.64482289828E+03  0.10951784187E+04  0.25500000920E-02 0. -1.
       -2    1    3    3    0  502 -0.80474272345E+02 -0.88155719620E+03  0.24042044232E+04  0.25619949468E+04  0.25500000920E-02 0.  1.
</event>
<event>
 5   0  0.1230450E-07  0.3198231E+04  0.7818609E-02  0.8189284E-01
        3   -1    0    0  501    0  0.00000000000E+00  0.00000000000E+00  0.15419987496E+04  0.15419987529E+04  0.10100000352E+00 0.  1.
       -3   -1    0    0    0  501  0.00000000000E+00  0.00000000000E+00 -0.16583483266E+04  0.16583483297E+04  0.10100000352E+00 0. -1.
    10030    2    1    2    0    0  0.00000000000E+00  0.00000000000E+00 -0.11634957703E+03  0.32003470826E+04  0.31982314214E+04 0.  0.
        4    1    3    3  502    0 -0.45073610038E+03  0.94568710516E+03 -0.12671471360E+04  0.16441260932E+04  0.12699999809E+01 0. -1.
       -4    1    3    3    0  502  0.45073610038E+03 -0.94568710516E+03  0.11507975590E+04  0.15562209894E+04  0.12699999809E+01 0.  1.
</event>
<event>
 5   0  0.3830207E-07  0.3205269E+04  0.7818609E-02  0.8187427E-01
       -2   -1    0    0    0  501  0.00000000000E+00  0.00000000000E+00  0.18041069570E+04  0.18041069570E+04  0.25500000920E-02 0. -1.
        2   -1    0    0  501    0  0.00000000000E+00  0.00000000000E+00 -0.14236612028E+04  0.14236612028E+04  0.25500000920E-02 0.  1.
    10030    2    1    2    0    0  0.00000000000E+00  0.00000000000E+00  0.38044575427E+03  0.32277681598E+04  0.32052688376E+04 0.  0.
        4    1    3    3  502    0  0.92398799786E+03 -0.27295836750E+02  0.15085866071E+04  0.17692750060E+04  0.12699999809E+01 0. -1.
       -4    1    3    3    0  502 -0.92398799786E+03  0.27295836750E+02 -0.11281408528E+04  0.14584931538E+04  0.12699999809E+01 0.  1.
</event>
<event>
 5   0  0.1365455E-07  0.3200299E+04  0.7818609E-02  0.8188738E-01
        1   -1    0    0  501    0  0.00000000000E+00  0.00000000000E+00  0.11964611761E+04  0.11964611761E+04  0.50400001928E-02 0.  1.
       -1   -1    0    0    0  501  0.00000000000E+00  0.00000000000E+00 -0.21400433822E+04  0.21400433822E+04  0.50400001928E-02 0. -1.
    10030    2    1    2    0    0  0.00000000000E+00  0.00000000000E+00 -0.94358220609E+03  0.33365045583E+04  0.32002992497E+04 0.  0.
        3    1    3    3  502    0 -0.73228606567E+03  0.13328471844E+04 -0.99072464687E+03  0.18150095964E+04  0.10100000352E+00 0. -1.
       -3    1    3    3    0  502  0.73228606567E+03 -0.13328471844E+04  0.47142440775E+02  0.15214949619E+04  0.10100000352E+00 0.  1.
</event>
<event>
 5   0  0.3830207E-07  0.3187664E+04  0.7818609E-02  0.8192083E-01
       -2   -1    0    0    0  501  0.00000000000E+00  0.00000000000E+00  0.10598855763E+04  0.10598855763E+04  0.25500000920E-02 0. -1.
        2   -1    0    0  501    0  0.00000000000E+00  0.00000000000E+00 -0.23967686715E+04  0.23967686715E+04  0.25500000920E-02 0.  1.
    10030    2    1    2    0    0  0.00000000000E+00  0.00000000000E+00 -0.13368830952E+04  0.34566542479E+04  0.31876640631E+04 0.  0.
        4    1    3    3  502    0  0.74421492151E+03 -0.11509551078E+04 -0.15505639832E+04  0.20694936068E+04  0.12699999809E+01 0.  1.
       -4    1    3    3    0  502 -0.74421492151E+03  0.11509551078E+04  0.21368088802E+03  0.13871606411E+04  0.12699999809E+01 0. -1.
</event>
<event>
 5   0  0.1365455E-07  0.3197653E+04  0.7818609E-02  0.8189437E-01
       -1   -1    0    0    0  501  0.00000000000E+00  0.00000000000E+00  0.14486711837E+04  0.14486711837E+04  0.50400001928E-02 0. -1.
        1   -1    0    0  501    0  0.00000000000E+00  0.00000000000E+00 -0.17645453933E+04  0.17645453933E+04  0.50400001928E-02 0.  1.
    10030    2    1    2    0    0  0.00000000000E+00  0.00000000000E+00 -0.31587420954E+03  0.32132165770E+04  0.31976529290E+04 0.  0.
        3    1    3    3  502    0 -0.92460843451E+02 -0.22361419833E+03  0.14301644364E+04  0.14504904835E+04  0.10100000352E+00 0. -1.
       -3    1    3    3    0  502  0.92460843451E+02  0.22361419833E+03 -0.17460386460E+04  0.17627260935E+04  0.10100000352E+00 0.  1.
</event>
<event>
 5   0  0.1365455E-07  0.3198350E+04  0.7818609E-02  0.8189253E-01
        1   -1    0    0  501    0  0.00000000000E+00  0.00000000000E+00  0.22534167953E+04  0.22534167953E+04  0.50400001928E-02 0. -1.
       -1   -1    0    0    0  501  0.00000000000E+00  0.00000000000E+00 -0.11348810634E+04  0.11348810634E+04  0.50400001928E-02 0.  1.
    10030    2    1    2    0    0  0.00000000000E+00  0.00000000000E+00  0.11185357319E+04  0.33882978587E+04  0.31983496050E+04 0.  0.
        3    1    3    3  502    0  0.75449201707E+03 -0.43188285930E+03 -0.86267552374E+03  0.12247408205E+04  0.10100000352E+00 0.  1.
       -3    1    3    3    0  502 -0.75449201707E+03  0.43188285930E+03  0.19812112556E+04  0.21635570382E+04  0.10100000352E+00 0. -1.
</event>
<event>
 5   0  0.3830207E-07  0.3199153E+04  0.7818609E-02  0.8189041E-01
       -2   -1    0    0    0  501  0.00000000000E+00  0.00000000000E+00  0.14541582924E+04  0.14541582924E+04  0.25500000920E-02 0.  1.
        2   -1    0    0  501    0  0.00000000000E+00  0.00000000000E+00 -0.17595370816E+04  0.17595370816E+04  0.25500000920E-02 0. -1.
    10030    2    1    2    0    0  0.00000000000E+00  0.00000000000E+00 -0.30537878918E+03  0.32136953739E+04  0.31991532867E+04 0.  0.
        4    1    3    3  502    0 -0.83964000905E+03  0.81729514271E+03 -0.12465270740E+04  0.17107887228E+04  0.12699999809E+01 0. -1.
       -4    1    3    3    0  502  0.83964000905E+03 -0.81729514271E+03  0.94114828480E+03  0.15029066511E+04  0.12699999809E+01 0.  1.
</event>
<event>
 5   0  0.3750285E-07  0.3202164E+04  0.7818609E-02  0.8188246E-01
       -2   -1    0    0    0  501  0.00000000000E+00  0.00000000000E+00  0.20890808207E+04  0.20890808207E+04  0.25500000920E-02 0. -1.
        2   -1    0    0  501    0  0.00000000000E+00  0.00000000000E+00 -0.12270769333E+04  0.12270769333E+04  0.25500000920E-02 0.  1.
    10030    2    1    2    0    0  0.00000000000E+00  0.00000000000E+00  0.86200388738E+03  0.33161577539E+04  0.32021635728E+04 0.  0.
        1    1    3    3  502    0 -0.16009579368E+04  0.18526498556E+02  0.42343851735E+03  0.16561128357E+04  0.50400001928E-02 0. -1.
       -1    1    3    3    0  502  0.16009579368E+04 -0.18526498556E+02  0.43856537003E+03  0.16600449182E+04  0.50400001928E-02 0.  1.
</event>
<event>
 5   0  0.3830207E-07  0.3185828E+04  0.7818609E-02  0.8192570E-01
       -2   -1    0    0    0  501  0.00000000000E+00  0.00000000000E+00  0.19565955856E+04  0.19565955856E+04  0.25500000920E-02 0. -1.
        2   -1    0    0  501    0  0.00000000000E+00  0.00000000000E+00 -0.12968314657E+04  0.12968314657E+04  0.25500000920E-02 0.  1.
    10030    2    1    2    0    0  0.00000000000E+00  0.00000000000E+00  0.65976411991E+03  0.32534270513E+04  0.31858278177E+04 0.  0.
        4    1    3    3  502    0 -0.43687823044E+03 -0.13619535097E+04  0.10458963465E+04  0.17719144255E+04  0.12699999809E+01 0. -1.
       -4    1    3    3    0  502  0.43687823044E+03  0.13619535097E+04 -0.38613222658E+03  0.14815126257E+04  0.12699999809E+01 0.  1.
</event>
<event>
 5   0  0.3830207E-07  0.3195960E+04  0.7818609E-02  0.8189885E-01
       -2   -1    0    0    0  501  0.00000000000E+00  0.00000000000E+00  0.27986742162E+04  0.27986742162E+04  0.25500000920E-02 0. -1.
        2   -1    0    0  501    0  0.00000000000E+00  0.00000000000E+00 -0.91241046803E+03  0.91241046804E+03  0.25500000920E-02 0.  1.
    10030    2    1    2    0    0  0.00000000000E+00  0.00000000000E+00  0.18862637482E+04  0.37110846842E+04  0.31959597316E+04 0.  0.
        4    1    3    3  502    0  0.82764433540E+03 -0.55004585228E+03  0.23962281792E+04  0.25941196359E+04  0.12699999809E+01 0. -1.
       -4    1    3    3    0  502 -0.82764433540E+03  0.55004585228E+03 -0.50996443101E+03  0.11169650484E+04  0.12699999809E+01 0.  1.
</event>
<event>
 5   0  0.1317293E-07  0.3201002E+04  0.7818609E-02  0.8188553E-01
       -1   -1    0    0    0  501  0.00000000000E+00  0.00000000000E+00  0.15081824090E+04  0.15081824091E+04  0.50400001928E-02 0. -1.
        1   -1    0    0  501    0  0.00000000000E+00  0.00000000000E+00 -0.16984702309E+04  0.16984702309E+04  0.50400001928E-02 0.  1.
    10030    2    1    2    0    0  0.00000000000E+00  0.00000000000E+00 -0.19028782189E+03  0.32066526400E+04  0.32010016711E+04 0.  0.
        1    1    3    3  502    0  0.75382369045E+03 -0.95095003858E+03  0.95027243618E+03  0.15412896662E+04  0.50400001928E-02 0. -1.
       -1    1    3    3    0  502 -0.75382369045E+03  0.95095003858E+03 -0.11405602581E+04  0.16653629738E+04  0.50400001928E-02 0.  1.
</event>
<event>
 5   0  0.1365455E-07  0.3204417E+04  0.7818609E-02  0.8187652E-01
        1   -1    0    0  501    0  0.00000000000E+00  0.00000000000E+00  0.18603915159E+04  0.18603915159E+04  0.50400001928E-02 0. -1.
       -1   -1    0    0    0  501  0.00000000000E+00  0.00000000000E+00 -0.13798557836E+04  0.13798557836E+04  0.50400001928E-02 0.  1.
    10030    2    1    2    0    0  0.00000000000E+00  0.00000000000E+00  0.48053573235E+03  0.32402472995E+04  0.32044169473E+04 0.  0.
        3    1    3    3  502    0  0.97272353850E+03 -0.80698992448E+03 -0.75544983261E+03  0.14724565462E+04  0.10100000352E+00 0.  1.
       -3    1    3    3    0  502 -0.97272353850E+03  0.80698992448E+03  0.12359855650E+04  0.17677907533E+04  0.10100000352E+00 0. -1.
</event>
<event>
 5   0  0.3858721E-07  0.3198576E+04  0.7818609E-02  0.8189193E-01
       -2   -1    0    0    0  501  0.00000000000E+00  0.00000000000E+00  0.10901126630E+04  0.10901126630E+04  0.25500000920E-02 0.  1.
        2   -1    0    0  501    0  0.00000000000E+00  0.00000000000E+00 -0.23462917092E+04  0.23462917092E+04  0.25500000920E-02 0. -1.
    10030    2    1    2    0    0  0.00000000000E+00  0.00000000000E+00 -0.12561790462E+04  0.34364043722E+04  0.31985761228E+04 0.  0.
        2    1    3    3  502    0  0.11150169222E+04 -0.10818584451E+04 -0.10358376263E+04  0.18672546747E+04  0.25500000920E-02 0. -1.
       -2    1    3    3    0  502 -0.11150169222E+04  0.10818584451E+04 -0.22034141989E+03  0.15691496976E+04  0.25500000920E-02 0.  1.
</event>
<event>
 5   0  0.1288096E-07  0.3195452E+04  0.7818609E-02  0.8190019E-01
        1   -1    0    0  501    0  0.00000000000E+00  0.00000000000E+00  0.18250404430E+04  0.18250404430E+04  0.50400001928E-02 0. -1.
       -1   -1    0    0    0  501  0.00000000000E+00  0.00000000000E+00 -0.13987242710E+04  0.13987242710E+04  0.50400001928E-02 0.  1.
    10030    2    1    2    0    0  0.00000000000E+00  0.00000000000E+00  0.42631617202E+03  0.32237647139E+04  0.31954519950E+04 0.  0.
        2    1    3    3  502    0 -0.40596237620E+03  0.49334520140E+02  0.17713457096E+04  0.18179397594E+04  0.25500000920E-02 0. -1.
       -2    1    3    3    0  502  0.40596237620E+03 -0.49334520140E+02 -0.13450295376E+04  0.14058249545E+04  0.25500000920E-02 0.  1.
</event>
<event>
 5   0  0.1270948E-07  0.3199860E+04  0.7818609E-02  0.8188854E-01
        1   -1    0    0  501    0  0.00000000000E+00  0.00000000000E+00  0.16205791450E+04  0.16205791450E+04  0.50400001928E-02 0.  1.
       -1   -1    0    0    0  501  0.00000000000E+00  0.00000000000E+00 -0.15795436427E+04  0.15795436427E+04  0.50400001928E-02 0. -1.
    10030    2    1    2    0    0  0.00000000000E+00  0.00000000000E+00  0.41035502308E+02  0.32001227876E+04  0.31998596756E+04 0.  0.
        4    1    3    3  502    0  0.76003608425E+03 -0.69574222822E+03 -0.12035362285E+04  0.15843652242E+04  0.12699999809E+01 0. -1.
       -4    1    3    3    0  502 -0.76003608425E+03  0.69574222822E+03  0.12445717309E+04  0.16157575634E+04  0.12699999809E+01 0.  1.
</event>
<event>
 5   0  0.1270948E-07  0.3200338E+04  0.7818609E-02  0.8188728E-01
       -1   -1    0    0    0  501  0.00000000000E+00  0.00000000000E+00  0.11014198703E+04  0.11014198703E+04  0.50400001928E-02 0.  1.
        1   -1    0    0  501    0  0.00000000000E+00  0.00000000000E+00 -0.23247634369E+04  0.23247634369E+04  0.50400001928E-02 0. -1.
    10030    2    1    2    0    0  0.00000000000E+00  0.00000000000E+00 -0.12233435666E+04  0.34261833072E+04  0.32003378841E+04 0.  0.
        4    1    3    3  502    0  0.48124871517E+02  0.15378194890E+04 -0.14094473148E+03  0.15450151502E+04  0.12699999809E+01 0.  1.
       -4    1    3    3    0  502 -0.48124871517E+02 -0.15378194890E+04 -0.10823988351E+04  0.18811681571E+04  0.12699999809E+01 0. -1.
</event>
<event>
 5   0  0.3858721E-07  0.3199128E+04  0.7818609E-02  0.8189048E-01
        2   -1    0    0  501    0  0.00000000000E+00  0.00000000000E+00  0.14151108335E+04  0.14151108335E+04  0.25500000920E-02 0. -1.
       -2   -1    0    0    0  501  0.00000000000E+00  0.00000000000E+00 -0.18080592564E+04  0.18080592564E+04  0.25500000920E-02 0.  1.
    10030    2    1    2    0    0  0.00000000000E+00  0.00000000000E+00 -0.39294842293E+03  0.32231700898E+04  0.31991275318E+04 0.  0.
        2    1    3    3  502    0  0.11004132859E+04 -0.95454965148E+03  0.46919523121E+03  0.15304308550E+04  0.25500000920E-02 0. -1.
       -2    1    3    3    0  502 -0.11004132859E+04  0.95454965148E+03 -0.86214365414E+03  0.16927392349E+04  0.25500000920E-02 0.  1.
</event>
<event>
 5   0  0.1317293E-07  0.3218097E+04  0.7818609E-02  0.8184054E-01
        1   -1    0    0  501    0  0.00000000000E+00  0.00000000000E+00  0.16589661368E+04  0.16589661368E+04  0.50400001928E-02 0.  1.
       -1   -1    0    0    0  501  0.00000000000E+00  0.00000000000E+00 -0.15606324653E+04  0.15606324653E+04  0.50400001928E-02 0. -1.
    10030    2    1    2    0    0  0.00000000000E+00  0.00000000000E+00  0.98333671448E+02  0.32195986021E+04  0.32180965877E+04 0.  0.
        1    1    3    3  502    0  0.13829715515E+02 -0.81646691250E+03  0.14362579325E+04  0.16521641350E+04  0.50400001928E-02 0.  1.
       -1    1    3    3    0  502 -0.13829715515E+02  0.81646691250E+03 -0.13379242611E+04  0.15674344671E+04  0.50400001928E-02 0. -1.
</event>
<event>
 5   0  0.3858721E-07  0.3192191E+04  0.7818609E-02  0.8190883E-01
        2   -1    0    0  501    0  0.00000000000E+00  0.00000000000E+00  0.24539626030E+04  0.24539626030E+04  0.25500000920E-02 0. -1.
       -2   -1    0    0    0  501  0.00000000000E+00  0.00000000000E+00 -0.10381254428E+04  0.10381254428E+04  0.25500000920E-02 0.  1.
    10030    2    1    2    0    0  0.00000000000E+00  0.00000000000E+00  0.14158371602E+04  0.34920880458E+04  0.31921911057E+04 0.  0.
        2    1    3    3  502    0 -0.82410563017E+03  0.87811962565E+03 -0.43800171081E+03  0.12814404650E+04  0.25500000920E-02 0.  1.
       -2    1    3    3    0  502  0.82410563017E+03 -0.87811962565E+03  0.18538388710E+04  0.22106475808E+04  0.25500000920E-02 0. -1.
</event>
<event>
 5   0  0.3858721E-07  0.3196403E+04  0.7818609E-02  0.8189768E-01
       -2   -1    0    0    0  501  0.00000000000E+00  0.00000000000E+00  0.14064572396E+04  0.14064572396E+04  0.25500000920E-02 0. -1.
        2   -1    0    0  501    0  0.00000000000E+00  0.00000000000E+00 -0.18160866023E+04  0.18160866023E+04  0.25500000920E-02 0.  1.
    10030    2    1    2    0    0  0.00000000000E+00  0.00000000000E+00 -0.40962936273E+03  0.32225438419E+04  0.31964030719E+04 0.  0.
        2    1    3    3  502    0  0.48752593325E+03  0.14544886456E+04  0.24721512911E+03  0.15538127544E+04  0.25500000920E-02 0. -1.
       -2    1    3    3    0  502 -0.48752593325E+03 -0.14544886456E+04 -0.65684449184E+03  0.16687310875E+04  0.25500000920E-02 0.  1.
</event>
<event>
 5   0  0.3858721E-07  0.3194422E+04  0.7818609E-02  0.8190292E-01
       -2   -1    0    0    0  501  0.00000000000E+00  0.00000000000E+00  0.13883560189E+04  0.13883560189E+04  0.25500000920E-02 0.  1.
        2   -1    0    0  501    0  0.00000000000E+00  0.00000000000E+00 -0.18374847836E+04  0.18374847836E+04  0.25500000920E-02 0. -1.
    10030    2    1    2    0    0  0.00000000000E+00  0.00000000000E+00 -0.44912876462E+03  0.32258408025E+04  0.31944220504E+04 0.  0.
        2    1    3    3  502    0  0.11247662290E+04 -0.11329859397E+04 -0.17585251482E+03  0.16061383242E+04  0.25500000920E-02 0. -1.
       -2    1    3    3    0  502 -0.11247662290E+04  0.11329859397E+04 -0.27327624980E+03  0.16197024783E+04  0.25500000920E-02 0.  1.
</event>
<event>
 5   0  0.3750285E-07  0.3205687E+04  0.7818609E-02  0.8187317E-01
        2   -1    0    0  501    0  0.00000000000E+00  0.00000000000E+00  0.25163158265E+04  0.25163158265E+04  0.25500000920E-02 0.  1.
       -2   -1    0    0    0  501  0.00000000000E+00  0.00000000000E+00 -0.10209798687E+04  0.10209798687E+04  0.25500000920E-02 0. -1.
    10030    2    1    2    0    0  0.00000000000E+00  0.00000000000E+00  0.14953359578E+04  0.35372956952E+04  0.32056873224E+04 0.  0.
        1    1    3    3  502    0 -0.14853753846E+04  0.25915946061E+03  0.13476047261E+04  0.20222616441E+04  0.50400001928E-02 0.  1.
       -1    1    3    3    0  502  0.14853753846E+04 -0.25915946061E+03  0.14773123168E+03  0.15150340511E+04  0.50400001928E-02 0. -1.
</event>
<event>
 5   0  0.1288096E-07  0.3215795E+04  0.7818609E-02  0.8184658E-01
        1   -1    0    0  501    0  0.00000000000E+00  0.00000000000E+00  0.22338692804E+04  0.22338692804E+04  0.50400001928E-02 0.  1.
       -1   -1    0    0    0  501  0.00000000000E+00  0.00000000000E+00 -0.11573345677E+04  0.11573345677E+04  0.50400001928E-02 0. -1.
    10030    2    1    2    0    0  0.00000000000E+00  0.00000000000E+00  0.10765347127E+04  0.33912038481E+04  0.32157948553E+04 0.  0.
        2    1    3    3  502    0 -0.70854113297E+03  0.12539582481E+04  0.12920224228E+04  0.19348808144E+04  0.25500000920E-02 0.  1.
       -2    1    3    3    0  502  0.70854113297E+03 -0.12539582481E+04 -0.21548771007E+03  0.14563230336E+04  0.25500000920E-02 0. -1.
</event>
<event>
 5   0  0.3830207E-07  0.3200176E+04  0.7818609E-02  0.8188771E-01
       -2   -1    0    0    0  501  0.00000000000E+00  0.00000000000E+00  0.10417831762E+04  0.10417831762E+04  0.25500000920E-02 0.  1.
        2   -1    0    0  501    0  0.00000000000E+00  0.00000000000E+00 -0.24575961118E+04  0.24575961118E+04  0.25500000920E-02 0. -1.
    10030    2    1    2    0    0  0.00000000000E+00  0.00000000000E+00 -0.14158129356E+04  0.34993792880E+04  0.32001764221E+04 0.  0.
        4    1    3    3  502    0 -0.31652870926E+03  0.12429573762E+04 -0.17539808709E+04  0.21729206086E+04  0.12699999809E+01 0.  1.
       -4    1    3    3    0  502  0.31652870926E+03 -0.12429573762E+04  0.33816793525E+03  0.13264586794E+04  0.12699999809E+01 0. -1.
</event>
<event>
 5   0  0.3764056E-07  0.3182467E+04  0.7818609E-02  0.8193463E-01
        2   -1    0    0  501    0  0.00000000000E+00  0.00000000000E+00  0.21593885295E+04  0.21593885295E+04  0.25500000920E-02 0.  1.
       -2   -1    0    0    0  501  0.00000000000E+00  0.00000000000E+00 -0.11725651292E+04  0.11725651292E+04  0.25500000920E-02 0. -1.
    10030    2    1    2    0    0  0.00000000000E+00  0.00000000000E+00  0.98682340026E+03  0.33319536588E+04  0.31824667729E+04 0.  0.
        5    1    3    3  502    0 -0.68396812542E+03  0.50762688449E+03  0.19006075846E+04  0.20827454792E+04  0.46999998093E+01 0.  1.
       -5    1    3    3    0  502  0.68396812542E+03 -0.50762688449E+03 -0.91378418432E+03  0.12492081796E+04  0.46999998093E+01 0. -1.
</event>
<event>
 5   0  0.1277374E-07  0.3199559E+04  0.7818609E-02  0.8188934E-01
        1   -1    0    0  501    0  0.00000000000E+00  0.00000000000E+00  0.14159707911E+04  0.14159707911E+04  0.50400001928E-02 0. -1.
       -1   -1    0    0    0  501  0.00000000000E+00  0.00000000000E+00 -0.18074481142E+04  0.18074481142E+04  0.50400001928E-02 0.  1.
    10030    2    1    2    0    0  0.00000000000E+00  0.00000000000E+00 -0.39147732314E+03  0.32234189053E+04  0.31995585547E+04 0.  0.
        5    1    3    3  502    0 -0.11966623891E+04  0.43630295111E+02 -0.12644829503E+04  0.17415061578E+04  0.46999998093E+01 0.  1.
       -5    1    3    3    0  502  0.11966623891E+04 -0.43630295111E+02  0.87300562721E+03  0.14819127475E+04  0.46999998093E+01 0. -1.
</event>
<event>
 5   0  0.3764056E-07  0.3197067E+04  0.7818609E-02  0.8189592E-01
        2   -1    0    0  501    0  0.00000000000E+00  0.00000000000E+00  0.23186339388E+04  0.23186339388E+04  0.25500000920E-02 0. -1.
       -2   -1    0    0    0  501  0.00000000000E+00  0.00000000000E+00 -0.11020755964E+04  0.11020755964E+04  0.25500000920E-02 0.  1.
    10030    2    1    2    0    0  0.00000000000E+00  0.00000000000E+00  0.12165583424E+04  0.34207095352E+04  0.31970673318E+04 0.  0.
        5    1    3    3  502    0  0.15011002149E+03 -0.15786246403E+04  0.82413132073E+03  0.17871215116E+04  0.46999998093E+01 0.  1.
       -5    1    3    3    0  502 -0.15011002149E+03  0.15786246403E+04  0.39242702168E+03  0.16335880236E+04  0.46999998093E+01 0. -1.
</event>
<event>
 5   0  0.1277374E-07  0.3207228E+04  0.7818609E-02  0.8186911E-01
       -1   -1    0    0    0  501  0.00000000000E+00  0.00000000000E+00  0.30159293170E+04  0.30159293170E+04  0.50400001928E-02 0. -1.
        1   -1    0    0  501    0  0.00000000000E+00  0.00000000000E+00 -0.85266528898E+03  0.85266528900E+03  0.50400001928E-02 0.  1.
    10030    2    1    2    0    0  0.00000000000E+00  0.00000000000E+00  0.21632640280E+04  0.38685946060E+04  0.32072282380E+04 0.  0.
        5    1    3    3  502    0  0.10392287238E+04 -0.11846400733E+04  0.14398335015E+04  0.21345985678E+04  0.46999998093E+01 0.  1.
       -5    1    3    3    0  502 -0.10392287238E+04  0.11846400733E+04  0.72343052657E+03  0.17339960382E+04  0.46999998093E+01 0. -1.
</event>
<event>
 5   0  0.3764056E-07  0.3176083E+04  0.7818609E-02  0.8195162E-01
        2   -1    0    0  501    0  0.00000000000E+00  0.00000000000E+00  0.17267509842E+04  0.17267509842E+04  0.25500000920E-02 0. -1.
       -2   -1    0    0    0  501  0.00000000000E+00  0.00000000000E+00 -0.14604746009E+04  0.14604746009E+04  0.25500000920E-02 0.  1.
    10030    2    1    2    0    0  0.00000000000E+00  0.00000000000E+00  0.26627638334E+03  0.31872255851E+04  0.31760830936E+04 0.  0.
        5    1    3    3  502    0 -0.68158337150E+03 -0.81565650488E+03 -0.10508324811E+04  0.14946981032E+04  0.46999998093E+01 0.  1.
       -5    1    3    3    0  502  0.68158337150E+03  0.81565650488E+03  0.13171088644E+04  0.16925274819E+04  0.46999998093E+01 0. -1.
</event>
<event>
 5   0  0.3858721E-07  0.3192133E+04  0.7818609E-02  0.8190898E-01
        2   -1    0    0  501    0  0.00000000000E+00  0.00000000000E+00  0.12816348660E+04  0.12816348660E+04  0.25500000920E-02 0.  1.
       -2   -1    0    0    0  501  0.00000000000E+00  0.00000000000E+00 -0.19876394345E+04  0.19876394345E+04  0.25500000920E-02 0. -1.
    10030    2    1    2    0    0  0.00000000000E+00  0.00000000000E+00 -0.70600456853E+03  0.32692743004E+04  0.31921328294E+04 0.  0.
        2    1    3    3  502    0 -0.17151184945E+03 -0.10693373235E+04  0.84773340279E+03  0.13753365218E+04  0.25500000920E-02 0.  1.
       -2    1    3    3    0  502  0.17151184945E+03  0.10693373235E+04 -0.15537379713E+04  0.18939377787E+04  0.25500000920E-02 0. -1.
</event>
<event>
 5   0  0.1317293E-07  0.3195598E+04  0.7818609E-02  0.8189981E-01
        1   -1    0    0  501    0  0.00000000000E+00  0.00000000000E+00  0.10608440033E+04  0.10608440033E+04  0.50400001928E-02 0. -1.
       -1   -1    0    0    0  501  0.00000000000E+00  0.00000000000E+00 -0.24065380533E+04  0.24065380533E+04  0.50400001928E-02 0.  1.
    10030    2    1    2    0    0  0.00000000000E+00  0.00000000000E+00 -0.13456940500E+04  0.34673820567E+04  0.31955978863E+04 0.  0.
        1    1    3    3  502    0 -0.15252717803E+03 -0.12949069598E+04 -0.16749259090E+04  0.21225987316E+04  0.50400001928E-02 0.  1.
       -1    1    3    3    0  502  0.15252717803E+03  0.12949069598E+04  0.32923185899E+03  0.13447833251E+04  0.50400001928E-02 0. -1.
</event>
<event>
 5   0  0.1365455E-07  0.3199691E+04  0.7818609E-02  0.8188899E-01
       -1   -1    0    0    0  501  0.00000000000E+00  0.00000000000E+00  0.16582438522E+04  0.16582438522E+04  0.50400001928E-02 0.  1.
        1   -1    0    0  501    0  0.00000000000E+00  0.00000000000E+00 -0.15435039439E+04  0.15435039439E+04  0.50400001928E-02 0. -1.
    10030    2    1    2    0    0  0.00000000000E+00  0.00000000000E+00  0.11473990831E+03  0.32017477961E+04  0.31996911888E+04 0.  0.
        3    1    3    3  502    0  0.11349224393E+04  0.55227506731E+03  0.10410833248E+04  0.16361268877E+04  0.10100000352E+00 0.  1.
       -3    1    3    3    0  502 -0.11349224393E+04 -0.55227506731E+03 -0.92634341652E+03  0.15656209084E+04  0.10100000352E+00 0. -1.
</event>
<event>
 5   0  0.3830207E-07  0.3202319E+04  0.7818609E-02  0.8188205E-01
       -2   -1    0    0    0  501  0.00000000000E+00  0.00000000000E+00  0.16844048384E+04  0.16844048384E+04  0.25500000920E-02 0. -1.
        2   -1    0    0  501    0  0.00000000000E+00  0.00000000000E+00 -0.15220281433E+04  0.15220281433E+04  0.25500000920E-02 0.  1.
    10030    2    1    2    0    0  0.00000000000E+00  0.00000000000E+00  0.16237669510E+03  0.32064329816E+04  0.32023188902E+04 0.  0.
        4    1    3    3  502    0 -0.27801468335E+03  0.14686461782E+04  0.65594339205E+03  0.16323226113E+04  0.12699999809E+01 0. -1.
       -4    1    3    3    0  502  0.27801468335E+03 -0.14686461782E+04 -0.49356669695E+03  0.15741103703E+04  0.12699999809E+01 0.  1.
</event>
<event>
 5   0  0.3830207E-07  0.3200117E+04  0.7818609E-02  0.8188786E-01
       -2   -1    0    0    0  501  0.00000000000E+00  0.00000000000E+00  0.15738218169E+04  0.15738218169E+04  0.25500000920E-02 0. -1.
        2   -1    0    0  501    0  0.00000000000E+00  0.00000000000E+00 -0.16267329647E+04  0.16267329647E+04  0.25500000920E-02 0.  1.
    10030    2    1    2    0    0  0.00000000000E+00  0.00000000000E+00 -0.52911147823E+02  0.32005547816E+04  0.32001173917E+04 0.  0.
        4    1    3    3  502    0  0.11769732814E+04 -0.71748725795E+03  0.78614064310E+03  0.15868436577E+04  0.12699999809E+01 0. -1.
       -4    1    3    3    0  502 -0.11769732814E+04  0.71748725795E+03 -0.83905179093E+03  0.16137111239E+04  0.12699999809E+01 0.  1.
</event>
<event>
 5   0  0.3750285E-07  0.3249866E+04  0.7818609E-02  0.8175771E-01
        2   -1    0    0  501    0  0.00000000000E+00  0.00000000000E+00  0.27494880248E+04  0.27494880248E+04  0.25500000920E-02 0. -1.
       -2   -1    0    0    0  501  0.00000000000E+00  0.00000000000E+00 -0.96032665228E+03  0.96032665228E+03  0.25500000920E-02 0.  1.
    10030    2    1    2    0    0  0.00000000000E+00  0.00000000000E+00  0.17891613725E+04  0.37098146771E+04  0.32498656159E+04 0.  0.
        1    1    3    3  502    0 -0.14776877552E+04  0.81775765729E+02  0.16604760141E+04  0.22242816753E+04  0.50400001928E-02 0. -1.
       -1    1    3    3    0  502  0.14776877552E+04 -0.81775765729E+02  0.12868535847E+03  0.14855330018E+04  0.50400001928E-02 0.  1.
</event>
<event>
 5   0  0.3764056E-07  0.3197822E+04  0.7818609E-02  0.8189393E-01
        2   -1    0    0  501    0  0.00000000000E+00  0.00000000000E+00  0.28041173494E+04  0.28041173494E+04  0.25500000920E-02 0.  1.
       -2   -1    0    0    0  501  0.00000000000E+00  0.00000000000E+00 -0.91170073704E+03  0.91170073704E+03  0.25500000920E-02 0. -1.
    10030    2    1    2    0    0  0.00000000000E+00  0.00000000000E+00  0.18924166124E+04  0.37158180865E+04  0.31978216675E+04 0.  0.
        5    1    3    3  502    0 -0.24255215885E+03 -0.37646882779E+03  0.27297436144E+04  0.27662397977E+04  0.46999998093E+01 0.  1.
       -5    1    3    3    0  502  0.24255215885E+03  0.37646882779E+03 -0.83732700205E+03  0.94957828873E+03  0.46999998093E+01 0. -1.
</event>
<event>
 5   0  0.1365455E-07  0.3203306E+04  0.7818609E-02  0.8187945E-01
       -1   -1    0    0    0  501  0.00000000000E+00  0.00000000000E+00  0.18149490869E+04  0.18149490869E+04  0.50400001928E-02 0. -1.
        1   -1    0    0  501    0  0.00000000000E+00  0.00000000000E+00 -0.14134236135E+04  0.14134236135E+04  0.50400001928E-02 0.  1.
    10030    2    1    2    0    0  0.00000000000E+00  0.00000000000E+00  0.40152547338E+03  0.32283727004E+04  0.32033057280E+04 0.  0.
        3    1    3    3  502    0  0.31726484472E+03 -0.25989069077E+03 -0.13596073033E+04  0.14201169607E+04  0.10100000352E+00 0.  1.
       -3    1    3    3    0  502 -0.31726484472E+03  0.25989069077E+03  0.17611327767E+04  0.18082557397E+04  0.10100000352E+00 0. -1.
</event>
<event>
 5   0  0.1317293E-07  0.3197276E+04  0.7818609E-02  0.8189537E-01
        1   -1    0    0  501    0  0.00000000000E+00  0.00000000000E+00  0.18770191844E+04  0.18770191844E+04  0.50400001928E-02 0. -1.
       -1   -1    0    0    0  501  0.00000000000E+00  0.00000000000E+00 -0.13615431986E+04  0.13615431986E+04  0.50400001928E-02 0.  1.
    10030    2    1    2    0    0  0.00000000000E+00  0.00000000000E+00  0.51547598582E+03  0.32385623831E+04  0.31972755303E+04 0.  0.
        1    1    3    3  502    0 -0.14481745285E+04  0.19284466320E+03 -0.39967632357E+03  0.15146417705E+04  0.50400001928E-02 0.  1.
       -1    1    3    3    0  502  0.14481745285E+04 -0.19284466320E+03  0.91515230938E+03  0.17239206126E+04  0.50400001928E-02 0. -1.
</event>
<event>
 5   0  0.3858721E-07  0.3201464E+04  0.7818609E-02  0.8188431E-01
       -2   -1    0    0    0  501  0.00000000000E+00  0.00000000000E+00  0.10115754876E+04  0.10115754876E+04  0.25500000920E-02 0. -1.
        2   -1    0    0  501    0  0.00000000000E+00  0.00000000000E+00 -0.25330218785E+04  0.25330218785E+04  0.25500000920E-02 0.  1.
    10030    2    1    2    0    0  0.00000000000E+00  0.00000000000E+00 -0.15214463910E+04  0.35445973661E+04  0.32014639413E+04 0.  0.
        2    1    3    3  502    0 -0.11657300061E+04  0.36434470042E+03 -0.19063574161E+04  0.22640388922E+04  0.25500000920E-02 0.  1.
       -2    1    3    3    0  502  0.11657300061E+04 -0.36434470042E+03  0.38491102511E+03  0.12805584739E+04  0.25500000920E-02 0. -1.
</event>
<event>
 5   0  0.1277374E-07  0.3194522E+04  0.7818609E-02  0.8190265E-01
       -1   -1    0    0    0  501  0.00000000000E+00  0.00000000000E+00  0.14859615964E+04  0.14859615964E+04  0.50400001928E-02 0.  1.
        1   -1    0    0  501    0  0.00000000000E+00  0.00000000000E+00 -0.17168969786E+04  0.17168969786E+04  0.50400001928E-02 0. -1.
    10030    2    1    2    0    0  0.00000000000E+00  0.00000000000E+00 -0.23093538219E+03  0.32028585750E+04  0.31945221710E+04 0.  0.
        5    1    3    3  502    0 -0.66601973049E+03  0.97353522945E+03 -0.11952497182E+04  0.16792846999E+04  0.46999998093E+01 0. -1.
       -5    1    3    3    0  502  0.66601973049E+03 -0.97353522945E+03  0.96431433601E+03  0.15235738751E+04  0.46999998093E+01 0.  1.
</event>
<event>
 5   0  0.1365455E-07  0.3210211E+04  0.7818609E-02  0.8186126E-01
        1   -1    0    0  501    0  0.00000000000E+00  0.00000000000E+00  0.25512859929E+04  0.25512859929E+04  0.50400001928E-02 0.  1.
       -1   -1    0    0    0  501  0.00000000000E+00  0.00000000000E+00 -0.10098291219E+04  0.10098291219E+04  0.50400001928E-02 0. -1.
    10030    2    1    2    0    0  0.00000000000E+00  0.00000000000E+00  0.15414568710E+04  0.35611151148E+04  0.32102105189E+04 0.  0.
        3    1    3    3  502    0  0.12616493478E+04  0.12578139415E+03  0.18625853275E+04  0.22531764574E+04  0.10100000352E+00 0.  1.
       -3    1    3    3    0  502 -0.12616493478E+04 -0.12578139415E+03 -0.32112845644E+03  0.13079386574E+04  0.10100000352E+00 0. -1.
</event>
<event>
 5   0  0.1288096E-07  0.3206015E+04  0.7818609E-02  0.8187231E-01
       -1   -1    0    0    0  501  0.00000000000E+00  0.00000000000E+00  0.15421865265E+04  0.15421865265E+04  0.50400001928E-02 0. -1.
        1   -1    0    0  501    0  0.00000000000E+00  0.00000000000E+00 -0.16662268023E+04  0.16662268023E+04  0.50400001928E-02 0.  1.
    10030    2    1    2    0    0  0.00000000000E+00  0.00000000000E+00 -0.12404027585E+03  0.32084133288E+04  0.32060146753E+04 0.  0.
        2    1    3    3  502    0  0.77036168077E+03  0.49196128509E+03 -0.13798764873E+04  0.16551562299E+04  0.25500000920E-02 0.  1.
       -2    1    3    3    0  502 -0.77036168077E+03 -0.49196128509E+03  0.12558362114E+04  0.15532570989E+04  0.25500000920E-02 0. -1.
</event>
<event>
 5   0  0.3858721E-07  0.3199318E+04  0.7818609E-02  0.8188997E-01
        2   -1    0    0  501    0  0.00000000000E+00  0.00000000000E+00  0.90054991165E+03  0.90054991165E+03  0.25500000920E-02 0.  1.
       -2   -1    0    0    0  501  0.00000000000E+00  0.00000000000E+00 -0.28414959980E+04  0.28414959980E+04  0.25500000920E-02 0. -1.
    10030    2    1    2    0    0  0.00000000000E+00  0.00000000000E+00 -0.19409460863E+04  0.37420459096E+04  0.31993180335E+04 0.  0.
        2    1    3    3  502    0  0.12534100559E+04 -0.85862459895E+03 -0.38491031898E+03  0.15672998832E+04  0.25500000920E-02 0. -1.
       -2    1    3    3    0  502 -0.12534100559E+04  0.85862459895E+03 -0.15560357673E+04  0.21747460264E+04  0.25500000920E-02 0.  1.
</event>
<event>
 5   0  0.3942564E-07  0.3217791E+04  0.7818609E-02  0.8184134E-01
       -2   -1    0    0    0  501  0.00000000000E+00  0.00000000000E+00  0.17133051863E+04  0.17133051863E+04  0.25500000920E-02 0. -1.
        2   -1    0    0  501    0  0.00000000000E+00  0.00000000000E+00 -0.15108486347E+04  0.15108486347E+04  0.25500000920E-02 0.  1.
    10030    2    1    2    0    0  0.00000000000E+00  0.00000000000E+00  0.20245655165E+03  0.32241538210E+04  0.32177910445E+04 0.  0.
        3    1    3    3  502    0 -0.65949502256E+03 -0.14669146643E+04  0.14341228717E+03  0.16147258007E+04  0.10100000352E+00 0.  1.
       -3    1    3    3    0  502  0.65949502256E+03  0.14669146643E+04  0.59044264487E+02  0.16094280203E+04  0.10100000352E+00 0. -1.
</event>
<event>
 5   0  0.1277374E-07  0.3194951E+04  0.7818609E-02  0.8190152E-01
        1   -1    0    0  501    0  0.00000000000E+00  0.00000000000E+00  0.27561841041E+04  0.27561841041E+04  0.50400001928E-02 0. -1.
       -1   -1    0    0    0  501  0.00000000000E+00  0.00000000000E+00 -0.92589169034E+03  0.92589169035E+03  0.50400001928E-02 0.  1.
    10030    2    1    2    0    0  0.00000000000E+00  0.00000000000E+00  0.18302924138E+04  0.36820757945E+04  0.31949509912E+04 0.  0.
        5    1    3    3  502    0  0.77774984798E+03 -0.60798090973E+03 -0.53227638526E+03  0.11215506466E+04  0.46999998093E+01 0.  1.
       -5    1    3    3    0  502 -0.77774984798E+03  0.60798090973E+03  0.23625687991E+04  0.25605251479E+04  0.46999998093E+01 0. -1.
</event>
<event>
 5   0  0.1317293E-07  0.3199289E+04  0.7818609E-02  0.8189005E-01
        1   -1    0    0  501    0  0.00000000000E+00  0.00000000000E+00  0.26397353682E+04  0.26397353682E+04  0.50400001928E-02 0.  1.
       -1   -1    0    0    0  501  0.00000000000E+00  0.00000000000E+00 -0.96936307767E+03  0.96936307768E+03  0.50400001928E-02 0. -1.
    10030    2    1    2    0    0  0.00000000000E+00  0.00000000000E+00  0.16703722906E+04  0.36090984459E+04  0.31992886714E+04 0.  0.
        1    1    3    3  502    0 -0.35273216072E+03  0.42803932778E+03  0.25277875223E+04  0.25879233762E+04  0.50400001928E-02 0.  1.
       -1    1    3    3    0  502  0.35273216072E+03 -0.42803932778E+03 -0.85741523173E+03  0.10211750697E+04  0.50400001928E-02 0. -1.
</event>
<event>
 5   0  0.1277374E-07  0.3186487E+04  0.7818609E-02  0.8192395E-01
        1   -1    0    0  501    0  0.00000000000E+00  0.00000000000E+00  0.99816764479E+03  0.99816764480E+03  0.50400001928E-02 0.  1.
       -1   -1    0    0    0  501  0.00000000000E+00  0.00000000000E+00 -0.25430853270E+04  0.25430853270E+04  0.50400001928E-02 0. -1.
    10030    2    1    2    0    0  0.00000000000E+00  0.00000000000E+00 -0.15449176822E+04  0.35412529718E+04  0.31864874024E+04 0.  0.
        5    1    3    3  502    0 -0.53030314303E+03 -0.14887855718E+04 -0.54825694634E+03  0.16728154923E+04  0.46999998093E+01 0.  1.
       -5    1    3    3    0  502  0.53030314303E+03  0.14887855718E+04 -0.99666073588E+03  0.18684374795E+04  0.46999998093E+01 0. -1.
</event>
<event>
 5   0  0.3764056E-07  0.3190657E+04  0.7818609E-02  0.8191289E-01
       -2   -1    0    0    0  501  0.00000000000E+00  0.00000000000E+00  0.13473163245E+04  0.13473163245E+04  0.25500000920E-02 0.  1.
        2   -1    0    0  501    0  0.00000000000E+00  0.00000000000E+00 -0.18889948804E+04  0.18889948804E+04  0.25500000920E-02 0. -1.
    10030    2    1    2    0    0  0.00000000000E+00  0.00000000000E+00 -0.54167855589E+03  0.32363112048E+04  0.31906573863E+04 0.  0.
        5    1    3    3  502    0  0.64844350472E+02 -0.12671433721E+04  0.71005242609E+03  0.14539785601E+04  0.46999998093E+01 0.  1.
       -5    1    3    3    0  502 -0.64844350472E+02  0.12671433721E+04 -0.12517309820E+04  0.17823326448E+04  0.46999998093E+01 0. -1.
</event>
<event>
 5   0  0.3858721E-07  0.3208136E+04  0.7818609E-02  0.8186672E-01
        2   -1    0    0  501    0  0.00000000000E+00  0.00000000000E+00  0.31065527015E+04  0.31065527015E+04  0.25500000920E-02 0.  1.
       -2   -1    0    0    0  501  0.00000000000E+00  0.00000000000E+00 -0.82826016110E+03  0.82826016110E+03  0.25500000920E-02 0. -1.
    10030    2    1    2    0    0  0.00000000000E+00  0.00000000000E+00  0.22782925404E+04  0.39348128626E+04  0.32081358082E+04 0.  0.
        2    1    3    3  502    0  0.58600193363E+03 -0.92697821630E+03 -0.29662946093E+03  0.11360791860E+04  0.25500000920E-02 0. -1.
       -2    1    3    3    0  502 -0.58600193363E+03  0.92697821630E+03  0.25749220014E+04  0.27987336766E+04  0.25500000920E-02 0.  1.
</event>
<event>
 5   0  0.3858721E-07  0.3207482E+04  0.7818609E-02  0.8186844E-01
        2   -1    0    0  501    0  0.00000000000E+00  0.00000000000E+00  0.23543135012E+04  0.23543135012E+04  0.25500000920E-02 0. -1.
       -2   -1    0    0    0  501  0.00000000000E+00  0.00000000000E+00 -0.10924566934E+04  0.10924566934E+04  0.25500000920E-02 0.  1.
    10030    2    1    2    0    0  0.00000000000E+00  0.00000000000E+00  0.12618568079E+04  0.34467701946E+04  0.32074822168E+04 0.  0.
        2    1    3    3  502    0  0.15431317964E+04 -0.27468541728E+03  0.99578379410E+03  0.18569580459E+04  0.25500000920E-02 0.  1.
       -2    1    3    3    0  502 -0.15431317964E+04  0.27468541728E+03  0.26607301378E+03  0.15898121487E+04  0.25500000920E-02 0. -1.
</event>
<event>
 5   0  0.3764056E-07  0.3197852E+04  0.7818609E-02  0.8189385E-01
       -2   -1    0    0    0  501  0.00000000000E+00  0.00000000000E+00  0.12853171763E+04  0.12853171763E+04  0.25500000920E-02 0. -1.
        2   -1    0    0  501    0  0.00000000000E+00  0.00000000000E+00 -0.19890528764E+04  0.19890528764E+04  0.25500000920E-02 0.  1.
    10030    2    1    2    0    0  0.00000000000E+00  0.00000000000E+00 -0.70373570012E+03  0.32743700528E+04  0.31978516705E+04 0.  0.
        5    1    3    3  502    0 -0.13165968359E+04 -0.14041392310E+03 -0.12696401289E+04  0.18344349116E+04  0.46999998093E+01 0.  1.
       -5    1    3    3    0  502  0.13165968359E+04  0.14041392310E+03  0.56590442878E+03  0.14399351411E+04  0.46999998093E+01 0. -1.
</event>
<event>
 5   0  0.3750285E-07  0.3209756E+04  0.7818609E-02  0.8186245E-01
        2   -1    0    0  501    0  0.00000000000E+00  0.00000000000E+00  0.29793180892E+04  0.29793180892E+04  0.25500000920E-02 0. -1.
       -2   -1    0    0    0  501  0.00000000000E+00  0.00000000000E+00 -0.86450449706E+03  0.86450449706E+03  0.25500000920E-02 0.  1.
    10030    2    1    2    0    0  0.00000000000E+00  0.00000000000E+00  0.21148135922E+04  0.38438225863E+04  0.32097563062E+04 0.  0.
        1    1    3    3  502    0 -0.20954547726E+02 -0.16917245042E+03 -0.85363220217E+03  0.87048627080E+03  0.50400001928E-02 0.  1.
       -1    1    3    3    0  502  0.20954547726E+02  0.16917245042E+03  0.29684457943E+04  0.29733363155E+04  0.50400001928E-02 0. -1.
</event>
<event>
 5   0  0.3858721E-07  0.3197857E+04  0.7818609E-02  0.8189383E-01
        2   -1    0    0  501    0  0.00000000000E+00  0.00000000000E+00  0.23461166711E+04  0.23461166711E+04  0.25500000920E-02 0.  1.
       -2   -1    0    0    0  501  0.00000000000E+00  0.00000000000E+00 -0.10897035298E+04  0.10897035298E+04  0.25500000920E-02 0. -1.
    10030    2    1    2    0    0  0.00000000000E+00  0.00000000000E+00  0.12564131413E+04  0.34358202010E+04  0.31978565433E+04 0.  0.
        2    1    3    3  502    0  0.60927983142E+03 -0.38104963197E+03  0.21628327243E+04  0.22790932689E+04  0.25500000920E-02 0.  1.
       -2    1    3    3    0  502 -0.60927983142E+03  0.38104963197E+03 -0.90641958298E+03  0.11567269321E+04  0.25500000920E-02 0. -1.
</event>
<event>
 5   0  0.3750285E-07  0.3197974E+04  0.7818609E-02  0.8189352E-01
       -2   -1    0    0    0  501  0.00000000000E+00  0.00000000000E+00  0.15251074093E+04  0.15251074093E+04  0.25500000920E-02 0. -1.
        2   -1    0    0  501    0  0.00000000000E+00  0.00000000000E+00 -0.16764452607E+04  0.16764452607E+04  0.25500000920E-02 0.  1.
    10030    2    1    2    0    0  0.00000000000E+00  0.00000000000E+00 -0.15133785138E+03  0.32015526700E+04  0.31979737887E+04 0.  0.
        1    1    3    3  502    0 -0.42993850516E+03  0.86742088455E+01  0.14661314461E+04  0.15278952115E+04  0.50400001928E-02 0. -1.
       -1    1    3    3    0  502  0.42993850516E+03 -0.86742088455E+01 -0.16174692975E+04  0.16736574585E+04  0.50400001928E-02 0.  1.
</event>
<event>
 5   0  0.1270948E-07  0.3202258E+04  0.7818609E-02  0.8188221E-01
        1   -1    0    0  501    0  0.00000000000E+00  0.00000000000E+00  0.20488712540E+04  0.20488712540E+04  0.50400001928E-02 0.  1.
       -1   -1    0    0    0  501  0.00000000000E+00  0.00000000000E+00 -0.12512326847E+04  0.12512326847E+04  0.50400001928E-02 0. -1.
    10030    2    1    2    0    0  0.00000000000E+00  0.00000000000E+00  0.79763856932E+03  0.33001039387E+04  0.32022583780E+04 0.  0.
        4    1    3    3  502    0  0.13516463937E+04  0.62446512809E+03 -0.20799169167E+03  0.15033851225E+04  0.12699999809E+01 0.  1.
       -4    1    3    3    0  502 -0.13516463937E+04 -0.62446512809E+03  0.10056302610E+04  0.17967188162E+04  0.12699999809E+01 0. -1.
</event>
<event>
 5   0  0.1270948E-07  0.3210966E+04  0.7818609E-02  0.8185927E-01
        1   -1    0    0  501    0  0.00000000000E+00  0.00000000000E+00  0.34956537758E+04  0.34956537758E+04  0.50400001928E-02 0. -1.
       -1   -1    0    0    0  501  0.00000000000E+00  0.00000000000E+00 -0.73736561690E+03  0.73736561692E+03  0.50400001928E-02 0.  1.
    10030    2    1    2    0    0  0.00000000000E+00  0.00000000000E+00  0.27582881589E+04  0.42330193927E+04  0.32109655264E+04 0.  0.
        4    1    3    3  502    0  0.17766778735E+03  0.69341912805E+03  0.32736383356E+04  0.33509857497E+04  0.12699999809E+01 0. -1.
       -4    1    3    3    0  502 -0.17766778735E+03 -0.69341912805E+03 -0.51535017670E+03  0.88203364297E+03  0.12699999809E+01 0.  1.
</event>
<event>
 5   0  0.1270948E-07  0.3200719E+04  0.7818609E-02  0.8188627E-01
        1   -1    0    0  501    0  0.00000000000E+00  0.00000000000E+00  0.16076128327E+04  0.16076128327E+04  0.50400001928E-02 0.  1.
       -1   -1    0    0    0  501  0.00000000000E+00  0.00000000000E+00 -0.15931387858E+04  0.15931387858E+04  0.50400001928E-02 0. -1.
    10030    2    1    2    0    0  0.00000000000E+00  0.00000000000E+00  0.14474046853E+02  0.32007516185E+04  0.32007188920E+04 0.  0.
        4    1    3    3  502    0  0.15257041570E+04 -0.40122547951E+03 -0.26182647072E+03  0.15991590833E+04  0.12699999809E+01 0.  1.
       -4    1    3    3    0  502 -0.15257041570E+04  0.40122547951E+03  0.27630051758E+03  0.16015925352E+04  0.12699999809E+01 0. -1.
</event>
<event>
 5   0  0.3830207E-07  0.3198830E+04  0.7818609E-02  0.8189126E-01
        2   -1    0    0  501    0  0.00000000000E+00  0.00000000000E+00  0.18286581935E+04  0.18286581935E+04  0.25500000920E-02 0. -1.
       -2   -1    0    0    0  501  0.00000000000E+00  0.00000000000E+00 -0.13989099309E+04  0.13989099309E+04  0.25500000920E-02 0.  1.
    10030    2    1    2    0    0  0.00000000000E+00  0.00000000000E+00  0.42974826265E+03  0.32275681244E+04  0.31988298530E+04 0.  0.
        4    1    3    3  502    0 -0.98493923627E+03  0.14518659090E+03 -0.10481473725E+04  0.14456137011E+04  0.12699999809E+01 0.  1.
       -4    1    3    3    0  502  0.98493923627E+03 -0.14518659090E+03  0.14778956352E+04  0.17819544233E+04  0.12699999809E+01 0. -1.
</event>
<event>
 5   0  0.1277374E-07  0.3198826E+04  0.7818609E-02  0.8189127E-01
        1   -1    0    0  501    0  0.00000000000E+00  0.00000000000E+00  0.23008468897E+04  0.23008468897E+04  0.50400001928E-02 0. -1.
       -1   -1    0    0    0  501  0.00000000000E+00  0.00000000000E+00 -0.11118178088E+04  0.11118178088E+04  0.50400001928E-02 0.  1.
    10030    2    1    2    0    0  0.00000000000E+00  0.00000000000E+00  0.11890290809E+04  0.34126646986E+04  0.31988263769E+04 0.  0.
        5    1    3    3  502    0 -0.68420965177E+03 -0.19397192977E+03 -0.93384950653E+03  0.11738249222E+04  0.46999998093E+01 0.  1.
       -5    1    3    3    0  502  0.68420965177E+03  0.19397192977E+03  0.21228785875E+04  0.22388397764E+04  0.46999998093E+01 0. -1.
</event>
<event>
 5   0  0.1288096E-07  0.3188384E+04  0.7818609E-02  0.8191892E-01
        1   -1    0    0  501    0  0.00000000000E+00  0.00000000000E+00  0.22128964582E+04  0.22128964582E+04  0.50400001928E-02 0.  1.
       -1   -1    0    0    0  501  0.00000000000E+00  0.00000000000E+00 -0.11484715282E+04  0.11484715282E+04  0.50400001928E-02 0. -1.
    10030    2    1    2    0    0  0.00000000000E+00  0.00000000000E+00  0.10644249300E+04  0.33613679864E+04  0.31883842786E+04 0.  0.
        2    1    3    3  502    0  0.48254278205E+03  0.35388886980E+03  0.20900007881E+04  0.21739797982E+04  0.25500000920E-02 0.  1.
       -2    1    3    3    0  502 -0.48254278205E+03 -0.35388886980E+03 -0.10255758581E+04  0.11873881882E+04  0.25500000920E-02 0. -1.
</event>
<event>
 5   0  0.1270948E-07  0.3202256E+04  0.7818609E-02  0.8188222E-01
        1   -1    0    0  501    0  0.00000000000E+00  0.00000000000E+00  0.84226644574E+03  0.84226644576E+03  0.50400001928E-02 0. -1.
       -1   -1    0    0    0  501  0.00000000000E+00  0.00000000000E+00 -0.30437044448E+04  0.30437044448E+04  0.50400001928E-02 0.  1.
    10030    2    1    2    0    0  0.00000000000E+00  0.00000000000E+00 -0.22014379991E+04  0.38859708906E+04  0.32022555330E+04 0.  0.
        4    1    3    3  502    0  0.68302132505E+03  0.64868613988E+02 -0.28562802074E+04  0.29375269026E+04  0.12699999809E+01 0.  1.
       -4    1    3    3    0  502 -0.68302132505E+03 -0.64868613988E+02  0.65484220833E+03  0.94844398794E+03  0.12699999809E+01 0. -1.
</event>
<event>
 5   0  0.1270948E-07  0.3199823E+04  0.7818609E-02  0.8188864E-01
        1   -1    0    0  501    0  0.00000000000E+00  0.00000000000E+00  0.19705368721E+04  0.19705368721E+04  0.50400001928E-02 0. -1.
       -1   -1    0    0    0  501  0.00000000000E+00  0.00000000000E+00 -0.12989943455E+04  0.12989943456E+04  0.50400001928E-02 0.  1.
    10030    2    1    2    0    0  0.00000000000E+00  0.00000000000E+00  0.67154252658E+03  0.32695312177E+04  0.31998226542E+04 0.  0.
        4    1    3    3  502    0  0.11815870250E+03 -0.67709369327E+03 -0.11404509449E+04  0.13315582297E+04  0.12699999809E+01 0.  1.
       -4    1    3    3    0  502 -0.11815870250E+03  0.67709369327E+03  0.18119934715E+04  0.19379729880E+04  0.12699999809E+01 0. -1.
</event>
<event>
 5   0  0.3942564E-07  0.3198639E+04  0.7818609E-02  0.8189177E-01
       -2   -1    0    0    0  501  0.00000000000E+00  0.00000000000E+00  0.13126225009E+04  0.13126225009E+04  0.25500000920E-02 0.  1.
        2   -1    0    0  501    0  0.00000000000E+00  0.00000000000E+00 -0.19486358004E+04  0.19486358004E+04  0.25500000920E-02 0. -1.
    10030    2    1    2    0    0  0.00000000000E+00  0.00000000000E+00 -0.63601329950E+03  0.32612583012E+04  0.31986392091E+04 0.  0.
        3    1    3    3  502    0 -0.64168028227E+03  0.13462980719E+04  0.27083854096E+03  0.15157920730E+04  0.10100000352E+00 0.  1.
       -3    1    3    3    0  502  0.64168028227E+03 -0.13462980719E+04 -0.90685184046E+03  0.17454662282E+04  0.10100000352E+00 0. -1.
</event>
<event>
 5   0  0.1288096E-07  0.3201780E+04  0.7818609E-02  0.8188347E-01
       -1   -1    0    0    0  501  0.00000000000E+00  0.00000000000E+00  0.10800554069E+04  0.10800554069E+04  0.50400001928E-02 0.  1.
        1   -1    0    0  501    0  0.00000000000E+00  0.00000000000E+00 -0.23728862491E+04  0.23728862491E+04  0.50400001928E-02 0. -1.
    10030    2    1    2    0    0  0.00000000000E+00  0.00000000000E+00 -0.12928308422E+04  0.34529416559E+04  0.32017798945E+04 0.  0.
        2    1    3    3  502    0 -0.15820526084E+03  0.12271563777E+03 -0.23593303168E+04  0.23678107137E+04  0.25500000920E-02 0. -1.
       -2    1    3    3    0  502  0.15820526084E+03 -0.12271563777E+03  0.10664994746E+04  0.10851309422E+04  0.25500000920E-02 0.  1.
</event>
<event>
 5   0  0.3942564E-07  0.3196334E+04  0.7818609E-02  0.8189786E-01
        2   -1    0    0  501    0  0.00000000000E+00  0.00000000000E+00  0.22670486188E+04  0.22670486188E+04  0.25500000920E-02 0.  1.
       -2   -1    0    0    0  501  0.00000000000E+00  0.00000000000E+00 -0.11266354194E+04  0.11266354194E+04  0.25500000920E-02 0. -1.
    10030    2    1    2    0    0  0.00000000000E+00  0.00000000000E+00  0.11404131994E+04  0.33936840382E+04  0.31963336944E+04 0.  0.
        3    1    3    3  502    0  0.12377454723E+04 -0.51112487167E+03 -0.35593178709E+03  0.13856225806E+04  0.10100000352E+00 0. -1.
       -3    1    3    3    0  502 -0.12377454723E+04  0.51112487167E+03  0.14963449865E+04  0.20080614576E+04  0.10100000352E+00 0.  1.
</event>
<event>
 5   0  0.1277374E-07  0.3201273E+04  0.7818609E-02  0.8188481E-01
        1   -1    0    0  501    0  0.00000000000E+00  0.00000000000E+00  0.10408780066E+04  0.10408780066E+04  0.50400001928E-02 0.  1.
       -1   -1    0    0    0  501  0.00000000000E+00  0.00000000000E+00 -0.24614186391E+04  0.24614186391E+04  0.50400001928E-02 0. -1.
    10030    2    1    2    0    0  0.00000000000E+00  0.00000000000E+00 -0.14205406325E+04  0.35022966457E+04  0.32012725760E+04 0.  0.
        5    1    3    3  502    0  0.15408692289E+04  0.12557985172E+03 -0.11639525438E+04  0.19351630148E+04  0.46999998093E+01 0. -1.
       -5    1    3    3    0  502 -0.15408692289E+04 -0.12557985172E+03 -0.25658808865E+03  0.15671336309E+04  0.46999998093E+01 0.  1.
</event>
<event>
 5   0  0.3942564E-07  0.3246462E+04  0.7818609E-02  0.8176653E-01
        2   -1    0    0  501    0  0.00000000000E+00  0.00000000000E+00  0.12623000270E+04  0.12623000270E+04  0.25500000920E-02 0.  1.
       -2   -1    0    0    0  501  0.00000000000E+00  0.00000000000E+00 -0.20873633105E+04  0.20873633105E+04  0.25500000920E-02 0. -1.
    10030    2    1    2    0    0  0.00000000000E+00  0.00000000000E+00 -0.82506328350E+03  0.33496633375E+04  0.32464619284E+04 0.  0.
        3    1    3    3  502    0 -0.11974176337E+04  0.96649257914E+03 -0.94563995362E+03  0.18061428036E+04  0.10100000352E+00 0. -1.
       -3    1    3    3    0  502  0.11974176337E+04 -0.96649257914E+03  0.12057667012E+03  0.15435205339E+04  0.10100000352E+00 0.  1.
</event>
<event>
 5   0  0.1365455E-07  0.3199445E+04  0.7818609E-02  0.8188964E-01
        1   -1    0    0  501    0  0.00000000000E+00  0.00000000000E+00  0.26040344706E+04  0.26040344706E+04  0.50400001928E-02 0. -1.
       -1   -1    0    0    0  501  0.00000000000E+00  0.00000000000E+00 -0.98274867730E+03  0.98274867731E+03  0.50400001928E-02 0.  1.
    10030    2    1    2    0    0  0.00000000000E+00  0.00000000000E+00  0.16212857933E+04  0.35867831479E+04  0.31994445966E+04 0.  0.
        3    1    3    3  502    0 -0.10235251146E+04  0.98999993249E+03  0.16278733233E+04  0.21627933543E+04  0.10100000352E+00 0. -1.
       -3    1    3    3    0  502  0.10235251146E+04 -0.98999993249E+03 -0.65875300067E+01  0.14239897936E+04  0.10100000352E+00 0.  1.
</event>
<event>
 5   0  0.1277374E-07  0.3199007E+04  0.7818609E-02  0.8189079E-01
       -1   -1    0    0    0  501  0.00000000000E+00  0.00000000000E+00  0.22009727448E+04  0.22009727448E+04  0.50400001928E-02 0. -1.
        1   -1    0    0  501    0  0.00000000000E+00  0.00000000000E+00 -0.11624004269E+04  0.11624004269E+04  0.50400001928E-02 0.  1.
    10030    2    1    2    0    0  0.00000000000E+00  0.00000000000E+00  0.10385723179E+04  0.33633731718E+04  0.31990071324E+04 0.  0.
        5    1    3    3  502    0  0.13186945397E+04 -0.77553385237E+03  0.10101597736E+04  0.18332629117E+04  0.46999998093E+01 0. -1.
       -5    1    3    3    0  502 -0.13186945397E+04  0.77553385237E+03  0.28412544254E+02  0.15301102600E+04  0.46999998093E+01 0.  1.
</event>
<event>
 5   0  0.3764056E-07  0.3195350E+04  0.7818609E-02  0.8190046E-01
       -2   -1    0    0    0  501  0.00000000000E+00  0.00000000000E+00  0.19845406760E+04  0.19845406760E+04  0.25500000920E-02 0. -1.
        2   -1    0    0  501    0  0.00000000000E+00  0.00000000000E+00 -0.12862245907E+04  0.12862245907E+04  0.25500000920E-02 0.  1.
    10030    2    1    2    0    0  0.00000000000E+00  0.00000000000E+00  0.69831608531E+03  0.32707652668E+04  0.31953497579E+04 0.  0.
        5    1    3    3  502    0  0.60539567961E+03 -0.21865906706E+03 -0.11476217147E+04  0.13158166311E+04  0.46999998093E+01 0.  1.
       -5    1    3    3    0  502 -0.60539567961E+03  0.21865906706E+03  0.18459378001E+04  0.19549486357E+04  0.46999998093E+01 0. -1.
</event>
<event>
 5   0  0.1365455E-07  0.3196113E+04  0.7818609E-02  0.8189844E-01
       -1   -1    0    0    0  501  0.00000000000E+00  0.00000000000E+00  0.23239326861E+04  0.23239326861E+04  0.50400001928E-02 0. -1.
        1   -1    0    0  501    0  0.00000000000E+00  0.00000000000E+00 -0.10989064766E+04  0.10989064766E+04  0.50400001928E-02 0.  1.
    10030    2    1    2    0    0  0.00000000000E+00  0.00000000000E+00  0.12250262095E+04  0.34228391627E+04  0.31961130643E+04 0.  0.
        3    1    3    3  502    0 -0.52527268971E+03  0.13768774666E+04  0.12744894703E+04  0.19483393895E+04  0.10100000352E+00 0. -1.
       -3    1    3    3    0  502  0.52527268971E+03 -0.13768774666E+04 -0.49463260735E+02  0.14744997732E+04  0.10100000352E+00 0.  1.
</event>
<event>
 5   0  0.1288096E-07  0.3196850E+04  0.7818609E-02  0.8189650E-01
        1   -1    0    0  501    0  0.00000000000E+00  0.00000000000E+00  0.19008827601E+04  0.19008827601E+04  0.50400001928E-02 0. -1.
       -1   -1    0    0    0  501  0.00000000000E+00  0.00000000000E+00 -0.13440928438E+04  0.13440928438E+04  0.50400001928E-02 0.  1.
    10030    2    1    2    0    0  0.00000000000E+00  0.00000000000E+00  0.55678991633E+03  0.32449756039E+04  0.31968502716E+04 0.  0.
        2    1    3    3  502    0 -0.34239240254E+03 -0.77143735934E+03 -0.10994692302E+04  0.13860666451E+04  0.25500000920E-02 0.  1.
       -2    1    3    3    0  502  0.34239240254E+03  0.77143735934E+03  0.16562591465E+04  0.18589089588E+04  0.25500000920E-02 0. -1.
</event>
<event>
 5   0  0.3858721E-07  0.3204909E+04  0.7818609E-02  0.8187522E-01
       -2   -1    0    0    0  501  0.00000000000E+00  0.00000000000E+00  0.99295788969E+03  0.99295788969E+03  0.25500000920E-02 0. -1.
        2   -1    0    0  501    0  0.00000000000E+00  0.00000000000E+00 -0.25860714237E+04  0.25860714237E+04  0.25500000920E-02 0.  1.
    10030    2    1    2    0    0  0.00000000000E+00  0.00000000000E+00 -0.15931135340E+04  0.35790293134E+04  0.32049087497E+04 0.  0.
        2    1    3    3  502    0  0.14501861784E+04  0.63989750849E+03 -0.53382456676E+03  0.16725661247E+04  0.25500000920E-02 0. -1.
       -2    1    3    3    0  502 -0.14501861784E+04 -0.63989750849E+03 -0.10592889672E+04  0.19064631886E+04  0.25500000920E-02 0.  1.
</event>
<event>
 5   0  0.3858721E-07  0.3225679E+04  0.7818609E-02  0.8182068E-01
        2   -1    0    0  501    0  0.00000000000E+00  0.00000000000E+00  0.22505826361E+04  0.22505826361E+04  0.25500000920E-02 0.  1.
       -2   -1    0    0    0  501  0.00000000000E+00  0.00000000000E+00 -0.11558125286E+04  0.11558125286E+04  0.25500000920E-02 0. -1.
    10030    2    1    2    0    0  0.00000000000E+00  0.00000000000E+00  0.10947701074E+04  0.34063951647E+04  0.32256792199E+04 0.  0.
        2    1    3    3  502    0 -0.67737618952E+03  0.48015144806E+03  0.20075528581E+04  0.21724760973E+04  0.25500000920E-02 0.  1.
       -2    1    3    3    0  502  0.67737618952E+03 -0.48015144806E+03 -0.91278275061E+03  0.12339190675E+04  0.25500000920E-02 0. -1.
</event>
<event>
 5   0  0.3830207E-07  0.3197054E+04  0.7818609E-02  0.8189596E-01
       -2   -1    0    0    0  501  0.00000000000E+00  0.00000000000E+00  0.12774918184E+04  0.12774918184E+04  0.25500000920E-02 0. -1.
        2   -1    0    0  501    0  0.00000000000E+00  0.00000000000E+00 -0.20002384579E+04  0.20002384579E+04  0.25500000920E-02 0.  1.
    10030    2    1    2    0    0  0.00000000000E+00  0.00000000000E+00 -0.72274663951E+03  0.32777302763E+04  0.31970538093E+04 0.  0.
        4    1    3    3  502    0  0.10250159107E+03 -0.10420475958E+04  0.87696280399E+03  0.13658093353E+04  0.12699999809E+01 0. -1.
       -4    1    3    3    0  502 -0.10250159107E+03  0.10420475958E+04 -0.15997094435E+04  0.19119209410E+04  0.12699999809E+01 0.  1.
</event>
<event>
 5   0  0.3750285E-07  0.3200026E+04  0.7818609E-02  0.8188810E-01
        2   -1    0    0  501    0  0.00000000000E+00  0.00000000000E+00  0.16399810595E+04  0.16399810595E+04  0.25500000920E-02 0. -1.
       -2   -1    0    0    0  501  0.00000000000E+00  0.00000000000E+00 -0.15610188023E+04  0.15610188023E+04  0.25500000920E-02 0.  1.
    10030    2    1    2    0    0  0.00000000000E+00  0.00000000000E+00  0.78962257144E+02  0.32009998618E+04  0.32000257932E+04 0.  0.
        1    1    3    3  502    0  0.11247731929E+04  0.11170588839E+04  0.25658632341E+03  0.16058554814E+04  0.50400001928E-02 0.  1.
       -1    1    3    3    0  502 -0.11247731929E+04 -0.11170588839E+04 -0.17762406627E+03  0.15951443805E+04  0.50400001928E-02 0. -1.
</event>
<event>
 5   0  0.1288096E-07  0.3177363E+04  0.7818609E-02  0.8194821E-01
       -1   -1    0    0    0  501  0.00000000000E+00  0.00000000000E+00  0.11480422102E+04  0.11480422102E+04  0.50400001928E-02 0. -1.
        1   -1    0    0  501    0  0.00000000000E+00  0.00000000000E+00 -0.21984466068E+04  0.21984466068E+04  0.50400001928E-02 0.  1.
    10030    2    1    2    0    0  0.00000000000E+00  0.00000000000E+00 -0.10504043966E+04  0.33464888171E+04  0.31773633733E+04 0.  0.
        2    1    3    3  502    0 -0.51458554313E+03 -0.12685428542E+04  0.32387892443E+03  0.14067326724E+04  0.25500000920E-02 0. -1.
       -2    1    3    3    0  502  0.51458554313E+03  0.12685428542E+04 -0.13742833211E+04  0.19397561446E+04  0.25500000920E-02 0.  1.
</event>
<event>
 5   0  0.3830207E-07  0.3177036E+04  0.7818609E-02  0.8194908E-01
        2   -1    0    0  501    0  0.00000000000E+00  0.00000000000E+00  0.21168481936E+04  0.21168481936E+04  0.25500000920E-02 0.  1.
       -2   -1    0    0    0  501  0.00000000000E+00  0.00000000000E+00 -0.11920501119E+04  0.11920501119E+04  0.25500000920E-02 0. -1.
    10030    2    1    2    0    0  0.00000000000E+00  0.00000000000E+00  0.92479808167E+03  0.33088983055E+04  0.31770358047E+04 0.  0.
        4    1    3    3  502    0  0.28575119123E+03 -0.50387110265E+03 -0.10781298668E+04  0.12238894779E+04  0.12699999809E+01 0. -1.
       -4    1    3    3    0  502 -0.28575119123E+03  0.50387110265E+03  0.20029279485E+04  0.20850088276E+04  0.12699999809E+01 0.  1.
</event>
<event>
 5   0  0.3942564E-07  0.3200390E+04  0.7818609E-02  0.8188714E-01
       -2   -1    0    0    0  501  0.00000000000E+00  0.00000000000E+00  0.23383760650E+04  0.23383760651E+04  0.25500000920E-02 0. -1.
        2   -1    0    0  501    0  0.00000000000E+00  0.00000000000E+00 -0.10950440191E+04  0.10950440191E+04  0.25500000920E-02 0.  1.
    10030    2    1    2    0    0  0.00000000000E+00  0.00000000000E+00  0.12433320459E+04  0.34334200842E+04  0.32003904290E+04 0.  0.
        3    1    3    3  502    0 -0.74911631235E+03 -0.13508849272E+04  0.17344154149E+03  0.15543961254E+04  0.10100000352E+00 0.  1.
       -3    1    3    3    0  502  0.74911631235E+03  0.13508849272E+04  0.10698905045E+04  0.18790239588E+04  0.10100000352E+00 0. -1.
</event>
<event>
 5   0  0.1365455E-07  0.3188433E+04  0.7818609E-02  0.8191879E-01
       -1   -1    0    0    0  501  0.00000000000E+00  0.00000000000E+00  0.15876782806E+04  0.15876782806E+04  0.50400001928E-02 0.  1.
        1   -1    0    0  501    0  0.00000000000E+00  0.00000000000E+00 -0.16007820332E+04  0.16007820332E+04  0.50400001928E-02 0. -1.
    10030    2    1    2    0    0  0.00000000000E+00  0.00000000000E+00 -0.13103752645E+02  0.31884603138E+04  0.31884333871E+04 0.  0.
        3    1    3    3  502    0  0.34019539950E+03 -0.44556589273E+03 -0.14989668991E+04  0.16003635992E+04  0.10100000352E+00 0. -1.
       -3    1    3    3    0  502 -0.34019539950E+03  0.44556589273E+03  0.14858631465E+04  0.15880967146E+04  0.10100000352E+00 0.  1.
</event>
<event>
 5   0  0.3764056E-07  0.3197153E+04  0.7818609E-02  0.8189570E-01
        2   -1    0    0  501    0  0.00000000000E+00  0.00000000000E+00  0.84692505297E+03  0.84692505297E+03  0.25500000920E-02 0. -1.
       -2   -1    0    0    0  501  0.00000000000E+00  0.00000000000E+00 -0.30173225614E+04  0.30173225614E+04  0.25500000920E-02 0.  1.
    10030    2    1    2    0    0  0.00000000000E+00  0.00000000000E+00 -0.21703975084E+04  0.38642476143E+04  0.31971525269E+04 0.  0.
        5    1    3    3  502    0  0.61042799303E+03  0.14774031368E+04 -0.10742795353E+04  0.19259909068E+04  0.46999998093E+01 0.  1.
       -5    1    3    3    0  502 -0.61042799303E+03 -0.14774031368E+04 -0.10961179731E+04  0.19382567075E+04  0.46999998093E+01 0. -1.
</event>
<event>
 5   0  0.1270948E-07  0.3197226E+04  0.7818609E-02  0.8189550E-01
        1   -1    0    0  501    0  0.00000000000E+00  0.00000000000E+00  0.18309486831E+04  0.18309486831E+04  0.50400001928E-02 0.  1.
       -1   -1    0    0    0  501  0.00000000000E+00  0.00000000000E+00 -0.13957595672E+04  0.13957595672E+04  0.50400001928E-02 0. -1.
    10030    2    1    2    0    0  0.00000000000E+00  0.00000000000E+00  0.43518911588E+03  0.32267082503E+04  0.31972263865E+04 0.  0.
        4    1    3    3  502    0 -0.11872871797E+04  0.10588390583E+04  0.58753516189E+02  0.15919310875E+04  0.12699999809E+01 0.  1.
       -4    1    3    3    0  502  0.11872871797E+04 -0.10588390583E+04  0.37643559969E+03  0.16347771629E+04  0.12699999809E+01 0. -1.
</event>
<event>
 5   0  0.3750285E-07  0.3201883E+04  0.7818609E-02  0.8188320E-01
        2   -1    0    0  501    0  0.00000000000E+00  0.00000000000E+00  0.13258839242E+04  0.13258839242E+04  0.25500000920E-02 0.  1.
       -2   -1    0    0    0  501  0.00000000000E+00  0.00000000000E+00 -0.19330599702E+04  0.19330599702E+04  0.25500000920E-02 0. -1.
    10030    2    1    2    0    0  0.00000000000E+00  0.00000000000E+00 -0.60717604599E+03  0.32589438944E+04  0.32018826580E+04 0.  0.
        1    1    3    3  502    0 -0.40466357886E+03  0.14176680774E+04 -0.93879139901E+03  0.17478171187E+04  0.50400001928E-02 0. -1.
       -1    1    3    3    0  502  0.40466357886E+03 -0.14176680774E+04  0.33161535301E+03  0.15111267756E+04  0.50400001928E-02 0.  1.
</event>
<event>
 5   0  0.3858721E-07  0.3194699E+04  0.7818609E-02  0.8190218E-01
        2   -1    0    0  501    0  0.00000000000E+00  0.00000000000E+00  0.18137276656E+04  0.18137276656E+04  0.25500000920E-02 0. -1.
       -2   -1    0    0    0  501  0.00000000000E+00  0.00000000000E+00 -0.14067857428E+04  0.14067857428E+04  0.25500000920E-02 0.  1.
    10030    2    1    2    0    0  0.00000000000E+00  0.00000000000E+00  0.40694192286E+03  0.32205134084E+04  0.31946994984E+04 0.  0.
        2    1    3    3  502    0 -0.15435089849E+04  0.27532796607E+03 -0.10444886678E+03  0.15713481604E+04  0.25500000920E-02 0. -1.
       -2    1    3    3    0  502  0.15435089849E+04 -0.27532796607E+03  0.51139078964E+03  0.16491652480E+04  0.25500000920E-02 0.  1.
</event>
<event>
 5   0  0.1277374E-07  0.3201224E+04  0.7818609E-02  0.8188494E-01
        1   -1    0    0  501    0  0.00000000000E+00  0.00000000000E+00  0.17029134225E+04  0.17029134225E+04  0.50400001928E-02 0. -1.
       -1   -1    0    0    0  501  0.00000000000E+00  0.00000000000E+00 -0.15044561792E+04  0.15044561793E+04  0.50400001928E-02 0.  1.
    10030    2    1    2    0    0  0.00000000000E+00  0.00000000000E+00  0.19845724326E+03  0.32073696018E+04  0.32012239042E+04 0.  0.
        5    1    3    3  502    0 -0.12781619743E+03  0.11157889987E+04  0.12418628957E+04  0.16743857416E+04  0.46999998093E+01 0. -1.
       -5    1    3    3    0  502  0.12781619743E+03 -0.11157889987E+04 -0.10434056524E+04  0.15329838602E+04  0.46999998093E+01 0.  1.
</event>
<event>
 5   0  0.3830207E-07  0.3201175E+04  0.7818609E-02  0.8188507E-01
       -2   -1    0    0    0  501  0.00000000000E+00  0.00000000000E+00  0.14042323136E+04  0.14042323136E+04  0.25500000920E-02 0.  1.
        2   -1    0    0  501    0  0.00000000000E+00  0.00000000000E+00 -0.18243989392E+04  0.18243989392E+04  0.25500000920E-02 0. -1.
    10030    2    1    2    0    0  0.00000000000E+00  0.00000000000E+00 -0.42016662561E+03  0.32286312528E+04  0.32011747489E+04 0.  0.
        4    1    3    3  502    0 -0.13300878507E+04 -0.23059383689E+03  0.65727598111E+03  0.15014394881E+04  0.12699999809E+01 0.  1.
       -4    1    3    3    0  502  0.13300878507E+04  0.23059383689E+03 -0.10774426067E+04  0.17271917647E+04  0.12699999809E+01 0. -1.
</event>
<event>
 5   0  0.3764056E-07  0.3201734E+04  0.7818609E-02  0.8188359E-01
       -2   -1    0    0    0  501  0.00000000000E+00  0.00000000000E+00  0.94335115992E+03  0.94335115993E+03  0.25500000920E-02 0. -1.
        2   -1    0    0  501    0  0.00000000000E+00  0.00000000000E+00 -0.27166719957E+04  0.27166719957E+04  0.25500000920E-02 0.  1.
    10030    2    1    2    0    0  0.00000000000E+00  0.00000000000E+00 -0.17733208358E+04  0.36600231556E+04  0.32017343289E+04 0.  0.
        5    1    3    3  502    0  0.63324322395E+03  0.62510544177E+03 -0.24079356546E+04  0.25670858966E+04  0.46999998093E+01 0.  1.
       -5    1    3    3    0  502 -0.63324322395E+03 -0.62510544177E+03  0.63461481877E+03  0.10929372590E+04  0.46999998093E+01 0. -1.
</event>
<event>
 5   0  0.1270948E-07  0.3178174E+04  0.7818609E-02  0.8194605E-01
        1   -1    0    0  501    0  0.00000000000E+00  0.00000000000E+00  0.92929849308E+03  0.92929849310E+03  0.50400001928E-02 0.  1.
       -1   -1    0    0    0  501  0.00000000000E+00  0.00000000000E+00 -0.27173164153E+04  0.27173164153E+04  0.50400001928E-02 0. -1.
    10030    2    1    2    0    0  0.00000000000E+00  0.00000000000E+00 -0.17880179222E+04  0.36466149084E+04  0.31781743502E+04 0.  0.
        4    1    3    3  502    0  0.80614674471E+03 -0.10008688515E+04 -0.19664288748E+04  0.23491392390E+04  0.12699999809E+01 0. -1.
       -4    1    3    3    0  502 -0.80614674471E+03  0.10008688515E+04  0.17841095253E+03  0.12974756694E+04  0.12699999809E+01 0.  1.
</event>
<event>
 5   0  0.3942564E-07  0.3198352E+04  0.7818609E-02  0.8189253E-01
       -2   -1    0    0    0  501  0.00000000000E+00  0.00000000000E+00  0.12754752783E+04  0.12754752784E+04  0.25500000920E-02 0.  1.
        2   -1    0    0  501    0  0.00000000000E+00  0.00000000000E+00 -0.20050281487E+04  0.20050281487E+04  0.25500000920E-02 0. -1.
    10030    2    1    2    0    0  0.00000000000E+00  0.00000000000E+00 -0.72955287032E+03  0.32805034270E+04  0.31983519731E+04 0.  0.
        3    1    3    3  502    0 -0.98103855873E+03 -0.11663700347E+04 -0.86147531160E+03  0.17507128360E+04  0.10100000352E+00 0. -1.
       -3    1    3    3    0  502  0.98103855873E+03  0.11663700347E+04  0.13192244127E+03  0.15297905910E+04  0.10100000352E+00 0.  1.
</event>
<event>
 5   0  0.1230450E-07  0.3240736E+04  0.7818609E-02  0.8178141E-01
       -3   -1    0    0    0  501  0.00000000000E+00  0.00000000000E+00  0.19736691331E+04  0.19736691357E+04  0.10100000352E+00 0.  1.
        3   -1    0    0  501    0  0.00000000000E+00  0.00000000000E+00 -0.13303106145E+04  0.13303106184E+04  0.10100000352E+00 0. -1.
    10030    2    1    2    0    0  0.00000000000E+00  0.00000000000E+00  0.64335851855E+03  0.33039797540E+04  0.32407363410E+04 0.  0.
        2    1    3    3  502    0  0.19340086314E+03 -0.92158006836E+02 -0.13158080567E+04  0.13331345897E+04  0.25500000920E-02 0. -1.
       -2    1    3    3    0  502 -0.19340086314E+03  0.92158006836E+02  0.19591665753E+04  0.19708451643E+04  0.25500000920E-02 0.  1.
</event>
<event>
 5   0  0.1365455E-07  0.3198913E+04  0.7818609E-02  0.8189104E-01
       -1   -1    0    0    0  501  0.00000000000E+00  0.00000000000E+00  0.11751657214E+04  0.11751657214E+04  0.50400001928E-02 0. -1.
        1   -1    0    0  501    0  0.00000000000E+00  0.00000000000E+00 -0.21769369909E+04  0.21769369909E+04  0.50400001928E-02 0.  1.
    10030    2    1    2    0    0  0.00000000000E+00  0.00000000000E+00 -0.10017712695E+04  0.33521027123E+04  0.31989133963E+04 0.  0.
        3    1    3    3  502    0  0.72131040034E+03  0.14271098290E+04 -0.53910929689E+03  0.16874744448E+04  0.10100000352E+00 0.  1.
       -3    1    3    3    0  502 -0.72131040034E+03 -0.14271098290E+04 -0.46266197265E+03  0.16646282675E+04  0.10100000352E+00 0. -1.
</event>
<event>
 5   0  0.1365455E-07  0.3197983E+04  0.7818609E-02  0.8189350E-01
        1   -1    0    0  501    0  0.00000000000E+00  0.00000000000E+00  0.16234879547E+04  0.16234879547E+04  0.50400001928E-02 0.  1.
       -1   -1    0    0    0  501  0.00000000000E+00  0.00000000000E+00 -0.15748642263E+04  0.15748642263E+04  0.50400001928E-02 0. -1.
    10030    2    1    2    0    0  0.00000000000E+00  0.00000000000E+00  0.48623728450E+02  0.31983521810E+04  0.31979825526E+04 0.  0.
        3    1    3    3  502    0 -0.13132322446E+04 -0.82317536503E+03 -0.36889573499E+03  0.15931982562E+04  0.10100000352E+00 0. -1.
       -3    1    3    3    0  502  0.13132322446E+04  0.82317536503E+03  0.41751946344E+03  0.16051539249E+04  0.10100000352E+00 0.  1.
</event>
<event>
 5   0  0.1317293E-07  0.3215748E+04  0.7818609E-02  0.8184670E-01
       -1   -1    0    0    0  501  0.00000000000E+00  0.00000000000E+00  0.15747954517E+04  0.15747954517E+04  0.50400001928E-02 0. -1.
        1   -1    0    0  501    0  0.00000000000E+00  0.00000000000E+00 -0.16416476904E+04  0.16416476904E+04  0.50400001928E-02 0.  1.
    10030    2    1    2    0    0  0.00000000000E+00  0.00000000000E+00 -0.66852238738E+02  0.32164431421E+04  0.32157483211E+04 0.  0.
        1    1    3    3  502    0  0.27994773651E+03 -0.13812128469E+04  0.74078224434E+03  0.15921300190E+04  0.50400001928E-02 0. -1.
       -1    1    3    3    0  502 -0.27994773651E+03  0.13812128469E+04 -0.80763448308E+03  0.16243131231E+04  0.50400001928E-02 0.  1.
</event>
<event>
 5   0  0.3942564E-07  0.3199790E+04  0.7818609E-02  0.8188873E-01
        2   -1    0    0  501    0  0.00000000000E+00  0.00000000000E+00  0.21654947957E+04  0.21654947957E+04  0.25500000920E-02 0.  1.
       -2   -1    0    0    0  501  0.00000000000E+00  0.00000000000E+00 -0.11820225282E+04  0.11820225282E+04  0.25500000920E-02 0. -1.
    10030    2    1    2    0    0  0.00000000000E+00  0.00000000000E+00  0.98347226751E+03  0.33475173239E+04  0.31997897639E+04 0.  0.
        3    1    3    3  502    0 -0.60485523593E+03 -0.73163191658E+03 -0.85555936416E+03  0.12779346437E+04  0.10100000352E+00 0. -1.
       -3    1    3    3    0  502  0.60485523593E+03  0.73163191658E+03  0.18390316317E+04  0.20695826802E+04  0.10100000352E+00 0.  1.
</event>
<event>
 5   0  0.1230450E-07  0.3197337E+04  0.7818609E-02  0.8189521E-01
        3   -1    0    0  501    0  0.00000000000E+00  0.00000000000E+00  0.16393671141E+04  0.16393671172E+04  0.10100000352E+00 0. -1.
       -3   -1    0    0    0  501  0.00000000000E+00  0.00000000000E+00 -0.15589806942E+04  0.15589806975E+04  0.10100000352E+00 0.  1.
    10030    2    1    2    0    0  0.00000000000E+00  0.00000000000E+00  0.80386419906E+02  0.31983478147E+04  0.31973374497E+04 0.  0.
        5    1    3    3  502    0 -0.46476516671E+03 -0.14832168862E+04 -0.33379738636E+03  0.15897741276E+04  0.46999998093E+01 0.  1.
       -5    1    3    3    0  502  0.46476516671E+03  0.14832168862E+04  0.41418380626E+03  0.16085736871E+04  0.46999998093E+01 0. -1.
</event>
<event>
 5   0  0.3942564E-07  0.3265505E+04  0.7818609E-02  0.8171728E-01
       -2   -1    0    0    0  501  0.00000000000E+00  0.00000000000E+00  0.31944759221E+04  0.31944759221E+04  0.25500000920E-02 0. -1.
        2   -1    0    0  501    0  0.00000000000E+00  0.00000000000E+00 -0.83452839847E+03  0.83452839847E+03  0.25500000920E-02 0.  1.
    10030    2    1    2    0    0  0.00000000000E+00  0.00000000000E+00  0.23599475237E+04  0.40290043206E+04  0.32655050913E+04 0.  0.
        3    1    3    3  502    0 -0.52465138222E+03 -0.22796385242E+03  0.30667933666E+04  0.31196871885E+04  0.10100000352E+00 0. -1.
       -3    1    3    3    0  502  0.52465138222E+03  0.22796385242E+03 -0.70684584290E+03  0.90931713208E+03  0.10100000352E+00 0.  1.
</event>
<event>
 5   0  0.3764056E-07  0.3221307E+04  0.7818609E-02  0.8183213E-01
       -2   -1    0    0    0  501  0.00000000000E+00  0.00000000000E+00  0.15809677290E+04  0.15809677290E+04  0.25500000920E-02 0.  1.
        2   -1    0    0  501    0  0.00000000000E+00  0.00000000000E+00 -0.16408963161E+04  0.16408963161E+04  0.25500000920E-02 0. -1.
    10030    2    1    2    0    0  0.00000000000E+00  0.00000000000E+00 -0.59928587067E+02  0.32218640451E+04  0.32213066432E+04 0.  0.
        5    1    3    3  502    0  0.18443362442E+03  0.15882077100E+04 -0.22432378011E+03  0.16145472246E+04  0.46999998093E+01 0.  1.
       -5    1    3    3    0  502 -0.18443362442E+03 -0.15882077100E+04  0.16439519304E+03  0.16073168205E+04  0.46999998093E+01 0. -1.
</event>
<event>
 5   0  0.1270948E-07  0.3200863E+04  0.7818609E-02  0.8188589E-01
       -1   -1    0    0    0  501  0.00000000000E+00  0.00000000000E+00  0.12705503671E+04  0.12705503671E+04  0.50400001928E-02 0.  1.
        1   -1    0    0  501    0  0.00000000000E+00  0.00000000000E+00 -0.20159621664E+04  0.20159621664E+04  0.50400001928E-02 0. -1.
    10030    2    1    2    0    0  0.00000000000E+00  0.00000000000E+00 -0.74541179930E+03  0.32865125334E+04  0.32008633026E+04 0.  0.
        4    1    3    3  502    0  0.53014584647E+03 -0.55534618624E+03  0.10691184467E+04  0.13162370117E+04  0.12699999809E+01 0.  1.
       -4    1    3    3    0  502 -0.53014584647E+03  0.55534618624E+03 -0.18145302460E+04  0.19702755217E+04  0.12699999809E+01 0. -1.
</event>
<event>
 5   0  0.1270948E-07  0.3199056E+04  0.7818609E-02  0.8189067E-01
       -1   -1    0    0    0  501  0.00000000000E+00  0.00000000000E+00  0.14416682061E+04  0.14416682062E+04  0.50400001928E-02 0. -1.
        1   -1    0    0  501    0  0.00000000000E+00  0.00000000000E+00 -0.17746728733E+04  0.17746728733E+04  0.50400001928E-02 0.  1.
    10030    2    1    2    0    0  0.00000000000E+00  0.00000000000E+00 -0.33300466710E+03  0.32163410794E+04  0.31990557718E+04 0.  0.
        4    1    3    3  502    0 -0.79072448176E+03 -0.12833662617E+03  0.12254538157E+04  0.14640540164E+04  0.12699999809E+01 0. -1.
       -4    1    3    3    0  502  0.79072448176E+03  0.12833662617E+03 -0.15584584828E+04  0.17522870630E+04  0.12699999809E+01 0.  1.
</event>
<event>
 5   0  0.3858721E-07  0.3200732E+04  0.7818609E-02  0.8188624E-01
        2   -1    0    0  501    0  0.00000000000E+00  0.00000000000E+00  0.31044594759E+04  0.31044594759E+04  0.25500000920E-02 0. -1.
       -2   -1    0    0    0  501  0.00000000000E+00  0.00000000000E+00 -0.82499731246E+03  0.82499731246E+03  0.25500000920E-02 0.  1.
    10030    2    1    2    0    0  0.00000000000E+00  0.00000000000E+00  0.22794621634E+04  0.39294567884E+04  0.32007316190E+04 0.  0.
        2    1    3    3  502    0 -0.39312936640E+03  0.92426693939E+03 -0.38986996139E+03  0.10774129481E+04  0.25500000920E-02 0.  1.
       -2    1    3    3    0  502  0.39312936640E+03 -0.92426693939E+03  0.26693321248E+04  0.28520438402E+04  0.25500000920E-02 0. -1.
</event>
<event>
 5   0  0.3942564E-07  0.3236044E+04  0.7818609E-02  0.8179362E-01
       -2   -1    0    0    0  501  0.00000000000E+00  0.00000000000E+00  0.12698144783E+04  0.12698144783E+04  0.25500000920E-02 0. -1.
        2   -1    0    0  501    0  0.00000000000E+00  0.00000000000E+00 -0.20617142488E+04  0.20617142488E+04  0.25500000920E-02 0.  1.
    10030    2    1    2    0    0  0.00000000000E+00  0.00000000000E+00 -0.79189977053E+03  0.33315287271E+04  0.32360436358E+04 0.  0.
        3    1    3    3  502    0  0.57539054290E+03  0.14983323480E+04 -0.60673618258E+03  0.17158679749E+04  0.10100000352E+00 0. -1.
       -3    1    3    3    0  502 -0.57539054290E+03 -0.14983323480E+04 -0.18516358795E+03  0.16156607522E+04  0.10100000352E+00 0.  1.
</event>
<event>
 5   0  0.1317293E-07  0.3199280E+04  0.7818609E-02  0.8189007E-01
        1   -1    0    0  501    0  0.00000000000E+00  0.00000000000E+00  0.96765819481E+03  0.96765819482E+03  0.50400001928E-02 0.  1.
       -1   -1    0    0    0  501  0.00000000000E+00  0.00000000000E+00 -0.26443714404E+04  0.26443714404E+04  0.50400001928E-02 0. -1.
    10030    2    1    2    0    0  0.00000000000E+00  0.00000000000E+00 -0.16767132456E+04  0.36120296353E+04  0.31992797280E+04 0.  0.
        1    1    3    3  502    0 -0.55740258960E+03 -0.34934679120E+03 -0.24845908836E+04  0.25702009039E+04  0.50400001928E-02 0. -1.
       -1    1    3    3    0  502  0.55740258960E+03  0.34934679120E+03  0.80787763801E+03  0.10418287313E+04  0.50400001928E-02 0.  1.
</event>
<event>
 5   0  0.3764056E-07  0.3198298E+04  0.7818609E-02  0.8189267E-01
        2   -1    0    0  501    0  0.00000000000E+00  0.00000000000E+00  0.16607709438E+04  0.16607709438E+04  0.25500000920E-02 0.  1.
       -2   -1    0    0    0  501  0.00000000000E+00  0.00000000000E+00 -0.15398133033E+04  0.15398133034E+04  0.25500000920E-02 0. -1.
    10030    2    1    2    0    0  0.00000000000E+00  0.00000000000E+00  0.12095764049E+03  0.32005842472E+04  0.31982977930E+04 0.  0.
        5    1    3    3  502    0  0.11716099681E+04 -0.10636180661E+04  0.29151568556E+03  0.16090235526E+04  0.46999998093E+01 0. -1.
       -5    1    3    3    0  502 -0.11716099681E+04  0.10636180661E+04 -0.17055804507E+03  0.15915606946E+04  0.46999998093E+01 0.  1.
</event>
<event>
 5   0  0.1270948E-07  0.3144488E+04  0.7818609E-02  0.8203634E-01
       -1   -1    0    0    0  501  0.00000000000E+00  0.00000000000E+00  0.16877580360E+04  0.16877580360E+04  0.50400001928E-02 0. -1.
        1   -1    0    0  501    0  0.00000000000E+00  0.00000000000E+00 -0.14646357094E+04  0.14646357094E+04  0.50400001928E-02 0.  1.
    10030    2    1    2    0    0  0.00000000000E+00  0.00000000000E+00  0.22312232660E+03  0.31523937454E+04  0.31444876774E+04 0.  0.
        4    1    3    3  502    0  0.16449198027E+03 -0.30091343237E+03 -0.14266833960E+04  0.14673219247E+04  0.12699999809E+01 0.  1.
       -4    1    3    3    0  502 -0.16449198027E+03  0.30091343237E+03  0.16498057226E+04  0.16850718206E+04  0.12699999809E+01 0. -1.
</event>
<event>
 5   0  0.1277374E-07  0.3197451E+04  0.7818609E-02  0.8189491E-01
       -1   -1    0    0    0  501  0.00000000000E+00  0.00000000000E+00  0.10034228913E+04  0.10034228913E+04  0.50400001928E-02 0.  1.
        1   -1    0    0  501    0  0.00000000000E+00  0.00000000000E+00 -0.25472044511E+04  0.25472044511E+04  0.50400001928E-02 0. -1.
    10030    2    1    2    0    0  0.00000000000E+00  0.00000000000E+00 -0.15437815598E+04  0.35506273424E+04  0.31974510192E+04 0.  0.
        5    1    3    3  502    0 -0.13243634363E+04  0.65331084786E+03 -0.91744584512E+02  0.14795920837E+04  0.46999998093E+01 0.  1.
       -5    1    3    3    0  502  0.13243634363E+04 -0.65331084786E+03 -0.14520369753E+04  0.20710352587E+04  0.46999998093E+01 0. -1.
</event>
<event>
 5   0  0.3858721E-07  0.3210701E+04  0.7818609E-02  0.8185997E-01
       -2   -1    0    0    0  501  0.00000000000E+00  0.00000000000E+00  0.13133035314E+04  0.13133035314E+04  0.25500000920E-02 0.  1.
        2   -1    0    0  501    0  0.00000000000E+00  0.00000000000E+00 -0.19623414033E+04  0.19623414033E+04  0.25500000920E-02 0. -1.
    10030    2    1    2    0    0  0.00000000000E+00  0.00000000000E+00 -0.64903787191E+03  0.32756449347E+04  0.32107007925E+04 0.  0.
        2    1    3    3  502    0 -0.13897548649E+04 -0.43258119369E+03  0.36638281413E+03  0.15009268604E+04  0.25500000920E-02 0.  1.
       -2    1    3    3    0  502  0.13897548649E+04  0.43258119369E+03 -0.10154206860E+04  0.17747180743E+04  0.25500000920E-02 0. -1.
</event>
<event>
 5   0  0.1317293E-07  0.3194185E+04  0.7818609E-02  0.8190355E-01
       -1   -1    0    0    0  501  0.00000000000E+00  0.00000000000E+00  0.22390384977E+04  0.22390384977E+04  0.50400001928E-02 0. -1.
        1   -1    0    0  501    0  0.00000000000E+00  0.00000000000E+00 -0.11391964218E+04  0.11391964218E+04  0.50400001928E-02 0.  1.
    10030    2    1    2    0    0  0.00000000000E+00  0.00000000000E+00  0.10998420759E+04  0.33782349196E+04  0.31941851199E+04 0.  0.
        1    1    3    3  502    0  0.14795117239E+04 -0.16279475834E+03 -0.62447097495E+02  0.14897505545E+04  0.50400001928E-02 0.  1.
       -1    1    3    3    0  502 -0.14795117239E+04  0.16279475834E+03  0.11622891734E+04  0.18884843651E+04  0.50400001928E-02 0. -1.
</event>
<event>
 5   0  0.1288096E-07  0.3166020E+04  0.7818609E-02  0.8197849E-01
        1   -1    0    0  501    0  0.00000000000E+00  0.00000000000E+00  0.18467695629E+04  0.18467695630E+04  0.50400001928E-02 0. -1.
       -1   -1    0    0    0  501  0.00000000000E+00  0.00000000000E+00 -0.13569214204E+04  0.13569214204E+04  0.50400001928E-02 0.  1.
    10030    2    1    2    0    0  0.00000000000E+00  0.00000000000E+00  0.48984814253E+03  0.32036909834E+04  0.31660203275E+04 0.  0.
        2    1    3    3  502    0 -0.56449669802E+03 -0.22757091204E+03 -0.12337902578E+04  0.13757483209E+04  0.25500000920E-02 0.  1.
       -2    1    3    3    0  502  0.56449669802E+03  0.22757091204E+03  0.17236384004E+04  0.18279426625E+04  0.25500000920E-02 0. -1.
</event>
<event>
 5   0  0.3764056E-07  0.3204200E+04  0.7818609E-02  0.8187709E-01
       -2   -1    0    0    0  501  0.00000000000E+00  0.00000000000E+00  0.19309739777E+04  0.19309739777E+04  0.25500000920E-02 0. -1.
        2   -1    0    0  501    0  0.00000000000E+00  0.00000000000E+00 -0.13292386039E+04  0.13292386039E+04  0.25500000920E-02 0.  1.
    10030    2    1    2    0    0  0.00000000000E+00  0.00000000000E+00  0.60173537376E+03  0.32602125816E+04  0.32042004646E+04 0.  0.
        5    1    3    3  502    0  0.15345599655E+04 -0.21471688261E+03 -0.11334254842E+03  0.15536557697E+04  0.46999998093E+01 0. -1.
       -5    1    3    3    0  502 -0.15345599655E+04  0.21471688261E+03  0.71507792218E+03  0.17065568119E+04  0.46999998093E+01 0.  1.
</event>
<event>
 5   0  0.3830207E-07  0.3198520E+04  0.7818609E-02  0.8189208E-01
        2   -1    0    0  501    0  0.00000000000E+00  0.00000000000E+00  0.81122397264E+03  0.81122397264E+03  0.25500000920E-02 0.  1.
       -2   -1    0    0    0  501  0.00000000000E+00  0.00000000000E+00 -0.31528069748E+04  0.31528069748E+04  0.25500000920E-02 0. -1.
    10030    2    1    2    0    0  0.00000000000E+00  0.00000000000E+00 -0.23415830021E+04  0.39640309474E+04  0.31985200322E+04 0.  0.
        4    1    3    3  502    0  0.11507957339E+04  0.32156250704E+03  0.14657776523E+03  0.12038355043E+04  0.12699999809E+01 0.  1.
       -4    1    3    3    0  502 -0.11507957339E+04 -0.32156250704E+03 -0.24881607673E+04  0.27601954431E+04  0.12699999809E+01 0. -1.
</event>
<event>
 5   0  0.1288096E-07  0.3202142E+04  0.7818609E-02  0.8188252E-01
        1   -1    0    0  501    0  0.00000000000E+00  0.00000000000E+00  0.16713836358E+04  0.16713836358E+04  0.50400001928E-02 0. -1.
       -1   -1    0    0    0  501  0.00000000000E+00  0.00000000000E+00 -0.15337162840E+04  0.15337162840E+04  0.50400001928E-02 0.  1.
    10030    2    1    2    0    0  0.00000000000E+00  0.00000000000E+00  0.13766735176E+03  0.32050999198E+04  0.32021419700E+04 0.  0.
        2    1    3    3  502    0 -0.87228502512E+03 -0.83087669615E+02  0.14100877624E+04  0.16601603005E+04  0.25500000920E-02 0. -1.
       -2    1    3    3    0  502  0.87228502512E+03  0.83087669615E+02 -0.12724204106E+04  0.15449396193E+04  0.25500000920E-02 0.  1.
</event>
<event>
 5   0  0.1365455E-07  0.3221643E+04  0.7818609E-02  0.8183125E-01
       -1   -1    0    0    0  501  0.00000000000E+00  0.00000000000E+00  0.17517870546E+04  0.17517870546E+04  0.50400001928E-02 0. -1.
        1   -1    0    0  501    0  0.00000000000E+00  0.00000000000E+00 -0.14811997131E+04  0.14811997132E+04  0.50400001928E-02 0.  1.
    10030    2    1    2    0    0  0.00000000000E+00  0.00000000000E+00  0.27058734146E+03  0.32329867678E+04  0.32216433588E+04 0.  0.
        3    1    3    3  502    0 -0.57391702683E+03  0.11350071598E+04  0.11272702290E+04  0.16995176333E+04  0.10100000352E+00 0. -1.
       -3    1    3    3    0  502  0.57391702683E+03 -0.11350071598E+04 -0.85668288753E+03  0.15334691345E+04  0.10100000352E+00 0.  1.
</event>
<event>
 5   0  0.1288096E-07  0.3201969E+04  0.7818609E-02  0.8188297E-01
        1   -1    0    0  501    0  0.00000000000E+00  0.00000000000E+00  0.16570066331E+04  0.16570066331E+04  0.50400001928E-02 0.  1.
       -1   -1    0    0    0  501  0.00000000000E+00  0.00000000000E+00 -0.15468560578E+04  0.15468560578E+04  0.50400001928E-02 0. -1.
    10030    2    1    2    0    0  0.00000000000E+00  0.00000000000E+00  0.11015057529E+03  0.32038626909E+04  0.32019686121E+04 0.  0.
        2    1    3    3  502    0  0.41587687679E+03  0.10072744207E+04  0.12286268723E+04  0.16422786995E+04  0.25500000920E-02 0.  1.
       -2    1    3    3    0  502 -0.41587687679E+03 -0.10072744207E+04 -0.11184762970E+04  0.15615839914E+04  0.25500000920E-02 0. -1.
</event>
<event>
 5   0  0.3942564E-07  0.3200682E+04  0.7818609E-02  0.8188637E-01
        2   -1    0    0  501    0  0.00000000000E+00  0.00000000000E+00  0.19831214283E+04  0.19831214283E+04  0.25500000920E-02 0.  1.
       -2   -1    0    0    0  501  0.00000000000E+00  0.00000000000E+00 -0.12914445635E+04  0.12914445635E+04  0.25500000920E-02 0. -1.
    10030    2    1    2    0    0  0.00000000000E+00  0.00000000000E+00  0.69167686476E+03  0.32745659918E+04  0.32006820444E+04 0.  0.
        3    1    3    3  502    0 -0.75020026611E+03 -0.78154797875E+03  0.15509398370E+04  0.18918329923E+04  0.10100000352E+00 0.  1.
       -3    1    3    3    0  502  0.75020026611E+03  0.78154797875E+03 -0.85926297228E+03  0.13827329996E+04  0.10100000352E+00 0. -1.
</event>
<event>
 5   0  0.1230450E-07  0.3208576E+04  0.7818609E-02  0.8186556E-01
        3   -1    0    0  501    0  0.00000000000E+00  0.00000000000E+00  0.13509303708E+04  0.13509303746E+04  0.10100000352E+00 0.  1.
       -3   -1    0    0    0  501  0.00000000000E+00  0.00000000000E+00 -0.19051606115E+04  0.19051606142E+04  0.10100000352E+00 0. -1.
    10030    2    1    2    0    0  0.00000000000E+00  0.00000000000E+00 -0.55423024071E+03  0.32560909888E+04  0.32085755980E+04 0.  0.
        4    1    3    3  502    0  0.11273190589E+04 -0.10787812615E+04  0.10139696992E+03  0.15636176736E+04  0.12699999809E+01 0. -1.
       -4    1    3    3    0  502 -0.11273190589E+04  0.10787812615E+04 -0.65562721063E+03  0.16924733153E+04  0.12699999809E+01 0.  1.
</event>
<event>
 5   0  0.1270948E-07  0.3197800E+04  0.7818609E-02  0.8189398E-01
       -1   -1    0    0    0  501  0.00000000000E+00  0.00000000000E+00  0.16258494553E+04  0.16258494554E+04  0.50400001928E-02 0.  1.
        1   -1    0    0  501    0  0.00000000000E+00  0.00000000000E+00 -0.15723975331E+04  0.15723975332E+04  0.50400001928E-02 0. -1.
    10030    2    1    2    0    0  0.00000000000E+00  0.00000000000E+00  0.53451922199E+02  0.31982469885E+04  0.31978002895E+04 0.  0.
        4    1    3    3  502    0  0.22921514590E+03  0.65200310129E+03  0.14687430398E+04  0.16232237545E+04  0.12699999809E+01 0.  1.
       -4    1    3    3    0  502 -0.22921514590E+03 -0.65200310129E+03 -0.14152911176E+04  0.15750232340E+04  0.12699999809E+01 0. -1.
</event>
<event>
 5   0  0.1365455E-07  0.3195478E+04  0.7818609E-02  0.8190012E-01
       -1   -1    0    0    0  501  0.00000000000E+00  0.00000000000E+00  0.17331001828E+04  0.17331001828E+04  0.50400001928E-02 0. -1.
        1   -1    0    0  501    0  0.00000000000E+00  0.00000000000E+00 -0.14729501361E+04  0.14729501361E+04  0.50400001928E-02 0.  1.
    10030    2    1    2    0    0  0.00000000000E+00  0.00000000000E+00  0.26015004670E+03  0.32060503189E+04  0.31954781489E+04 0.  0.
        3    1    3    3  502    0 -0.15024278921E+04 -0.15634600743E+03 -0.39225906352E+03  0.15606411593E+04  0.10100000352E+00 0.  1.
       -3    1    3    3    0  502  0.15024278921E+04  0.15634600743E+03  0.65240911023E+03  0.16454091595E+04  0.10100000352E+00 0. -1.
</event>
<event>
 5   0  0.3750285E-07  0.3195450E+04  0.7818609E-02  0.8190020E-01
       -2   -1    0    0    0  501  0.00000000000E+00  0.00000000000E+00  0.26132762176E+04  0.26132762176E+04  0.25500000920E-02 0.  1.
        2   -1    0    0  501    0  0.00000000000E+00  0.00000000000E+00 -0.97682918745E+03  0.97682918746E+03  0.25500000920E-02 0. -1.
    10030    2    1    2    0    0  0.00000000000E+00  0.00000000000E+00  0.16364470301E+04  0.35901054050E+04  0.31954495672E+04 0.  0.
        1    1    3    3  502    0 -0.79017829415E+03 -0.44859106329E+03 -0.65828202619E+03  0.11220298145E+04  0.50400001928E-02 0. -1.
       -1    1    3    3    0  502  0.79017829415E+03  0.44859106329E+03  0.22947290563E+04  0.24680755905E+04  0.50400001928E-02 0.  1.
</event>
<event>
 5   0  0.1317293E-07  0.3197860E+04  0.7818609E-02  0.8189382E-01
        1   -1    0    0  501    0  0.00000000000E+00  0.00000000000E+00  0.17903287805E+04  0.17903287805E+04  0.50400001928E-02 0.  1.
       -1   -1    0    0    0  501  0.00000000000E+00  0.00000000000E+00 -0.14279933919E+04  0.14279933919E+04  0.50400001928E-02 0. -1.
    10030    2    1    2    0    0  0.00000000000E+00  0.00000000000E+00  0.36233538865E+03  0.32183221724E+04  0.31978603271E+04 0.  0.
        1    1    3    3  502    0 -0.32208083789E+03  0.76044309850E+03  0.15590769380E+04  0.17642932497E+04  0.50400001928E-02 0.  1.
       -1    1    3    3    0  502  0.32208083789E+03 -0.76044309850E+03 -0.11967415494E+04  0.14540289227E+04  0.50400001928E-02 0. -1.
</event>
<event>
 5   0  0.3942564E-07  0.3199934E+04  0.7818609E-02  0.8188834E-01
       -2   -1    0    0    0  501  0.00000000000E+00  0.00000000000E+00  0.91646663687E+03  0.91646663687E+03  0.25500000920E-02 0.  1.
        2   -1    0    0  501    0  0.00000000000E+00  0.00000000000E+00 -0.27932224426E+04  0.27932224426E+04  0.25500000920E-02 0. -1.
    10030    2    1    2    0    0  0.00000000000E+00  0.00000000000E+00 -0.18767558057E+04  0.37096890795E+04  0.31999344856E+04 0.  0.
        3    1    3    3  502    0 -0.14517747383E+04  0.46287985104E+03 -0.15039311717E+04  0.21409616126E+04  0.10100000352E+00 0. -1.
       -3    1    3    3    0  502  0.14517747383E+04 -0.46287985104E+03 -0.37282463401E+03  0.15687274668E+04  0.10100000352E+00 0.  1.
</event>
<event>
 5   0  0.3942564E-07  0.3186092E+04  0.7818609E-02  0.8192500E-01
        2   -1    0    0  501    0  0.00000000000E+00  0.00000000000E+00  0.21218659407E+04  0.21218659407E+04  0.25500000920E-02 0.  1.
       -2   -1    0    0    0  501  0.00000000000E+00  0.00000000000E+00 -0.11960207249E+04  0.11960207249E+04  0.25500000920E-02 0. -1.
    10030    2    1    2    0    0  0.00000000000E+00  0.00000000000E+00  0.92584521581E+03  0.33178866657E+04  0.31860920518E+04 0.  0.
        3    1    3    3  502    0 -0.77035564289E+03  0.68520484135E+02  0.19132472363E+04  0.20636515866E+04  0.10100000352E+00 0.  1.
       -3    1    3    3    0  502  0.77035564289E+03 -0.68520484135E+02 -0.98740202054E+03  0.12542350791E+04  0.10100000352E+00 0. -1.
</event>
<event>
 5   0  0.3830207E-07  0.3206304E+04  0.7818609E-02  0.8187154E-01
        2   -1    0    0  501    0  0.00000000000E+00  0.00000000000E+00  0.15697637957E+04  0.15697637957E+04  0.25500000920E-02 0. -1.
       -2   -1    0    0    0  501  0.00000000000E+00  0.00000000000E+00 -0.16372506587E+04  0.16372506587E+04  0.25500000920E-02 0.  1.
    10030    2    1    2    0    0  0.00000000000E+00  0.00000000000E+00 -0.67486862954E+02  0.32070144545E+04  0.32063042954E+04 0.  0.
        4    1    3    3  502    0  0.10791602768E+04  0.10541044070E+04 -0.57642437494E+03  0.16149271428E+04  0.12699999809E+01 0.  1.
       -4    1    3    3    0  502 -0.10791602768E+04 -0.10541044070E+04  0.50893751199E+03  0.15920873116E+04  0.12699999809E+01 0. -1.
</event>
<event>
 5   0  0.1277374E-07  0.3200423E+04  0.7818609E-02  0.8188705E-01
        1   -1    0    0  501    0  0.00000000000E+00  0.00000000000E+00  0.22591333856E+04  0.22591333856E+04  0.50400001928E-02 0.  1.
       -1   -1    0    0    0  501  0.00000000000E+00  0.00000000000E+00 -0.11334776287E+04  0.11334776287E+04  0.50400001928E-02 0. -1.
    10030    2    1    2    0    0  0.00000000000E+00  0.00000000000E+00  0.11256557569E+04  0.33926110144E+04  0.32004231926E+04 0.  0.
        5    1    3    3  502    0  0.55201880949E+03 -0.62099914184E+02  0.21536366510E+04  0.22241299602E+04  0.46999998093E+01 0.  1.
       -5    1    3    3    0  502 -0.55201880949E+03  0.62099914184E+02 -0.10279808941E+04  0.11684810542E+04  0.46999998093E+01 0. -1.
</event>
<event>
 5   0  0.3830207E-07  0.3115775E+04  0.7818609E-02  0.8211422E-01
        2   -1    0    0  501    0  0.00000000000E+00  0.00000000000E+00  0.16703735204E+04  0.16703735204E+04  0.25500000920E-02 0.  1.
       -2   -1    0    0    0  501  0.00000000000E+00  0.00000000000E+00 -0.14529765861E+04  0.14529765861E+04  0.25500000920E-02 0. -1.
    10030    2    1    2    0    0  0.00000000000E+00  0.00000000000E+00  0.21739693426E+03  0.31233501066E+04  0.31157750980E+04 0.  0.
        4    1    3    3  502    0  0.99533409352E+03  0.87565284369E+03 -0.71155375756E+03  0.15045824082E+04  0.12699999809E+01 0. -1.
       -4    1    3    3    0  502 -0.99533409352E+03 -0.87565284369E+03  0.92895069182E+03  0.16187676983E+04  0.12699999809E+01 0.  1.
</event>
<event>
 5   0  0.1277374E-07  0.3215563E+04  0.7818609E-02  0.8184719E-01
        1   -1    0    0  501    0  0.00000000000E+00  0.00000000000E+00  0.15651931870E+04  0.15651931870E+04  0.50400001928E-02 0.  1.
       -1   -1    0    0    0  501  0.00000000000E+00  0.00000000000E+00 -0.16515283772E+04  0.16515283773E+04  0.50400001928E-02 0. -1.
    10030    2    1    2    0    0  0.00000000000E+00  0.00000000000E+00 -0.86335190245E+02  0.32167215643E+04  0.32155627590E+04 0.  0.
        5    1    3    3  502    0  0.12495958896E+04  0.97587738095E+03  0.22359744689E+03  0.16012009425E+04  0.46999998093E+01 0. -1.
       -5    1    3    3    0  502 -0.12495958896E+04 -0.97587738095E+03 -0.30993263713E+03  0.16155206218E+04  0.46999998093E+01 0.  1.
</event>
<event>
 5   0  0.3750285E-07  0.3199941E+04  0.7818609E-02  0.8188833E-01
       -2   -1    0    0    0  501  0.00000000000E+00  0.00000000000E+00  0.18543136301E+04  0.18543136301E+04  0.25500000920E-02 0.  1.
        2   -1    0    0  501    0  0.00000000000E+00  0.00000000000E+00 -0.13805140816E+04  0.13805140816E+04  0.25500000920E-02 0. -1.
    10030    2    1    2    0    0  0.00000000000E+00  0.00000000000E+00  0.47379954843E+03  0.32348277117E+04  0.31999412983E+04 0.  0.
        1    1    3    3  502    0 -0.14735858404E+04  0.59899933081E+03  0.62828840642E+02  0.15919179911E+04  0.50400001928E-02 0. -1.
       -1    1    3    3    0  502  0.14735858404E+04 -0.59899933081E+03  0.41097070779E+03  0.16429097206E+04  0.50400001928E-02 0.  1.
</event>
<event>
 5   0  0.1288096E-07  0.3200437E+04  0.7818609E-02  0.8188702E-01
       -1   -1    0    0    0  501  0.00000000000E+00  0.00000000000E+00  0.11878608962E+04  0.11878608962E+04  0.50400001928E-02 0. -1.
        1   -1    0    0  501    0  0.00000000000E+00  0.00000000000E+00 -0.21557232728E+04  0.21557232728E+04  0.50400001928E-02 0.  1.
    10030    2    1    2    0    0  0.00000000000E+00  0.00000000000E+00 -0.96786237665E+03  0.33435841690E+04  0.32004370819E+04 0.  0.
        2    1    3    3  502    0 -0.96462354812E+03 -0.33181803909E+03  0.80413654207E+03  0.12989370189E+04  0.25500000920E-02 0. -1.
       -2    1    3    3    0  502  0.96462354812E+03  0.33181803909E+03 -0.17719989187E+04  0.20446471501E+04  0.25500000920E-02 0.  1.
</event>
<event>
 5   0  0.3764056E-07  0.3207781E+04  0.7818609E-02  0.8186765E-01
        2   -1    0    0  501    0  0.00000000000E+00  0.00000000000E+00  0.20723782167E+04  0.20723782167E+04  0.25500000920E-02 0.  1.
       -2   -1    0    0    0  501  0.00000000000E+00  0.00000000000E+00 -0.12413106576E+04  0.12413106576E+04  0.25500000920E-02 0. -1.
    10030    2    1    2    0    0  0.00000000000E+00  0.00000000000E+00  0.83106755908E+03  0.33136888743E+04  0.32077812688E+04 0.  0.
        5    1    3    3  502    0  0.28393643757E+02  0.15259451265E+04 -0.93826157222E+02  0.15290978275E+04  0.46999998093E+01 0. -1.
       -5    1    3    3    0  502 -0.28393643757E+02 -0.15259451265E+04  0.92489371630E+03  0.17845910469E+04  0.46999998093E+01 0.  1.
</event>
<event>
 5   0  0.1365455E-07  0.3195069E+04  0.7818609E-02  0.8190121E-01
        1   -1    0    0  501    0  0.00000000000E+00  0.00000000000E+00  0.13870833827E+04  0.13870833827E+04  0.50400001928E-02 0.  1.
       -1   -1    0    0    0  501  0.00000000000E+00  0.00000000000E+00 -0.18399161635E+04  0.18399161635E+04  0.50400001928E-02 0. -1.
    10030    2    1    2    0    0  0.00000000000E+00  0.00000000000E+00 -0.45283278080E+03  0.32269995462E+04  0.31950694114E+04 0.  0.
        3    1    3    3  502    0 -0.12327201715E+04 -0.88998395762E+03  0.26883759721E+03  0.15440026328E+04  0.10100000352E+00 0.  1.
       -3    1    3    3    0  502  0.12327201715E+04  0.88998395762E+03 -0.72167037801E+03  0.16829969135E+04  0.10100000352E+00 0. -1.
</event>
<event>
 5   0  0.1365455E-07  0.3198302E+04  0.7818609E-02  0.8189266E-01
        1   -1    0    0  501    0  0.00000000000E+00  0.00000000000E+00  0.16321792037E+04  0.16321792037E+04  0.50400001928E-02 0. -1.
       -1   -1    0    0    0  501  0.00000000000E+00  0.00000000000E+00 -0.15667914309E+04  0.15667914309E+04  0.50400001928E-02 0.  1.
    10030    2    1    2    0    0  0.00000000000E+00  0.00000000000E+00  0.65387772776E+02  0.31989706346E+04  0.31983022934E+04 0.  0.
        3    1    3    3  502    0  0.15859139479E+04 -0.12580212707E+03 -0.12962112243E+03  0.15961675573E+04  0.10100000352E+00 0.  1.
       -3    1    3    3    0  502 -0.15859139479E+04  0.12580212707E+03  0.19500889521E+03  0.16028030773E+04  0.10100000352E+00 0. -1.
</event>
<event>
 5   0  0.1365455E-07  0.3198873E+04  0.7818609E-02  0.8189115E-01
       -1   -1    0    0    0  501  0.00000000000E+00  0.00000000000E+00  0.26191455890E+04  0.26191455890E+04  0.50400001928E-02 0. -1.
        1   -1    0    0  501    0  0.00000000000E+00  0.00000000000E+00 -0.97672951008E+03  0.97672951010E+03  0.50400001928E-02 0.  1.
    10030    2    1    2    0    0  0.00000000000E+00  0.00000000000E+00  0.16424160789E+04  0.35958750991E+04  0.31988727940E+04 0.  0.
        3    1    3    3  502    0  0.57441253356E+03  0.48108870942E+03  0.24096632923E+04  0.25234645426E+04  0.10100000352E+00 0. -1.
       -3    1    3    3    0  502 -0.57441253356E+03 -0.48108870942E+03 -0.76724721342E+03  0.10724105565E+04  0.10100000352E+00 0.  1.
</event>
<event>
 5   0  0.1288096E-07  0.3207049E+04  0.7818609E-02  0.8186958E-01
       -1   -1    0    0    0  501  0.00000000000E+00  0.00000000000E+00  0.95885194961E+03  0.95885194962E+03  0.50400001928E-02 0. -1.
        1   -1    0    0  501    0  0.00000000000E+00  0.00000000000E+00 -0.26816341405E+04  0.26816341405E+04  0.50400001928E-02 0.  1.
    10030    2    1    2    0    0  0.00000000000E+00  0.00000000000E+00 -0.17227821909E+04  0.36404860902E+04  0.32070485645E+04 0.  0.
        2    1    3    3  502    0 -0.26044785906E+03  0.39730090992E+03  0.87713675115E+03  0.99752191983E+03  0.25500000920E-02 0. -1.
       -2    1    3    3    0  502  0.26044785906E+03 -0.39730090992E+03 -0.25999189421E+04  0.26429641703E+04  0.25500000920E-02 0.  1.
</event>
<event>
 5   0  0.1277374E-07  0.3211556E+04  0.7818609E-02  0.8185772E-01
       -1   -1    0    0    0  501  0.00000000000E+00  0.00000000000E+00  0.22604221101E+04  0.22604221101E+04  0.50400001928E-02 0.  1.
        1   -1    0    0  501    0  0.00000000000E+00  0.00000000000E+00 -0.11407262520E+04  0.11407262520E+04  0.50400001928E-02 0. -1.
    10030    2    1    2    0    0  0.00000000000E+00  0.00000000000E+00  0.11196958581E+04  0.34011483621E+04  0.32115559106E+04 0.  0.
        5    1    3    3  502    0  0.24601542324E+03 -0.14369854851E+04  0.12726732183E+04  0.19352441922E+04  0.46999998093E+01 0. -1.
       -5    1    3    3    0  502 -0.24601542324E+03  0.14369854851E+04 -0.15297736016E+03  0.14659041700E+04  0.46999998093E+01 0.  1.
</event>
<event>
 5   0  0.3764056E-07  0.3180817E+04  0.7818609E-02  0.8193902E-01
        2   -1    0    0  501    0  0.00000000000E+00  0.00000000000E+00  0.10195863586E+04  0.10195863586E+04  0.25500000920E-02 0. -1.
       -2   -1    0    0    0  501  0.00000000000E+00  0.00000000000E+00 -0.24808093686E+04  0.24808093686E+04  0.25500000920E-02 0.  1.
    10030    2    1    2    0    0  0.00000000000E+00  0.00000000000E+00 -0.14612230101E+04  0.35003957272E+04  0.31808171217E+04 0.  0.
        5    1    3    3  502    0 -0.11597665691E+04  0.87967619923E+03 -0.14356762341E+04  0.20445236730E+04  0.46999998093E+01 0.  1.
       -5    1    3    3    0  502  0.11597665691E+04 -0.87967619923E+03 -0.25546775997E+02  0.14558720542E+04  0.46999998093E+01 0. -1.
</event>
<event>
 5   0  0.1230450E-07  0.3196340E+04  0.7818609E-02  0.8189785E-01
        3   -1    0    0  501    0  0.00000000000E+00  0.00000000000E+00  0.22933100484E+04  0.22933100506E+04  0.10100000352E+00 0. -1.
       -3   -1    0    0    0  501  0.00000000000E+00  0.00000000000E+00 -0.11137380388E+04  0.11137380434E+04  0.10100000352E+00 0.  1.
    10030    2    1    2    0    0  0.00000000000E+00  0.00000000000E+00  0.11795720096E+04  0.34070480940E+04  0.31963395610E+04 0.  0.
        4    1    3    3  502    0 -0.15099413567E+04 -0.50273900635E+02  0.34181302951E+02  0.15111652259E+04  0.12699999809E+01 0.  1.
       -4    1    3    3    0  502  0.15099413567E+04  0.50273900635E+02  0.11453907067E+04  0.18958828681E+04  0.12699999809E+01 0. -1.
</event>
<event>
 5   0  0.3750285E-07  0.3198992E+04  0.7818609E-02  0.8189083E-01
        2   -1    0    0  501    0  0.00000000000E+00  0.00000000000E+00  0.17901810076E+04  0.17901810076E+04  0.25500000920E-02 0.  1.
       -2   -1    0    0    0  501  0.00000000000E+00  0.00000000000E+00 -0.14291223456E+04  0.14291223456E+04  0.25500000920E-02 0. -1.
    10030    2    1    2    0    0  0.00000000000E+00  0.00000000000E+00  0.36105866203E+03  0.32193033532E+04  0.31989921417E+04 0.  0.
        1    1    3    3  502    0  0.13781298386E+04  0.72949703600E+03 -0.17807557286E+03  0.15694326004E+04  0.50400001928E-02 0. -1.
       -1    1    3    3    0  502 -0.13781298386E+04 -0.72949703600E+03  0.53913423489E+03  0.16498707528E+04  0.50400001928E-02 0.  1.
</event>
<event>
 5   0  0.1317293E-07  0.3193991E+04  0.7818609E-02  0.8190406E-01
        1   -1    0    0  501    0  0.00000000000E+00  0.00000000000E+00  0.28197219215E+04  0.28197219215E+04  0.50400001928E-02 0. -1.
       -1   -1    0    0    0  501  0.00000000000E+00  0.00000000000E+00 -0.90448460378E+03  0.90448460379E+03  0.50400001928E-02 0.  1.
    10030    2    1    2    0    0  0.00000000000E+00  0.00000000000E+00  0.19152373177E+04  0.37242065253E+04  0.31939912742E+04 0.  0.
        1    1    3    3  502    0  0.44313482983E+03  0.39036221568E+03 -0.77249076728E+03  0.97236470648E+03  0.50400001928E-02 0.  1.
       -1    1    3    3    0  502 -0.44313482983E+03 -0.39036221568E+03  0.26877280850E+04  0.27518418188E+04  0.50400001928E-02 0. -1.
</event>
<event>
 5   0  0.3830207E-07  0.3194410E+04  0.7818609E-02  0.8190295E-01
        2   -1    0    0  501    0  0.00000000000E+00  0.00000000000E+00  0.26275120218E+04  0.26275120218E+04  0.25500000920E-02 0.  1.
       -2   -1    0    0    0  501  0.00000000000E+00  0.00000000000E+00 -0.97090494123E+03  0.97090494123E+03  0.25500000920E-02 0. -1.
    10030    2    1    2    0    0  0.00000000000E+00  0.00000000000E+00  0.16566070806E+04  0.35984169630E+04  0.31944103713E+04 0.  0.
        4    1    3    3  502    0  0.53000263214E+03 -0.15057912727E+04  0.76920239360E+03  0.17720000232E+04  0.12699999809E+01 0.  1.
       -4    1    3    3    0  502 -0.53000263214E+03  0.15057912727E+04  0.88740468698E+03  0.18264169399E+04  0.12699999809E+01 0. -1.
</event>
<event>
 5   0  0.3942564E-07  0.3205340E+04  0.7818609E-02  0.8187408E-01
        2   -1    0    0  501    0  0.00000000000E+00  0.00000000000E+00  0.14272079653E+04  0.14272079653E+04  0.25500000920E-02 0. -1.
       -2   -1    0    0    0  501  0.00000000000E+00  0.00000000000E+00 -0.17997030384E+04  0.17997030384E+04  0.25500000920E-02 0.  1.
    10030    2    1    2    0    0  0.00000000000E+00  0.00000000000E+00 -0.37249507310E+03  0.32269110036E+04  0.32053396147E+04 0.  0.
        3    1    3    3  502    0 -0.32196313960E+03  0.91453943137E+03 -0.14709657091E+04  0.17617555910E+04  0.10100000352E+00 0.  1.
       -3    1    3    3    0  502  0.32196313960E+03 -0.91453943137E+03  0.10984706360E+04  0.14651554126E+04  0.10100000352E+00 0. -1.
</event>
<event>
 5   0  0.1365455E-07  0.3199436E+04  0.7818609E-02  0.8188966E-01
        1   -1    0    0  501    0  0.00000000000E+00  0.00000000000E+00  0.13569039381E+04  0.13569039381E+04  0.50400001928E-02 0. -1.
       -1   -1    0    0    0  501  0.00000000000E+00  0.00000000000E+00 -0.18859832506E+04  0.18859832506E+04  0.50400001928E-02 0.  1.
    10030    2    1    2    0    0  0.00000000000E+00  0.00000000000E+00 -0.52907931254E+03  0.32428871887E+04  0.31994362628E+04 0.  0.
        3    1    3    3  502    0 -0.73613220759E+02  0.46737936662E+03 -0.18134409405E+04  0.18741479220E+04  0.10100000352E+00 0.  1.
       -3    1    3    3    0  502  0.73613220759E+02 -0.46737936662E+03  0.12843616280E+04  0.13687392667E+04  0.10100000352E+00 0. -1.
</event>
<event>
 5   0  0.1277374E-07  0.3195398E+04  0.7818609E-02  0.8190034E-01
       -1   -1    0    0    0  501  0.00000000000E+00  0.00000000000E+00  0.25047957628E+04  0.25047957628E+04  0.50400001928E-02 0.  1.
        1   -1    0    0  501    0  0.00000000000E+00  0.00000000000E+00 -0.10191018464E+04  0.10191018464E+04  0.50400001928E-02 0. -1.
    10030    2    1    2    0    0  0.00000000000E+00  0.00000000000E+00  0.14856939165E+04  0.35238976092E+04  0.31953979324E+04 0.  0.
        5    1    3    3  502    0  0.45269797344E+03 -0.10126047516E+04  0.20109833544E+04  0.22966018332E+04  0.46999998093E+01 0.  1.
       -5    1    3    3    0  502 -0.45269797344E+03  0.10126047516E+04 -0.52528943798E+03  0.12272957760E+04  0.46999998093E+01 0. -1.
</event>
<event>
 5   0  0.1270948E-07  0.3184011E+04  0.7818609E-02  0.8193053E-01
        1   -1    0    0  501    0  0.00000000000E+00  0.00000000000E+00  0.12394243790E+04  0.12394243790E+04  0.50400001928E-02 0. -1.
       -1   -1    0    0    0  501  0.00000000000E+00  0.00000000000E+00 -0.20448863349E+04  0.20448863349E+04  0.50400001928E-02 0.  1.
    10030    2    1    2    0    0  0.00000000000E+00  0.00000000000E+00 -0.80546195590E+03  0.32843107138E+04  0.31840112912E+04 0.  0.
        4    1    3    3  502    0  0.13588479134E+04 -0.51434312193E+02  0.45121678097E+03  0.14327286333E+04  0.12699999809E+01 0. -1.
       -4    1    3    3    0  502 -0.13588479134E+04  0.51434312193E+02 -0.12566787369E+04  0.18515820805E+04  0.12699999809E+01 0.  1.
</event>
<event>
 5   0  0.3764056E-07  0.3181141E+04  0.7818609E-02  0.8193815E-01
       -2   -1    0    0    0  501  0.00000000000E+00  0.00000000000E+00  0.10286654067E+04  0.10286654067E+04  0.25500000920E-02 0. -1.
        2   -1    0    0  501    0  0.00000000000E+00  0.00000000000E+00 -0.24594150160E+04  0.24594150160E+04  0.25500000920E-02 0.  1.
    10030    2    1    2    0    0  0.00000000000E+00  0.00000000000E+00 -0.14307496094E+04  0.34880804227E+04  0.31811413974E+04 0.  0.
        5    1    3    3  502    0 -0.52530178113E+03 -0.66198289008E+03  0.76213074548E+03  0.11379932650E+04  0.46999998093E+01 0. -1.
       -5    1    3    3    0  502  0.52530178113E+03  0.66198289008E+03 -0.21928803548E+04  0.23500871577E+04  0.46999998093E+01 0.  1.
</event>
<event>
 5   0  0.3858721E-07  0.3201296E+04  0.7818609E-02  0.8188475E-01
       -2   -1    0    0    0  501  0.00000000000E+00  0.00000000000E+00  0.13534598339E+04  0.13534598339E+04  0.25500000920E-02 0.  1.
        2   -1    0    0  501    0  0.00000000000E+00  0.00000000000E+00 -0.18929816118E+04  0.18929816118E+04  0.25500000920E-02 0. -1.
    10030    2    1    2    0    0  0.00000000000E+00  0.00000000000E+00 -0.53952177796E+03  0.32464414457E+04  0.32012963486E+04 0.  0.
        2    1    3    3  502    0 -0.78208727601E+03 -0.88077811485E+03  0.82933307818E+03  0.14405637610E+04  0.25500000920E-02 0.  1.
       -2    1    3    3    0  502  0.78208727601E+03  0.88077811485E+03 -0.13688548561E+04  0.18058776847E+04  0.25500000920E-02 0. -1.
</event>
<event>
 5   0  0.3942564E-07  0.3218804E+04  0.7818609E-02  0.8183869E-01
        2   -1    0    0  501    0  0.00000000000E+00  0.00000000000E+00  0.15565570502E+04  0.15565570502E+04  0.25500000920E-02 0. -1.
       -2   -1    0    0    0  501  0.00000000000E+00  0.00000000000E+00 -0.16640407868E+04  0.16640407868E+04  0.25500000920E-02 0.  1.
    10030    2    1    2    0    0  0.00000000000E+00  0.00000000000E+00 -0.10748373668E+03  0.32205978370E+04  0.32188037645E+04 0.  0.
        3    1    3    3  502    0 -0.22592463562E+03  0.14182450300E+04  0.67310194724E+03  0.15860413448E+04  0.10100000352E+00 0. -1.
       -3    1    3    3    0  502  0.22592463562E+03 -0.14182450300E+04 -0.78058568392E+03  0.16345564922E+04  0.10100000352E+00 0.  1.
</event>
<event>
 5   0  0.3858721E-07  0.3197708E+04  0.7818609E-02  0.8189423E-01
       -2   -1    0    0    0  501  0.00000000000E+00  0.00000000000E+00  0.19052673827E+04  0.19052673827E+04  0.25500000920E-02 0. -1.
        2   -1    0    0  501    0  0.00000000000E+00  0.00000000000E+00 -0.13417193349E+04  0.13417193349E+04  0.25500000920E-02 0.  1.
    10030    2    1    2    0    0  0.00000000000E+00  0.00000000000E+00  0.56354804784E+03  0.32469867175E+04  0.31977079826E+04 0.  0.
        2    1    3    3  502    0 -0.10041943992E+04 -0.11926604787E+04  0.64147695804E+03  0.16859235145E+04  0.25500000920E-02 0. -1.
       -2    1    3    3    0  502  0.10041943992E+04  0.11926604787E+04 -0.77928910194E+02  0.15610632031E+04  0.25500000920E-02 0.  1.
</event>
<event>
 5   0  0.3942564E-07  0.3210956E+04  0.7818609E-02  0.8185930E-01
       -2   -1    0    0    0  501  0.00000000000E+00  0.00000000000E+00  0.10823661802E+04  0.10823661802E+04  0.25500000920E-02 0.  1.
        2   -1    0    0  501    0  0.00000000000E+00  0.00000000000E+00 -0.23814112870E+04  0.23814112870E+04  0.25500000920E-02 0. -1.
    10030    2    1    2    0    0  0.00000000000E+00  0.00000000000E+00 -0.12990451068E+04  0.34637774672E+04  0.32109556448E+04 0.  0.
        3    1    3    3  502    0  0.43026242190E+03 -0.82865726603E+03  0.75935967739E+03  0.12035056070E+04  0.10100000352E+00 0.  1.
       -3    1    3    3    0  502 -0.43026242190E+03  0.82865726603E+03 -0.20584047842E+04  0.22602718602E+04  0.10100000352E+00 0. -1.
</event>
<event>
 5   0  0.3764056E-07  0.3193930E+04  0.7818609E-02  0.8190422E-01
        2   -1    0    0  501    0  0.00000000000E+00  0.00000000000E+00  0.20065630276E+04  0.20065630276E+04  0.25500000920E-02 0. -1.
       -2   -1    0    0    0  501  0.00000000000E+00  0.00000000000E+00 -0.12709781646E+04  0.12709781646E+04  0.25500000920E-02 0.  1.
    10030    2    1    2    0    0  0.00000000000E+00  0.00000000000E+00  0.73558486295E+03  0.32775411922E+04  0.31939303650E+04 0.  0.
        5    1    3    3  502    0 -0.12536718475E+04  0.22004829391E+03 -0.62190367217E+03  0.14166511993E+04  0.46999998093E+01 0.  1.
       -5    1    3    3    0  502  0.12536718475E+04 -0.22004829391E+03  0.13574885351E+04  0.18608899930E+04  0.46999998093E+01 0. -1.
</event>
<event>
 5   0  0.3830207E-07  0.3210984E+04  0.7818609E-02  0.8185922E-01
       -2   -1    0    0    0  501  0.00000000000E+00  0.00000000000E+00  0.30681585224E+04  0.30681585224E+04  0.25500000920E-02 0.  1.
        2   -1    0    0  501    0  0.00000000000E+00  0.00000000000E+00 -0.84011478437E+03  0.84011478437E+03  0.25500000920E-02 0. -1.
    10030    2    1    2    0    0  0.00000000000E+00  0.00000000000E+00  0.22280437380E+04  0.39082733068E+04  0.32109844817E+04 0.  0.
        4    1    3    3  502    0 -0.60501828392E+02  0.37058774607E+03  0.30139603997E+04  0.30372610446E+04  0.12699999809E+01 0.  1.
       -4    1    3    3    0  502  0.60501828392E+02 -0.37058774607E+03 -0.78591666173E+03  0.87101226218E+03  0.12699999809E+01 0. -1.
</event>
<event>
 5   0  0.3830207E-07  0.3201460E+04  0.7818609E-02  0.8188432E-01
       -2   -1    0    0    0  501  0.00000000000E+00  0.00000000000E+00  0.12960369283E+04  0.12960369283E+04  0.25500000920E-02 0. -1.
        2   -1    0    0  501    0  0.00000000000E+00  0.00000000000E+00 -0.19770548754E+04  0.19770548754E+04  0.25500000920E-02 0.  1.
    10030    2    1    2    0    0  0.00000000000E+00  0.00000000000E+00 -0.68101794714E+03  0.32730918037E+04  0.32014597470E+04 0.  0.
        4    1    3    3  502    0  0.88871879180E+03  0.11007771877E+04 -0.11061325662E+04  0.17958458661E+04  0.12699999809E+01 0.  1.
       -4    1    3    3    0  502 -0.88871879180E+03 -0.11007771877E+04  0.42511461906E+03  0.14772459376E+04  0.12699999809E+01 0. -1.
</event>
<event>
 5   0  0.1317293E-07  0.3195989E+04  0.7818609E-02  0.8189877E-01
        1   -1    0    0  501    0  0.00000000000E+00  0.00000000000E+00  0.12854727710E+04  0.12854727710E+04  0.50400001928E-02 0. -1.
       -1   -1    0    0    0  501  0.00000000000E+00  0.00000000000E+00 -0.19864953563E+04  0.19864953563E+04  0.50400001928E-02 0.  1.
    10030    2    1    2    0    0  0.00000000000E+00  0.00000000000E+00 -0.70102258528E+03  0.32719681273E+04  0.31959885421E+04 0.  0.
        1    1    3    3  502    0 -0.83520749155E+03 -0.12145512511E+04 -0.98233743326E+03  0.17713534735E+04  0.50400001928E-02 0.  1.
       -1    1    3    3    0  502  0.83520749155E+03  0.12145512511E+04  0.28131484798E+03  0.15006146538E+04  0.50400001928E-02 0. -1.
</event>
<event>
 5   0  0.3858721E-07  0.3222050E+04  0.7818609E-02  0.8183018E-01
        2   -1    0    0  501    0  0.00000000000E+00  0.00000000000E+00  0.18007223193E+04  0.18007223193E+04  0.25500000920E-02 0.  1.
       -2   -1    0    0    0  501  0.00000000000E+00  0.00000000000E+00 -0.14413112090E+04  0.14413112090E+04  0.25500000920E-02 0. -1.
    10030    2    1    2    0    0  0.00000000000E+00  0.00000000000E+00  0.35941111028E+03  0.32420335282E+04  0.32220498215E+04 0.  0.
        2    1    3    3  502    0  0.30755204563E+03 -0.81450395581E+03  0.15436185592E+04  0.17722198540E+04  0.25500000920E-02 0.  1.
       -2    1    3    3    0  502 -0.30755204563E+03  0.81450395581E+03 -0.11842074489E+04  0.14698136742E+04  0.25500000920E-02 0. -1.
</event>
<event>
 5   0  0.1277374E-07  0.3197246E+04  0.7818609E-02  0.8189545E-01
       -1   -1    0    0    0  501  0.00000000000E+00  0.00000000000E+00  0.12487908371E+04  0.12487908371E+04  0.50400001928E-02 0. -1.
        1   -1    0    0  501    0  0.00000000000E+00  0.00000000000E+00 -0.20464561954E+04  0.20464561954E+04  0.50400001928E-02 0.  1.
    10030    2    1    2    0    0  0.00000000000E+00  0.00000000000E+00 -0.79766535831E+03  0.32952470325E+04  0.31972461559E+04 0.  0.
        5    1    3    3  502    0 -0.11676739178E+04  0.98288713469E+03 -0.88884674540E+03  0.17662389772E+04  0.46999998093E+01 0.  1.
       -5    1    3    3    0  502  0.11676739178E+04 -0.98288713469E+03  0.91181387086E+02  0.15290080553E+04  0.46999998093E+01 0. -1.
</event>
<event>
 5   0  0.1317293E-07  0.3203467E+04  0.7818609E-02  0.8187902E-01
        1   -1    0    0  501    0  0.00000000000E+00  0.00000000000E+00  0.18849158062E+04  0.18849158062E+04  0.50400001928E-02 0.  1.
       -1   -1    0    0    0  501  0.00000000000E+00  0.00000000000E+00 -0.13610954891E+04  0.13610954891E+04  0.50400001928E-02 0. -1.
    10030    2    1    2    0    0  0.00000000000E+00  0.00000000000E+00  0.52382031708E+03  0.32460112953E+04  0.32034671225E+04 0.  0.
        1    1    3    3  502    0 -0.10566181786E+04  0.12239722879E+03  0.14753649862E+04  0.18188251427E+04  0.50400001928E-02 0.  1.
       -1    1    3    3    0  502  0.10566181786E+04 -0.12239722879E+03 -0.95154466913E+03  0.14271861527E+04  0.50400001928E-02 0. -1.
</event>
<event>
 5   0  0.1277374E-07  0.3199125E+04  0.7818609E-02  0.8189048E-01
       -1   -1    0    0    0  501  0.00000000000E+00  0.00000000000E+00  0.14065038723E+04  0.14065038724E+04  0.50400001928E-02 0.  1.
        1   -1    0    0  501    0  0.00000000000E+00  0.00000000000E+00 -0.18191207697E+04  0.18191207697E+04  0.50400001928E-02 0. -1.
    10030    2    1    2    0    0  0.00000000000E+00  0.00000000000E+00 -0.41261689736E+03  0.32256246421E+04  0.31991251347E+04 0.  0.
        5    1    3    3  502    0  0.81696741018E+03  0.12401657618E+04  0.39286257118E+03  0.15361672942E+04  0.46999998093E+01 0.  1.
       -5    1    3    3    0  502 -0.81696741018E+03 -0.12401657618E+04 -0.80547946853E+03  0.16894573479E+04  0.46999998093E+01 0. -1.
</event>
<event>
 5   0  0.3750285E-07  0.3199029E+04  0.7818609E-02  0.8189074E-01
        2   -1    0    0  501    0  0.00000000000E+00  0.00000000000E+00  0.19749930832E+04  0.19749930832E+04  0.25500000920E-02 0.  1.
       -2   -1    0    0    0  501  0.00000000000E+00  0.00000000000E+00 -0.12954209425E+04  0.12954209425E+04  0.25500000920E-02 0. -1.
    10030    2    1    2    0    0  0.00000000000E+00  0.00000000000E+00  0.67957214066E+03  0.32704140257E+04  0.31990294786E+04 0.  0.
        1    1    3    3  502    0  0.10883698139E+04  0.69248097420E+03  0.13065997314E+04  0.18361050105E+04  0.50400001928E-02 0.  1.
       -1    1    3    3    0  502 -0.10883698139E+04 -0.69248097420E+03 -0.62702759073E+03  0.14343090152E+04  0.50400001928E-02 0. -1.
</event>
<event>
 5   0  0.3942564E-07  0.3196727E+04  0.7818609E-02  0.8189682E-01
        2   -1    0    0  501    0  0.00000000000E+00  0.00000000000E+00  0.11802885656E+04  0.11802885656E+04  0.25500000920E-02 0. -1.
       -2   -1    0    0    0  501  0.00000000000E+00  0.00000000000E+00 -0.21645262228E+04  0.21645262228E+04  0.25500000920E-02 0.  1.
    10030    2    1    2    0    0  0.00000000000E+00  0.00000000000E+00 -0.98423765729E+03  0.33448147884E+04  0.31967267951E+04 0.  0.
        3    1    3    3  502    0  0.11135448597E+03  0.10961842715E+04 -0.17036644428E+04  0.20289140747E+04  0.10100000352E+00 0.  1.
       -3    1    3    3    0  502 -0.11135448597E+03 -0.10961842715E+04  0.71942678550E+03  0.13159007137E+04  0.10100000352E+00 0. -1.
</event>
<event>
 5   0  0.3764056E-07  0.3194876E+04  0.7818609E-02  0.8190172E-01
       -2   -1    0    0    0  501  0.00000000000E+00  0.00000000000E+00  0.13521628407E+04  0.13521628407E+04  0.25500000920E-02 0. -1.
        2   -1    0    0  501    0  0.00000000000E+00  0.00000000000E+00 -0.18872049876E+04  0.18872049876E+04  0.25500000920E-02 0.  1.
    10030    2    1    2    0    0  0.00000000000E+00  0.00000000000E+00 -0.53504214694E+03  0.32393678283E+04  0.31948761836E+04 0.  0.
        5    1    3    3  502    0  0.14332248215E+04  0.39620842410E+03  0.32427811530E+03  0.15219372163E+04  0.46999998093E+01 0. -1.
       -5    1    3    3    0  502 -0.14332248215E+04 -0.39620842410E+03 -0.85932026225E+03  0.17174306121E+04  0.46999998093E+01 0.  1.
</event>
<event>
 5   0  0.1277374E-07  0.3193851E+04  0.7818609E-02  0.8190443E-01
        1   -1    0    0  501    0  0.00000000000E+00  0.00000000000E+00  0.19822106446E+04  0.19822106446E+04  0.50400001928E-02 0. -1.
       -1   -1    0    0    0  501  0.00000000000E+00  0.00000000000E+00 -0.12865290910E+04  0.12865290910E+04  0.50400001928E-02 0.  1.
    10030    2    1    2    0    0  0.00000000000E+00  0.00000000000E+00  0.69568155357E+03  0.32687397356E+04  0.31938513796E+04 0.  0.
        5    1    3    3  502    0 -0.46334565412E+03  0.81282964622E+03 -0.97663192144E+03  0.13524840956E+04  0.46999998093E+01 0.  1.
       -5    1    3    3    0  502  0.46334565412E+03 -0.81282964622E+03  0.16723134750E+04  0.19162556400E+04  0.46999998093E+01 0. -1.
</event>
<event>
 5   0  0.3942564E-07  0.3200104E+04  0.7818609E-02  0.8188790E-01
       -2   -1    0    0    0  501  0.00000000000E+00  0.00000000000E+00  0.13332814567E+04  0.13332814567E+04  0.25500000920E-02 0.  1.
        2   -1    0    0  501    0  0.00000000000E+00  0.00000000000E+00 -0.19201993824E+04  0.19201993824E+04  0.25500000920E-02 0. -1.
    10030    2    1    2    0    0  0.00000000000E+00  0.00000000000E+00 -0.58691792577E+03  0.32534808391E+04  0.32001038919E+04 0.  0.
        3    1    3    3  502    0  0.10824277833E+04  0.11731375995E+04 -0.18086662004E+03  0.16064291076E+04  0.10100000352E+00 0. -1.
       -3    1    3    3    0  502 -0.10824277833E+04 -0.11731375995E+04 -0.40605130573E+03  0.16470517315E+04  0.10100000352E+00 0.  1.
</event>
<event>
 5   0  0.3830207E-07  0.3195872E+04  0.7818609E-02  0.8189908E-01
       -2   -1    0    0    0  501  0.00000000000E+00  0.00000000000E+00  0.26814104981E+04  0.26814104981E+04  0.25500000920E-02 0.  1.
        2   -1    0    0  501    0  0.00000000000E+00  0.00000000000E+00 -0.95225986234E+03  0.95225986235E+03  0.25500000920E-02 0. -1.
    10030    2    1    2    0    0  0.00000000000E+00  0.00000000000E+00  0.17291506358E+04  0.36336703605E+04  0.31958720825E+04 0.  0.
        4    1    3    3  502    0 -0.19230906295E+03 -0.10343302946E+04  0.22320735480E+04  0.24675850280E+04  0.12699999809E+01 0.  1.
       -4    1    3    3    0  502  0.19230906295E+03  0.10343302946E+04 -0.50292291217E+03  0.11660853325E+04  0.12699999809E+01 0. -1.
</event>
<event>
 5   0  0.3764056E-07  0.3198779E+04  0.7818609E-02  0.8189140E-01
       -2   -1    0    0    0  501  0.00000000000E+00  0.00000000000E+00  0.13731632723E+04  0.13731632723E+04  0.25500000920E-02 0. -1.
        2   -1    0    0  501    0  0.00000000000E+00  0.00000000000E+00 -0.18628856007E+04  0.18628856007E+04  0.25500000920E-02 0.  1.
    10030    2    1    2    0    0  0.00000000000E+00  0.00000000000E+00 -0.48972232840E+03  0.32360488729E+04  0.31987785714E+04 0.  0.
        5    1    3    3  502    0 -0.33355469530E+03  0.15766466589E+03 -0.18192414232E+04  0.18562807782E+04  0.46999998093E+01 0.  1.
       -5    1    3    3    0  502  0.33355469530E+03 -0.15766466589E+03  0.13295190948E+04  0.13797680947E+04  0.46999998093E+01 0. -1.
</event>
<event>
 5   0  0.1277374E-07  0.3203064E+04  0.7818609E-02  0.8188009E-01
        1   -1    0    0  501    0  0.00000000000E+00  0.00000000000E+00  0.25381313911E+04  0.25381313911E+04  0.50400001928E-02 0.  1.
       -1   -1    0    0    0  501  0.00000000000E+00  0.00000000000E+00 -0.10105482049E+04  0.10105482049E+04  0.50400001928E-02 0. -1.
    10030    2    1    2    0    0  0.00000000000E+00  0.00000000000E+00  0.15275831862E+04  0.35486795960E+04  0.32030636092E+04 0.  0.
        5    1    3    3  502    0  0.14493098123E+04  0.56637364525E+03  0.11836322415E+04  0.19550666002E+04  0.46999998093E+01 0.  1.
       -5    1    3    3    0  502 -0.14493098123E+04 -0.56637364525E+03  0.34395094469E+03  0.15936129958E+04  0.46999998093E+01 0. -1.
</event>
<event>
 5   0  0.3942564E-07  0.3185262E+04  0.7818609E-02  0.8192720E-01
       -2   -1    0    0    0  501  0.00000000000E+00  0.00000000000E+00  0.17241040137E+04  0.17241040137E+04  0.25500000920E-02 0. -1.
        2   -1    0    0  501    0  0.00000000000E+00  0.00000000000E+00 -0.14711840149E+04  0.14711840149E+04  0.25500000920E-02 0.  1.
    10030    2    1    2    0    0  0.00000000000E+00  0.00000000000E+00  0.25291999874E+03  0.31952880286E+04  0.31852624790E+04 0.  0.
        3    1    3    3  502    0  0.13111017655E+04  0.85902315980E+03 -0.15650161813E+03  0.15752464554E+04  0.10100000352E+00 0. -1.
       -3    1    3    3    0  502 -0.13111017655E+04 -0.85902315980E+03  0.40942161687E+03  0.16200415733E+04  0.10100000352E+00 0.  1.
</event>
<event>
 5   0  0.3750285E-07  0.3201607E+04  0.7818609E-02  0.8188393E-01
       -2   -1    0    0    0  501  0.00000000000E+00  0.00000000000E+00  0.16571846181E+04  0.16571846181E+04  0.25500000920E-02 0.  1.
        2   -1    0    0  501    0  0.00000000000E+00  0.00000000000E+00 -0.15463407792E+04  0.15463407792E+04  0.25500000920E-02 0. -1.
    10030    2    1    2    0    0  0.00000000000E+00  0.00000000000E+00  0.11084383888E+03  0.32035253974E+04  0.32016071925E+04 0.  0.
        1    1    3    3  502    0 -0.36597471252E+03 -0.64442659013E+03 -0.13643535221E+04  0.15526376440E+04  0.50400001928E-02 0. -1.
       -1    1    3    3    0  502  0.36597471252E+03  0.64442659013E+03  0.14751973610E+04  0.16508877534E+04  0.50400001928E-02 0.  1.
</event>
<event>
 5   0  0.3830207E-07  0.3125610E+04  0.7818609E-02  0.8208744E-01
       -2   -1    0    0    0  501  0.00000000000E+00  0.00000000000E+00  0.12625300010E+04  0.12625300011E+04  0.25500000920E-02 0. -1.
        2   -1    0    0  501    0  0.00000000000E+00  0.00000000000E+00 -0.19344958776E+04  0.19344958776E+04  0.25500000920E-02 0.  1.
    10030    2    1    2    0    0  0.00000000000E+00  0.00000000000E+00 -0.67196587652E+03  0.31970258786E+04  0.31256097532E+04 0.  0.
        4    1    3    3  502    0  0.15229677002E+04 -0.28671824253E+03 -0.12958154081E+03  0.15551305267E+04  0.12699999809E+01 0. -1.
       -4    1    3    3    0  502 -0.15229677002E+04  0.28671824253E+03 -0.54238433571E+03  0.16418953520E+04  0.12699999809E+01 0.  1.
</event>
<event>
 5   0  0.3750285E-07  0.3213043E+04  0.7818609E-02  0.8185381E-01
        2   -1    0    0  501    0  0.00000000000E+00  0.00000000000E+00  0.20414302465E+04  0.20414302465E+04  0.25500000920E-02 0. -1.
       -2   -1    0    0    0  501  0.00000000000E+00  0.00000000000E+00 -0.12642663865E+04  0.12642663865E+04  0.25500000920E-02 0.  1.
    10030    2    1    2    0    0  0.00000000000E+00  0.00000000000E+00  0.77716386006E+03  0.33056966330E+04  0.32130431936E+04 0.  0.
        1    1    3    3  502    0 -0.21194322093E+03  0.11037076623E+04 -0.79248541319E+03  0.13751813200E+04  0.50400001928E-02 0.  1.
       -1    1    3    3    0  502  0.21194322093E+03 -0.11037076623E+04  0.15696492733E+04  0.19305153130E+04  0.50400001928E-02 0. -1.
</event>
<event>
 5   0  0.3942564E-07  0.3202515E+04  0.7818609E-02  0.8188153E-01
       -2   -1    0    0    0  501  0.00000000000E+00  0.00000000000E+00  0.20902435719E+04  0.20902435719E+04  0.25500000920E-02 0.  1.
        2   -1    0    0  501    0  0.00000000000E+00  0.00000000000E+00 -0.12266633446E+04  0.12266633446E+04  0.25500000920E-02 0. -1.
    10030    2    1    2    0    0  0.00000000000E+00  0.00000000000E+00  0.86358022726E+03  0.33169069165E+04  0.32025147437E+04 0.  0.
        3    1    3    3  502    0  0.67186091196E+03 -0.90531350882E+03 -0.74594432547E+03  0.13518219488E+04  0.10100000352E+00 0. -1.
       -3    1    3    3    0  502 -0.67186091196E+03  0.90531350882E+03  0.16095245527E+04  0.19650849677E+04  0.10100000352E+00 0.  1.
</event>
<event>
 5   0  0.3858721E-07  0.3210871E+04  0.7818609E-02  0.8185952E-01
       -2   -1    0    0    0  501  0.00000000000E+00  0.00000000000E+00  0.10086833637E+04  0.10086833637E+04  0.25500000920E-02 0. -1.
        2   -1    0    0  501    0  0.00000000000E+00  0.00000000000E+00 -0.25552345481E+04  0.25552345481E+04  0.25500000920E-02 0.  1.
    10030    2    1    2    0    0  0.00000000000E+00  0.00000000000E+00 -0.15465511844E+04  0.35639179118E+04  0.32108706477E+04 0.  0.
        2    1    3    3  502    0 -0.26645936787E+03 -0.32628848212E+03  0.94624224747E+03  0.10357794935E+04  0.25500000920E-02 0. -1.
       -2    1    3    3    0  502  0.26645936787E+03  0.32628848212E+03 -0.24927934318E+04  0.25281384183E+04  0.25500000920E-02 0.  1.
</event>
<event>
 5   0  0.3750285E-07  0.3198982E+04  0.7818609E-02  0.8189086E-01
        2   -1    0    0  501    0  0.00000000000E+00  0.00000000000E+00  0.19282623587E+04  0.19282623587E+04  0.25500000920E-02 0.  1.
       -2   -1    0    0    0  501  0.00000000000E+00  0.00000000000E+00 -0.13267753629E+04  0.13267753629E+04  0.25500000920E-02 0. -1.
    10030    2    1    2    0    0  0.00000000000E+00  0.00000000000E+00  0.60148699586E+03  0.32550377216E+04  0.31989817072E+04 0.  0.
        1    1    3    3  502    0 -0.31233757921E+03 -0.94546097484E+03 -0.97295797073E+03  0.13921560369E+04  0.50400001928E-02 0. -1.
       -1    1    3    3    0  502  0.31233757921E+03  0.94546097484E+03  0.15744449666E+04  0.18628816847E+04  0.50400001928E-02 0.  1.
</event>
<event>
 5   0  0.3858721E-07  0.3193331E+04  0.7818609E-02  0.8190581E-01
        2   -1    0    0  501    0  0.00000000000E+00  0.00000000000E+00  0.20309310405E+04  0.20309310405E+04  0.25500000920E-02 0. -1.
       -2   -1    0    0    0  501  0.00000000000E+00  0.00000000000E+00 -0.12552574764E+04  0.12552574764E+04  0.25500000920E-02 0.  1.
    10030    2    1    2    0    0  0.00000000000E+00  0.00000000000E+00  0.77567356411E+03  0.32861885170E+04  0.31933314095E+04 0.  0.
        2    1    3    3  502    0  0.31199083968E+03 -0.58364293250E+03 -0.11074690901E+04  0.12901415203E+04  0.25500000920E-02 0.  1.
       -2    1    3    3    0  502 -0.31199083968E+03  0.58364293250E+03  0.18831426543E+04  0.19960469967E+04  0.25500000920E-02 0. -1.
</event>
<event>
 5   0  0.1317293E-07  0.3199818E+04  0.7818609E-02  0.8188865E-01
        1   -1    0    0  501    0  0.00000000000E+00  0.00000000000E+00  0.15741145016E+04  0.15741145016E+04  0.50400001928E-02 0.  1.
       -1   -1    0    0    0  501  0.00000000000E+00  0.00000000000E+00 -0.16261264259E+04  0.16261264259E+04  0.50400001928E-02 0. -1.
    10030    2    1    2    0    0  0.00000000000E+00  0.00000000000E+00 -0.52011924310E+02  0.32002409275E+04  0.31998182376E+04 0.  0.
        1    1    3    3  502    0  0.91436504589E+03  0.12498863891E+04 -0.42784226888E+03  0.16066513094E+04  0.50400001928E-02 0.  1.
       -1    1    3    3    0  502 -0.91436504589E+03 -0.12498863891E+04  0.37583034457E+03  0.15935896181E+04  0.50400001928E-02 0. -1.
</event>
<event>
 5   0  0.1288096E-07  0.3196791E+04  0.7818609E-02  0.8189665E-01
       -1   -1    0    0    0  501  0.00000000000E+00  0.00000000000E+00  0.16695513354E+04  0.16695513354E+04  0.50400001928E-02 0.  1.
        1   -1    0    0  501    0  0.00000000000E+00  0.00000000000E+00 -0.15302723732E+04  0.15302723732E+04  0.50400001928E-02 0. -1.
    10030    2    1    2    0    0  0.00000000000E+00  0.00000000000E+00  0.13927896213E+03  0.31998237086E+04  0.31967910687E+04 0.  0.
        2    1    3    3  502    0  0.14931294023E+04 -0.21842984220E+03  0.59713208521E+03  0.16228720637E+04  0.25500000920E-02 0.  1.
       -2    1    3    3    0  502 -0.14931294023E+04  0.21842984220E+03 -0.45785312308E+03  0.15769516449E+04  0.25500000920E-02 0. -1.
</event>
<event>
 5   0  0.1270948E-07  0.3202029E+04  0.7818609E-02  0.8188281E-01
        1   -1    0    0  501    0  0.00000000000E+00  0.00000000000E+00  0.19833831034E+04  0.19833831034E+04  0.50400001928E-02 0. -1.
       -1   -1    0    0    0  501  0.00000000000E+00  0.00000000000E+00 -0.12923615494E+04  0.12923615494E+04  0.50400001928E-02 0.  1.
    10030    2    1    2    0    0  0.00000000000E+00  0.00000000000E+00  0.69102155403E+03  0.32757446528E+04  0.32020293943E+04 0.  0.
        4    1    3    3  502    0  0.11117183602E+04  0.26807771872E+03  0.14917801741E+04  0.18796789823E+04  0.12699999809E+01 0. -1.
       -4    1    3    3    0  502 -0.11117183602E+04 -0.26807771872E+03 -0.80075862011E+03  0.13960656705E+04  0.12699999809E+01 0.  1.
</event>
<event>
 5   0  0.1277374E-07  0.3195133E+04  0.7818609E-02  0.8190104E-01
       -1   -1    0    0    0  501  0.00000000000E+00  0.00000000000E+00  0.15772319218E+04  0.15772319219E+04  0.50400001928E-02 0.  1.
        1   -1    0    0  501    0  0.00000000000E+00  0.00000000000E+00 -0.16181633569E+04  0.16181633569E+04  0.50400001928E-02 0. -1.
    10030    2    1    2    0    0  0.00000000000E+00  0.00000000000E+00 -0.40931435096E+02  0.31953952788E+04  0.31951331123E+04 0.  0.
        5    1    3    3  502    0  0.38645158478E+02  0.22031113846E+03 -0.16024192557E+04  0.16179616828E+04  0.46999998093E+01 0. -1.
       -5    1    3    3    0  502 -0.38645158478E+02 -0.22031113846E+03  0.15614878206E+04  0.15774335960E+04  0.46999998093E+01 0.  1.
</event>
<event>
 5   0  0.3942564E-07  0.3199085E+04  0.7818609E-02  0.8189059E-01
       -2   -1    0    0    0  501  0.00000000000E+00  0.00000000000E+00  0.21614480873E+04  0.21614480873E+04  0.25500000920E-02 0.  1.
        2   -1    0    0  501    0  0.00000000000E+00  0.00000000000E+00 -0.11837138885E+04  0.11837138885E+04  0.25500000920E-02 0. -1.
    10030    2    1    2    0    0  0.00000000000E+00  0.00000000000E+00  0.97773419879E+03  0.33451619759E+04  0.31990849444E+04 0.  0.
        3    1    3    3  502    0  0.31030130935E+03  0.22111269962E+03 -0.11355677171E+04  0.11977861991E+04  0.10100000352E+00 0. -1.
       -3    1    3    3    0  502 -0.31030130935E+03 -0.22111269962E+03  0.21133019159E+04  0.21473757767E+04  0.10100000352E+00 0.  1.
</event>
<event>
 5   0  0.3942564E-07  0.3184051E+04  0.7818609E-02  0.8193042E-01
        2   -1    0    0  501    0  0.00000000000E+00  0.00000000000E+00  0.19490701062E+04  0.19490701062E+04  0.25500000920E-02 0. -1.
       -2   -1    0    0    0  501  0.00000000000E+00  0.00000000000E+00 -0.13003867954E+04  0.13003867954E+04  0.25500000920E-02 0.  1.
    10030    2    1    2    0    0  0.00000000000E+00  0.00000000000E+00  0.64868331082E+03  0.32494569015E+04  0.31840508974E+04 0.  0.
        3    1    3    3  502    0  0.12305229948E+03  0.26045142684E+03 -0.12735700197E+04  0.13057401807E+04  0.10100000352E+00 0.  1.
       -3    1    3    3    0  502 -0.12305229948E+03 -0.26045142684E+03  0.19222533305E+04  0.19437167209E+04  0.10100000352E+00 0. -1.
</event>
<event>
 5   0  0.1365455E-07  0.3203502E+04  0.7818609E-02  0.8187893E-01
       -1   -1    0    0    0  501  0.00000000000E+00  0.00000000000E+00  0.19488623317E+04  0.19488623317E+04  0.50400001928E-02 0.  1.
        1   -1    0    0  501    0  0.00000000000E+00  0.00000000000E+00 -0.13164639538E+04  0.13164639538E+04  0.50400001928E-02 0. -1.
    10030    2    1    2    0    0  0.00000000000E+00  0.00000000000E+00  0.63239837787E+03  0.32653262855E+04  0.32035024648E+04 0.  0.
        3    1    3    3  502    0  0.80074088554E+03 -0.93534455016E+03  0.13604466328E+04  0.18349033882E+04  0.10100000352E+00 0.  1.
       -3    1    3    3    0  502 -0.80074088554E+03  0.93534455016E+03 -0.72804825491E+03  0.14304228972E+04  0.10100000352E+00 0. -1.
</event>
<event>
 5   0  0.1270948E-07  0.3214132E+04  0.7818609E-02  0.8185095E-01
        1   -1    0    0  501    0  0.00000000000E+00  0.00000000000E+00  0.30318368841E+04  0.30318368841E+04  0.50400001928E-02 0. -1.
       -1   -1    0    0    0  501  0.00000000000E+00  0.00000000000E+00 -0.85184677658E+03  0.85184677660E+03  0.50400001928E-02 0.  1.
    10030    2    1    2    0    0  0.00000000000E+00  0.00000000000E+00  0.21799901075E+04  0.38836836607E+04  0.32141315946E+04 0.  0.
        4    1    3    3  502    0 -0.10064419044E+04  0.10547874130E+04  0.19069778559E+04  0.24004307841E+04  0.12699999809E+01 0. -1.
       -4    1    3    3    0  502  0.10064419044E+04 -0.10547874130E+04  0.27301225161E+03  0.14832528766E+04  0.12699999809E+01 0.  1.
</event>
<event>
 5   0  0.1277374E-07  0.3201070E+04  0.7818609E-02  0.8188535E-01
        1   -1    0    0  501    0  0.00000000000E+00  0.00000000000E+00  0.22545301902E+04  0.22545301902E+04  0.50400001928E-02 0. -1.
       -1   -1    0    0    0  501  0.00000000000E+00  0.00000000000E+00 -0.11362508139E+04  0.11362508139E+04  0.50400001928E-02 0.  1.
    10030    2    1    2    0    0  0.00000000000E+00  0.00000000000E+00  0.11182793763E+04  0.33907810041E+04  0.32010696735E+04 0.  0.
        5    1    3    3  502    0  0.75892018821E+02  0.15908452420E+04  0.39118190678E+03  0.16399980356E+04  0.46999998093E+01 0.  1.
       -5    1    3    3    0  502 -0.75892018821E+02 -0.15908452420E+04  0.72709746952E+03  0.17507829685E+04  0.46999998093E+01 0. -1.
</event>
<event>
 5   0  0.3830207E-07  0.3192993E+04  0.7818609E-02  0.8190670E-01
        2   -1    0    0  501    0  0.00000000000E+00  0.00000000000E+00  0.19437761265E+04  0.19437761265E+04  0.25500000920E-02 0. -1.
       -2   -1    0    0    0  501  0.00000000000E+00  0.00000000000E+00 -0.13112628160E+04  0.13112628161E+04  0.25500000920E-02 0.  1.
    10030    2    1    2    0    0  0.00000000000E+00  0.00000000000E+00  0.63251331045E+03  0.32550389426E+04  0.31929931772E+04 0.  0.
        4    1    3    3  502    0  0.55505454244E+03 -0.33343899872E+03 -0.11713919111E+04  0.13384422786E+04  0.12699999809E+01 0.  1.
       -4    1    3    3    0  502 -0.55505454244E+03  0.33343899872E+03  0.18039052215E+04  0.19165966639E+04  0.12699999809E+01 0. -1.
</event>
<event>
 5   0  0.3830207E-07  0.3204599E+04  0.7818609E-02  0.8187604E-01
        2   -1    0    0  501    0  0.00000000000E+00  0.00000000000E+00  0.13924942324E+04  0.13924942324E+04  0.25500000920E-02 0. -1.
       -2   -1    0    0    0  501  0.00000000000E+00  0.00000000000E+00 -0.18437155525E+04  0.18437155525E+04  0.25500000920E-02 0.  1.
    10030    2    1    2    0    0  0.00000000000E+00  0.00000000000E+00 -0.45122132008E+03  0.32362097849E+04  0.32045987412E+04 0.  0.
        4    1    3    3  502    0 -0.81977056118E+03  0.11454011482E+03 -0.16110835172E+04  0.18112799130E+04  0.12699999809E+01 0.  1.
       -4    1    3    3    0  502  0.81977056118E+03 -0.11454011482E+03  0.11598621971E+04  0.14249298720E+04  0.12699999809E+01 0. -1.
</event>
<event>
 5   0  0.3942564E-07  0.3199388E+04  0.7818609E-02  0.8188979E-01
        2   -1    0    0  501    0  0.00000000000E+00  0.00000000000E+00  0.12419399039E+04  0.12419399039E+04  0.25500000920E-02 0.  1.
       -2   -1    0    0    0  501  0.00000000000E+00  0.00000000000E+00 -0.20605035171E+04  0.20605035171E+04  0.25500000920E-02 0. -1.
    10030    2    1    2    0    0  0.00000000000E+00  0.00000000000E+00 -0.81856361324E+03  0.33024434210E+04  0.31993884041E+04 0.  0.
        3    1    3    3  502    0  0.11236344887E+04  0.35059328456E+03  0.70891817307E+03  0.13740578960E+04  0.10100000352E+00 0.  1.
       -3    1    3    3    0  502 -0.11236344887E+04 -0.35059328456E+03 -0.15274817863E+04  0.19283855250E+04  0.10100000352E+00 0. -1.
</event>
<event>
 5   0  0.1317293E-07  0.3199886E+04  0.7818609E-02  0.8188847E-01
        1   -1    0    0  501    0  0.00000000000E+00  0.00000000000E+00  0.22448356791E+04  0.22448356791E+04  0.50400001928E-02 0. -1.
       -1   -1    0    0    0  501  0.00000000000E+00  0.00000000000E+00 -0.11403137715E+04  0.11403137715E+04  0.50400001928E-02 0.  1.
    10030    2    1    2    0    0  0.00000000000E+00  0.00000000000E+00  0.11045219076E+04  0.33851494506E+04  0.31998856477E+04 0.  0.
        1    1    3    3  502    0 -0.11592172721E+04  0.70235744045E+03 -0.34709236691E+03  0.13991296470E+04  0.50400001928E-02 0.  1.
       -1    1    3    3    0  502  0.11592172721E+04 -0.70235744045E+03  0.14516142745E+04  0.19860198035E+04  0.50400001928E-02 0. -1.
</event>
<event>
 5   0  0.3830207E-07  0.3235611E+04  0.7818609E-02  0.8179475E-01
       -2   -1    0    0    0  501  0.00000000000E+00  0.00000000000E+00  0.19516136825E+04  0.19516136825E+04  0.25500000920E-02 0. -1.
        2   -1    0    0  501    0  0.00000000000E+00  0.00000000000E+00 -0.13410929036E+04  0.13410929036E+04  0.25500000920E-02 0.  1.
    10030    2    1    2    0    0  0.00000000000E+00  0.00000000000E+00  0.61052077891E+03  0.32927065860E+04  0.32356113858E+04 0.  0.
        4    1    3    3  502    0 -0.14308489526E+04  0.51685466990E+02 -0.46121919949E+03  0.15042356450E+04  0.12699999809E+01 0.  1.
       -4    1    3    3    0  502  0.14308489526E+04 -0.51685466990E+02  0.10717399784E+04  0.17884709410E+04  0.12699999809E+01 0. -1.
</event>
<event>
 5   0  0.1270948E-07  0.3185439E+04  0.7818609E-02  0.8192673E-01
       -1   -1    0    0    0  501  0.00000000000E+00  0.00000000000E+00  0.13968753590E+04  0.13968753590E+04  0.50400001928E-02 0.  1.
        1   -1    0    0  501    0  0.00000000000E+00  0.00000000000E+00 -0.18160216168E+04  0.18160216168E+04  0.50400001928E-02 0. -1.
    10030    2    1    2    0    0  0.00000000000E+00  0.00000000000E+00 -0.41914625778E+03  0.32128969759E+04  0.31854392777E+04 0.  0.
        4    1    3    3  502    0 -0.98863320230E+03  0.35601339671E+03 -0.14168084297E+04  0.17639412935E+04  0.12699999809E+01 0. -1.
       -4    1    3    3    0  502  0.98863320230E+03 -0.35601339671E+03  0.99766217194E+03  0.14489556824E+04  0.12699999809E+01 0.  1.
</event>
<event>
 5   0  0.3750285E-07  0.3205560E+04  0.7818609E-02  0.8187350E-01
        2   -1    0    0  501    0  0.00000000000E+00  0.00000000000E+00  0.26355655552E+04  0.26355655552E+04  0.25500000920E-02 0. -1.
       -2   -1    0    0    0  501  0.00000000000E+00  0.00000000000E+00 -0.97470675191E+03  0.97470675191E+03  0.25500000920E-02 0.  1.
    10030    2    1    2    0    0  0.00000000000E+00  0.00000000000E+00  0.16608588032E+04  0.36102723071E+04  0.32055598835E+04 0.  0.
        1    1    3    3  502    0  0.90333848748E+03  0.13233462199E+04  0.78484881839E+03  0.17841673992E+04  0.50400001928E-02 0. -1.
       -1    1    3    3    0  502 -0.90333848748E+03 -0.13233462199E+04  0.87600998486E+03  0.18261049078E+04  0.50400001928E-02 0.  1.
</event>
<event>
 5   0  0.3764056E-07  0.3186947E+04  0.7818609E-02  0.8192273E-01
        2   -1    0    0  501    0  0.00000000000E+00  0.00000000000E+00  0.13899665109E+04  0.13899665109E+04  0.25500000920E-02 0.  1.
       -2   -1    0    0    0  501  0.00000000000E+00  0.00000000000E+00 -0.18267759867E+04  0.18267759867E+04  0.25500000920E-02 0. -1.
    10030    2    1    2    0    0  0.00000000000E+00  0.00000000000E+00 -0.43680947581E+03  0.32167424975E+04  0.31869467798E+04 0.  0.
        5    1    3    3  502    0  0.70648873259E+02 -0.11346454659E+04  0.90860223587E+03  0.14553321647E+04  0.46999998093E+01 0.  1.
       -5    1    3    3    0  502 -0.70648873259E+02  0.11346454659E+04 -0.13454117117E+04  0.17614103328E+04  0.46999998093E+01 0. -1.
</event>
<event>
 5   0  0.1317293E-07  0.3199545E+04  0.7818609E-02  0.8188937E-01
        1   -1    0    0  501    0  0.00000000000E+00  0.00000000000E+00  0.14108282875E+04  0.14108282875E+04  0.50400001928E-02 0.  1.
       -1   -1    0    0    0  501  0.00000000000E+00  0.00000000000E+00 -0.18140209020E+04  0.18140209021E+04  0.50400001928E-02 0. -1.
    10030    2    1    2    0    0  0.00000000000E+00  0.00000000000E+00 -0.40319261452E+03  0.32248491896E+04  0.31995449694E+04 0.  0.
        1    1    3    3  502    0 -0.55110292958E+03 -0.50906873379E+03  0.12225207502E+04  0.14343717787E+04  0.50400001928E-02 0.  1.
       -1    1    3    3    0  502  0.55110292958E+03  0.50906873379E+03 -0.16257133647E+04  0.17904774109E+04  0.50400001928E-02 0. -1.
</event>
<event>
 5   0  0.1317293E-07  0.3186799E+04  0.7818609E-02  0.8192312E-01
        1   -1    0    0  501    0  0.00000000000E+00  0.00000000000E+00  0.99934185583E+03  0.99934185585E+03  0.50400001928E-02 0.  1.
       -1   -1    0    0    0  501  0.00000000000E+00  0.00000000000E+00 -0.25405940385E+04  0.25405940385E+04  0.50400001928E-02 0. -1.
    10030    2    1    2    0    0  0.00000000000E+00  0.00000000000E+00 -0.15412521827E+04  0.35399358943E+04  0.31867989967E+04 0.  0.
        1    1    3    3  502    0  0.60822772206E+03  0.54383320717E+03 -0.22909490901E+04  0.24319011601E+04  0.50400001928E-02 0. -1.
       -1    1    3    3    0  502 -0.60822772206E+03 -0.54383320717E+03  0.74969690747E+03  0.11080347342E+04  0.50400001928E-02 0.  1.
</event>
<event>
 5   0  0.1270948E-07  0.3260901E+04  0.7818609E-02  0.8172916E-01
       -1   -1    0    0    0  501  0.00000000000E+00  0.00000000000E+00  0.12547329426E+04  0.12547329426E+04  0.50400001928E-02 0.  1.
        1   -1    0    0  501    0  0.00000000000E+00  0.00000000000E+00 -0.21186727408E+04  0.21186727408E+04  0.50400001928E-02 0. -1.
    10030    2    1    2    0    0  0.00000000000E+00  0.00000000000E+00 -0.86393979818E+03  0.33734056833E+04  0.32609007850E+04 0.  0.
        4    1    3    3  502    0  0.20473776785E+03 -0.15068669106E+04  0.17636730754E+03  0.15309057710E+04  0.12699999809E+01 0.  1.
       -4    1    3    3    0  502 -0.20473776785E+03  0.15068669106E+04 -0.10403071057E+04  0.18424999123E+04  0.12699999809E+01 0. -1.
</event>
<event>
 5   0  0.3830207E-07  0.3202402E+04  0.7818609E-02  0.8188183E-01
       -2   -1    0    0    0  501  0.00000000000E+00  0.00000000000E+00  0.15444136962E+04  0.15444136962E+04  0.25500000920E-02 0.  1.
        2   -1    0    0  501    0  0.00000000000E+00  0.00000000000E+00 -0.16600763342E+04  0.16600763342E+04  0.25500000920E-02 0. -1.
    10030    2    1    2    0    0  0.00000000000E+00  0.00000000000E+00 -0.11566263806E+03  0.32044900304E+04  0.32024019906E+04 0.  0.
        4    1    3    3  502    0  0.13578927952E+04  0.73986899487E+03 -0.47351045772E+03  0.16172485088E+04  0.12699999809E+01 0.  1.
       -4    1    3    3    0  502 -0.13578927952E+04 -0.73986899487E+03  0.35784781966E+03  0.15872415216E+04  0.12699999809E+01 0. -1.
</event>
<event>
 5   0  0.1317293E-07  0.3215511E+04  0.7818609E-02  0.8184733E-01
        1   -1    0    0  501    0  0.00000000000E+00  0.00000000000E+00  0.22410363205E+04  0.22410363205E+04  0.50400001928E-02 0.  1.
       -1   -1    0    0    0  501  0.00000000000E+00  0.00000000000E+00 -0.11534297015E+04  0.11534297015E+04  0.50400001928E-02 0. -1.
    10030    2    1    2    0    0  0.00000000000E+00  0.00000000000E+00  0.10876066190E+04  0.33944660220E+04  0.32155110661E+04 0.  0.
        1    1    3    3  502    0  0.54675156214E+03  0.44676500627E+03  0.20686078180E+04  0.21857892273E+04  0.50400001928E-02 0.  1.
       -1    1    3    3    0  502 -0.54675156214E+03 -0.44676500627E+03 -0.98100119898E+03  0.12086767947E+04  0.50400001928E-02 0. -1.
</event>
<event>
 5   0  0.3750285E-07  0.3209335E+04  0.7818609E-02  0.8186356E-01
        2   -1    0    0  501    0  0.00000000000E+00  0.00000000000E+00  0.23452052986E+04  0.23452052986E+04  0.25500000920E-02 0. -1.
       -2   -1    0    0    0  501  0.00000000000E+00  0.00000000000E+00 -0.10979671869E+04  0.10979671869E+04  0.25500000920E-02 0.  1.
    10030    2    1    2    0    0  0.00000000000E+00  0.00000000000E+00  0.12472381117E+04  0.34431724855E+04  0.32093354231E+04 0.  0.
        1    1    3    3  502    0 -0.78942209815E+03 -0.97701691429E+03  0.16949824416E+04  0.21096717226E+04  0.50400001928E-02 0. -1.
       -1    1    3    3    0  502  0.78942209815E+03  0.97701691429E+03 -0.44774432987E+03  0.13335007630E+04  0.50400001928E-02 0.  1.
</event>
<event>
 5   0  0.1230450E-07  0.3185087E+04  0.7818609E-02  0.8192767E-01
       -3   -1    0    0    0  501  0.00000000000E+00  0.00000000000E+00  0.23540914499E+04  0.23540914520E+04  0.10100000352E+00 0.  1.
        3   -1    0    0  501    0  0.00000000000E+00  0.00000000000E+00 -0.10773563620E+04  0.10773563667E+04  0.10100000352E+00 0. -1.
    10030    2    1    2    0    0  0.00000000000E+00  0.00000000000E+00  0.12767350879E+04  0.34314478188E+04  0.31850873847E+04 0.  0.
        2    1    3    3  502    0  0.96072447868E+02 -0.83171142559E+03 -0.82111969918E+03  0.11726940654E+04  0.25500000920E-02 0. -1.
       -2    1    3    3    0  502 -0.96072447868E+02  0.83171142559E+03  0.20978547870E+04  0.22587537533E+04  0.25500000920E-02 0.  1.
</event>
<event>
 5   0  0.3942564E-07  0.3201693E+04  0.7818609E-02  0.8188370E-01
       -2   -1    0    0    0  501  0.00000000000E+00  0.00000000000E+00  0.23729953035E+04  0.23729953035E+04  0.25500000920E-02 0. -1.
        2   -1    0    0  501    0  0.00000000000E+00  0.00000000000E+00 -0.10799471997E+04  0.10799471997E+04  0.25500000920E-02 0.  1.
    10030    2    1    2    0    0  0.00000000000E+00  0.00000000000E+00  0.12930481038E+04  0.34529425031E+04  0.32016930726E+04 0.  0.
        3    1    3    3  502    0 -0.36951835607E+03 -0.63190829554E+03 -0.88887504698E+03  0.11514993568E+04  0.10100000352E+00 0.  1.
       -3    1    3    3    0  502  0.36951835607E+03  0.63190829554E+03  0.21819231508E+04  0.23014431463E+04  0.10100000352E+00 0. -1.
</event>
<event>
 5   0  0.1317293E-07  0.3198388E+04  0.7818609E-02  0.8189243E-01
        1   -1    0    0  501    0  0.00000000000E+00  0.00000000000E+00  0.29136587534E+04  0.29136587534E+04  0.50400001928E-02 0. -1.
       -1   -1    0    0    0  501  0.00000000000E+00  0.00000000000E+00 -0.87773563046E+03  0.87773563047E+03  0.50400001928E-02 0.  1.
    10030    2    1    2    0    0  0.00000000000E+00  0.00000000000E+00  0.20359231229E+04  0.37913943838E+04  0.31983884085E+04 0.  0.
        1    1    3    3  502    0  0.41523980022E+03 -0.48840245452E+03 -0.71875628072E+03  0.96310520732E+03  0.50400001928E-02 0.  1.
       -1    1    3    3    0  502 -0.41523980022E+03  0.48840245452E+03  0.27546794036E+04  0.28282891765E+04  0.50400001928E-02 0. -1.
</event>
<event>
 5   0  0.1230450E-07  0.3235081E+04  0.7818609E-02  0.8179613E-01
       -3   -1    0    0    0  501  0.00000000000E+00  0.00000000000E+00  0.19276016536E+04  0.19276016563E+04  0.10100000352E+00 0. -1.
        3   -1    0    0  501    0  0.00000000000E+00  0.00000000000E+00 -0.13573533818E+04  0.13573533855E+04  0.10100000352E+00 0.  1.
    10030    2    1    2    0    0  0.00000000000E+00  0.00000000000E+00  0.57024827182E+03  0.32849550418E+04  0.32350806072E+04 0.  0.
        2    1    3    3  502    0 -0.47674994657E+03 -0.12316751587E+04  0.12333964060E+04  0.18070918357E+04  0.25500000920E-02 0. -1.
       -2    1    3    3    0  502  0.47674994657E+03  0.12316751587E+04 -0.66314813417E+03  0.14778632061E+04  0.25500000920E-02 0.  1.
</event>
<event>
 5   0  0.3764056E-07  0.3196531E+04  0.7818609E-02  0.8189734E-01
       -2   -1    0    0    0  501  0.00000000000E+00  0.00000000000E+00  0.14029042693E+04  0.14029042693E+04  0.25500000920E-02 0.  1.
        2   -1    0    0  501    0  0.00000000000E+00  0.00000000000E+00 -0.18208315235E+04  0.18208315235E+04  0.25500000920E-02 0. -1.
    10030    2    1    2    0    0  0.00000000000E+00  0.00000000000E+00 -0.41792725414E+03  0.32237357928E+04  0.31965308182E+04 0.  0.
        5    1    3    3  502    0  0.15621874143E+04  0.33759626869E+03 -0.20348878696E+03  0.16111581345E+04  0.46999998093E+01 0.  1.
       -5    1    3    3    0  502 -0.15621874143E+04 -0.33759626869E+03 -0.21443846718E+03  0.16125776583E+04  0.46999998093E+01 0. -1.
</event>
<event>
 5   0  0.1317293E-07  0.3216559E+04  0.7818609E-02  0.8184458E-01
        1   -1    0    0  501    0  0.00000000000E+00  0.00000000000E+00  0.12088768725E+04  0.12088768725E+04  0.50400001928E-02 0. -1.
       -1   -1    0    0    0  501  0.00000000000E+00  0.00000000000E+00 -0.21396416279E+04  0.21396416279E+04  0.50400001928E-02 0.  1.
    10030    2    1    2    0    0  0.00000000000E+00  0.00000000000E+00 -0.93076475540E+03  0.33485185003E+04  0.32165592047E+04 0.  0.
        1    1    3    3  502    0  0.44622727472E+03 -0.81888568035E+03 -0.18294313192E+04  0.20534145928E+04  0.50400001928E-02 0.  1.
       -1    1    3    3    0  502 -0.44622727472E+03  0.81888568035E+03  0.89866656385E+03  0.12951039075E+04  0.50400001928E-02 0. -1.
</event>
<event>
 5   0  0.1277374E-07  0.3198630E+04  0.7818609E-02  0.8189179E-01
       -1   -1    0    0    0  501  0.00000000000E+00  0.00000000000E+00  0.15499967098E+04  0.15499967098E+04  0.50400001928E-02 0.  1.
        1   -1    0    0  501    0  0.00000000000E+00  0.00000000000E+00 -0.16502026925E+04  0.16502026925E+04  0.50400001928E-02 0. -1.
    10030    2    1    2    0    0  0.00000000000E+00  0.00000000000E+00 -0.10020598267E+03  0.32001994024E+04  0.31986301718E+04 0.  0.
        5    1    3    3  502    0 -0.23935852891E+03  0.11617085042E+04  0.10232362162E+04  0.15664908548E+04  0.46999998093E+01 0.  1.
       -5    1    3    3    0  502  0.23935852891E+03 -0.11617085042E+04 -0.11234421989E+04  0.16337085475E+04  0.46999998093E+01 0. -1.
</event>
<event>
 5   0  0.1365455E-07  0.3204184E+04  0.7818609E-02  0.8187713E-01
       -1   -1    0    0    0  501  0.00000000000E+00  0.00000000000E+00  0.12860186183E+04  0.12860186183E+04  0.50400001928E-02 0.  1.
        1   -1    0    0  501    0  0.00000000000E+00  0.00000000000E+00 -0.19958483033E+04  0.19958483033E+04  0.50400001928E-02 0. -1.
    10030    2    1    2    0    0  0.00000000000E+00  0.00000000000E+00 -0.70982968497E+03  0.32818669216E+04  0.32041835637E+04 0.  0.
        3    1    3    3  502    0  0.13890711202E+04  0.28439239007E+02 -0.11719837157E+04  0.18176559650E+04  0.10100000352E+00 0. -1.
       -3    1    3    3    0  502 -0.13890711202E+04 -0.28439239007E+02  0.46215403071E+03  0.14642109566E+04  0.10100000352E+00 0.  1.
</event>
<event>
 5   0  0.3830207E-07  0.3189125E+04  0.7818609E-02  0.8191695E-01
        2   -1    0    0  501    0  0.00000000000E+00  0.00000000000E+00  0.12298262398E+04  0.12298262398E+04  0.25500000920E-02 0. -1.
       -2   -1    0    0    0  501  0.00000000000E+00  0.00000000000E+00 -0.20674705915E+04  0.20674705915E+04  0.25500000920E-02 0.  1.
    10030    2    1    2    0    0  0.00000000000E+00  0.00000000000E+00 -0.83764435172E+03  0.32972968314E+04  0.31891250108E+04 0.  0.
        4    1    3    3  502    0 -0.69046211230E+03  0.61569153993E+03  0.92400492094E+03  0.13075170009E+04  0.12699999809E+01 0. -1.
       -4    1    3    3    0  502  0.69046211230E+03 -0.61569153993E+03 -0.17616492727E+04  0.19897798304E+04  0.12699999809E+01 0.  1.
</event>
<event>
 5   0  0.1288096E-07  0.3199095E+04  0.7818609E-02  0.8189056E-01
        1   -1    0    0  501    0  0.00000000000E+00  0.00000000000E+00  0.24633883711E+04  0.24633883711E+04  0.50400001928E-02 0. -1.
       -1   -1    0    0    0  501  0.00000000000E+00  0.00000000000E+00 -0.10386312489E+04  0.10386312489E+04  0.50400001928E-02 0.  1.
    10030    2    1    2    0    0  0.00000000000E+00  0.00000000000E+00  0.14247571223E+04  0.35020196200E+04  0.31990949597E+04 0.  0.
        2    1    3    3  502    0  0.90039993207E+03 -0.90203474128E+03 -0.34566448869E+03  0.13205569472E+04  0.25500000920E-02 0.  1.
       -2    1    3    3    0  502 -0.90039993207E+03  0.90203474128E+03  0.17704216110E+04  0.21814626728E+04  0.25500000920E-02 0. -1.
</event>
<event>
 5   0  0.3750285E-07  0.3197472E+04  0.7818609E-02  0.8189485E-01
       -2   -1    0    0    0  501  0.00000000000E+00  0.00000000000E+00  0.10338187913E+04  0.10338187913E+04  0.25500000920E-02 0. -1.
        2   -1    0    0  501    0  0.00000000000E+00  0.00000000000E+00 -0.24723456584E+04  0.24723456584E+04  0.25500000920E-02 0.  1.
    10030    2    1    2    0    0  0.00000000000E+00  0.00000000000E+00 -0.14385268671E+04  0.35061644497E+04  0.31974723769E+04 0.  0.
        1    1    3    3  502    0  0.11733366741E+04  0.88673610061E+02  0.46752563594E+03  0.12661604086E+04  0.50400001928E-02 0. -1.
       -1    1    3    3    0  502 -0.11733366741E+04 -0.88673610061E+02 -0.19060525030E+04  0.22400040411E+04  0.50400001928E-02 0.  1.
</event>
<event>
 5   0  0.3830207E-07  0.3201003E+04  0.7818609E-02  0.8188552E-01
        2   -1    0    0  501    0  0.00000000000E+00  0.00000000000E+00  0.27518617350E+04  0.27518617350E+04  0.25500000920E-02 0. -1.
       -2   -1    0    0    0  501  0.00000000000E+00  0.00000000000E+00 -0.93086283021E+03  0.93086283022E+03  0.25500000920E-02 0.  1.
    10030    2    1    2    0    0  0.00000000000E+00  0.00000000000E+00  0.18209989048E+04  0.36827245653E+04  0.32010034696E+04 0.  0.
        4    1    3    3  502    0 -0.96382378007E+03  0.11755790377E+04  0.33449319279E+03  0.15565441407E+04  0.12699999809E+01 0.  1.
       -4    1    3    3    0  502  0.96382378007E+03 -0.11755790377E+04  0.14865057120E+04  0.21261804246E+04  0.12699999809E+01 0. -1.
</event>
<event>
 5   0  0.3830207E-07  0.3198461E+04  0.7818609E-02  0.8189224E-01
        2   -1    0    0  501    0  0.00000000000E+00  0.00000000000E+00  0.18185213235E+04  0.18185213235E+04  0.25500000920E-02 0.  1.
       -2   -1    0    0    0  501  0.00000000000E+00  0.00000000000E+00 -0.14063830150E+04  0.14063830150E+04  0.25500000920E-02 0. -1.
    10030    2    1    2    0    0  0.00000000000E+00  0.00000000000E+00  0.41213830856E+03  0.32249043385E+04  0.31984605683E+04 0.  0.
        4    1    3    3  502    0  0.14069982482E+04 -0.59974663781E+03 -0.26490710687E+03  0.15522620553E+04  0.12699999809E+01 0.  1.
       -4    1    3    3    0  502 -0.14069982482E+04  0.59974663781E+03  0.67704541543E+03  0.16726422832E+04  0.12699999809E+01 0. -1.
</event>
<event>
 5   0  0.3858721E-07  0.3201927E+04  0.7818609E-02  0.8188308E-01
       -2   -1    0    0    0  501  0.00000000000E+00  0.00000000000E+00  0.12011544187E+04  0.12011544187E+04  0.25500000920E-02 0. -1.
        2   -1    0    0  501    0  0.00000000000E+00  0.00000000000E+00 -0.21338508195E+04  0.21338508195E+04  0.25500000920E-02 0.  1.
    10030    2    1    2    0    0  0.00000000000E+00  0.00000000000E+00 -0.93269640077E+03  0.33350052383E+04  0.32019271327E+04 0.  0.
        2    1    3    3  502    0 -0.49071348575E+03 -0.10440516902E+04 -0.16225478883E+04  0.19908554208E+04  0.25500000920E-02 0.  1.
       -2    1    3    3    0  502  0.49071348575E+03  0.10440516902E+04  0.68985148752E+03  0.13441498174E+04  0.25500000920E-02 0. -1.
</event>
<event>
 5   0  0.3942564E-07  0.3214877E+04  0.7818609E-02  0.8184899E-01
        2   -1    0    0  501    0  0.00000000000E+00  0.00000000000E+00  0.23019061522E+04  0.23019061522E+04  0.25500000920E-02 0. -1.
       -2   -1    0    0    0  501  0.00000000000E+00  0.00000000000E+00 -0.11224863326E+04  0.11224863326E+04  0.25500000920E-02 0.  1.
    10030    2    1    2    0    0  0.00000000000E+00  0.00000000000E+00  0.11794198196E+04  0.34243924847E+04  0.32148767906E+04 0.  0.
        3    1    3    3  502    0  0.61206445051E+03 -0.14397236807E+04  0.19627240348E+03  0.15766895810E+04  0.10100000352E+00 0.  1.
       -3    1    3    3    0  502 -0.61206445051E+03  0.14397236807E+04  0.98314741614E+03  0.18477029037E+04  0.10100000352E+00 0. -1.
</event>
<event>
 5   0  0.1365455E-07  0.3202014E+04  0.7818609E-02  0.8188285E-01
        1   -1    0    0  501    0  0.00000000000E+00  0.00000000000E+00  0.22177346639E+04  0.22177346639E+04  0.50400001928E-02 0. -1.
       -1   -1    0    0    0  501  0.00000000000E+00  0.00000000000E+00 -0.11557845908E+04  0.11557845908E+04  0.50400001928E-02 0.  1.
    10030    2    1    2    0    0  0.00000000000E+00  0.00000000000E+00  0.10619500730E+04  0.33735192547E+04  0.32020140856E+04 0.  0.
        3    1    3    3  502    0 -0.18565916424E+03 -0.15296142063E+04  0.98904371970E+03  0.18309550609E+04  0.10100000352E+00 0.  1.
       -3    1    3    3    0  502  0.18565916424E+03  0.15296142063E+04  0.72906353345E+02  0.15425641938E+04  0.10100000352E+00 0. -1.
</event>
<event>
 5   0  0.1270948E-07  0.3197093E+04  0.7818609E-02  0.8189585E-01
       -1   -1    0    0    0  501  0.00000000000E+00  0.00000000000E+00  0.20628304222E+04  0.20628304222E+04  0.50400001928E-02 0.  1.
        1   -1    0    0  501    0  0.00000000000E+00  0.00000000000E+00 -0.12387599415E+04  0.12387599415E+04  0.50400001928E-02 0. -1.
    10030    2    1    2    0    0  0.00000000000E+00  0.00000000000E+00  0.82407048076E+03  0.33015903637E+04  0.31970934883E+04 0.  0.
        4    1    3    3  502    0 -0.13433553118E+04  0.56622594685E+03  0.10893181615E+04  0.18198436709E+04  0.12699999809E+01 0.  1.
       -4    1    3    3    0  502  0.13433553118E+04 -0.56622594685E+03 -0.26524768074E+03  0.14817466928E+04  0.12699999809E+01 0. -1.
</event>
<event>
 5   0  0.3942564E-07  0.3194627E+04  0.7818609E-02  0.8190238E-01
        2   -1    0    0  501    0  0.00000000000E+00  0.00000000000E+00  0.14530268716E+04  0.14530268716E+04  0.25500000920E-02 0. -1.
       -2   -1    0    0    0  501  0.00000000000E+00  0.00000000000E+00 -0.17559279027E+04  0.17559279027E+04  0.25500000920E-02 0.  1.
    10030    2    1    2    0    0  0.00000000000E+00  0.00000000000E+00 -0.30290103109E+03  0.32089547743E+04  0.31946270062E+04 0.  0.
        3    1    3    3  502    0 -0.41706471353E+03 -0.35317567512E+03  0.13561921928E+04  0.14621673320E+04  0.10100000352E+00 0. -1.
       -3    1    3    3    0  502  0.41706471353E+03  0.35317567512E+03 -0.16590932239E+04  0.17467874423E+04  0.10100000352E+00 0.  1.
</event>
<event>
 5   0  0.3858721E-07  0.3196278E+04  0.7818609E-02  0.8189801E-01
       -2   -1    0    0    0  501  0.00000000000E+00  0.00000000000E+00  0.15834791353E+04  0.15834791354E+04  0.25500000920E-02 0.  1.
        2   -1    0    0  501    0  0.00000000000E+00  0.00000000000E+00 -0.16129342576E+04  0.16129342576E+04  0.25500000920E-02 0. -1.
    10030    2    1    2    0    0  0.00000000000E+00  0.00000000000E+00 -0.29455122268E+02  0.31964133930E+04  0.31962776748E+04 0.  0.
        2    1    3    3  502    0  0.56059293399E+03  0.50133048904E+03 -0.14249119160E+04  0.16112016216E+04  0.25500000920E-02 0. -1.
       -2    1    3    3    0  502 -0.56059293399E+03 -0.50133048904E+03  0.13954567938E+04  0.15852117714E+04  0.25500000920E-02 0.  1.
</event>
<event>
 5   0  0.1317293E-07  0.3196524E+04  0.7818609E-02  0.8189736E-01
       -1   -1    0    0    0  501  0.00000000000E+00  0.00000000000E+00  0.99233293611E+03  0.99233293613E+03  0.50400001928E-02 0. -1.
        1   -1    0    0  501    0  0.00000000000E+00  0.00000000000E+00 -0.25741779231E+04  0.25741779231E+04  0.50400001928E-02 0.  1.
    10030    2    1    2    0    0  0.00000000000E+00  0.00000000000E+00 -0.15818449870E+04  0.35665108592E+04  0.31965240725E+04 0.  0.
        1    1    3    3  502    0  0.11534725998E+03  0.10684458963E+03 -0.25655281659E+04  0.25703415195E+04  0.50400001928E-02 0.  1.
       -1    1    3    3    0  502 -0.11534725998E+03 -0.10684458963E+03  0.98368317897E+03  0.99616933969E+03  0.50400001928E-02 0. -1.
</event>
<event>
 5   0  0.3750285E-07  0.3207432E+04  0.7818609E-02  0.8186857E-01
        2   -1    0    0  501    0  0.00000000000E+00  0.00000000000E+00  0.21313562345E+04  0.21313562345E+04  0.25500000920E-02 0.  1.
       -2   -1    0    0    0  501  0.00000000000E+00  0.00000000000E+00 -0.12066988250E+04  0.12066988250E+04  0.25500000920E-02 0. -1.
    10030    2    1    2    0    0  0.00000000000E+00  0.00000000000E+00  0.92465740943E+03  0.33380550595E+04  0.32074320344E+04 0.  0.
        1    1    3    3  502    0 -0.12074390808E+04  0.49991767169E+03  0.14297431559E+04  0.19370060155E+04  0.50400001928E-02 0.  1.
       -1    1    3    3    0  502  0.12074390808E+04 -0.49991767169E+03 -0.50508574644E+03  0.14010490440E+04  0.50400001928E-02 0. -1.
</event>
<event>
 5   0  0.1288096E-07  0.3194266E+04  0.7818609E-02  0.8190333E-01
       -1   -1    0    0    0  501  0.00000000000E+00  0.00000000000E+00  0.99663267002E+03  0.99663267003E+03  0.50400001928E-02 0. -1.
        1   -1    0    0  501    0  0.00000000000E+00  0.00000000000E+00 -0.25594524868E+04  0.25594524868E+04  0.50400001928E-02 0.  1.
    10030    2    1    2    0    0  0.00000000000E+00  0.00000000000E+00 -0.15628198167E+04  0.35560851568E+04  0.31942660914E+04 0.  0.
        2    1    3    3  502    0 -0.87294140741E+03 -0.21956059571E+03  0.68734929792E+03  0.11325557882E+04  0.25500000920E-02 0. -1.
       -2    1    3    3    0  502  0.87294140741E+03  0.21956059571E+03 -0.22501691147E+04  0.24235293686E+04  0.25500000920E-02 0.  1.
</event>
<event>
 5   0  0.3764056E-07  0.3198185E+04  0.7818609E-02  0.8189297E-01
       -2   -1    0    0    0  501  0.00000000000E+00  0.00000000000E+00  0.16819766021E+04  0.16819766021E+04  0.25500000920E-02 0. -1.
        2   -1    0    0  501    0  0.00000000000E+00  0.00000000000E+00 -0.15202927291E+04  0.15202927291E+04  0.25500000920E-02 0.  1.
    10030    2    1    2    0    0  0.00000000000E+00  0.00000000000E+00  0.16168387301E+03  0.32022693313E+04  0.31981849845E+04 0.  0.
        5    1    3    3  502    0  0.12753936455E+04  0.83506217885E+03  0.56428036563E+03  0.16255436674E+04  0.46999998093E+01 0.  1.
       -5    1    3    3    0  502 -0.12753936455E+04 -0.83506217885E+03 -0.40259649262E+03  0.15767256639E+04  0.46999998093E+01 0. -1.
</event>
<event>
 5   0  0.1288096E-07  0.3199241E+04  0.7818609E-02  0.8189018E-01
       -1   -1    0    0    0  501  0.00000000000E+00  0.00000000000E+00  0.96623628949E+03  0.96623628950E+03  0.50400001928E-02 0. -1.
        1   -1    0    0  501    0  0.00000000000E+00  0.00000000000E+00 -0.26481980658E+04  0.26481980658E+04  0.50400001928E-02 0.  1.
    10030    2    1    2    0    0  0.00000000000E+00  0.00000000000E+00 -0.16819617763E+04  0.36144343553E+04  0.31992405805E+04 0.  0.
        2    1    3    3  502    0  0.82482819313E+03  0.86070483256E+03 -0.20460004479E+04  0.23679679452E+04  0.25500000920E-02 0.  1.
       -2    1    3    3    0  502 -0.82482819313E+03 -0.86070483256E+03  0.36403867157E+03  0.12464664101E+04  0.25500000920E-02 0. -1.
</event>
<event>
 5   0  0.1365455E-07  0.3195150E+04  0.7818609E-02  0.8190099E-01
       -1   -1    0    0    0  501  0.00000000000E+00  0.00000000000E+00  0.12194238715E+04  0.12194238715E+04  0.50400001928E-02 0. -1.
        1   -1    0    0  501    0  0.00000000000E+00  0.00000000000E+00 -0.20929929787E+04  0.20929929787E+04  0.50400001928E-02 0.  1.
    10030    2    1    2    0    0  0.00000000000E+00  0.00000000000E+00 -0.87356910719E+03  0.33124168503E+04  0.31951498251E+04 0.  0.
        3    1    3    3  502    0  0.11547273263E+04  0.79971807915E+02 -0.15783125169E+04  0.19572585673E+04  0.10100000352E+00 0.  1.
       -3    1    3    3    0  502 -0.11547273263E+04 -0.79971807915E+02  0.70474340974E+03  0.13551582830E+04  0.10100000352E+00 0. -1.
</event>
<event>
 5   0  0.1277374E-07  0.3180250E+04  0.7818609E-02  0.8194053E-01
        1   -1    0    0  501    0  0.00000000000E+00  0.00000000000E+00  0.22947606272E+04  0.22947606272E+04  0.50400001928E-02 0. -1.
       -1   -1    0    0    0  501  0.00000000000E+00  0.00000000000E+00 -0.11018566877E+04  0.11018566877E+04  0.50400001928E-02 0.  1.
    10030    2    1    2    0    0  0.00000000000E+00  0.00000000000E+00  0.11929039395E+04  0.33966173149E+04  0.31802498919E+04 0.  0.
        5    1    3    3  502    0  0.78687916967E+03  0.93776544137E+03  0.16803322125E+04  0.20789712084E+04  0.46999998093E+01 0. -1.
       -5    1    3    3    0  502 -0.78687916967E+03 -0.93776544137E+03 -0.48742827301E+03  0.13176461065E+04  0.46999998093E+01 0.  1.
</event>
<event>
 5   0  0.3750285E-07  0.3159038E+04  0.7818609E-02  0.8199720E-01
        2   -1    0    0  501    0  0.00000000000E+00  0.00000000000E+00  0.27585874201E+04  0.27585874201E+04  0.25500000920E-02 0. -1.
       -2   -1    0    0    0  501  0.00000000000E+00  0.00000000000E+00 -0.90440481206E+03  0.90440481206E+03  0.25500000920E-02 0.  1.
    10030    2    1    2    0    0  0.00000000000E+00  0.00000000000E+00  0.18541826080E+04  0.36629922321E+04  0.31590376618E+04 0.  0.
        1    1    3    3  502    0 -0.13687294208E+04  0.33323382294E+03  0.17554964599E+04  0.22508293647E+04  0.50400001928E-02 0.  1.
       -1    1    3    3    0  502  0.13687294208E+04 -0.33323382294E+03  0.98686148081E+02  0.14121628674E+04  0.50400001928E-02 0. -1.
</event>
<event>
 5   0  0.1365455E-07  0.3199645E+04  0.7818609E-02  0.8188911E-01
       -1   -1    0    0    0  501  0.00000000000E+00  0.00000000000E+00  0.14101991019E+04  0.14101991019E+04  0.50400001928E-02 0.  1.
        1   -1    0    0  501    0  0.00000000000E+00  0.00000000000E+00 -0.18149438474E+04  0.18149438474E+04  0.50400001928E-02 0. -1.
    10030    2    1    2    0    0  0.00000000000E+00  0.00000000000E+00 -0.40474474545E+03  0.32251429493E+04  0.31996450951E+04 0.  0.
        3    1    3    3  502    0 -0.85296549649E+03  0.96949595895E+02 -0.15631240561E+04  0.17833412986E+04  0.10100000352E+00 0. -1.
       -3    1    3    3    0  502  0.85296549649E+03 -0.96949595895E+02  0.11583793107E+04  0.14418016507E+04  0.10100000352E+00 0.  1.
</event>
<event>
 5   0  0.3858721E-07  0.3191694E+04  0.7818609E-02  0.8191014E-01
        2   -1    0    0  501    0  0.00000000000E+00  0.00000000000E+00  0.18119961866E+04  0.18119961866E+04  0.25500000920E-02 0.  1.
       -2   -1    0    0    0  501  0.00000000000E+00  0.00000000000E+00 -0.14054816202E+04  0.14054816202E+04  0.25500000920E-02 0. -1.
    10030    2    1    2    0    0  0.00000000000E+00  0.00000000000E+00  0.40651456636E+03  0.32174778068E+04  0.31916938050E+04 0.  0.
        2    1    3    3  502    0 -0.66254682135E+03  0.65947737482E+03 -0.11005778003E+04  0.14440049144E+04  0.25500000920E-02 0. -1.
       -2    1    3    3    0  502  0.66254682135E+03 -0.65947737482E+03  0.15070923667E+04  0.17734728924E+04  0.25500000920E-02 0.  1.
</event>
<event>
 5   0  0.1270948E-07  0.3197213E+04  0.7818609E-02  0.8189554E-01
        1   -1    0    0  501    0  0.00000000000E+00  0.00000000000E+00  0.16006568245E+04  0.16006568245E+04  0.50400001928E-02 0.  1.
       -1   -1    0    0    0  501  0.00000000000E+00  0.00000000000E+00 -0.15965583526E+04  0.15965583526E+04  0.50400001928E-02 0. -1.
    10030    2    1    2    0    0  0.00000000000E+00  0.00000000000E+00  0.40984718287E+01  0.31972151771E+04  0.31972125502E+04 0.  0.
        4    1    3    3  502    0  0.13075221418E+04  0.43589431946E+03 -0.80784179307E+03  0.15975693990E+04  0.12699999809E+01 0. -1.
       -4    1    3    3    0  502 -0.13075221418E+04 -0.43589431946E+03  0.81194026490E+03  0.15996457782E+04  0.12699999809E+01 0.  1.
</event>
<event>
 5   0  0.1277374E-07  0.3210153E+04  0.7818609E-02  0.8186141E-01
        1   -1    0    0  501    0  0.00000000000E+00  0.00000000000E+00  0.13733873181E+04  0.13733873181E+04  0.50400001928E-02 0. -1.
       -1   -1    0    0    0  501  0.00000000000E+00  0.00000000000E+00 -0.18758511709E+04  0.18758511710E+04  0.50400001928E-02 0.  1.
    10030    2    1    2    0    0  0.00000000000E+00  0.00000000000E+00 -0.50246385283E+03  0.32492384891E+04  0.32101527745E+04 0.  0.
        5    1    3    3  502    0  0.15431304815E+04 -0.77873411740E+01  0.19565914981E+03  0.15555117867E+04  0.46999998093E+01 0. -1.
       -5    1    3    3    0  502 -0.15431304815E+04  0.77873411740E+01 -0.69812300264E+03  0.16937267024E+04  0.46999998093E+01 0.  1.
</event>
<event>
 5   0  0.3764056E-07  0.3201603E+04  0.7818609E-02  0.8188394E-01
        2   -1    0    0  501    0  0.00000000000E+00  0.00000000000E+00  0.23572298399E+04  0.23572298399E+04  0.25500000920E-02 0.  1.
       -2   -1    0    0    0  501  0.00000000000E+00  0.00000000000E+00 -0.10871089064E+04  0.10871089064E+04  0.25500000920E-02 0. -1.
    10030    2    1    2    0    0  0.00000000000E+00  0.00000000000E+00  0.12701209335E+04  0.34443387463E+04  0.32016030693E+04 0.  0.
        5    1    3    3  502    0 -0.23684136746E+03 -0.15774402938E+04  0.77992371732E+03  0.17755885809E+04  0.46999998093E+01 0.  1.
       -5    1    3    3    0  502  0.23684136746E+03  0.15774402938E+04  0.49019721614E+03  0.16687501654E+04  0.46999998093E+01 0. -1.
</event>
<event>
 5   0  0.1277374E-07  0.3196785E+04  0.7818609E-02  0.8189667E-01
        1   -1    0    0  501    0  0.00000000000E+00  0.00000000000E+00  0.27668997271E+04  0.27668997271E+04  0.50400001928E-02 0. -1.
       -1   -1    0    0    0  501  0.00000000000E+00  0.00000000000E+00 -0.92336491925E+03  0.92336491927E+03  0.50400001928E-02 0.  1.
    10030    2    1    2    0    0  0.00000000000E+00  0.00000000000E+00  0.18435348079E+04  0.36902646464E+04  0.31967847242E+04 0.  0.
        5    1    3    3  502    0 -0.38965901681E+03 -0.11839339808E+04  0.20768863673E+04  0.24221917539E+04  0.46999998093E+01 0. -1.
       -5    1    3    3    0  502  0.38965901681E+03  0.11839339808E+04 -0.23335155939E+03  0.12680728925E+04  0.46999998093E+01 0.  1.
</event>
<event>
 5   0  0.1288096E-07  0.3194663E+04  0.7818609E-02  0.8190228E-01
       -1   -1    0    0    0  501  0.00000000000E+00  0.00000000000E+00  0.14422602513E+04  0.14422602513E+04  0.50400001928E-02 0. -1.
        1   -1    0    0  501    0  0.00000000000E+00  0.00000000000E+00 -0.17690763532E+04  0.17690763532E+04  0.50400001928E-02 0.  1.
    10030    2    1    2    0    0  0.00000000000E+00  0.00000000000E+00 -0.32681610194E+03  0.32113366045E+04  0.31946633661E+04 0.  0.
        2    1    3    3  502    0 -0.78681363087E+03  0.10124186547E+04  0.79413966048E+03  0.15082191560E+04  0.25500000920E-02 0. -1.
       -2    1    3    3    0  502  0.78681363087E+03 -0.10124186547E+04 -0.11209557624E+04  0.17031174485E+04  0.25500000920E-02 0.  1.
</event>
<event>
 5   0  0.3750285E-07  0.3198954E+04  0.7818609E-02  0.8189093E-01
       -2   -1    0    0    0  501  0.00000000000E+00  0.00000000000E+00  0.25451935473E+04  0.25451935473E+04  0.25500000920E-02 0.  1.
        2   -1    0    0  501    0  0.00000000000E+00  0.00000000000E+00 -0.10051599503E+04  0.10051599503E+04  0.25500000920E-02 0. -1.
    10030    2    1    2    0    0  0.00000000000E+00  0.00000000000E+00  0.15400335970E+04  0.35503534977E+04  0.31989539663E+04 0.  0.
        1    1    3    3  502    0 -0.67535203532E+03  0.63066334343E+03  0.22189916045E+04  0.24036972282E+04  0.50400001928E-02 0.  1.
       -1    1    3    3    0  502  0.67535203532E+03 -0.63066334343E+03 -0.67895800745E+03  0.11466562694E+04  0.50400001928E-02 0. -1.
</event>
<event>
 5   0  0.1270948E-07  0.3197730E+04  0.7818609E-02  0.8189417E-01
        1   -1    0    0  501    0  0.00000000000E+00  0.00000000000E+00  0.12907855322E+04  0.12907855322E+04  0.50400001928E-02 0. -1.
       -1   -1    0    0    0  501  0.00000000000E+00  0.00000000000E+00 -0.19804756423E+04  0.19804756423E+04  0.50400001928E-02 0.  1.
    10030    2    1    2    0    0  0.00000000000E+00  0.00000000000E+00 -0.68969011008E+03  0.32712611745E+04  0.31977300111E+04 0.  0.
        4    1    3    3  502    0 -0.15273482698E+04  0.22285094793E+03 -0.77146260179E+03  0.17255756840E+04  0.12699999809E+01 0. -1.
       -4    1    3    3    0  502  0.15273482698E+04 -0.22285094793E+03  0.81772491705E+02  0.15456854905E+04  0.12699999809E+01 0.  1.
</event>
<event>
 5   0  0.3750285E-07  0.3206847E+04  0.7818609E-02  0.8187011E-01
        2   -1    0    0  501    0  0.00000000000E+00  0.00000000000E+00  0.20627261500E+04  0.20627261500E+04  0.25500000920E-02 0. -1.
       -2   -1    0    0    0  501  0.00000000000E+00  0.00000000000E+00 -0.12463928924E+04  0.12463928924E+04  0.25500000920E-02 0.  1.
    10030    2    1    2    0    0  0.00000000000E+00  0.00000000000E+00  0.81633325758E+03  0.33091190424E+04  0.32068471821E+04 0.  0.
        1    1    3    3  502    0  0.77879090529E+03  0.20364429474E+03  0.18391072609E+04  0.20075611548E+04  0.50400001928E-02 0. -1.
       -1    1    3    3    0  502 -0.77879090529E+03 -0.20364429474E+03 -0.10227740033E+04  0.13015578876E+04  0.50400001928E-02 0.  1.
</event>
<event>
 5   0  0.3750285E-07  0.3202166E+04  0.7818609E-02  0.8188245E-01
       -2   -1    0    0    0  501  0.00000000000E+00  0.00000000000E+00  0.14920614072E+04  0.14920614072E+04  0.25500000920E-02 0.  1.
        2   -1    0    0  501    0  0.00000000000E+00  0.00000000000E+00 -0.17180701814E+04  0.17180701814E+04  0.25500000920E-02 0. -1.
    10030    2    1    2    0    0  0.00000000000E+00  0.00000000000E+00 -0.22600877424E+03  0.32101315886E+04  0.32021656500E+04 0.  0.
        1    1    3    3  502    0 -0.61945292151E+03  0.10400612780E+04 -0.11634741085E+04  0.16790239382E+04  0.50400001928E-02 0. -1.
       -1    1    3    3    0  502  0.61945292151E+03 -0.10400612780E+04  0.93746533430E+03  0.15311076504E+04  0.50400001928E-02 0.  1.
</event>
<event>
 5   0  0.1270948E-07  0.3197697E+04  0.7818609E-02  0.8189426E-01
        1   -1    0    0  501    0  0.00000000000E+00  0.00000000000E+00  0.16068432995E+04  0.16068432995E+04  0.50400001928E-02 0. -1.
       -1   -1    0    0    0  501  0.00000000000E+00  0.00000000000E+00 -0.15908939379E+04  0.15908939380E+04  0.50400001928E-02 0.  1.
    10030    2    1    2    0    0  0.00000000000E+00  0.00000000000E+00  0.15949361563E+02  0.31977372375E+04  0.31976974619E+04 0.  0.
        4    1    3    3  502    0 -0.74658923548E+03  0.55314839919E+02 -0.14047921387E+04  0.15918221583E+04  0.12699999809E+01 0.  1.
       -4    1    3    3    0  502  0.74658923548E+03 -0.55314839919E+02  0.14207415002E+04  0.16059150791E+04  0.12699999809E+01 0. -1.
</event>
<event>
 5   0  0.1277374E-07  0.3193275E+04  0.7818609E-02  0.8190596E-01
       -1   -1    0    0    0  501  0.00000000000E+00  0.00000000000E+00  0.13198434349E+04  0.13198434349E+04  0.50400001928E-02 0. -1.
        1   -1    0    0  501    0  0.00000000000E+00  0.00000000000E+00 -0.19314796142E+04  0.19314796142E+04  0.50400001928E-02 0.  1.
    10030    2    1    2    0    0  0.00000000000E+00  0.00000000000E+00 -0.61163617931E+03  0.32513230491E+04  0.31932746129E+04 0.  0.
        5    1    3    3  502    0  0.63554768962E+03 -0.10071208426E+04  0.77700648216E+03  0.14219614695E+04  0.46999998093E+01 0. -1.
       -5    1    3    3    0  502 -0.63554768962E+03  0.10071208426E+04 -0.13886426615E+04  0.18293615795E+04  0.46999998093E+01 0.  1.
</event>
<event>
 5   0  0.3830207E-07  0.3202491E+04  0.7818609E-02  0.8188160E-01
        2   -1    0    0  501    0  0.00000000000E+00  0.00000000000E+00  0.96771486604E+03  0.96771486604E+03  0.25500000920E-02 0. -1.
       -2   -1    0    0    0  501  0.00000000000E+00  0.00000000000E+00 -0.26495275599E+04  0.26495275599E+04  0.25500000920E-02 0.  1.
    10030    2    1    2    0    0  0.00000000000E+00  0.00000000000E+00 -0.16818126939E+04  0.36172424260E+04  0.32024910353E+04 0.  0.
        4    1    3    3  502    0 -0.94251220833E+03 -0.64481347953E+03 -0.21087126002E+04  0.23980792584E+04  0.12699999809E+01 0.  1.
       -4    1    3    3    0  502  0.94251220833E+03  0.64481347953E+03  0.42689990635E+03  0.12191631676E+04  0.12699999809E+01 0. -1.
</event>
<event>
 5   0  0.1270948E-07  0.3195222E+04  0.7818609E-02  0.8190080E-01
        1   -1    0    0  501    0  0.00000000000E+00  0.00000000000E+00  0.87706756277E+03  0.87706756279E+03  0.50400001928E-02 0.  1.
       -1   -1    0    0    0  501  0.00000000000E+00  0.00000000000E+00 -0.29101082846E+04  0.29101082846E+04  0.50400001928E-02 0. -1.
    10030    2    1    2    0    0  0.00000000000E+00  0.00000000000E+00 -0.20330407218E+04  0.37871758474E+04  0.31952224214E+04 0.  0.
        4    1    3    3  502    0  0.95100445454E+03  0.38302410630E+03  0.43572459844E+03  0.11139903398E+04  0.12699999809E+01 0.  1.
       -4    1    3    3    0  502 -0.95100445454E+03 -0.38302410630E+03 -0.24687653203E+04  0.26731855076E+04  0.12699999809E+01 0. -1.
</event>
<event>
 5   0  0.1317293E-07  0.3198580E+04  0.7818609E-02  0.8189192E-01
        1   -1    0    0  501    0  0.00000000000E+00  0.00000000000E+00  0.13523150532E+04  0.13523150532E+04  0.50400001928E-02 0.  1.
       -1   -1    0    0    0  501  0.00000000000E+00  0.00000000000E+00 -0.18913697515E+04  0.18913697515E+04  0.50400001928E-02 0. -1.
    10030    2    1    2    0    0  0.00000000000E+00  0.00000000000E+00 -0.53905469828E+03  0.32436848047E+04  0.31985795511E+04 0.  0.
        1    1    3    3  502    0 -0.12005357419E+04  0.10066157752E+04  0.56197301878E+02  0.15677115561E+04  0.50400001928E-02 0.  1.
       -1    1    3    3    0  502  0.12005357419E+04 -0.10066157752E+04 -0.59525200016E+03  0.16759732486E+04  0.50400001928E-02 0. -1.
</event>
<event>
 5   0  0.1277374E-07  0.3203246E+04  0.7818609E-02  0.8187961E-01
       -1   -1    0    0    0  501  0.00000000000E+00  0.00000000000E+00  0.14170243526E+04  0.14170243526E+04  0.50400001928E-02 0. -1.
        1   -1    0    0  501    0  0.00000000000E+00  0.00000000000E+00 -0.18102694351E+04  0.18102694351E+04  0.50400001928E-02 0.  1.
    10030    2    1    2    0    0  0.00000000000E+00  0.00000000000E+00 -0.39324508247E+03  0.32272937877E+04  0.32032457754E+04 0.  0.
        5    1    3    3  502    0  0.10784838731E+04  0.95593001887E+03  0.50736788045E+03  0.15278658062E+04  0.46999998093E+01 0. -1.
       -5    1    3    3    0  502 -0.10784838731E+04 -0.95593001887E+03 -0.90061296292E+03  0.16994279816E+04  0.46999998093E+01 0.  1.
</event>
<event>
 5   0  0.3830207E-07  0.3207990E+04  0.7818609E-02  0.8186710E-01
       -2   -1    0    0    0  501  0.00000000000E+00  0.00000000000E+00  0.12729797459E+04  0.12729797459E+04  0.25500000920E-02 0. -1.
        2   -1    0    0  501    0  0.00000000000E+00  0.00000000000E+00 -0.20210842678E+04  0.20210842678E+04  0.25500000920E-02 0.  1.
    10030    2    1    2    0    0  0.00000000000E+00  0.00000000000E+00 -0.74810452185E+03  0.32940640137E+04  0.32079896120E+04 0.  0.
        4    1    3    3  502    0  0.93015606550E+03  0.12081528020E+04 -0.88538353115E+03  0.17631588441E+04  0.12699999809E+01 0.  1.
       -4    1    3    3    0  502 -0.93015606550E+03 -0.12081528020E+04  0.13727900930E+03  0.15309051697E+04  0.12699999809E+01 0. -1.
</event>
<event>
 5   0  0.3858721E-07  0.3207297E+04  0.7818609E-02  0.8186893E-01
        2   -1    0    0  501    0  0.00000000000E+00  0.00000000000E+00  0.15543717556E+04  0.15543717556E+04  0.25500000920E-02 0. -1.
       -2   -1    0    0    0  501  0.00000000000E+00  0.00000000000E+00 -0.16544869117E+04  0.16544869117E+04  0.25500000920E-02 0.  1.
    10030    2    1    2    0    0  0.00000000000E+00  0.00000000000E+00 -0.10011515604E+03  0.32088586673E+04  0.32072965098E+04 0.  0.
        2    1    3    3  502    0  0.88639635870E+03 -0.23369988292E+03  0.12664000075E+04  0.15633563634E+04  0.25500000920E-02 0. -1.
       -2    1    3    3    0  502 -0.88639635870E+03  0.23369988292E+03 -0.13665151635E+04  0.16455023039E+04  0.25500000920E-02 0.  1.
</event>
<event>
 5   0  0.1277374E-07  0.3207327E+04  0.7818609E-02  0.8186885E-01
        1   -1    0    0  501    0  0.00000000000E+00  0.00000000000E+00  0.16953608865E+04  0.16953608865E+04  0.50400001928E-02 0. -1.
       -1   -1    0    0    0  501  0.00000000000E+00  0.00000000000E+00 -0.15169258302E+04  0.15169258302E+04  0.50400001928E-02 0.  1.
    10030    2    1    2    0    0  0.00000000000E+00  0.00000000000E+00  0.17843505635E+03  0.32122867167E+04  0.32073270617E+04 0.  0.
        5    1    3    3  502    0  0.14729633013E+04 -0.18715629542E+03  0.69601433849E+03  0.16398495099E+04  0.46999998093E+01 0.  1.
       -5    1    3    3    0  502 -0.14729633013E+04  0.18715629542E+03 -0.51757928214E+03  0.15724372067E+04  0.46999998093E+01 0. -1.
</event>
<event>
 5   0  0.1317293E-07  0.3199091E+04  0.7818609E-02  0.8189057E-01
        1   -1    0    0  501    0  0.00000000000E+00  0.00000000000E+00  0.14384260101E+04  0.14384260101E+04  0.50400001928E-02 0. -1.
       -1   -1    0    0    0  501  0.00000000000E+00  0.00000000000E+00 -0.17787116016E+04  0.17787116016E+04  0.50400001928E-02 0.  1.
    10030    2    1    2    0    0  0.00000000000E+00  0.00000000000E+00 -0.34028559151E+03  0.32171376116E+04  0.31990905158E+04 0.  0.
        1    1    3    3  502    0 -0.71769554319E+03  0.51821581867E+03 -0.15099161607E+04  0.17502803603E+04  0.50400001928E-02 0.  1.
       -1    1    3    3    0  502  0.71769554319E+03 -0.51821581867E+03  0.11696305692E+04  0.14668572513E+04  0.50400001928E-02 0. -1.
</event>
<event>
 5   0  0.3942564E-07  0.3202648E+04  0.7818609E-02  0.8188118E-01
       -2   -1    0    0    0  501  0.00000000000E+00  0.00000000000E+00  0.99904389288E+03  0.99904389289E+03  0.25500000920E-02 0.  1.
        2   -1    0    0  501    0  0.00000000000E+00  0.00000000000E+00 -0.25666920201E+04  0.25666920201E+04  0.25500000920E-02 0. -1.
    10030    2    1    2    0    0  0.00000000000E+00  0.00000000000E+00 -0.15676481272E+04  0.35657359130E+04  0.32026476469E+04 0.  0.
        3    1    3    3  502    0 -0.31354122168E+02  0.44518364593E+03 -0.24960524207E+04  0.25356358684E+04  0.10100000352E+00 0. -1.
       -3    1    3    3    0  502  0.31354122168E+02 -0.44518364593E+03  0.92840429351E+03  0.10301000447E+04  0.10100000352E+00 0.  1.
</event>
<event>
 5   0  0.3830207E-07  0.3199126E+04  0.7818609E-02  0.8189048E-01
       -2   -1    0    0    0  501  0.00000000000E+00  0.00000000000E+00  0.10637415795E+04  0.10637415795E+04  0.25500000920E-02 0. -1.
        2   -1    0    0  501    0  0.00000000000E+00  0.00000000000E+00 -0.24052853656E+04  0.24052853656E+04  0.25500000920E-02 0.  1.
    10030    2    1    2    0    0  0.00000000000E+00  0.00000000000E+00 -0.13415437861E+04  0.34690269450E+04  0.31991261643E+04 0.  0.
        4    1    3    3  502    0  0.15320879801E+04  0.24228349927E+03 -0.24716648548E+03  0.15706965834E+04  0.12699999809E+01 0.  1.
       -4    1    3    3    0  502 -0.15320879801E+04 -0.24228349927E+03 -0.10943773006E+04  0.18983303616E+04  0.12699999809E+01 0. -1.
</event>
<event>
 5   0  0.3830207E-07  0.3194545E+04  0.7818609E-02  0.8190259E-01
       -2   -1    0    0    0  501  0.00000000000E+00  0.00000000000E+00  0.15440333347E+04  0.15440333347E+04  0.25500000920E-02 0. -1.
        2   -1    0    0  501    0  0.00000000000E+00  0.00000000000E+00 -0.16523468846E+04  0.16523468846E+04  0.25500000920E-02 0.  1.
    10030    2    1    2    0    0  0.00000000000E+00  0.00000000000E+00 -0.10831354990E+03  0.31963802193E+04  0.31945445186E+04 0.  0.
        4    1    3    3  502    0 -0.10175376319E+04  0.54636329752E+03 -0.11581408676E+04  0.16356000634E+04  0.12699999809E+01 0.  1.
       -4    1    3    3    0  502  0.10175376319E+04 -0.54636329752E+03  0.10498273177E+04  0.15607801559E+04  0.12699999809E+01 0. -1.
</event>
<event>
 5   0  0.1365455E-07  0.3197832E+04  0.7818609E-02  0.8189390E-01
        1   -1    0    0  501    0  0.00000000000E+00  0.00000000000E+00  0.14292892165E+04  0.14292892165E+04  0.50400001928E-02 0. -1.
       -1   -1    0    0    0  501  0.00000000000E+00  0.00000000000E+00 -0.17886743958E+04  0.17886743958E+04  0.50400001928E-02 0.  1.
    10030    2    1    2    0    0  0.00000000000E+00  0.00000000000E+00 -0.35938517929E+03  0.32179636123E+04  0.31978324070E+04 0.  0.
        3    1    3    3  502    0 -0.68129710260E+03 -0.12684069561E+04 -0.87941960111E+03  0.16871279718E+04  0.10100000352E+00 0.  1.
       -3    1    3    3    0  502  0.68129710260E+03  0.12684069561E+04  0.52003442181E+03  0.15308356405E+04  0.10100000352E+00 0. -1.
</event>
<event>
 5   0  0.1277374E-07  0.3205057E+04  0.7818609E-02  0.8187483E-01
       -1   -1    0    0    0  501  0.00000000000E+00  0.00000000000E+00  0.11971041566E+04  0.11971041566E+04  0.50400001928E-02 0.  1.
        1   -1    0    0  501    0  0.00000000000E+00  0.00000000000E+00 -0.21452577605E+04  0.21452577606E+04  0.50400001928E-02 0. -1.
    10030    2    1    2    0    0  0.00000000000E+00  0.00000000000E+00 -0.94815360392E+03  0.33423619172E+04  0.32050566187E+04 0.  0.
        5    1    3    3  502    0 -0.50984567635E+03 -0.13413574367E+04 -0.12180046150E+04  0.18822167035E+04  0.46999998093E+01 0. -1.
       -5    1    3    3    0  502  0.50984567635E+03  0.13413574367E+04  0.26985101112E+03  0.14601452137E+04  0.46999998093E+01 0.  1.
</event>
<event>
 5   0  0.1365455E-07  0.3200972E+04  0.7818609E-02  0.8188561E-01
       -1   -1    0    0    0  501  0.00000000000E+00  0.00000000000E+00  0.99260139510E+03  0.99260139512E+03  0.50400001928E-02 0. -1.
        1   -1    0    0  501    0  0.00000000000E+00  0.00000000000E+00 -0.25806479300E+04  0.25806479300E+04  0.50400001928E-02 0.  1.
    10030    2    1    2    0    0  0.00000000000E+00  0.00000000000E+00 -0.15880465349E+04  0.35732493252E+04  0.32009715623E+04 0.  0.
        3    1    3    3  502    0  0.96907333193E+03  0.10029556161E+04 -0.16705379337E+04  0.21761709696E+04  0.10100000352E+00 0.  1.
       -3    1    3    3    0  502 -0.96907333193E+03 -0.10029556161E+04  0.82491398768E+02  0.13970783556E+04  0.10100000352E+00 0. -1.
</event>
<event>
 5   0  0.1288096E-07  0.3202340E+04  0.7818609E-02  0.8188199E-01
        1   -1    0    0  501    0  0.00000000000E+00  0.00000000000E+00  0.29285065669E+04  0.29285065669E+04  0.50400001928E-02 0. -1.
       -1   -1    0    0    0  501  0.00000000000E+00  0.00000000000E+00 -0.87544460856E+03  0.87544460858E+03  0.50400001928E-02 0.  1.
    10030    2    1    2    0    0  0.00000000000E+00  0.00000000000E+00  0.20530619583E+04  0.38039511755E+04  0.32023399477E+04 0.  0.
        2    1    3    3  502    0  0.72561792481E+03 -0.12934471772E+04  0.17434141574E+04  0.22888905385E+04  0.25500000920E-02 0. -1.
       -2    1    3    3    0  502 -0.72561792481E+03  0.12934471772E+04  0.30964780089E+03  0.15150606369E+04  0.25500000920E-02 0.  1.
</event>
<event>
 5   0  0.3942564E-07  0.3203494E+04  0.7818609E-02  0.8187895E-01
        2   -1    0    0  501    0  0.00000000000E+00  0.00000000000E+00  0.24811221879E+04  0.24811221879E+04  0.25500000920E-02 0. -1.
       -2   -1    0    0    0  501  0.00000000000E+00  0.00000000000E+00 -0.10340455123E+04  0.10340455123E+04  0.25500000920E-02 0.  1.
    10030    2    1    2    0    0  0.00000000000E+00  0.00000000000E+00  0.14470766756E+04  0.35151677002E+04  0.32034938825E+04 0.  0.
        3    1    3    3  502    0 -0.21874949158E+03  0.79887652827E+03  0.22278843153E+04  0.23768726470E+04  0.10100000352E+00 0. -1.
       -3    1    3    3    0  502  0.21874949158E+03 -0.79887652827E+03 -0.78080763976E+03  0.11382950531E+04  0.10100000352E+00 0.  1.
</event>
<event>
 5   0  0.3942564E-07  0.3198937E+04  0.7818609E-02  0.8189098E-01
       -2   -1    0    0    0  501  0.00000000000E+00  0.00000000000E+00  0.11617130011E+04  0.11617130011E+04  0.25500000920E-02 0. -1.
        2   -1    0    0  501    0  0.00000000000E+00  0.00000000000E+00 -0.22021790213E+04  0.22021790213E+04  0.25500000920E-02 0.  1.
    10030    2    1    2    0    0  0.00000000000E+00  0.00000000000E+00 -0.10404660202E+04  0.33638920224E+04  0.31989373235E+04 0.  0.
        3    1    3    3  502    0  0.11187145927E+04 -0.49724188090E+02 -0.17211857608E+04  0.20534057729E+04  0.10100000352E+00 0.  1.
       -3    1    3    3    0  502 -0.11187145927E+04  0.49724188090E+02  0.68071974059E+03  0.13104862495E+04  0.10100000352E+00 0. -1.
</event>
<event>
 5   0  0.1365455E-07  0.3193500E+04  0.7818609E-02  0.8190536E-01
        1   -1    0    0  501    0  0.00000000000E+00  0.00000000000E+00  0.13055989520E+04  0.13055989520E+04  0.50400001928E-02 0. -1.
       -1   -1    0    0    0  501  0.00000000000E+00  0.00000000000E+00 -0.19528285568E+04  0.19528285568E+04  0.50400001928E-02 0.  1.
    10030    2    1    2    0    0  0.00000000000E+00  0.00000000000E+00 -0.64722960482E+03  0.32584275088E+04  0.31935002221E+04 0.  0.
        3    1    3    3  502    0 -0.10551757518E+04 -0.47200747678E+01 -0.15463924170E+04  0.18720971299E+04  0.10100000352E+00 0.  1.
       -3    1    3    3    0  502  0.10551757518E+04  0.47200747678E+01  0.89916281214E+03  0.13863303789E+04  0.10100000352E+00 0. -1.
</event>
<event>
 5   0  0.3858721E-07  0.3207411E+04  0.7818609E-02  0.8186863E-01
       -2   -1    0    0    0  501  0.00000000000E+00  0.00000000000E+00  0.24560634470E+04  0.24560634470E+04  0.25500000920E-02 0. -1.
        2   -1    0    0  501    0  0.00000000000E+00  0.00000000000E+00 -0.10471516920E+04  0.10471516920E+04  0.25500000920E-02 0.  1.
    10030    2    1    2    0    0  0.00000000000E+00  0.00000000000E+00  0.14089117551E+04  0.35032151390E+04  0.32074107901E+04 0.  0.
        2    1    3    3  502    0  0.15534901159E+04  0.13269912587E+02  0.11391057750E+04  0.19264136621E+04  0.25500000920E-02 0. -1.
       -2    1    3    3    0  502 -0.15534901159E+04 -0.13269912587E+02  0.26980598004E+03  0.15768014769E+04  0.25500000920E-02 0.  1.
</event>
<event>
 5   0  0.3750285E-07  0.3196437E+04  0.7818609E-02  0.8189759E-01
       -2   -1    0    0    0  501  0.00000000000E+00  0.00000000000E+00  0.19449689894E+04  0.19449689894E+04  0.25500000920E-02 0.  1.
        2   -1    0    0  501    0  0.00000000000E+00  0.00000000000E+00 -0.13132870235E+04  0.13132870235E+04  0.25500000920E-02 0. -1.
    10030    2    1    2    0    0  0.00000000000E+00  0.00000000000E+00  0.63168196595E+03  0.32582560129E+04  0.31964371008E+04 0.  0.
        1    1    3    3  502    0  0.36906106558E+03 -0.71121405822E+03  0.17254340830E+04  0.19024074962E+04  0.50400001928E-02 0.  1.
       -1    1    3    3    0  502 -0.36906106558E+03  0.71121405822E+03 -0.10937521170E+04  0.13558485167E+04  0.50400001928E-02 0. -1.
</event>
<event>
 5   0  0.3830207E-07  0.3194548E+04  0.7818609E-02  0.8190258E-01
       -2   -1    0    0    0  501  0.00000000000E+00  0.00000000000E+00  0.15069089681E+04  0.15069089681E+04  0.25500000920E-02 0. -1.
        2   -1    0    0  501    0  0.00000000000E+00  0.00000000000E+00 -0.16930582470E+04  0.16930582470E+04  0.25500000920E-02 0.  1.
    10030    2    1    2    0    0  0.00000000000E+00  0.00000000000E+00 -0.18614927891E+03  0.31999672151E+04  0.31945482659E+04 0.  0.
        4    1    3    3  502    0  0.43259720098E+03  0.12042148122E+04 -0.10507347620E+04  0.16556928474E+04  0.12699999809E+01 0.  1.
       -4    1    3    3    0  502 -0.43259720098E+03 -0.12042148122E+04  0.86458548306E+03  0.15442743676E+04  0.12699999809E+01 0. -1.
</event>
<event>
 5   0  0.1277374E-07  0.3202685E+04  0.7818609E-02  0.8188108E-01
        1   -1    0    0  501    0  0.00000000000E+00  0.00000000000E+00  0.17505422950E+04  0.17505422950E+04  0.50400001928E-02 0. -1.
       -1   -1    0    0    0  501  0.00000000000E+00  0.00000000000E+00 -0.14648591638E+04  0.14648591638E+04  0.50400001928E-02 0.  1.
    10030    2    1    2    0    0  0.00000000000E+00  0.00000000000E+00  0.28568313119E+03  0.32154014588E+04  0.32026850751E+04 0.  0.
        5    1    3    3  502    0  0.14907458655E+04 -0.56772556371E+03  0.21413314844E+01  0.15951997450E+04  0.46999998093E+01 0. -1.
       -5    1    3    3    0  502 -0.14907458655E+04  0.56772556371E+03  0.28354179971E+03  0.16202017138E+04  0.46999998093E+01 0.  1.
</event>
<event>
 5   0  0.3750285E-07  0.3198171E+04  0.7818609E-02  0.8189300E-01
       -2   -1    0    0    0  501  0.00000000000E+00  0.00000000000E+00  0.19037876026E+04  0.19037876026E+04  0.25500000920E-02 0.  1.
        2   -1    0    0  501    0  0.00000000000E+00  0.00000000000E+00 -0.13431511660E+04  0.13431511660E+04  0.25500000920E-02 0. -1.
    10030    2    1    2    0    0  0.00000000000E+00  0.00000000000E+00  0.56063643662E+03  0.32469387685E+04  0.31981710637E+04 0.  0.
        1    1    3    3  502    0  0.15895368385E+04  0.15385405204E+03  0.36389055825E+03  0.16378994990E+04  0.50400001928E-02 0. -1.
       -1    1    3    3    0  502 -0.15895368385E+04 -0.15385405204E+03  0.19674587836E+03  0.16090392696E+04  0.50400001928E-02 0.  1.
</event>
<event>
 5   0  0.3942564E-07  0.3194526E+04  0.7818609E-02  0.8190264E-01
        2   -1    0    0  501    0  0.00000000000E+00  0.00000000000E+00  0.19511132298E+04  0.19511132298E+04  0.25500000920E-02 0.  1.
       -2   -1    0    0    0  501  0.00000000000E+00  0.00000000000E+00 -0.13075864357E+04  0.13075864357E+04  0.25500000920E-02 0. -1.
    10030    2    1    2    0    0  0.00000000000E+00  0.00000000000E+00  0.64352679416E+03  0.32586996655E+04  0.31945260643E+04 0.  0.
        3    1    3    3  502    0 -0.51745586352E+03 -0.21033979025E+03  0.18482351877E+04  0.19307969125E+04  0.10100000352E+00 0.  1.
       -3    1    3    3    0  502  0.51745586352E+03  0.21033979025E+03 -0.12047083935E+04  0.13279027531E+04  0.10100000352E+00 0. -1.
</event>
<event>
 5   0  0.1270948E-07  0.3200053E+04  0.7818609E-02  0.8188803E-01
        1   -1    0    0  501    0  0.00000000000E+00  0.00000000000E+00  0.25625679983E+04  0.25625679983E+04  0.50400001928E-02 0. -1.
       -1   -1    0    0    0  501  0.00000000000E+00  0.00000000000E+00 -0.99903088543E+03  0.99903088545E+03  0.50400001928E-02 0.  1.
    10030    2    1    2    0    0  0.00000000000E+00  0.00000000000E+00  0.15635371128E+04  0.35615988837E+04  0.32000528598E+04 0.  0.
        4    1    3    3  502    0 -0.30664983371E+03 -0.14674522776E+04  0.14040760410E+04  0.20539915894E+04  0.12699999809E+01 0. -1.
       -4    1    3    3    0  502  0.30664983371E+03  0.14674522776E+04  0.15946107187E+03  0.15076072943E+04  0.12699999809E+01 0.  1.
</event>
<event>
 5   0  0.3764056E-07  0.3201191E+04  0.7818609E-02  0.8188503E-01
        2   -1    0    0  501    0  0.00000000000E+00  0.00000000000E+00  0.25248403683E+04  0.25248403683E+04  0.25500000920E-02 0.  1.
       -2   -1    0    0    0  501  0.00000000000E+00  0.00000000000E+00 -0.10146802623E+04  0.10146802623E+04  0.25500000920E-02 0. -1.
    10030    2    1    2    0    0  0.00000000000E+00  0.00000000000E+00  0.15101601060E+04  0.35395206305E+04  0.32011908328E+04 0.  0.
        5    1    3    3  502    0  0.97280257224E+03 -0.15768873931E+03 -0.63943542869E+03  0.11747809756E+04  0.46999998093E+01 0. -1.
       -5    1    3    3    0  502 -0.97280257224E+03  0.15768873931E+03  0.21495955347E+04  0.23647396550E+04  0.46999998093E+01 0.  1.
</event>
<event>
 5   0  0.3858721E-07  0.3200326E+04  0.7818609E-02  0.8188731E-01
       -2   -1    0    0    0  501  0.00000000000E+00  0.00000000000E+00  0.25288506955E+04  0.25288506955E+04  0.25500000920E-02 0.  1.
        2   -1    0    0  501    0  0.00000000000E+00  0.00000000000E+00 -0.10125240590E+04  0.10125240590E+04  0.25500000920E-02 0. -1.
    10030    2    1    2    0    0  0.00000000000E+00  0.00000000000E+00  0.15163266365E+04  0.35413747545E+04  0.32003263401E+04 0.  0.
        2    1    3    3  502    0  0.26499350112E+03  0.13357348012E+04  0.16880173375E+04  0.21688272284E+04  0.25500000920E-02 0.  1.
       -2    1    3    3    0  502 -0.26499350112E+03 -0.13357348012E+04 -0.17169070099E+03  0.13725475261E+04  0.25500000920E-02 0. -1.
</event>
<event>
 5   0  0.3858721E-07  0.3202277E+04  0.7818609E-02  0.8188216E-01
       -2   -1    0    0    0  501  0.00000000000E+00  0.00000000000E+00  0.13746040945E+04  0.13746040945E+04  0.25500000920E-02 0.  1.
        2   -1    0    0  501    0  0.00000000000E+00  0.00000000000E+00 -0.18650059710E+04  0.18650059710E+04  0.25500000920E-02 0. -1.
    10030    2    1    2    0    0  0.00000000000E+00  0.00000000000E+00 -0.49040187647E+03  0.32396100655E+04  0.32022772173E+04 0.  0.
        2    1    3    3  502    0  0.10373509893E+04 -0.11225283094E+04  0.23730590819E+03  0.15467646797E+04  0.25500000920E-02 0.  1.
       -2    1    3    3    0  502 -0.10373509893E+04  0.11225283094E+04 -0.72770778466E+03  0.16928453858E+04  0.25500000920E-02 0. -1.
</event>
<event>
 5   0  0.1365455E-07  0.3200712E+04  0.7818609E-02  0.8188629E-01
       -1   -1    0    0    0  501  0.00000000000E+00  0.00000000000E+00  0.17999865631E+04  0.17999865631E+04  0.50400001928E-02 0. -1.
        1   -1    0    0  501    0  0.00000000000E+00  0.00000000000E+00 -0.14228658706E+04  0.14228658706E+04  0.50400001928E-02 0.  1.
    10030    2    1    2    0    0  0.00000000000E+00  0.00000000000E+00  0.37712069252E+03  0.32228524337E+04  0.32007120758E+04 0.  0.
        3    1    3    3  502    0  0.60840143915E+03  0.12550149083E+04  0.97879782831E+03  0.17038955162E+04  0.10100000352E+00 0. -1.
       -3    1    3    3    0  502 -0.60840143915E+03 -0.12550149083E+04 -0.60167713579E+03  0.15189569175E+04  0.10100000352E+00 0.  1.
</event>
<event>
 5   0  0.1288096E-07  0.3209723E+04  0.7818609E-02  0.8186254E-01
        1   -1    0    0  501    0  0.00000000000E+00  0.00000000000E+00  0.75732005766E+03  0.75732005768E+03  0.50400001928E-02 0. -1.
       -1   -1    0    0    0  501  0.00000000000E+00  0.00000000000E+00 -0.34009138374E+04  0.34009138374E+04  0.50400001928E-02 0.  1.
    10030    2    1    2    0    0  0.00000000000E+00  0.00000000000E+00 -0.26435937797E+04  0.41582338951E+04  0.32097228936E+04 0.  0.
        2    1    3    3  502    0 -0.12314191440E+03 -0.30420037525E+02 -0.33944096793E+04  0.33967788243E+04  0.25500000920E-02 0.  1.
       -2    1    3    3    0  502  0.12314191440E+03  0.30420037525E+02  0.75081589960E+03  0.76145507082E+03  0.25500000920E-02 0. -1.
</event>
<event>
 5   0  0.3750285E-07  0.3197540E+04  0.7818609E-02  0.8189467E-01
       -2   -1    0    0    0  501  0.00000000000E+00  0.00000000000E+00  0.11971925090E+04  0.11971925090E+04  0.25500000920E-02 0. -1.
        2   -1    0    0  501    0  0.00000000000E+00  0.00000000000E+00 -0.21350498395E+04  0.21350498395E+04  0.25500000920E-02 0.  1.
    10030    2    1    2    0    0  0.00000000000E+00  0.00000000000E+00 -0.93785733056E+03  0.33322423485E+04  0.31975401009E+04 0.  0.
        1    1    3    3  502    0 -0.12108124051E+04  0.76784653924E+03  0.26826885764E+03  0.14586374355E+04  0.50400001928E-02 0. -1.
       -1    1    3    3    0  502  0.12108124051E+04 -0.76784653924E+03 -0.12061261882E+04  0.18736049130E+04  0.50400001928E-02 0.  1.
</event>
<event>
 5   0  0.1288096E-07  0.3194153E+04  0.7818609E-02  0.8190363E-01
       -1   -1    0    0    0  501  0.00000000000E+00  0.00000000000E+00  0.18719857293E+04  0.18719857293E+04  0.50400001928E-02 0.  1.
        1   -1    0    0  501    0  0.00000000000E+00  0.00000000000E+00 -0.13625386747E+04  0.13625386747E+04  0.50400001928E-02 0. -1.
    10030    2    1    2    0    0  0.00000000000E+00  0.00000000000E+00  0.50944705456E+03  0.32345244040E+04  0.31941527544E+04 0.  0.
        2    1    3    3  502    0  0.29895779819E+03  0.99413120102E+03 -0.97428027469E+03  0.14236905084E+04  0.25500000920E-02 0. -1.
       -2    1    3    3    0  502 -0.29895779819E+03 -0.99413120102E+03  0.14837273293E+04  0.18108338956E+04  0.25500000920E-02 0.  1.
</event>
<event>
 5   0  0.1277374E-07  0.3193150E+04  0.7818609E-02  0.8190628E-01
       -1   -1    0    0    0  501  0.00000000000E+00  0.00000000000E+00  0.21659244331E+04  0.21659244331E+04  0.50400001928E-02 0. -1.
        1   -1    0    0  501    0  0.00000000000E+00  0.00000000000E+00 -0.11768888291E+04  0.11768888291E+04  0.50400001928E-02 0.  1.
    10030    2    1    2    0    0  0.00000000000E+00  0.00000000000E+00  0.98903560400E+03  0.33428132622E+04  0.31931503378E+04 0.  0.
        5    1    3    3  502    0  0.12343137555E+04  0.32090832474E+03  0.15000131737E+04  0.19689017779E+04  0.46999998093E+01 0. -1.
       -5    1    3    3    0  502 -0.12343137555E+04 -0.32090832474E+03 -0.51097756970E+03  0.13739114843E+04  0.46999998093E+01 0.  1.
</event>
<event>
 5   0  0.3764056E-07  0.3227751E+04  0.7818609E-02  0.8181527E-01
       -2   -1    0    0    0  501  0.00000000000E+00  0.00000000000E+00  0.22145946413E+04  0.22145946413E+04  0.25500000920E-02 0.  1.
        2   -1    0    0  501    0  0.00000000000E+00  0.00000000000E+00 -0.11761039483E+04  0.11761039483E+04  0.25500000920E-02 0. -1.
    10030    2    1    2    0    0  0.00000000000E+00  0.00000000000E+00  0.10384906930E+04  0.33906985896E+04  0.32277506109E+04 0.  0.
        5    1    3    3  502    0  0.81244820678E+03 -0.64934366726E+03 -0.77709214179E+03  0.12983118168E+04  0.46999998093E+01 0. -1.
       -5    1    3    3    0  502 -0.81244820678E+03  0.64934366726E+03  0.18155828348E+04  0.20923867728E+04  0.46999998093E+01 0.  1.
</event>
<event>
 5   0  0.1288096E-07  0.3218453E+04  0.7818609E-02  0.8183961E-01
        1   -1    0    0  501    0  0.00000000000E+00  0.00000000000E+00  0.15683987665E+04  0.15683987665E+04  0.50400001928E-02 0. -1.
       -1   -1    0    0    0  501  0.00000000000E+00  0.00000000000E+00 -0.16511170961E+04  0.16511170961E+04  0.50400001928E-02 0.  1.
    10030    2    1    2    0    0  0.00000000000E+00  0.00000000000E+00 -0.82718329587E+02  0.32195158627E+04  0.32184530551E+04 0.  0.
        2    1    3    3  502    0  0.58373656897E+03 -0.47286859516E+03  0.13822259998E+04  0.15731820635E+04  0.25500000920E-02 0. -1.
       -2    1    3    3    0  502 -0.58373656897E+03  0.47286859516E+03 -0.14649443294E+04  0.16463337992E+04  0.25500000920E-02 0.  1.
</event>
<event>
 5   0  0.1365455E-07  0.3200618E+04  0.7818609E-02  0.8188654E-01
        1   -1    0    0  501    0  0.00000000000E+00  0.00000000000E+00  0.17279538595E+04  0.17279538595E+04  0.50400001928E-02 0. -1.
       -1   -1    0    0    0  501  0.00000000000E+00  0.00000000000E+00 -0.14820930981E+04  0.14820930981E+04  0.50400001928E-02 0.  1.
    10030    2    1    2    0    0  0.00000000000E+00  0.00000000000E+00  0.24586076139E+03  0.32100469576E+04  0.32006177460E+04 0.  0.
        3    1    3    3  502    0 -0.15401331668E+04  0.39034044425E+03 -0.68977641019E+02  0.15903250482E+04  0.10100000352E+00 0. -1.
       -3    1    3    3    0  502  0.15401331668E+04 -0.39034044425E+03  0.31483840241E+03  0.16197219094E+04  0.10100000352E+00 0.  1.
</event>
<event>
 5   0  0.1277374E-07  0.3202175E+04  0.7818609E-02  0.8188243E-01
        1   -1    0    0  501    0  0.00000000000E+00  0.00000000000E+00  0.14518152895E+04  0.14518152895E+04  0.50400001928E-02 0. -1.
       -1   -1    0    0    0  501  0.00000000000E+00  0.00000000000E+00 -0.17657074027E+04  0.17657074027E+04  0.50400001928E-02 0.  1.
    10030    2    1    2    0    0  0.00000000000E+00  0.00000000000E+00 -0.31389211322E+03  0.32175226923E+04  0.32021748885E+04 0.  0.
        5    1    3    3  502    0 -0.59832622407E+03 -0.11712338726E+04 -0.10743808024E+04  0.16982635995E+04  0.46999998093E+01 0.  1.
       -5    1    3    3    0  502  0.59832622407E+03  0.11712338726E+04  0.76048868919E+03  0.15192590928E+04  0.46999998093E+01 0. -1.
</event>
<event>
 5   0  0.3858721E-07  0.3195800E+04  0.7818609E-02  0.8189927E-01
        2   -1    0    0  501    0  0.00000000000E+00  0.00000000000E+00  0.24379492709E+04  0.24379492709E+04  0.25500000920E-02 0.  1.
       -2   -1    0    0    0  501  0.00000000000E+00  0.00000000000E+00 -0.10473083459E+04  0.10473083459E+04  0.25500000920E-02 0. -1.
    10030    2    1    2    0    0  0.00000000000E+00  0.00000000000E+00  0.13906409250E+04  0.34852576168E+04  0.31958001303E+04 0.  0.
        2    1    3    3  502    0  0.11696249547E+03  0.92917399633E+03 -0.71664276041E+03  0.11792461095E+04  0.25500000920E-02 0. -1.
       -2    1    3    3    0  502 -0.11696249547E+03 -0.92917399633E+03  0.21072836854E+04  0.23060115073E+04  0.25500000920E-02 0.  1.
</event>
<event>
 5   0  0.3750285E-07  0.3199043E+04  0.7818609E-02  0.8189070E-01
       -2   -1    0    0    0  501  0.00000000000E+00  0.00000000000E+00  0.10356542227E+04  0.10356542227E+04  0.25500000920E-02 0.  1.
        2   -1    0    0  501    0  0.00000000000E+00  0.00000000000E+00 -0.24703894443E+04  0.24703894443E+04  0.25500000920E-02 0. -1.
    10030    2    1    2    0    0  0.00000000000E+00  0.00000000000E+00 -0.14347352217E+04  0.35060436670E+04  0.31990431443E+04 0.  0.
        1    1    3    3  502    0  0.91704142014E+03 -0.55146792850E+03  0.58558264020E+03  0.12198314928E+04  0.50400001928E-02 0.  1.
       -1    1    3    3    0  502 -0.91704142014E+03  0.55146792850E+03 -0.20203178619E+04  0.22862121742E+04  0.50400001928E-02 0. -1.
</event>
<event>
 5   0  0.1365455E-07  0.3204450E+04  0.7818609E-02  0.8187643E-01
       -1   -1    0    0    0  501  0.00000000000E+00  0.00000000000E+00  0.14548430257E+04  0.14548430257E+04  0.50400001928E-02 0.  1.
        1   -1    0    0  501    0  0.00000000000E+00  0.00000000000E+00 -0.17645373930E+04  0.17645373930E+04  0.50400001928E-02 0. -1.
    10030    2    1    2    0    0  0.00000000000E+00  0.00000000000E+00 -0.30969436727E+03  0.32193804187E+04  0.32044499807E+04 0.  0.
        3    1    3    3  502    0  0.15361040064E+04  0.86862278142E+02 -0.60410441237E+03  0.16529073552E+04  0.10100000352E+00 0. -1.
       -3    1    3    3    0  502 -0.15361040064E+04 -0.86862278142E+02  0.29441004510E+03  0.15664730635E+04  0.10100000352E+00 0.  1.
</event>
<event>
 5   0  0.3750285E-07  0.3247557E+04  0.7818609E-02  0.8176369E-01
       -2   -1    0    0    0  501  0.00000000000E+00  0.00000000000E+00  0.11502369121E+04  0.11502369121E+04  0.25500000920E-02 0.  1.
        2   -1    0    0  501    0  0.00000000000E+00  0.00000000000E+00 -0.22922724039E+04  0.22922724039E+04  0.25500000920E-02 0. -1.
    10030    2    1    2    0    0  0.00000000000E+00  0.00000000000E+00 -0.11420354919E+04  0.34425093160E+04  0.32475568241E+04 0.  0.
        1    1    3    3  502    0  0.11247932513E+04 -0.92328538363E+03  0.19267562248E+03  0.14679031485E+04  0.50400001928E-02 0.  1.
       -1    1    3    3    0  502 -0.11247932513E+04  0.92328538363E+03 -0.13347111143E+04  0.19746061675E+04  0.50400001928E-02 0. -1.
</event>
<event>
 5   0  0.3750285E-07  0.3201859E+04  0.7818609E-02  0.8188326E-01
        2   -1    0    0  501    0  0.00000000000E+00  0.00000000000E+00  0.23089040854E+04  0.23089040854E+04  0.25500000920E-02 0.  1.
       -2   -1    0    0    0  501  0.00000000000E+00  0.00000000000E+00 -0.11100399473E+04  0.11100399473E+04  0.25500000920E-02 0. -1.
    10030    2    1    2    0    0  0.00000000000E+00  0.00000000000E+00  0.11988641380E+04  0.34189440327E+04  0.32018593156E+04 0.  0.
        1    1    3    3  502    0 -0.59061064582E+03  0.25576663079E+03  0.21646741118E+04  0.22583293637E+04  0.50400001928E-02 0.  1.
       -1    1    3    3    0  502  0.59061064582E+03 -0.25576663079E+03 -0.96580997380E+03  0.11606146690E+04  0.50400001928E-02 0. -1.
</event>
<event>
 5   0  0.3764056E-07  0.3192650E+04  0.7818609E-02  0.8190761E-01
       -2   -1    0    0    0  501  0.00000000000E+00  0.00000000000E+00  0.10427730250E+04  0.10427730250E+04  0.25500000920E-02 0.  1.
        2   -1    0    0  501    0  0.00000000000E+00  0.00000000000E+00 -0.24437281336E+04  0.24437281336E+04  0.25500000920E-02 0. -1.
    10030    2    1    2    0    0  0.00000000000E+00  0.00000000000E+00 -0.14009551086E+04  0.34865011585E+04  0.31926501707E+04 0.  0.
        5    1    3    3  502    0 -0.30805565660E+03 -0.40013012179E+03 -0.23541984710E+04  0.24077530880E+04  0.46999998093E+01 0. -1.
       -5    1    3    3    0  502  0.30805565660E+03  0.40013012179E+03  0.95324336234E+03  0.10787480706E+04  0.46999998093E+01 0.  1.
</event>
<event>
 5   0  0.3942564E-07  0.3198727E+04  0.7818609E-02  0.8189153E-01
       -2   -1    0    0    0  501  0.00000000000E+00  0.00000000000E+00  0.13456010540E+04  0.13456010540E+04  0.25500000920E-02 0.  1.
        2   -1    0    0  501    0  0.00000000000E+00  0.00000000000E+00 -0.19009825983E+04  0.19009825983E+04  0.25500000920E-02 0. -1.
    10030    2    1    2    0    0  0.00000000000E+00  0.00000000000E+00 -0.55538154439E+03  0.32465836523E+04  0.31987273644E+04 0.  0.
        3    1    3    3  502    0 -0.52115909379E+03 -0.13682953389E+04 -0.93084421928E+03  0.17350244685E+04  0.10100000352E+00 0. -1.
       -3    1    3    3    0  502  0.52115909379E+03  0.13682953389E+04  0.37546267490E+03  0.15115591838E+04  0.10100000352E+00 0.  1.
</event>
<event>
 5   0  0.1317293E-07  0.3184600E+04  0.7818609E-02  0.8192896E-01
       -1   -1    0    0    0  501  0.00000000000E+00  0.00000000000E+00  0.99191296726E+03  0.99191296727E+03  0.50400001928E-02 0.  1.
        1   -1    0    0  501    0  0.00000000000E+00  0.00000000000E+00 -0.25560903076E+04  0.25560903076E+04  0.50400001928E-02 0. -1.
    10030    2    1    2    0    0  0.00000000000E+00  0.00000000000E+00 -0.15641773403E+04  0.35480032748E+04  0.31845998942E+04 0.  0.
        1    1    3    3  502    0 -0.14884187058E+04 -0.29911558828E+03 -0.13170469739E+04  0.20098440513E+04  0.50400001928E-02 0. -1.
       -1    1    3    3    0  502  0.14884187058E+04  0.29911558828E+03 -0.24713036640E+03  0.15381592236E+04  0.50400001928E-02 0.  1.
</event>
<event>
 5   0  0.1317293E-07  0.3263289E+04  0.7818609E-02  0.8172300E-01
       -1   -1    0    0    0  501  0.00000000000E+00  0.00000000000E+00  0.21024736109E+04  0.21024736109E+04  0.50400001928E-02 0. -1.
        1   -1    0    0  501    0  0.00000000000E+00  0.00000000000E+00 -0.12662530445E+04  0.12662530445E+04  0.50400001928E-02 0.  1.
    10030    2    1    2    0    0  0.00000000000E+00  0.00000000000E+00  0.83622056637E+03  0.33687266554E+04  0.32632888998E+04 0.  0.
        1    1    3    3  502    0  0.12076669760E+04 -0.85071991585E+03  0.11333752025E+04  0.18619138675E+04  0.50400001928E-02 0. -1.
       -1    1    3    3    0  502 -0.12076669760E+04  0.85071991585E+03 -0.29715463612E+03  0.15068127880E+04  0.50400001928E-02 0.  1.
</event>
<event>
 5   0  0.1317293E-07  0.3209339E+04  0.7818609E-02  0.8186355E-01
        1   -1    0    0  501    0  0.00000000000E+00  0.00000000000E+00  0.25752684991E+04  0.25752684991E+04  0.50400001928E-02 0. -1.
       -1   -1    0    0    0  501  0.00000000000E+00  0.00000000000E+00 -0.99988161049E+03  0.99988161050E+03  0.50400001928E-02 0.  1.
    10030    2    1    2    0    0  0.00000000000E+00  0.00000000000E+00  0.15753868886E+04  0.35751501096E+04  0.32093386324E+04 0.  0.
        1    1    3    3  502    0 -0.10690623536E+04 -0.90698966795E+03 -0.81955297704E+02  0.14043650681E+04  0.50400001928E-02 0.  1.
       -1    1    3    3    0  502  0.10690623536E+04  0.90698966795E+03  0.16573421863E+04  0.21707850415E+04  0.50400001928E-02 0. -1.
</event>
<event>
 5   0  0.3764056E-07  0.3197352E+04  0.7818609E-02  0.8189517E-01
        2   -1    0    0  501    0  0.00000000000E+00  0.00000000000E+00  0.16792490161E+04  0.16792490161E+04  0.25500000920E-02 0.  1.
       -2   -1    0    0    0  501  0.00000000000E+00  0.00000000000E+00 -0.15219694138E+04  0.15219694138E+04  0.25500000920E-02 0. -1.
    10030    2    1    2    0    0  0.00000000000E+00  0.00000000000E+00  0.15727960234E+03  0.32012184299E+04  0.31973524302E+04 0.  0.
        5    1    3    3  502    0 -0.11008871485E+04 -0.13059270795E+03 -0.10745934375E+04  0.15439495183E+04  0.46999998093E+01 0. -1.
       -5    1    3    3    0  502  0.11008871485E+04  0.13059270795E+03  0.12318730399E+04  0.16572689116E+04  0.46999998093E+01 0.  1.
</event>
<event>
 5   0  0.3750285E-07  0.3202957E+04  0.7818609E-02  0.8188037E-01
        2   -1    0    0  501    0  0.00000000000E+00  0.00000000000E+00  0.20746761226E+04  0.20746761226E+04  0.25500000920E-02 0. -1.
       -2   -1    0    0    0  501  0.00000000000E+00  0.00000000000E+00 -0.12362093160E+04  0.12362093160E+04  0.25500000920E-02 0.  1.
    10030    2    1    2    0    0  0.00000000000E+00  0.00000000000E+00  0.83846680669E+03  0.33108854386E+04  0.32029573525E+04 0.  0.
        1    1    3    3  502    0  0.12406817943E+02  0.10290063082E+04 -0.84919505766E+03  0.13342189316E+04  0.50400001928E-02 0.  1.
       -1    1    3    3    0  502 -0.12406817943E+02 -0.10290063082E+04  0.16876618644E+04  0.19766665070E+04  0.50400001928E-02 0. -1.
</event>
<event>
 5   0  0.1277374E-07  0.3192007E+04  0.7818609E-02  0.8190931E-01
        1   -1    0    0  501    0  0.00000000000E+00  0.00000000000E+00  0.19390079385E+04  0.19390079385E+04  0.50400001928E-02 0. -1.
       -1   -1    0    0    0  501  0.00000000000E+00  0.00000000000E+00 -0.13136754473E+04  0.13136754473E+04  0.50400001928E-02 0.  1.
    10030    2    1    2    0    0  0.00000000000E+00  0.00000000000E+00  0.62533249127E+03  0.32526833858E+04  0.31920069680E+04 0.  0.
        5    1    3    3  502    0  0.32446698529E+03 -0.11010499301E+04 -0.81729248587E+03  0.14091056989E+04  0.46999998093E+01 0.  1.
       -5    1    3    3    0  502 -0.32446698529E+03  0.11010499301E+04  0.14426249771E+04  0.18435776869E+04  0.46999998093E+01 0. -1.
</event>
<event>
 5   0  0.1277374E-07  0.3197455E+04  0.7818609E-02  0.8189490E-01
        1   -1    0    0  501    0  0.00000000000E+00  0.00000000000E+00  0.16977386853E+04  0.16977386853E+04  0.50400001928E-02 0.  1.
       -1   -1    0    0    0  501  0.00000000000E+00  0.00000000000E+00 -0.15054904395E+04  0.15054904395E+04  0.50400001928E-02 0. -1.
    10030    2    1    2    0    0  0.00000000000E+00  0.00000000000E+00  0.19224824581E+03  0.32032291248E+04  0.31974548375E+04 0.  0.
        5    1    3    3  502    0  0.73451403333E+03 -0.18845162889E+03  0.15061040531E+04  0.16862373470E+04  0.46999998093E+01 0.  1.
       -5    1    3    3    0  502 -0.73451403333E+03  0.18845162889E+03 -0.13138558073E+04  0.15169917778E+04  0.46999998093E+01 0. -1.
</event>
<event>
 5   0  0.3750285E-07  0.3203947E+04  0.7818609E-02  0.8187776E-01
        2   -1    0    0  501    0  0.00000000000E+00  0.00000000000E+00  0.30856358314E+04  0.30856358314E+04  0.25500000920E-02 0.  1.
       -2   -1    0    0    0  501  0.00000000000E+00  0.00000000000E+00 -0.83169851095E+03  0.83169851096E+03  0.25500000920E-02 0. -1.
    10030    2    1    2    0    0  0.00000000000E+00  0.00000000000E+00  0.22539373204E+04  0.39173343423E+04  0.32039467700E+04 0.  0.
        1    1    3    3  502    0 -0.12169886011E+04 -0.83329240416E+03  0.36255619306E+03  0.15188431385E+04  0.50400001928E-02 0. -1.
       -1    1    3    3    0  502  0.12169886011E+04  0.83329240416E+03  0.18913811274E+04  0.23984912039E+04  0.50400001928E-02 0.  1.
</event>
<event>
 5   0  0.1365455E-07  0.3107386E+04  0.7818609E-02  0.8213714E-01
        1   -1    0    0  501    0  0.00000000000E+00  0.00000000000E+00  0.25914953617E+04  0.25914953617E+04  0.50400001928E-02 0.  1.
       -1   -1    0    0    0  501  0.00000000000E+00  0.00000000000E+00 -0.93149405886E+03  0.93149405887E+03  0.50400001928E-02 0. -1.
    10030    2    1    2    0    0  0.00000000000E+00  0.00000000000E+00  0.16600013028E+04  0.35229894206E+04  0.31073863828E+04 0.  0.
        3    1    3    3  502    0 -0.26137972945E+03  0.32626099880E+03  0.25265333121E+04  0.25608858213E+04  0.10100000352E+00 0.  1.
       -3    1    3    3    0  502  0.26137972945E+03 -0.32626099880E+03 -0.86653200931E+03  0.96210359924E+03  0.10100000352E+00 0. -1.
</event>
<event>
 5   0  0.1288096E-07  0.3200338E+04  0.7818609E-02  0.8188728E-01
       -1   -1    0    0    0  501  0.00000000000E+00  0.00000000000E+00  0.94504773029E+03  0.94504773030E+03  0.50400001928E-02 0.  1.
        1   -1    0    0  501    0  0.00000000000E+00  0.00000000000E+00 -0.27094306208E+04  0.27094306208E+04  0.50400001928E-02 0. -1.
    10030    2    1    2    0    0  0.00000000000E+00  0.00000000000E+00 -0.17643828905E+04  0.36544783511E+04  0.32003382687E+04 0.  0.
        2    1    3    3  502    0 -0.40589575311E+03 -0.72185636719E+03 -0.24456880297E+04  0.25820956442E+04  0.25500000920E-02 0. -1.
       -2    1    3    3    0  502  0.40589575311E+03  0.72185636719E+03  0.68130513921E+03  0.10723827069E+04  0.25500000920E-02 0.  1.
</event>
<event>
 5   0  0.1270948E-07  0.3199550E+04  0.7818609E-02  0.8188936E-01
        1   -1    0    0  501    0  0.00000000000E+00  0.00000000000E+00  0.16142533698E+04  0.16142533698E+04  0.50400001928E-02 0.  1.
       -1   -1    0    0    0  501  0.00000000000E+00  0.00000000000E+00 -0.15854259990E+04  0.15854259990E+04  0.50400001928E-02 0. -1.
    10030    2    1    2    0    0  0.00000000000E+00  0.00000000000E+00  0.28827370828E+02  0.31996793688E+04  0.31995495067E+04 0.  0.
        4    1    3    3  502    0 -0.14397869709E+04 -0.29433442458E+03 -0.61779736848E+03  0.15941438067E+04  0.12699999809E+01 0. -1.
       -4    1    3    3    0  502  0.14397869709E+04  0.29433442458E+03  0.64662473931E+03  0.16055355622E+04  0.12699999809E+01 0.  1.
</event>
<event>
 5   0  0.1270948E-07  0.3190757E+04  0.7818609E-02  0.8191262E-01
       -1   -1    0    0    0  501  0.00000000000E+00  0.00000000000E+00  0.18316982428E+04  0.18316982428E+04  0.50400001928E-02 0.  1.
        1   -1    0    0  501    0  0.00000000000E+00  0.00000000000E+00 -0.13895480687E+04  0.13895480687E+04  0.50400001928E-02 0. -1.
    10030    2    1    2    0    0  0.00000000000E+00  0.00000000000E+00  0.44215017406E+03  0.32212463116E+04  0.31907571238E+04 0.  0.
        4    1    3    3  502    0  0.44157302476E+03  0.10577091198E+04 -0.89925670065E+03  0.14568457519E+04  0.12699999809E+01 0. -1.
       -4    1    3    3    0  502 -0.44157302476E+03 -0.10577091198E+04  0.13414068747E+04  0.17644005596E+04  0.12699999809E+01 0.  1.
</event>
<event>
 5   0  0.1317293E-07  0.3200209E+04  0.7818609E-02  0.8188762E-01
        1   -1    0    0  501    0  0.00000000000E+00  0.00000000000E+00  0.14598587799E+04  0.14598587799E+04  0.50400001928E-02 0. -1.
       -1   -1    0    0    0  501  0.00000000000E+00  0.00000000000E+00 -0.17538231753E+04  0.17538231753E+04  0.50400001928E-02 0.  1.
    10030    2    1    2    0    0  0.00000000000E+00  0.00000000000E+00 -0.29396439542E+03  0.32136819551E+04  0.32002088437E+04 0.  0.
        1    1    3    3  502    0  0.30262206174E+03 -0.12680429900E+04  0.78472833665E+03  0.15216148327E+04  0.50400001928E-02 0. -1.
       -1    1    3    3    0  502 -0.30262206174E+03  0.12680429900E+04 -0.10786927321E+04  0.16920671225E+04  0.50400001928E-02 0.  1.
</event>
<event>
 5   0  0.1365455E-07  0.3201961E+04  0.7818609E-02  0.8188300E-01
        1   -1    0    0  501    0  0.00000000000E+00  0.00000000000E+00  0.17585368049E+04  0.17585368049E+04  0.50400001928E-02 0. -1.
       -1   -1    0    0    0  501  0.00000000000E+00  0.00000000000E+00 -0.14575400629E+04  0.14575400629E+04  0.50400001928E-02 0.  1.
    10030    2    1    2    0    0  0.00000000000E+00  0.00000000000E+00  0.30099674194E+03  0.32160768678E+04  0.32019605527E+04 0.  0.
        3    1    3    3  502    0 -0.99988306768E+03 -0.22563579631E+01 -0.11053605562E+04  0.14905009928E+04  0.10100000352E+00 0.  1.
       -3    1    3    3    0  502  0.99988306768E+03  0.22563579631E+01  0.14063572981E+04  0.17255758750E+04  0.10100000352E+00 0. -1.
</event>
<event>
 5   0  0.1270948E-07  0.3201905E+04  0.7818609E-02  0.8188314E-01
        1   -1    0    0  501    0  0.00000000000E+00  0.00000000000E+00  0.81859998179E+03  0.81859998181E+03  0.50400001928E-02 0.  1.
       -1   -1    0    0    0  501  0.00000000000E+00  0.00000000000E+00 -0.31310154446E+04  0.31310154446E+04  0.50400001928E-02 0. -1.
    10030    2    1    2    0    0  0.00000000000E+00  0.00000000000E+00 -0.23124154628E+04  0.39496154264E+04  0.32019051741E+04 0.  0.
        4    1    3    3  502    0  0.88032109997E+03  0.57081451718E+03 -0.26478257572E+04  0.28481182042E+04  0.12699999809E+01 0. -1.
       -4    1    3    3    0  502 -0.88032109997E+03 -0.57081451718E+03  0.33541029433E+03  0.11014972222E+04  0.12699999809E+01 0.  1.
</event>
<event>
 5   0  0.3764056E-07  0.3198605E+04  0.7818609E-02  0.8189186E-01
       -2   -1    0    0    0  501  0.00000000000E+00  0.00000000000E+00  0.16199382494E+04  0.16199382495E+04  0.25500000920E-02 0. -1.
        2   -1    0    0  501    0  0.00000000000E+00  0.00000000000E+00 -0.15789294606E+04  0.15789294606E+04  0.25500000920E-02 0.  1.
    10030    2    1    2    0    0  0.00000000000E+00  0.00000000000E+00  0.41008788891E+02  0.31988677100E+04  0.31986048373E+04 0.  0.
        5    1    3    3  502    0 -0.44824753637E+02  0.11879455962E+04  0.10904157309E+04  0.16131498858E+04  0.46999998093E+01 0. -1.
       -5    1    3    3    0  502  0.44824753637E+02 -0.11879455962E+04 -0.10494069420E+04  0.15857178242E+04  0.46999998093E+01 0.  1.
</event>
<event>
 5   0  0.1288096E-07  0.3204181E+04  0.7818609E-02  0.8187714E-01
       -1   -1    0    0    0  501  0.00000000000E+00  0.00000000000E+00  0.15801125815E+04  0.15801125815E+04  0.50400001928E-02 0.  1.
        1   -1    0    0  501    0  0.00000000000E+00  0.00000000000E+00 -0.16243736853E+04  0.16243736853E+04  0.50400001928E-02 0. -1.
    10030    2    1    2    0    0  0.00000000000E+00  0.00000000000E+00 -0.44261103736E+02  0.32044862668E+04  0.32041805799E+04 0.  0.
        2    1    3    3  502    0  0.12869519462E+04  0.66800162962E+03 -0.70353380132E+03  0.16116548323E+04  0.25500000920E-02 0. -1.
       -2    1    3    3    0  502 -0.12869519462E+04 -0.66800162962E+03  0.65927269759E+03  0.15928314345E+04  0.25500000920E-02 0.  1.
</event>
<event>
 5   0  0.1365455E-07  0.3197856E+04  0.7818609E-02  0.8189384E-01
        1   -1    0    0  501    0  0.00000000000E+00  0.00000000000E+00  0.17162510279E+04  0.17162510279E+04  0.50400001928E-02 0. -1.
       -1   -1    0    0    0  501  0.00000000000E+00  0.00000000000E+00 -0.14896249894E+04  0.14896249894E+04  0.50400001928E-02 0.  1.
    10030    2    1    2    0    0  0.00000000000E+00  0.00000000000E+00  0.22662603845E+03  0.32058760173E+04  0.31978557936E+04 0.  0.
        3    1    3    3  502    0  0.38909614132E+03 -0.14677302369E+04  0.61551104805E+03  0.16384388044E+04  0.10100000352E+00 0. -1.
       -3    1    3    3    0  502 -0.38909614132E+03  0.14677302369E+04 -0.38888500960E+03  0.15674372129E+04  0.10100000352E+00 0.  1.
</event>
<event>
 5   0  0.1288096E-07  0.3194980E+04  0.7818609E-02  0.8190144E-01
        1   -1    0    0  501    0  0.00000000000E+00  0.00000000000E+00  0.16157599885E+04  0.16157599886E+04  0.50400001928E-02 0. -1.
       -1   -1    0    0    0  501  0.00000000000E+00  0.00000000000E+00 -0.15794262024E+04  0.15794262024E+04  0.50400001928E-02 0.  1.
    10030    2    1    2    0    0  0.00000000000E+00  0.00000000000E+00  0.36333786191E+02  0.31951861909E+04  0.31949796010E+04 0.  0.
        2    1    3    3  502    0 -0.12263756338E+04  0.36422464502E+03  0.97495069804E+03  0.16084730806E+04  0.25500000920E-02 0. -1.
       -2    1    3    3    0  502  0.12263756338E+04 -0.36422464502E+03 -0.93861691185E+03  0.15867131103E+04  0.25500000920E-02 0.  1.
</event>
<event>
 5   0  0.3750285E-07  0.3208968E+04  0.7818609E-02  0.8186453E-01
        2   -1    0    0  501    0  0.00000000000E+00  0.00000000000E+00  0.89454058886E+03  0.89454058887E+03  0.25500000920E-02 0.  1.
       -2   -1    0    0    0  501  0.00000000000E+00  0.00000000000E+00 -0.28778667633E+04  0.28778667633E+04  0.25500000920E-02 0. -1.
    10030    2    1    2    0    0  0.00000000000E+00  0.00000000000E+00 -0.19833261745E+04  0.37724073522E+04  0.32089678273E+04 0.  0.
        1    1    3    3  502    0 -0.13618642083E+04  0.16619550442E+03 -0.13684493296E+02  0.13720358352E+04  0.50400001928E-02 0.  1.
       -1    1    3    3    0  502  0.13618642083E+04 -0.16619550442E+03 -0.19696416812E+04  0.24003715171E+04  0.50400001928E-02 0. -1.
</event>
<event>
 5   0  0.1317293E-07  0.3204344E+04  0.7818609E-02  0.8187671E-01
       -1   -1    0    0    0  501  0.00000000000E+00  0.00000000000E+00  0.15582327127E+04  0.15582327127E+04  0.50400001928E-02 0.  1.
        1   -1    0    0  501    0  0.00000000000E+00  0.00000000000E+00 -0.16473506820E+04  0.16473506820E+04  0.50400001928E-02 0. -1.
    10030    2    1    2    0    0  0.00000000000E+00  0.00000000000E+00 -0.89117969308E+02  0.32055833947E+04  0.32043443773E+04 0.  0.
        1    1    3    3  502    0 -0.11195406655E+04  0.55427574329E+03  0.95900527730E+03  0.15748917497E+04  0.50400001928E-02 0.  1.
       -1    1    3    3    0  502  0.11195406655E+04 -0.55427574329E+03 -0.10481232466E+04  0.16306916451E+04  0.50400001928E-02 0. -1.
</event>
<event>
 5   0  0.3858721E-07  0.3246091E+04  0.7818609E-02  0.8176750E-01
        2   -1    0    0  501    0  0.00000000000E+00  0.00000000000E+00  0.14345821343E+04  0.14345821343E+04  0.25500000920E-02 0.  1.
       -2   -1    0    0    0  501  0.00000000000E+00  0.00000000000E+00 -0.18362679515E+04  0.18362679515E+04  0.25500000920E-02 0. -1.
    10030    2    1    2    0    0  0.00000000000E+00  0.00000000000E+00 -0.40168581718E+03  0.32708500858E+04  0.32460913093E+04 0.  0.
        2    1    3    3  502    0  0.15025866735E+03  0.13167274892E+04  0.74328192085E+03  0.15194791745E+04  0.25500000920E-02 0.  1.
       -2    1    3    3    0  502 -0.15025866735E+03 -0.13167274892E+04 -0.11449677380E+04  0.17513709113E+04  0.25500000920E-02 0. -1.
</event>
<event>
 5   0  0.1230450E-07  0.3202553E+04  0.7818609E-02  0.8188143E-01
        3   -1    0    0  501    0  0.00000000000E+00  0.00000000000E+00  0.19480156902E+04  0.19480156928E+04  0.10100000352E+00 0. -1.
       -3   -1    0    0    0  501  0.00000000000E+00  0.00000000000E+00 -0.13162557477E+04  0.13162557516E+04  0.10100000352E+00 0.  1.
    10030    2    1    2    0    0  0.00000000000E+00  0.00000000000E+00  0.63175994251E+03  0.32642714444E+04  0.32025532686E+04 0.  0.
        4    1    3    3  502    0  0.36609811151E+02 -0.24622850396E+02 -0.13156355903E+04  0.13163757755E+04  0.12699999809E+01 0.  1.
       -4    1    3    3    0  502 -0.36609811151E+02  0.24622850396E+02  0.19473955328E+04  0.19478956689E+04  0.12699999809E+01 0. -1.
</event>
<event>
 5   0  0.1317293E-07  0.3206361E+04  0.7818609E-02  0.8187139E-01
        1   -1    0    0  501    0  0.00000000000E+00  0.00000000000E+00  0.27009731963E+04  0.27009731963E+04  0.50400001928E-02 0.  1.
       -1   -1    0    0    0  501  0.00000000000E+00  0.00000000000E+00 -0.95157836694E+03  0.95157836696E+03  0.50400001928E-02 0. -1.
    10030    2    1    2    0    0  0.00000000000E+00  0.00000000000E+00  0.17493948293E+04  0.36525515632E+04  0.32063609674E+04 0.  0.
        1    1    3    3  502    0  0.11578458971E+04  0.10968089146E+04  0.10604561347E+04  0.19152451880E+04  0.50400001928E-02 0. -1.
       -1    1    3    3    0  502 -0.11578458971E+04 -0.10968089146E+04  0.68893869463E+03  0.17373063752E+04  0.50400001928E-02 0.  1.
</event>
<event>
 5   0  0.1365455E-07  0.3203025E+04  0.7818609E-02  0.8188019E-01
       -1   -1    0    0    0  501  0.00000000000E+00  0.00000000000E+00  0.10924976025E+04  0.10924976025E+04  0.50400001928E-02 0. -1.
        1   -1    0    0  501    0  0.00000000000E+00  0.00000000000E+00 -0.23476863573E+04  0.23476863573E+04  0.50400001928E-02 0.  1.
    10030    2    1    2    0    0  0.00000000000E+00  0.00000000000E+00 -0.12551887548E+04  0.34401839598E+04  0.32030246435E+04 0.  0.
        3    1    3    3  502    0 -0.11452793814E+04 -0.31195338053E+03  0.52711945185E+03  0.12987820062E+04  0.10100000352E+00 0. -1.
       -3    1    3    3    0  502  0.11452793814E+04  0.31195338053E+03 -0.17823082066E+04  0.21414019535E+04  0.10100000352E+00 0.  1.
</event>
<event>
 5   0  0.3942564E-07  0.3193943E+04  0.7818609E-02  0.8190419E-01
       -2   -1    0    0    0  501  0.00000000000E+00  0.00000000000E+00  0.93479768101E+03  0.93479768101E+03  0.25500000920E-02 0.  1.
        2   -1    0    0  501    0  0.00000000000E+00  0.00000000000E+00 -0.27282027965E+04  0.27282027965E+04  0.25500000920E-02 0. -1.
    10030    2    1    2    0    0  0.00000000000E+00  0.00000000000E+00 -0.17934051155E+04  0.36630004775E+04  0.31939427969E+04 0.  0.
        3    1    3    3  502    0 -0.10129962022E+04  0.14286506221E+03 -0.23030643870E+04  0.25200550217E+04  0.10100000352E+00 0. -1.
       -3    1    3    3    0  502  0.10129962022E+04 -0.14286506221E+03  0.50965927147E+03  0.11429454558E+04  0.10100000352E+00 0.  1.
</event>
<event>
 5   0  0.3830207E-07  0.3200031E+04  0.7818609E-02  0.8188809E-01
        2   -1    0    0  501    0  0.00000000000E+00  0.00000000000E+00  0.20418297815E+04  0.20418297815E+04  0.25500000920E-02 0.  1.
       -2   -1    0    0    0  501  0.00000000000E+00  0.00000000000E+00 -0.12538013554E+04  0.12538013554E+04  0.25500000920E-02 0. -1.
    10030    2    1    2    0    0  0.00000000000E+00  0.00000000000E+00  0.78802842605E+03  0.32956311369E+04  0.32000305921E+04 0.  0.
        4    1    3    3  502    0  0.25432444132E+02 -0.18759586355E+03 -0.12422260078E+04  0.12565691722E+04  0.12699999809E+01 0. -1.
       -4    1    3    3    0  502 -0.25432444132E+02  0.18759586355E+03  0.20302544338E+04  0.20390619648E+04  0.12699999809E+01 0.  1.
</event>
<event>
 5   0  0.1317293E-07  0.3199867E+04  0.7818609E-02  0.8188852E-01
        1   -1    0    0  501    0  0.00000000000E+00  0.00000000000E+00  0.27672497344E+04  0.27672497344E+04  0.50400001928E-02 0.  1.
       -1   -1    0    0    0  501  0.00000000000E+00  0.00000000000E+00 -0.92502934863E+03  0.92502934865E+03  0.50400001928E-02 0. -1.
    10030    2    1    2    0    0  0.00000000000E+00  0.00000000000E+00  0.18422203858E+04  0.36922790831E+04  0.31998670093E+04 0.  0.
        1    1    3    3  502    0 -0.18570306049E+03  0.13380678049E+04  0.19102772976E+04  0.23396731462E+04  0.50400001928E-02 0.  1.
       -1    1    3    3    0  502  0.18570306049E+03 -0.13380678049E+04 -0.68056911804E+02  0.13526059369E+04  0.50400001928E-02 0. -1.
</event>
<event>
 5   0  0.1277374E-07  0.3188038E+04  0.7818609E-02  0.8191983E-01
       -1   -1    0    0    0  501  0.00000000000E+00  0.00000000000E+00  0.15611074790E+04  0.15611074790E+04  0.50400001928E-02 0. -1.
        1   -1    0    0  501    0  0.00000000000E+00  0.00000000000E+00 -0.16276246633E+04  0.16276246633E+04  0.50400001928E-02 0.  1.
    10030    2    1    2    0    0  0.00000000000E+00  0.00000000000E+00 -0.66517184271E+02  0.31887321423E+04  0.31880382901E+04 0.  0.
        5    1    3    3  502    0 -0.58050003915E+03 -0.13546810545E+04 -0.64062537713E+03  0.16070357864E+04  0.46999998093E+01 0.  1.
       -5    1    3    3    0  502  0.58050003915E+03  0.13546810545E+04  0.57410819285E+03  0.15816963558E+04  0.46999998093E+01 0. -1.
</event>
<event>
 5   0  0.3942564E-07  0.3155420E+04  0.7818609E-02  0.8200691E-01
        2   -1    0    0  501    0  0.00000000000E+00  0.00000000000E+00  0.89750008165E+03  0.89750008165E+03  0.25500000920E-02 0. -1.
       -2   -1    0    0    0  501  0.00000000000E+00  0.00000000000E+00 -0.27734477234E+04  0.27734477234E+04  0.25500000920E-02 0.  1.
    10030    2    1    2    0    0  0.00000000000E+00  0.00000000000E+00 -0.18759476417E+04  0.36709478050E+04  0.31554204526E+04 0.  0.
        3    1    3    3  502    0  0.73972533656E+03 -0.20610853920E+03  0.66541953152E+03  0.10160991421E+04  0.10100000352E+00 0. -1.
       -3    1    3    3    0  502 -0.73972533656E+03  0.20610853920E+03 -0.25413671732E+04  0.26548486629E+04  0.10100000352E+00 0.  1.
</event>
<event>
 5   0  0.1270948E-07  0.3207756E+04  0.7818609E-02  0.8186772E-01
        1   -1    0    0  501    0  0.00000000000E+00  0.00000000000E+00  0.13739922126E+04  0.13739922126E+04  0.50400001928E-02 0. -1.
       -1   -1    0    0    0  501  0.00000000000E+00  0.00000000000E+00 -0.18722268890E+04  0.18722268890E+04  0.50400001928E-02 0.  1.
    10030    2    1    2    0    0  0.00000000000E+00  0.00000000000E+00 -0.49823467642E+03  0.32462191016E+04  0.32077563284E+04 0.  0.
        4    1    3    3  502    0  0.80231066717E+03 -0.10559940351E+04 -0.11619293078E+04  0.17632093291E+04  0.12699999809E+01 0.  1.
       -4    1    3    3    0  502 -0.80231066717E+03  0.10559940351E+04  0.66369463142E+03  0.14830097725E+04  0.12699999809E+01 0. -1.
</event>
<event>
 5   0  0.3942564E-07  0.3200654E+04  0.7818609E-02  0.8188645E-01
       -2   -1    0    0    0  501  0.00000000000E+00  0.00000000000E+00  0.17114438704E+04  0.17114438704E+04  0.25500000920E-02 0.  1.
        2   -1    0    0  501    0  0.00000000000E+00  0.00000000000E+00 -0.14964242604E+04  0.14964242604E+04  0.25500000920E-02 0. -1.
    10030    2    1    2    0    0  0.00000000000E+00  0.00000000000E+00  0.21501960999E+03  0.32078681308E+04  0.32006537632E+04 0.  0.
        3    1    3    3  502    0 -0.13253236191E+04  0.11596388781E+03 -0.78394194075E+03  0.15441811084E+04  0.10100000352E+00 0. -1.
       -3    1    3    3    0  502  0.13253236191E+04 -0.11596388781E+03  0.99896155074E+03  0.16636870225E+04  0.10100000352E+00 0.  1.
</event>
<event>
 5   0  0.1230450E-07  0.3188166E+04  0.7818609E-02  0.8191950E-01
        3   -1    0    0  501    0  0.00000000000E+00  0.00000000000E+00  0.12122882868E+04  0.12122882910E+04  0.10100000352E+00 0. -1.
       -3   -1    0    0    0  501  0.00000000000E+00  0.00000000000E+00 -0.20961186897E+04  0.20961186921E+04  0.10100000352E+00 0.  1.
    10030    2    1    2    0    0  0.00000000000E+00  0.00000000000E+00 -0.88383040287E+03  0.33084069831E+04  0.31881657085E+04 0.  0.
        4    1    3    3  502    0 -0.95793146157E+03  0.13822472648E+03  0.87248895777E+03  0.13030646010E+04  0.12699999809E+01 0. -1.
       -4    1    3    3    0  502  0.95793146157E+03 -0.13822472648E+03 -0.17563193606E+04  0.20053423821E+04  0.12699999809E+01 0.  1.
</event>
<event>
 5   0  0.1288096E-07  0.3197058E+04  0.7818609E-02  0.8189595E-01
       -1   -1    0    0    0  501  0.00000000000E+00  0.00000000000E+00  0.13499270996E+04  0.13499270996E+04  0.50400001928E-02 0.  1.
        1   -1    0    0  501    0  0.00000000000E+00  0.00000000000E+00 -0.18929129770E+04  0.18929129770E+04  0.50400001928E-02 0. -1.
    10030    2    1    2    0    0  0.00000000000E+00  0.00000000000E+00 -0.54298587741E+03  0.32428400767E+04  0.31970577254E+04 0.  0.
        2    1    3    3  502    0  0.15734868357E+04  0.19384969619E+03 -0.47901004606E+03  0.16561670058E+04  0.25500000920E-02 0. -1.
       -2    1    3    3    0  502 -0.15734868357E+04 -0.19384969619E+03 -0.63975831347E+02  0.15866730709E+04  0.25500000920E-02 0.  1.
</event>
<event>
 5   0  0.3764056E-07  0.3202614E+04  0.7818609E-02  0.8188127E-01
       -2   -1    0    0    0  501  0.00000000000E+00  0.00000000000E+00  0.11252085790E+04  0.11252085790E+04  0.25500000920E-02 0. -1.
        2   -1    0    0  501    0  0.00000000000E+00  0.00000000000E+00 -0.22788520142E+04  0.22788520142E+04  0.25500000920E-02 0.  1.
    10030    2    1    2    0    0  0.00000000000E+00  0.00000000000E+00 -0.11536434352E+04  0.34040605933E+04  0.32026138305E+04 0.  0.
        5    1    3    3  502    0  0.60206348064E+03  0.79285769711E+03 -0.19099289142E+04  0.21538231845E+04  0.46999998093E+01 0.  1.
       -5    1    3    3    0  502 -0.60206348064E+03 -0.79285769711E+03  0.75628547902E+03  0.12502374088E+04  0.46999998093E+01 0. -1.
</event>
<event>
 5   0  0.1317293E-07  0.3205810E+04  0.7818609E-02  0.8187284E-01
       -1   -1    0    0    0  501  0.00000000000E+00  0.00000000000E+00  0.16364510718E+04  0.16364510718E+04  0.50400001928E-02 0.  1.
        1   -1    0    0  501    0  0.00000000000E+00  0.00000000000E+00 -0.15700465675E+04  0.15700465675E+04  0.50400001928E-02 0. -1.
    10030    2    1    2    0    0  0.00000000000E+00  0.00000000000E+00  0.66404504324E+02  0.32064976393E+04  0.32058099683E+04 0.  0.
        1    1    3    3  502    0  0.58783055300E+02  0.15984448449E+04 -0.70853800684E+02  0.16010938857E+04  0.50400001928E-02 0.  1.
       -1    1    3    3    0  502 -0.58783055300E+02 -0.15984448449E+04  0.13725830501E+03  0.16054037536E+04  0.50400001928E-02 0. -1.
</event>
<event>
 5   0  0.1317293E-07  0.3199893E+04  0.7818609E-02  0.8188846E-01
        1   -1    0    0  501    0  0.00000000000E+00  0.00000000000E+00  0.17836582527E+04  0.17836582527E+04  0.50400001928E-02 0. -1.
       -1   -1    0    0    0  501  0.00000000000E+00  0.00000000000E+00 -0.14351561898E+04  0.14351561898E+04  0.50400001928E-02 0.  1.
    10030    2    1    2    0    0  0.00000000000E+00  0.00000000000E+00  0.34850206295E+03  0.32188144425E+04  0.31998926119E+04 0.  0.
        1    1    3    3  502    0 -0.68606288913E+03 -0.13896956671E+04  0.57395677621E+03  0.16526834893E+04  0.50400001928E-02 0. -1.
       -1    1    3    3    0  502  0.68606288913E+03  0.13896956671E+04 -0.22545471326E+03  0.15661309532E+04  0.50400001928E-02 0.  1.
</event>
<event>
 5   0  0.3942564E-07  0.3195290E+04  0.7818609E-02  0.8190062E-01
        2   -1    0    0  501    0  0.00000000000E+00  0.00000000000E+00  0.13253298878E+04  0.13253298878E+04  0.25500000920E-02 0.  1.
       -2   -1    0    0    0  501  0.00000000000E+00  0.00000000000E+00 -0.19259132120E+04  0.19259132120E+04  0.25500000920E-02 0. -1.
    10030    2    1    2    0    0  0.00000000000E+00  0.00000000000E+00 -0.60058332421E+03  0.32512430999E+04  0.31952904977E+04 0.  0.
        3    1    3    3  502    0  0.13723762075E+04 -0.81115654478E+03 -0.40739132913E+03  0.16454054517E+04  0.10100000352E+00 0.  1.
       -3    1    3    3    0  502 -0.13723762075E+04  0.81115654478E+03 -0.19319199508E+03  0.16058376482E+04  0.10100000352E+00 0. -1.
</event>
<event>
 5   0  0.1270948E-07  0.3197292E+04  0.7818609E-02  0.8189533E-01
        1   -1    0    0  501    0  0.00000000000E+00  0.00000000000E+00  0.21278484935E+04  0.21278484936E+04  0.50400001928E-02 0.  1.
       -1   -1    0    0    0  501  0.00000000000E+00  0.00000000000E+00 -0.12010577463E+04  0.12010577464E+04  0.50400001928E-02 0. -1.
    10030    2    1    2    0    0  0.00000000000E+00  0.00000000000E+00  0.92679074721E+03  0.33289062399E+04  0.31972919268E+04 0.  0.
        4    1    3    3  502    0 -0.21387962187E+03  0.10151187608E+04  0.17297939202E+04  0.20170273202E+04  0.12699999809E+01 0.  1.
       -4    1    3    3    0  502  0.21387962187E+03 -0.10151187608E+04 -0.80300317302E+03  0.13118789197E+04  0.12699999809E+01 0. -1.
</event>
<event>
 5   0  0.1317293E-07  0.3244604E+04  0.7818609E-02  0.8177136E-01
        1   -1    0    0  501    0  0.00000000000E+00  0.00000000000E+00  0.11403380977E+04  0.11403380977E+04  0.50400001928E-02 0. -1.
       -1   -1    0    0    0  501  0.00000000000E+00  0.00000000000E+00 -0.23079684948E+04  0.23079684948E+04  0.50400001928E-02 0.  1.
    10030    2    1    2    0    0  0.00000000000E+00  0.00000000000E+00 -0.11676303971E+04  0.34483065925E+04  0.32446043845E+04 0.  0.
        1    1    3    3  502    0  0.90482692177E+03 -0.42915275653E+03  0.77262943581E+03  0.12648478533E+04  0.50400001928E-02 0. -1.
       -1    1    3    3    0  502 -0.90482692177E+03  0.42915275653E+03 -0.19402598329E+04  0.21834587393E+04  0.50400001928E-02 0.  1.
</event>
<event>
 5   0  0.3764056E-07  0.3196383E+04  0.7818609E-02  0.8189773E-01
       -2   -1    0    0    0  501  0.00000000000E+00  0.00000000000E+00  0.10692662584E+04  0.10692662584E+04  0.25500000920E-02 0.  1.
        2   -1    0    0  501    0  0.00000000000E+00  0.00000000000E+00 -0.23887565678E+04  0.23887565678E+04  0.25500000920E-02 0. -1.
    10030    2    1    2    0    0  0.00000000000E+00  0.00000000000E+00 -0.13194903095E+04  0.34580228262E+04  0.31963834548E+04 0.  0.
        5    1    3    3  502    0  0.59058278094E+03  0.11150986231E+04 -0.17208245542E+04  0.21338913273E+04  0.46999998093E+01 0. -1.
       -5    1    3    3    0  502 -0.59058278094E+03 -0.11150986231E+04  0.40133424474E+03  0.13241314989E+04  0.46999998093E+01 0.  1.
</event>
<event>
 5   0  0.1277374E-07  0.3187253E+04  0.7818609E-02  0.8192192E-01
        1   -1    0    0  501    0  0.00000000000E+00  0.00000000000E+00  0.20114341137E+04  0.20114341137E+04  0.50400001928E-02 0. -1.
       -1   -1    0    0    0  501  0.00000000000E+00  0.00000000000E+00 -0.12626042481E+04  0.12626042481E+04  0.50400001928E-02 0.  1.
    10030    2    1    2    0    0  0.00000000000E+00  0.00000000000E+00  0.74882986554E+03  0.32740383618E+04  0.31872528966E+04 0.  0.
        5    1    3    3  502    0  0.96528930457E+03 -0.33671830971E+03 -0.88135320702E+03  0.13498030327E+04  0.46999998093E+01 0.  1.
       -5    1    3    3    0  502 -0.96528930457E+03  0.33671830971E+03  0.16301830726E+04  0.19242353291E+04  0.46999998093E+01 0. -1.
</event>
<event>
 5   0  0.3942564E-07  0.3205935E+04  0.7818609E-02  0.8187251E-01
       -2   -1    0    0    0  501  0.00000000000E+00  0.00000000000E+00  0.10391152610E+04  0.10391152610E+04  0.25500000920E-02 0.  1.
        2   -1    0    0  501    0  0.00000000000E+00  0.00000000000E+00 -0.24727819620E+04  0.24727819620E+04  0.25500000920E-02 0. -1.
    10030    2    1    2    0    0  0.00000000000E+00  0.00000000000E+00 -0.14336667011E+04  0.35118972230E+04  0.32059354166E+04 0.  0.
        3    1    3    3  502    0 -0.10414197231E+04  0.65013230880E+03 -0.18458652297E+04  0.22168548701E+04  0.10100000352E+00 0.  1.
       -3    1    3    3    0  502  0.10414197231E+04 -0.65013230880E+03  0.41219852861E+03  0.12950423529E+04  0.10100000352E+00 0. -1.
</event>
<event>
 5   0  0.1288096E-07  0.3186992E+04  0.7818609E-02  0.8192261E-01
        1   -1    0    0  501    0  0.00000000000E+00  0.00000000000E+00  0.22706134045E+04  0.22706134045E+04  0.50400001928E-02 0. -1.
       -1   -1    0    0    0  501  0.00000000000E+00  0.00000000000E+00 -0.11183012543E+04  0.11183012544E+04  0.50400001928E-02 0.  1.
    10030    2    1    2    0    0  0.00000000000E+00  0.00000000000E+00  0.11523121502E+04  0.33889146589E+04  0.31869921986E+04 0.  0.
        2    1    3    3  502    0 -0.12999256283E+04 -0.87072763851E+03  0.25492934538E+03  0.15852325478E+04  0.25500000920E-02 0.  1.
       -2    1    3    3    0  502  0.12999256283E+04  0.87072763851E+03  0.89738280481E+03  0.18036821111E+04  0.25500000920E-02 0. -1.
</event>
<event>
 5   0  0.1270948E-07  0.3191653E+04  0.7818609E-02  0.8191025E-01
        1   -1    0    0  501    0  0.00000000000E+00  0.00000000000E+00  0.18644141800E+04  0.18644141800E+04  0.50400001928E-02 0. -1.
       -1   -1    0    0    0  501  0.00000000000E+00  0.00000000000E+00 -0.13659316171E+04  0.13659316171E+04  0.50400001928E-02 0.  1.
    10030    2    1    2    0    0  0.00000000000E+00  0.00000000000E+00  0.49848256287E+03  0.32303457971E+04  0.31916530362E+04 0.  0.
        4    1    3    3  502    0  0.12233905304E+04 -0.96950218877E+03 -0.86505720210E+02  0.15633629573E+04  0.12699999809E+01 0. -1.
       -4    1    3    3    0  502 -0.12233905304E+04  0.96950218877E+03  0.58498828308E+03  0.16669828398E+04  0.12699999809E+01 0.  1.
</event>
<event>
 5   0  0.1317293E-07  0.3201761E+04  0.7818609E-02  0.8188352E-01
       -1   -1    0    0    0  501  0.00000000000E+00  0.00000000000E+00  0.13231027009E+04  0.13231027009E+04  0.50400001928E-02 0. -1.
        1   -1    0    0  501    0  0.00000000000E+00  0.00000000000E+00 -0.19369762939E+04  0.19369762939E+04  0.50400001928E-02 0.  1.
    10030    2    1    2    0    0  0.00000000000E+00  0.00000000000E+00 -0.61387359301E+03  0.32600789949E+04  0.32017611193E+04 0.  0.
        1    1    3    3  502    0  0.61679953853E+03 -0.14709405277E+04 -0.44621593268E+03  0.16562657895E+04  0.50400001928E-02 0. -1.
       -1    1    3    3    0  502 -0.61679953853E+03  0.14709405277E+04 -0.16765766033E+03  0.16038132054E+04  0.50400001928E-02 0.  1.
</event>
<event>
 5   0  0.1270948E-07  0.3216295E+04  0.7818609E-02  0.8184527E-01
        1   -1    0    0  501    0  0.00000000000E+00  0.00000000000E+00  0.11572527119E+04  0.11572527119E+04  0.50400001928E-02 0. -1.
       -1   -1    0    0    0  501  0.00000000000E+00  0.00000000000E+00 -0.22347220978E+04  0.22347220978E+04  0.50400001928E-02 0.  1.
    10030    2    1    2    0    0  0.00000000000E+00  0.00000000000E+00 -0.10774693858E+04  0.33919748097E+04  0.32162948920E+04 0.  0.
        4    1    3    3  502    0  0.12530922838E+03  0.45281819699E+03 -0.21607245119E+04  0.22112165773E+04  0.12699999809E+01 0.  1.
       -4    1    3    3    0  502 -0.12530922838E+03 -0.45281819699E+03  0.10832551261E+04  0.11807582324E+04  0.12699999809E+01 0. -1.
</event>
<event>
 5   0  0.3858721E-07  0.3207164E+04  0.7818609E-02  0.8186928E-01
       -2   -1    0    0    0  501  0.00000000000E+00  0.00000000000E+00  0.18443409951E+04  0.18443409951E+04  0.25500000920E-02 0. -1.
        2   -1    0    0  501    0  0.00000000000E+00  0.00000000000E+00 -0.13942513867E+04  0.13942513867E+04  0.25500000920E-02 0.  1.
    10030    2    1    2    0    0  0.00000000000E+00  0.00000000000E+00  0.45008960837E+03  0.32385923818E+04  0.32071638499E+04 0.  0.
        2    1    3    3  502    0  0.15853839381E+04  0.11594361348E+03  0.43827715073E+03  0.16489305666E+04  0.25500000920E-02 0. -1.
       -2    1    3    3    0  502 -0.15853839381E+04 -0.11594361348E+03  0.11812457647E+02  0.15896618152E+04  0.25500000920E-02 0.  1.
</event>
<event>
 5   0  0.3750285E-07  0.3184603E+04  0.7818609E-02  0.8192895E-01
       -2   -1    0    0    0  501  0.00000000000E+00  0.00000000000E+00  0.19031792448E+04  0.19031792448E+04  0.25500000920E-02 0.  1.
        2   -1    0    0  501    0  0.00000000000E+00  0.00000000000E+00 -0.13322045828E+04  0.13322045828E+04  0.25500000920E-02 0. -1.
    10030    2    1    2    0    0  0.00000000000E+00  0.00000000000E+00  0.57097466199E+03  0.32353838275E+04  0.31846030281E+04 0.  0.
        1    1    3    3  502    0  0.55970495834E+03  0.11601146746E+04 -0.66554228424E+03  0.14498559345E+04  0.50400001928E-02 0. -1.
       -1    1    3    3    0  502 -0.55970495834E+03 -0.11601146746E+04  0.12365169462E+04  0.17855278931E+04  0.50400001928E-02 0.  1.
</event>
<event>
 5   0  0.3942564E-07  0.3212012E+04  0.7818609E-02  0.8185652E-01
        2   -1    0    0  501    0  0.00000000000E+00  0.00000000000E+00  0.27758073046E+04  0.27758073046E+04  0.25500000920E-02 0.  1.
       -2   -1    0    0    0  501  0.00000000000E+00  0.00000000000E+00 -0.92919119735E+03  0.92919119735E+03  0.25500000920E-02 0. -1.
    10030    2    1    2    0    0  0.00000000000E+00  0.00000000000E+00  0.18466161072E+04  0.37049985020E+04  0.32120122746E+04 0.  0.
        3    1    3    3  502    0 -0.73290045831E+02  0.37779348957E+03 -0.87522028582E+03  0.95609095305E+03  0.10100000352E+00 0. -1.
       -3    1    3    3    0  502  0.73290045831E+02 -0.37779348957E+03  0.27218363931E+04  0.27489075489E+04  0.10100000352E+00 0.  1.
</event>
<event>
 5   0  0.3750285E-07  0.3202373E+04  0.7818609E-02  0.8188191E-01
        2   -1    0    0  501    0  0.00000000000E+00  0.00000000000E+00  0.15382136292E+04  0.15382136292E+04  0.25500000920E-02 0.  1.
       -2   -1    0    0    0  501  0.00000000000E+00  0.00000000000E+00 -0.16667373525E+04  0.16667373525E+04  0.25500000920E-02 0. -1.
    10030    2    1    2    0    0  0.00000000000E+00  0.00000000000E+00 -0.12852372336E+03  0.32049509817E+04  0.32023729401E+04 0.  0.
        1    1    3    3  502    0  0.11756518586E+04 -0.82230229518E+03  0.64726741652E+03  0.15739420148E+04  0.50400001928E-02 0. -1.
       -1    1    3    3    0  502 -0.11756518586E+04  0.82230229518E+03 -0.77579113989E+03  0.16310089669E+04  0.50400001928E-02 0.  1.
</event>
<event>
 5   0  0.3830207E-07  0.3203425E+04  0.7818609E-02  0.8187913E-01
       -2   -1    0    0    0  501  0.00000000000E+00  0.00000000000E+00  0.14319449484E+04  0.14319449484E+04  0.25500000920E-02 0.  1.
        2   -1    0    0  501    0  0.00000000000E+00  0.00000000000E+00 -0.17916071001E+04  0.17916071001E+04  0.25500000920E-02 0. -1.
    10030    2    1    2    0    0  0.00000000000E+00  0.00000000000E+00 -0.35966215178E+03  0.32235520485E+04  0.32034248775E+04 0.  0.
        4    1    3    3  502    0 -0.87245142941E+03 -0.13115942657E+04 -0.47153186668E+03  0.16443220271E+04  0.12699999809E+01 0.  1.
       -4    1    3    3    0  502  0.87245142941E+03  0.13115942657E+04  0.11186971490E+03  0.15792300214E+04  0.12699999809E+01 0. -1.
</event>
<event>
 5   0  0.1365455E-07  0.3199916E+04  0.7818609E-02  0.8188839E-01
       -1   -1    0    0    0  501  0.00000000000E+00  0.00000000000E+00  0.13183230540E+04  0.13183230540E+04  0.50400001928E-02 0. -1.
        1   -1    0    0  501    0  0.00000000000E+00  0.00000000000E+00 -0.19417594100E+04  0.19417594100E+04  0.50400001928E-02 0.  1.
    10030    2    1    2    0    0  0.00000000000E+00  0.00000000000E+00 -0.62343635604E+03  0.32600824640E+04  0.31999163711E+04 0.  0.
        3    1    3    3  502    0  0.54748845727E+03 -0.13850111280E+04 -0.90740554362E+03  0.17439564979E+04  0.10100000352E+00 0.  1.
       -3    1    3    3    0  502 -0.54748845727E+03  0.13850111280E+04  0.28396918758E+03  0.15161259662E+04  0.10100000352E+00 0. -1.
</event>
<event>
 5   0  0.1317293E-07  0.3177957E+04  0.7818609E-02  0.8194663E-01
       -1   -1    0    0    0  501  0.00000000000E+00  0.00000000000E+00  0.21927970964E+04  0.21927970964E+04  0.50400001928E-02 0.  1.
        1   -1    0    0  501    0  0.00000000000E+00  0.00000000000E+00 -0.11514298541E+04  0.11514298541E+04  0.50400001928E-02 0. -1.
    10030    2    1    2    0    0  0.00000000000E+00  0.00000000000E+00  0.10413672423E+04  0.33442269505E+04  0.31779566018E+04 0.  0.
        1    1    3    3  502    0 -0.47615714642E+03 -0.49932666007E+03  0.20269351083E+04  0.21411489147E+04  0.50400001928E-02 0.  1.
       -1    1    3    3    0  502  0.47615714642E+03  0.49932666007E+03 -0.98556786601E+03  0.12030780357E+04  0.50400001928E-02 0. -1.
</event>
<event>
 5   0  0.1230450E-07  0.3199945E+04  0.7818609E-02  0.8188832E-01
        3   -1    0    0  501    0  0.00000000000E+00  0.00000000000E+00  0.18666737985E+04  0.18666738012E+04  0.10100000352E+00 0. -1.
       -3   -1    0    0    0  501  0.00000000000E+00  0.00000000000E+00 -0.13713759635E+04  0.13713759672E+04  0.10100000352E+00 0.  1.
    10030    2    1    2    0    0  0.00000000000E+00  0.00000000000E+00  0.49529783497E+03  0.32380497684E+04  0.31999447429E+04 0.  0.
        1    1    3    3  502    0 -0.95809641714E+03  0.55420642535E+03  0.14167500503E+04  0.17978526668E+04  0.50400001928E-02 0. -1.
       -1    1    3    3    0  502  0.95809641714E+03 -0.55420642535E+03 -0.92145221533E+03  0.14401971016E+04  0.50400001928E-02 0.  1.
</event>
<event>
 5   0  0.1317293E-07  0.3205156E+04  0.7818609E-02  0.8187457E-01
       -1   -1    0    0    0  501  0.00000000000E+00  0.00000000000E+00  0.17587969152E+04  0.17587969153E+04  0.50400001928E-02 0. -1.
        1   -1    0    0  501    0  0.00000000000E+00  0.00000000000E+00 -0.14602344986E+04  0.14602344986E+04  0.50400001928E-02 0.  1.
    10030    2    1    2    0    0  0.00000000000E+00  0.00000000000E+00  0.29856241666E+03  0.32190314139E+04  0.32051558038E+04 0.  0.
        1    1    3    3  502    0 -0.13948025872E+03 -0.13288204737E+03  0.17471255073E+04  0.17577144021E+04  0.50400001928E-02 0. -1.
       -1    1    3    3    0  502  0.13948025872E+03  0.13288204737E+03 -0.14485630907E+04  0.14613170117E+04  0.50400001928E-02 0.  1.
</event>
<event>
 5   0  0.1270948E-07  0.3198430E+04  0.7818609E-02  0.8189232E-01
        1   -1    0    0  501    0  0.00000000000E+00  0.00000000000E+00  0.14983278131E+04  0.14983278131E+04  0.50400001928E-02 0.  1.
       -1   -1    0    0    0  501  0.00000000000E+00  0.00000000000E+00 -0.17068949679E+04  0.17068949679E+04  0.50400001928E-02 0. -1.
    10030    2    1    2    0    0  0.00000000000E+00  0.00000000000E+00 -0.20856715481E+03  0.32052227809E+04  0.31984297424E+04 0.  0.
        4    1    3    3  502    0 -0.13231501416E+04 -0.88632547652E+03 -0.25015179931E+03  0.16121031862E+04  0.12699999809E+01 0. -1.
       -4    1    3    3    0  502  0.13231501416E+04  0.88632547652E+03  0.41584644500E+02  0.15931195947E+04  0.12699999809E+01 0.  1.
</event>
<event>
 5   0  0.1365455E-07  0.3201163E+04  0.7818609E-02  0.8188510E-01
       -1   -1    0    0    0  501  0.00000000000E+00  0.00000000000E+00  0.91678621628E+03  0.91678621630E+03  0.50400001928E-02 0.  1.
        1   -1    0    0  501    0  0.00000000000E+00  0.00000000000E+00 -0.27943925967E+04  0.27943925967E+04  0.50400001928E-02 0. -1.
    10030    2    1    2    0    0  0.00000000000E+00  0.00000000000E+00 -0.18776063804E+04  0.37111788130E+04  0.32011626735E+04 0.  0.
        3    1    3    3  502    0 -0.10404178410E+04 -0.12160989558E+04 -0.96458739364E+03  0.18686344758E+04  0.10100000352E+00 0. -1.
       -3    1    3    3    0  502  0.10404178410E+04  0.12160989558E+04 -0.91301898681E+03  0.18425443372E+04  0.10100000352E+00 0.  1.
</event>
<event>
 5   0  0.3830207E-07  0.3199254E+04  0.7818609E-02  0.8189014E-01
       -2   -1    0    0    0  501  0.00000000000E+00  0.00000000000E+00  0.15373656671E+04  0.15373656671E+04  0.25500000920E-02 0.  1.
        2   -1    0    0  501    0  0.00000000000E+00  0.00000000000E+00 -0.16644103320E+04  0.16644103320E+04  0.25500000920E-02 0. -1.
    10030    2    1    2    0    0  0.00000000000E+00  0.00000000000E+00 -0.12704466489E+03  0.32017759991E+04  0.31992544759E+04 0.  0.
        4    1    3    3  502    0  0.61318737378E+03 -0.13771750209E+04 -0.59891677377E+03  0.16221321488E+04  0.12699999809E+01 0. -1.
       -4    1    3    3    0  502 -0.61318737378E+03  0.13771750209E+04  0.47187210887E+03  0.15796438502E+04  0.12699999809E+01 0.  1.
</event>
<event>
 5   0  0.1288096E-07  0.3197274E+04  0.7818609E-02  0.8189538E-01
       -1   -1    0    0    0  501  0.00000000000E+00  0.00000000000E+00  0.11594657445E+04  0.11594657445E+04  0.50400001928E-02 0.  1.
        1   -1    0    0  501    0  0.00000000000E+00  0.00000000000E+00 -0.22041527564E+04  0.22041527564E+04  0.50400001928E-02 0. -1.
    10030    2    1    2    0    0  0.00000000000E+00  0.00000000000E+00 -0.10446870119E+04  0.33636185009E+04  0.31972735990E+04 0.  0.
        2    1    3    3  502    0  0.54716675748E+03 -0.10287473993E+03  0.10541762258E+04  0.11921670133E+04  0.25500000920E-02 0.  1.
       -2    1    3    3    0  502 -0.54716675748E+03  0.10287473993E+03 -0.20988632377E+04  0.21714514876E+04  0.25500000920E-02 0. -1.
</event>
<event>
 5   0  0.1365455E-07  0.3197793E+04  0.7818609E-02  0.8189400E-01
       -1   -1    0    0    0  501  0.00000000000E+00  0.00000000000E+00  0.17230941449E+04  0.17230941449E+04  0.50400001928E-02 0. -1.
        1   -1    0    0  501    0  0.00000000000E+00  0.00000000000E+00 -0.14836507144E+04  0.14836507144E+04  0.50400001928E-02 0.  1.
    10030    2    1    2    0    0  0.00000000000E+00  0.00000000000E+00  0.23944343049E+03  0.32067448592E+04  0.31977929007E+04 0.  0.
        3    1    3    3  502    0 -0.12737260903E+04 -0.77259408620E+03 -0.46258455115E+03  0.15598923849E+04  0.10100000352E+00 0.  1.
       -3    1    3    3    0  502  0.12737260903E+04  0.77259408620E+03  0.70202798164E+03  0.16468524744E+04  0.10100000352E+00 0. -1.
</event>
<event>
 5   0  0.3764056E-07  0.3175779E+04  0.7818609E-02  0.8195243E-01
       -2   -1    0    0    0  501  0.00000000000E+00  0.00000000000E+00  0.11338654968E+04  0.11338654968E+04  0.25500000920E-02 0.  1.
        2   -1    0    0  501    0  0.00000000000E+00  0.00000000000E+00 -0.22237140165E+04  0.22237140165E+04  0.25500000920E-02 0. -1.
    10030    2    1    2    0    0  0.00000000000E+00  0.00000000000E+00 -0.10898485197E+04  0.33575795133E+04  0.31757787064E+04 0.  0.
        5    1    3    3  502    0  0.75425297101E+03  0.13191566687E+04 -0.57788863971E+02  0.15206687686E+04  0.46999998093E+01 0.  1.
       -5    1    3    3    0  502 -0.75425297101E+03 -0.13191566687E+04 -0.10320596558E+04  0.18369107447E+04  0.46999998093E+01 0. -1.
</event>
<event>
 5   0  0.1288096E-07  0.3202963E+04  0.7818609E-02  0.8188035E-01
       -1   -1    0    0    0  501  0.00000000000E+00  0.00000000000E+00  0.20071845132E+04  0.20071845132E+04  0.50400001928E-02 0. -1.
        1   -1    0    0  501    0  0.00000000000E+00  0.00000000000E+00 -0.12777811439E+04  0.12777811440E+04  0.50400001928E-02 0.  1.
    10030    2    1    2    0    0  0.00000000000E+00  0.00000000000E+00  0.72940336922E+03  0.32849656571E+04  0.32029627056E+04 0.  0.
        2    1    3    3  502    0 -0.13813691142E+04 -0.36209123509E+03 -0.37873742942E+03  0.14774074362E+04  0.25500000920E-02 0.  1.
       -2    1    3    3    0  502  0.13813691142E+04  0.36209123509E+03  0.11081407986E+04  0.18075582209E+04  0.25500000920E-02 0. -1.
</event>
<event>
 5   0  0.1277374E-07  0.3228768E+04  0.7818609E-02  0.8181261E-01
       -1   -1    0    0    0  501  0.00000000000E+00  0.00000000000E+00  0.11320093239E+04  0.11320093239E+04  0.50400001928E-02 0. -1.
        1   -1    0    0  501    0  0.00000000000E+00  0.00000000000E+00 -0.23023096662E+04  0.23023096662E+04  0.50400001928E-02 0.  1.
    10030    2    1    2    0    0  0.00000000000E+00  0.00000000000E+00 -0.11703003423E+04  0.34343189901E+04  0.32287681915E+04 0.  0.
        5    1    3    3  502    0  0.12614488359E+04  0.98290652183E+03 -0.82025448391E+03  0.17972751333E+04  0.46999998093E+01 0.  1.
       -5    1    3    3    0  502 -0.12614488359E+04 -0.98290652183E+03 -0.35004585841E+03  0.16370438569E+04  0.46999998093E+01 0. -1.
</event>
<event>
 5   0  0.1277374E-07  0.3201397E+04  0.7818609E-02  0.8188448E-01
        1   -1    0    0  501    0  0.00000000000E+00  0.00000000000E+00  0.99699608484E+03  0.99699608486E+03  0.50400001928E-02 0.  1.
       -1   -1    0    0    0  501  0.00000000000E+00  0.00000000000E+00 -0.25699553652E+04  0.25699553652E+04  0.50400001928E-02 0. -1.
    10030    2    1    2    0    0  0.00000000000E+00  0.00000000000E+00 -0.15729592804E+04  0.35669514501E+04  0.32013968435E+04 0.  0.
        5    1    3    3  502    0  0.26301699828E+03 -0.14740083652E+04 -0.14170879793E+04  0.20615622796E+04  0.46999998093E+01 0.  1.
       -5    1    3    3    0  502 -0.26301699828E+03  0.14740083652E+04 -0.15587130111E+03  0.15053891704E+04  0.46999998093E+01 0. -1.
</event>
<event>
 5   0  0.3858721E-07  0.3198437E+04  0.7818609E-02  0.8189230E-01
       -2   -1    0    0    0  501  0.00000000000E+00  0.00000000000E+00  0.18010946901E+04  0.18010946901E+04  0.25500000920E-02 0.  1.
        2   -1    0    0  501    0  0.00000000000E+00  0.00000000000E+00 -0.14199698157E+04  0.14199698157E+04  0.25500000920E-02 0. -1.
    10030    2    1    2    0    0  0.00000000000E+00  0.00000000000E+00  0.38112487435E+03  0.32210645058E+04  0.31984371779E+04 0.  0.
        2    1    3    3  502    0  0.79412138809E+03  0.13090013901E+04  0.65576837278E+03  0.16655766500E+04  0.25500000920E-02 0.  1.
       -2    1    3    3    0  502 -0.79412138809E+03 -0.13090013901E+04 -0.27464349843E+03  0.15554878558E+04  0.25500000920E-02 0. -1.
</event>
<event>
 5   0  0.3858721E-07  0.3194443E+04  0.7818609E-02  0.8190286E-01
       -2   -1    0    0    0  501  0.00000000000E+00  0.00000000000E+00  0.12971500376E+04  0.12971500376E+04  0.25500000920E-02 0.  1.
        2   -1    0    0  501    0  0.00000000000E+00  0.00000000000E+00 -0.19667083148E+04  0.19667083148E+04  0.25500000920E-02 0. -1.
    10030    2    1    2    0    0  0.00000000000E+00  0.00000000000E+00 -0.66955827719E+03  0.32638583523E+04  0.31944425269E+04 0.  0.
        2    1    3    3  502    0 -0.10314532960E+04 -0.48476822427E+03 -0.14781219821E+04  0.18664781614E+04  0.25500000920E-02 0. -1.
       -2    1    3    3    0  502  0.10314532960E+04  0.48476822427E+03  0.80856370486E+03  0.13973801909E+04  0.25500000920E-02 0.  1.
</event>
<event>
 5   0  0.3764056E-07  0.3203295E+04  0.7818609E-02  0.8187947E-01
       -2   -1    0    0    0  501  0.00000000000E+00  0.00000000000E+00  0.12796097960E+04  0.12796097960E+04  0.25500000920E-02 0. -1.
        2   -1    0    0  501    0  0.00000000000E+00  0.00000000000E+00 -0.20047325368E+04  0.20047325368E+04  0.25500000920E-02 0.  1.
    10030    2    1    2    0    0  0.00000000000E+00  0.00000000000E+00 -0.72512274078E+03  0.32843423328E+04  0.32032954235E+04 0.  0.
        5    1    3    3  502    0 -0.39629235518E+03 -0.26670659351E+03 -0.19299893266E+04  0.19882306025E+04  0.46999998093E+01 0.  1.
       -5    1    3    3    0  502  0.39629235518E+03  0.26670659351E+03  0.12048665859E+04  0.12961117303E+04  0.46999998093E+01 0. -1.
</event>
<event>
 5   0  0.3830207E-07  0.3199493E+04  0.7818609E-02  0.8188951E-01
        2   -1    0    0  501    0  0.00000000000E+00  0.00000000000E+00  0.15028050119E+04  0.15028050119E+04  0.25500000920E-02 0. -1.
       -2   -1    0    0    0  501  0.00000000000E+00  0.00000000000E+00 -0.17029411584E+04  0.17029411584E+04  0.25500000920E-02 0.  1.
    10030    2    1    2    0    0  0.00000000000E+00  0.00000000000E+00 -0.20013614657E+03  0.32057461703E+04  0.31994927772E+04 0.  0.
        4    1    3    3  502    0  0.15777538936E+04  0.28924787679E+02 -0.36334179878E+03  0.16193093799E+04  0.12699999809E+01 0.  1.
       -4    1    3    3    0  502 -0.15777538936E+04 -0.28924787679E+02  0.16320565220E+03  0.15864367904E+04  0.12699999809E+01 0. -1.
</event>
<event>
 5   0  0.1317293E-07  0.3201567E+04  0.7818609E-02  0.8188403E-01
       -1   -1    0    0    0  501  0.00000000000E+00  0.00000000000E+00  0.10775543789E+04  0.10775543789E+04  0.50400001928E-02 0.  1.
        1   -1    0    0  501    0  0.00000000000E+00  0.00000000000E+00 -0.23780778465E+04  0.23780778465E+04  0.50400001928E-02 0. -1.
    10030    2    1    2    0    0  0.00000000000E+00  0.00000000000E+00 -0.13005234676E+04  0.34556322254E+04  0.32015672393E+04 0.  0.
        1    1    3    3  502    0  0.30308470407E+03  0.57802285544E+03 -0.22279461714E+04  0.23215759522E+04  0.50400001928E-02 0. -1.
       -1    1    3    3    0  502 -0.30308470407E+03 -0.57802285544E+03  0.92742270379E+03  0.11340562732E+04  0.50400001928E-02 0.  1.
</event>
<event>
 5   0  0.3830207E-07  0.3203834E+04  0.7818609E-02  0.8187805E-01
       -2   -1    0    0    0  501  0.00000000000E+00  0.00000000000E+00  0.10599131912E+04  0.10599131912E+04  0.25500000920E-02 0. -1.
        2   -1    0    0  501    0  0.00000000000E+00  0.00000000000E+00 -0.24210834763E+04  0.24210834763E+04  0.25500000920E-02 0.  1.
    10030    2    1    2    0    0  0.00000000000E+00  0.00000000000E+00 -0.13611702851E+04  0.34809966675E+04  0.32038341490E+04 0.  0.
        4    1    3    3  502    0 -0.96690929192E+03 -0.69346693932E+03 -0.18459024223E+04  0.21961710636E+04  0.12699999809E+01 0.  1.
       -4    1    3    3    0  502  0.96690929192E+03  0.69346693932E+03  0.48473213726E+03  0.12848256039E+04  0.12699999809E+01 0. -1.
</event>
<event>
 5   0  0.1270948E-07  0.3203743E+04  0.7818609E-02  0.8187829E-01
        1   -1    0    0  501    0  0.00000000000E+00  0.00000000000E+00  0.18405237561E+04  0.18405237561E+04  0.50400001928E-02 0. -1.
       -1   -1    0    0    0  501  0.00000000000E+00  0.00000000000E+00 -0.13941637832E+04  0.13941637832E+04  0.50400001928E-02 0.  1.
    10030    2    1    2    0    0  0.00000000000E+00  0.00000000000E+00  0.44635997291E+03  0.32346875393E+04  0.32037425383E+04 0.  0.
        4    1    3    3  502    0 -0.29121340820E+03 -0.88152658439E+03  0.15411990841E+04  0.17992194413E+04  0.12699999809E+01 0. -1.
       -4    1    3    3    0  502  0.29121340820E+03  0.88152658439E+03 -0.10948391112E+04  0.14354680980E+04  0.12699999809E+01 0.  1.
</event>
<event>
 5   0  0.3750285E-07  0.3212038E+04  0.7818609E-02  0.8185645E-01
        2   -1    0    0  501    0  0.00000000000E+00  0.00000000000E+00  0.25057664548E+04  0.25057664548E+04  0.25500000920E-02 0.  1.
       -2   -1    0    0    0  501  0.00000000000E+00  0.00000000000E+00 -0.10293448346E+04  0.10293448346E+04  0.25500000920E-02 0. -1.
    10030    2    1    2    0    0  0.00000000000E+00  0.00000000000E+00  0.14764216202E+04  0.35351112894E+04  0.32120384537E+04 0.  0.
        1    1    3    3  502    0 -0.11934240751E+04 -0.10649419052E+04  0.57896656781E+03  0.17010480802E+04  0.50400001928E-02 0. -1.
       -1    1    3    3    0  502  0.11934240751E+04  0.10649419052E+04  0.89745505241E+03  0.18340632093E+04  0.50400001928E-02 0.  1.
</event>
<event>
 5   0  0.1365455E-07  0.3199482E+04  0.7818609E-02  0.8188954E-01
       -1   -1    0    0    0  501  0.00000000000E+00  0.00000000000E+00  0.12906438329E+04  0.12906438330E+04  0.50400001928E-02 0. -1.
        1   -1    0    0  501    0  0.00000000000E+00  0.00000000000E+00 -0.19828645672E+04  0.19828645672E+04  0.50400001928E-02 0.  1.
    10030    2    1    2    0    0  0.00000000000E+00  0.00000000000E+00 -0.69222073423E+03  0.32735084001E+04  0.31994824114E+04 0.  0.
        3    1    3    3  502    0  0.14341133174E+03  0.15908178267E+04 -0.43707032595E+03  0.16559887221E+04  0.10100000352E+00 0. -1.
       -3    1    3    3    0  502 -0.14341133174E+03 -0.15908178267E+04 -0.25515040828E+03  0.16175196780E+04  0.10100000352E+00 0.  1.
</event>
<event>
 5   0  0.3942564E-07  0.3194984E+04  0.7818609E-02  0.8190143E-01
       -2   -1    0    0    0  501  0.00000000000E+00  0.00000000000E+00  0.13488650946E+04  0.13488650946E+04  0.25500000920E-02 0.  1.
        2   -1    0    0  501    0  0.00000000000E+00  0.00000000000E+00 -0.18919470455E+04  0.18919470455E+04  0.25500000920E-02 0. -1.
    10030    2    1    2    0    0  0.00000000000E+00  0.00000000000E+00 -0.54308195099E+03  0.32408121401E+04  0.31949844009E+04 0.  0.
        3    1    3    3  502    0  0.76532369327E+03  0.56252726065E+03  0.10313375606E+04  0.14020750510E+04  0.10100000352E+00 0.  1.
       -3    1    3    3    0  502 -0.76532369327E+03 -0.56252726065E+03 -0.15744195116E+04  0.18387370892E+04  0.10100000352E+00 0. -1.
</event>
<event>
 5   0  0.1277374E-07  0.3195902E+04  0.7818609E-02  0.8189900E-01
        1   -1    0    0  501    0  0.00000000000E+00  0.00000000000E+00  0.12156011214E+04  0.12156011214E+04  0.50400001928E-02 0. -1.
       -1   -1    0    0    0  501  0.00000000000E+00  0.00000000000E+00 -0.21005636941E+04  0.21005636941E+04  0.50400001928E-02 0.  1.
    10030    2    1    2    0    0  0.00000000000E+00  0.00000000000E+00 -0.88496257271E+03  0.33161648155E+04  0.31959021150E+04 0.  0.
        5    1    3    3  502    0 -0.13591734697E+04 -0.57358086292E+03 -0.10796555347E+04  0.18281208086E+04  0.46999998093E+01 0.  1.
       -5    1    3    3    0  502  0.13591734697E+04  0.57358086292E+03  0.19469296203E+03  0.14880440069E+04  0.46999998093E+01 0. -1.
</event>
<event>
 5   0  0.3750285E-07  0.3201097E+04  0.7818609E-02  0.8188528E-01
       -2   -1    0    0    0  501  0.00000000000E+00  0.00000000000E+00  0.17438923386E+04  0.17438923386E+04  0.25500000920E-02 0. -1.
        2   -1    0    0  501    0  0.00000000000E+00  0.00000000000E+00 -0.14689869770E+04  0.14689869770E+04  0.25500000920E-02 0.  1.
    10030    2    1    2    0    0  0.00000000000E+00  0.00000000000E+00  0.27490536158E+03  0.32128793156E+04  0.32010967713E+04 0.  0.
        1    1    3    3  502    0  0.91552073511E+03  0.25590848478E+03  0.14298598744E+04  0.17170226060E+04  0.50400001928E-02 0. -1.
       -1    1    3    3    0  502 -0.91552073511E+03 -0.25590848478E+03 -0.11549545128E+04  0.14958567096E+04  0.50400001928E-02 0.  1.
</event>
<event>
 5   0  0.3942564E-07  0.3198959E+04  0.7818609E-02  0.8189092E-01
        2   -1    0    0  501    0  0.00000000000E+00  0.00000000000E+00  0.23593916587E+04  0.23593916587E+04  0.25500000920E-02 0.  1.
       -2   -1    0    0    0  501  0.00000000000E+00  0.00000000000E+00 -0.10843193844E+04  0.10843193844E+04  0.25500000920E-02 0. -1.
    10030    2    1    2    0    0  0.00000000000E+00  0.00000000000E+00  0.12750722744E+04  0.34437110431E+04  0.31989586499E+04 0.  0.
        3    1    3    3  502    0  0.81772801683E+02  0.12672108521E+04 -0.40940733660E+03  0.13342130686E+04  0.10100000352E+00 0. -1.
       -3    1    3    3    0  502 -0.81772801683E+02 -0.12672108521E+04  0.16844796110E+04  0.21094979746E+04  0.10100000352E+00 0.  1.
</event>
<event>
 5   0  0.1230450E-07  0.3201180E+04  0.7818609E-02  0.8188506E-01
        3   -1    0    0  501    0  0.00000000000E+00  0.00000000000E+00  0.21199643278E+04  0.21199643302E+04  0.10100000352E+00 0.  1.
       -3   -1    0    0    0  501  0.00000000000E+00  0.00000000000E+00 -0.12084579679E+04  0.12084579722E+04  0.10100000352E+00 0. -1.
    10030    2    1    2    0    0  0.00000000000E+00  0.00000000000E+00  0.91150635990E+03  0.33284223024E+04  0.32011796543E+04 0.  0.
        1    1    3    3  502    0 -0.11710545101E+04 -0.14550983296E+03  0.15800989642E+04  0.19721192951E+04  0.50400001928E-02 0.  1.
       -1    1    3    3    0  502  0.11710545101E+04  0.14550983296E+03 -0.66859260433E+03  0.13563030073E+04  0.50400001928E-02 0. -1.
</event>
<event>
 5   0  0.1270948E-07  0.3212782E+04  0.7818609E-02  0.8185450E-01
       -1   -1    0    0    0  501  0.00000000000E+00  0.00000000000E+00  0.10989202840E+04  0.10989202840E+04  0.50400001928E-02 0. -1.
        1   -1    0    0  501    0  0.00000000000E+00  0.00000000000E+00 -0.23482072360E+04  0.23482072360E+04  0.50400001928E-02 0.  1.
    10030    2    1    2    0    0  0.00000000000E+00  0.00000000000E+00 -0.12492869521E+04  0.34471275200E+04  0.32127823223E+04 0.  0.
        4    1    3    3  502    0 -0.98661137080E+03  0.12659898359E+04 -0.55380748979E+03  0.16978918135E+04  0.12699999809E+01 0.  1.
       -4    1    3    3    0  502  0.98661137080E+03 -0.12659898359E+04 -0.69547946228E+03  0.17492357065E+04  0.12699999809E+01 0. -1.
</event>
<event>
 5   0  0.1288096E-07  0.3184380E+04  0.7818609E-02  0.8192955E-01
        1   -1    0    0  501    0  0.00000000000E+00  0.00000000000E+00  0.14665387815E+04  0.14665387815E+04  0.50400001928E-02 0. -1.
       -1   -1    0    0    0  501  0.00000000000E+00  0.00000000000E+00 -0.17286068056E+04  0.17286068057E+04  0.50400001928E-02 0.  1.
    10030    2    1    2    0    0  0.00000000000E+00  0.00000000000E+00 -0.26206802416E+03  0.31951455871E+04  0.31843799512E+04 0.  0.
        2    1    3    3  502    0 -0.36939788670E+03 -0.56207192568E+02 -0.16839922162E+04  0.17249474865E+04  0.25500000920E-02 0.  1.
       -2    1    3    3    0  502  0.36939788670E+03  0.56207192568E+02  0.14219241920E+04  0.14701981006E+04  0.25500000920E-02 0. -1.
</event>
<event>
 5   0  0.3830207E-07  0.3207706E+04  0.7818609E-02  0.8186785E-01
       -2   -1    0    0    0  501  0.00000000000E+00  0.00000000000E+00  0.10636377528E+04  0.10636377528E+04  0.25500000920E-02 0.  1.
        2   -1    0    0  501    0  0.00000000000E+00  0.00000000000E+00 -0.24184400290E+04  0.24184400290E+04  0.25500000920E-02 0. -1.
    10030    2    1    2    0    0  0.00000000000E+00  0.00000000000E+00 -0.13548022762E+04  0.34820777817E+04  0.32077057955E+04 0.  0.
        4    1    3    3  502    0  0.11723491233E+04 -0.74409195365E+02  0.50797321241E+03  0.12798349865E+04  0.12699999809E+01 0.  1.
       -4    1    3    3    0  502 -0.11723491233E+04  0.74409195365E+02 -0.18627754886E+04  0.22022427952E+04  0.12699999809E+01 0. -1.
</event>
<event>
 5   0  0.3750285E-07  0.3149913E+04  0.7818609E-02  0.8202172E-01
       -2   -1    0    0    0  501  0.00000000000E+00  0.00000000000E+00  0.21778671512E+04  0.21778671512E+04  0.25500000920E-02 0. -1.
        2   -1    0    0  501    0  0.00000000000E+00  0.00000000000E+00 -0.11389528744E+04  0.11389528744E+04  0.25500000920E-02 0.  1.
    10030    2    1    2    0    0  0.00000000000E+00  0.00000000000E+00  0.10389142768E+04  0.33168200256E+04  0.31499130477E+04 0.  0.
        1    1    3    3  502    0 -0.12031369688E+04 -0.44395975567E+03 -0.44323475028E+03  0.13568698811E+04  0.50400001928E-02 0.  1.
       -1    1    3    3    0  502  0.12031369688E+04  0.44395975567E+03  0.14821490271E+04  0.19599501445E+04  0.50400001928E-02 0. -1.
</event>
<event>
 5   0  0.1317293E-07  0.3203391E+04  0.7818609E-02  0.8187922E-01
       -1   -1    0    0    0  501  0.00000000000E+00  0.00000000000E+00  0.14046325734E+04  0.14046325734E+04  0.50400001928E-02 0. -1.
        1   -1    0    0  501    0  0.00000000000E+00  0.00000000000E+00 -0.18264049601E+04  0.18264049601E+04  0.50400001928E-02 0.  1.
    10030    2    1    2    0    0  0.00000000000E+00  0.00000000000E+00 -0.42177238673E+03  0.32310375335E+04  0.32033906406E+04 0.  0.
        1    1    3    3  502    0  0.73282338312E+03  0.98003335317E+03  0.83144080042E+03  0.14794557407E+04  0.50400001928E-02 0. -1.
       -1    1    3    3    0  502 -0.73282338312E+03 -0.98003335317E+03 -0.12532131872E+04  0.17515817927E+04  0.50400001928E-02 0.  1.
</event>
<event>
 5   0  0.3764056E-07  0.3194895E+04  0.7818609E-02  0.8190167E-01
       -2   -1    0    0    0  501  0.00000000000E+00  0.00000000000E+00  0.11341490545E+04  0.11341490545E+04  0.25500000920E-02 0.  1.
        2   -1    0    0  501    0  0.00000000000E+00  0.00000000000E+00 -0.22500033902E+04  0.22500033903E+04  0.25500000920E-02 0. -1.
    10030    2    1    2    0    0  0.00000000000E+00  0.00000000000E+00 -0.11158543358E+04  0.33841524447E+04  0.31948954397E+04 0.  0.
        5    1    3    3  502    0 -0.43278101602E+03  0.11382845935E+03  0.10663920216E+04  0.11564905359E+04  0.46999998093E+01 0.  1.
       -5    1    3    3    0  502  0.43278101602E+03 -0.11382845935E+03 -0.21822463573E+04  0.22276619088E+04  0.46999998093E+01 0. -1.
</event>
<event>
 5   0  0.1270948E-07  0.3201973E+04  0.7818609E-02  0.8188296E-01
       -1   -1    0    0    0  501  0.00000000000E+00  0.00000000000E+00  0.10303643274E+04  0.10303643274E+04  0.50400001928E-02 0.  1.
        1   -1    0    0  501    0  0.00000000000E+00  0.00000000000E+00 -0.24876227649E+04  0.24876227649E+04  0.50400001928E-02 0. -1.
    10030    2    1    2    0    0  0.00000000000E+00  0.00000000000E+00 -0.14572584375E+04  0.35179870923E+04  0.32019729899E+04 0.  0.
        4    1    3    3  502    0  0.34024040930E+03  0.14480812832E+04 -0.78212650338E+02  0.14895710021E+04  0.12699999809E+01 0.  1.
       -4    1    3    3    0  502 -0.34024040930E+03 -0.14480812832E+04 -0.13790457872E+04  0.20284160902E+04  0.12699999809E+01 0. -1.
</event>
<event>
 5   0  0.1277374E-07  0.3219965E+04  0.7818609E-02  0.8183564E-01
        1   -1    0    0  501    0  0.00000000000E+00  0.00000000000E+00  0.10920131820E+04  0.10920131820E+04  0.50400001928E-02 0.  1.
       -1   -1    0    0    0  501  0.00000000000E+00  0.00000000000E+00 -0.23736381299E+04  0.23736381299E+04  0.50400001928E-02 0. -1.
    10030    2    1    2    0    0  0.00000000000E+00  0.00000000000E+00 -0.12816249479E+04  0.34656513119E+04  0.32199652961E+04 0.  0.
        5    1    3    3  502    0 -0.13170766862E+03 -0.53526539855E+03 -0.22688988636E+04  0.23349047304E+04  0.46999998093E+01 0. -1.
       -5    1    3    3    0  502  0.13170766862E+03  0.53526539855E+03  0.98727391568E+03  0.11307465814E+04  0.46999998093E+01 0.  1.
</event>
<event>
 5   0  0.1288096E-07  0.3228627E+04  0.7818609E-02  0.8181298E-01
       -1   -1    0    0    0  501  0.00000000000E+00  0.00000000000E+00  0.30395855105E+04  0.30395855105E+04  0.50400001928E-02 0. -1.
        1   -1    0    0  501    0  0.00000000000E+00  0.00000000000E+00 -0.85735625943E+03  0.85735625945E+03  0.50400001928E-02 0.  1.
    10030    2    1    2    0    0  0.00000000000E+00  0.00000000000E+00  0.21822292510E+04  0.38969417699E+04  0.32286267443E+04 0.  0.
        2    1    3    3  502    0  0.95340606940E+03 -0.76117994216E+03 -0.18489816946E+03  0.12339227571E+04  0.25500000920E-02 0.  1.
       -2    1    3    3    0  502 -0.95340606940E+03  0.76117994216E+03  0.23671274205E+04  0.26630190128E+04  0.25500000920E-02 0. -1.
</event>
<event>
 5   0  0.3830207E-07  0.3202207E+04  0.7818609E-02  0.8188235E-01
       -2   -1    0    0    0  501  0.00000000000E+00  0.00000000000E+00  0.10298436970E+04  0.10298436970E+04  0.25500000920E-02 0. -1.
        2   -1    0    0  501    0  0.00000000000E+00  0.00000000000E+00 -0.24892441126E+04  0.24892441126E+04  0.25500000920E-02 0.  1.
    10030    2    1    2    0    0  0.00000000000E+00  0.00000000000E+00 -0.14594004156E+04  0.35190878096E+04  0.32022069638E+04 0.  0.
        4    1    3    3  502    0 -0.25610351503E+03  0.13515564400E+04 -0.16300652526E+04  0.21329341672E+04  0.12699999809E+01 0. -1.
       -4    1    3    3    0  502  0.25610351503E+03 -0.13515564400E+04  0.17066483698E+03  0.13861536424E+04  0.12699999809E+01 0.  1.
</event>
<event>
 5   0  0.1317293E-07  0.3203366E+04  0.7818609E-02  0.8187929E-01
       -1   -1    0    0    0  501  0.00000000000E+00  0.00000000000E+00  0.14266049789E+04  0.14266049789E+04  0.50400001928E-02 0.  1.
        1   -1    0    0  501    0  0.00000000000E+00  0.00000000000E+00 -0.17982472797E+04  0.17982472797E+04  0.50400001928E-02 0. -1.
    10030    2    1    2    0    0  0.00000000000E+00  0.00000000000E+00 -0.37164230085E+03  0.32248522586E+04  0.32033660562E+04 0.  0.
        1    1    3    3  502    0  0.13288763059E+04 -0.88505707443E+03 -0.31375722761E+03  0.16271698925E+04  0.50400001928E-02 0. -1.
       -1    1    3    3    0  502 -0.13288763059E+04  0.88505707443E+03 -0.57885073238E+02  0.15976823661E+04  0.50400001928E-02 0.  1.
</event>
<event>
 5   0  0.1365455E-07  0.3133368E+04  0.7818609E-02  0.8206639E-01
       -1   -1    0    0    0  501  0.00000000000E+00  0.00000000000E+00  0.14306951002E+04  0.14306951002E+04  0.50400001928E-02 0. -1.
        1   -1    0    0  501    0  0.00000000000E+00  0.00000000000E+00 -0.17155991742E+04  0.17155991742E+04  0.50400001928E-02 0.  1.
    10030    2    1    2    0    0  0.00000000000E+00  0.00000000000E+00 -0.28490407405E+03  0.31462942744E+04  0.31333683681E+04 0.  0.
        3    1    3    3  502    0  0.60133106001E+03  0.76043203957E+03  0.10933334265E+04  0.14612439640E+04  0.10100000352E+00 0. -1.
       -3    1    3    3    0  502 -0.60133106001E+03 -0.76043203957E+03 -0.13782375006E+04  0.16850503104E+04  0.10100000352E+00 0.  1.
</event>
<event>
 5   0  0.3858721E-07  0.3231098E+04  0.7818609E-02  0.8180652E-01
        2   -1    0    0  501    0  0.00000000000E+00  0.00000000000E+00  0.17972121621E+04  0.17972121621E+04  0.25500000920E-02 0. -1.
       -2   -1    0    0    0  501  0.00000000000E+00  0.00000000000E+00 -0.14522484630E+04  0.14522484630E+04  0.25500000920E-02 0.  1.
    10030    2    1    2    0    0  0.00000000000E+00  0.00000000000E+00  0.34496369915E+03  0.32494606251E+04  0.32310980177E+04 0.  0.
        2    1    3    3  502    0 -0.15796846867E+04  0.31465522700E+03  0.29803919277E+03  0.16380595172E+04  0.25500000920E-02 0. -1.
       -2    1    3    3    0  502  0.15796846867E+04 -0.31465522700E+03  0.46924506374E+02  0.16114011079E+04  0.25500000920E-02 0.  1.
</event>
<event>
 5   0  0.3830207E-07  0.3198809E+04  0.7818609E-02  0.8189132E-01
       -2   -1    0    0    0  501  0.00000000000E+00  0.00000000000E+00  0.18844644366E+04  0.18844644366E+04  0.25500000920E-02 0. -1.
        2   -1    0    0  501    0  0.00000000000E+00  0.00000000000E+00 -0.13574651737E+04  0.13574651737E+04  0.25500000920E-02 0.  1.
    10030    2    1    2    0    0  0.00000000000E+00  0.00000000000E+00  0.52699926289E+03  0.32419296104E+04  0.31988090558E+04 0.  0.
        4    1    3    3  502    0  0.50547532196E+03  0.13764145226E+04  0.91091518096E+03  0.17262069166E+04  0.12699999809E+01 0.  1.
       -4    1    3    3    0  502 -0.50547532196E+03 -0.13764145226E+04 -0.38391591807E+03  0.15157226937E+04  0.12699999809E+01 0. -1.
</event>
<event>
 5   0  0.1277374E-07  0.3190718E+04  0.7818609E-02  0.8191273E-01
        1   -1    0    0  501    0  0.00000000000E+00  0.00000000000E+00  0.10631131583E+04  0.10631131583E+04  0.50400001928E-02 0.  1.
       -1   -1    0    0    0  501  0.00000000000E+00  0.00000000000E+00 -0.23940733200E+04  0.23940733200E+04  0.50400001928E-02 0. -1.
    10030    2    1    2    0    0  0.00000000000E+00  0.00000000000E+00 -0.13309601617E+04  0.34571864783E+04  0.31907183194E+04 0.  0.
        5    1    3    3  502    0  0.26938813511E+03 -0.80415091631E+03  0.79863503364E+03  0.11649329039E+04  0.46999998093E+01 0.  1.
       -5    1    3    3    0  502 -0.26938813511E+03  0.80415091631E+03 -0.21295951953E+04  0.22922535744E+04  0.46999998093E+01 0. -1.
</event>
<event>
 5   0  0.3830207E-07  0.3170711E+04  0.7818609E-02  0.8196595E-01
        2   -1    0    0  501    0  0.00000000000E+00  0.00000000000E+00  0.18743905219E+04  0.18743905219E+04  0.25500000920E-02 0. -1.
       -2   -1    0    0    0  501  0.00000000000E+00  0.00000000000E+00 -0.13408902630E+04  0.13408902630E+04  0.25500000920E-02 0.  1.
    10030    2    1    2    0    0  0.00000000000E+00  0.00000000000E+00  0.53350025891E+03  0.32152807849E+04  0.31707109612E+04 0.  0.
        4    1    3    3  502    0  0.20652147729E+03  0.14553361213E+04 -0.33548008841E+03  0.15077144455E+04  0.12699999809E+01 0.  1.
       -4    1    3    3    0  502 -0.20652147729E+03 -0.14553361213E+04  0.86898034732E+03  0.17075663394E+04  0.12699999809E+01 0. -1.
</event>
<event>
 5   0  0.1288096E-07  0.3201147E+04  0.7818609E-02  0.8188514E-01
       -1   -1    0    0    0  501  0.00000000000E+00  0.00000000000E+00  0.14218914421E+04  0.14218914422E+04  0.50400001928E-02 0. -1.
        1   -1    0    0  501    0  0.00000000000E+00  0.00000000000E+00 -0.18017101249E+04  0.18017101249E+04  0.50400001928E-02 0.  1.
    10030    2    1    2    0    0  0.00000000000E+00  0.00000000000E+00 -0.37981868279E+03  0.32236015671E+04  0.32011474242E+04 0.  0.
        2    1    3    3  502    0  0.14427439711E+04  0.29461804814E+03  0.44180761600E+03  0.15373691587E+04  0.25500000920E-02 0. -1.
       -2    1    3    3    0  502 -0.14427439711E+04 -0.29461804814E+03 -0.82162629879E+03  0.16862324084E+04  0.25500000920E-02 0.  1.
</event>
<event>
 5   0  0.3764056E-07  0.3098298E+04  0.7818609E-02  0.8216205E-01
       -2   -1    0    0    0  501  0.00000000000E+00  0.00000000000E+00  0.11728896787E+04  0.11728896787E+04  0.25500000920E-02 0.  1.
        2   -1    0    0  501    0  0.00000000000E+00  0.00000000000E+00 -0.20461105336E+04  0.20461105336E+04  0.25500000920E-02 0. -1.
    10030    2    1    2    0    0  0.00000000000E+00  0.00000000000E+00 -0.87322085491E+03  0.32190002123E+04  0.30982975495E+04 0.  0.
        5    1    3    3  502    0 -0.10927823266E+04 -0.10740726387E+04 -0.67360802828E+03  0.16737906417E+04  0.46999998093E+01 0.  1.
       -5    1    3    3    0  502  0.10927823266E+04  0.10740726387E+04 -0.19961282662E+03  0.15452095706E+04  0.46999998093E+01 0. -1.
</event>
<event>
 5   0  0.1270948E-07  0.3187317E+04  0.7818609E-02  0.8192175E-01
       -1   -1    0    0    0  501  0.00000000000E+00  0.00000000000E+00  0.15659835439E+04  0.15659835439E+04  0.50400001928E-02 0. -1.
        1   -1    0    0  501    0  0.00000000000E+00  0.00000000000E+00 -0.16218224718E+04  0.16218224718E+04  0.50400001928E-02 0.  1.
    10030    2    1    2    0    0  0.00000000000E+00  0.00000000000E+00 -0.55838927904E+02  0.31878060157E+04  0.31873169293E+04 0.  0.
        4    1    3    3  502    0 -0.16463231056E+03  0.24306097232E+03  0.15387063050E+04  0.15664613433E+04  0.12699999809E+01 0. -1.
       -4    1    3    3    0  502  0.16463231056E+03 -0.24306097232E+03 -0.15945452329E+04  0.16213446724E+04  0.12699999809E+01 0.  1.
</event>
<event>
 5   0  0.3942564E-07  0.3201002E+04  0.7818609E-02  0.8188553E-01
        2   -1    0    0  501    0  0.00000000000E+00  0.00000000000E+00  0.19373620280E+04  0.19373620280E+04  0.25500000920E-02 0. -1.
       -2   -1    0    0    0  501  0.00000000000E+00  0.00000000000E+00 -0.13222121855E+04  0.13222121855E+04  0.25500000920E-02 0.  1.
    10030    2    1    2    0    0  0.00000000000E+00  0.00000000000E+00  0.61514984252E+03  0.32595742134E+04  0.32010021437E+04 0.  0.
        3    1    3    3  502    0  0.94377307409E+03 -0.93576169745E+03 -0.60050836576E+03  0.14584127939E+04  0.10100000352E+00 0.  1.
       -3    1    3    3    0  502 -0.94377307409E+03  0.93576169745E+03  0.12156582083E+04  0.18011614196E+04  0.10100000352E+00 0. -1.
</event>
<event>
 5   0  0.1288096E-07  0.3197908E+04  0.7818609E-02  0.8189370E-01
        1   -1    0    0  501    0  0.00000000000E+00  0.00000000000E+00  0.21687890527E+04  0.21687890527E+04  0.50400001928E-02 0.  1.
       -1   -1    0    0    0  501  0.00000000000E+00  0.00000000000E+00 -0.11788390780E+04  0.11788390780E+04  0.50400001928E-02 0. -1.
    10030    2    1    2    0    0  0.00000000000E+00  0.00000000000E+00  0.98994997470E+03  0.33476281307E+04  0.31979076205E+04 0.  0.
        2    1    3    3  502    0 -0.65604201497E+03 -0.13824205278E+04  0.98056288326E+03  0.18174105780E+04  0.25500000920E-02 0.  1.
       -2    1    3    3    0  502  0.65604201497E+03  0.13824205278E+04  0.93870914413E+01  0.15302175527E+04  0.25500000920E-02 0. -1.
</event>
<event>
 5   0  0.3858721E-07  0.3194256E+04  0.7818609E-02  0.8190336E-01
        2   -1    0    0  501    0  0.00000000000E+00  0.00000000000E+00  0.18965979922E+04  0.18965979922E+04  0.25500000920E-02 0. -1.
       -2   -1    0    0    0  501  0.00000000000E+00  0.00000000000E+00 -0.13449441329E+04  0.13449441329E+04  0.25500000920E-02 0.  1.
    10030    2    1    2    0    0  0.00000000000E+00  0.00000000000E+00  0.55165385934E+03  0.32415421251E+04  0.31942563091E+04 0.  0.
        2    1    3    3  502    0  0.61247853525E+02  0.14590137040E+04  0.93219847722E+03  0.17324740371E+04  0.25500000920E-02 0. -1.
       -2    1    3    3    0  502 -0.61247853525E+02 -0.14590137040E+04 -0.38054461788E+03  0.15090680880E+04  0.25500000920E-02 0.  1.
</event>
<event>
 5   0  0.3830207E-07  0.3204141E+04  0.7818609E-02  0.8187724E-01
        2   -1    0    0  501    0  0.00000000000E+00  0.00000000000E+00  0.17426073516E+04  0.17426073516E+04  0.25500000920E-02 0. -1.
       -2   -1    0    0    0  501  0.00000000000E+00  0.00000000000E+00 -0.14728675609E+04  0.14728675609E+04  0.25500000920E-02 0.  1.
    10030    2    1    2    0    0  0.00000000000E+00  0.00000000000E+00  0.26973979062E+03  0.32154749125E+04  0.32041409704E+04 0.  0.
        4    1    3    3  502    0  0.12339342383E+04  0.87414789468E+03  0.66579705762E+03  0.16522758792E+04  0.12699999809E+01 0. -1.
       -4    1    3    3    0  502 -0.12339342383E+04 -0.87414789468E+03 -0.39605726700E+03  0.15631990333E+04  0.12699999809E+01 0.  1.
</event>
<event>
 5   0  0.3764056E-07  0.3256591E+04  0.7818609E-02  0.8174030E-01
       -2   -1    0    0    0  501  0.00000000000E+00  0.00000000000E+00  0.14064284757E+04  0.14064284757E+04  0.25500000920E-02 0. -1.
        2   -1    0    0  501    0  0.00000000000E+00  0.00000000000E+00 -0.18851620143E+04  0.18851620143E+04  0.25500000920E-02 0.  1.
    10030    2    1    2    0    0  0.00000000000E+00  0.00000000000E+00 -0.47873353867E+03  0.32915904900E+04  0.32565905719E+04 0.  0.
        5    1    3    3  502    0 -0.25940280634E+03  0.79679387683E+03  0.11717586651E+04  0.14405591821E+04  0.46999998093E+01 0. -1.
       -5    1    3    3    0  502  0.25940280634E+03 -0.79679387683E+03 -0.16504922037E+04  0.18510313079E+04  0.46999998093E+01 0.  1.
</event>
<event>
 5   0  0.1270948E-07  0.3196511E+04  0.7818609E-02  0.8189739E-01
        1   -1    0    0  501    0  0.00000000000E+00  0.00000000000E+00  0.19648637480E+04  0.19648637480E+04  0.50400001928E-02 0. -1.
       -1   -1    0    0    0  501  0.00000000000E+00  0.00000000000E+00 -0.13000499385E+04  0.13000499385E+04  0.50400001928E-02 0.  1.
    10030    2    1    2    0    0  0.00000000000E+00  0.00000000000E+00  0.66481380947E+03  0.32649136865E+04  0.31965112199E+04 0.  0.
        4    1    3    3  502    0  0.15679960775E+04 -0.57652247176E+02  0.64302628021E+03  0.16957063102E+04  0.12699999809E+01 0.  1.
       -4    1    3    3    0  502 -0.15679960775E+04  0.57652247176E+02  0.21787529259E+02  0.15692073763E+04  0.12699999809E+01 0. -1.
</event>
<event>
 5   0  0.1288096E-07  0.3202453E+04  0.7818609E-02  0.8188170E-01
       -1   -1    0    0    0  501  0.00000000000E+00  0.00000000000E+00  0.11877147955E+04  0.11877147955E+04  0.50400001928E-02 0.  1.
        1   -1    0    0  501    0  0.00000000000E+00  0.00000000000E+00 -0.21587049943E+04  0.21587049943E+04  0.50400001928E-02 0. -1.
    10030    2    1    2    0    0  0.00000000000E+00  0.00000000000E+00 -0.97099019882E+03  0.33464197898E+04  0.32024527231E+04 0.  0.
        2    1    3    3  502    0  0.18613218679E+03  0.54189648634E+03  0.10769240288E+04  0.12198616137E+04  0.25500000920E-02 0.  1.
       -2    1    3    3    0  502 -0.18613218679E+03 -0.54189648634E+03 -0.20479142276E+04  0.21265581761E+04  0.25500000920E-02 0. -1.
</event>
<event>
 5   0  0.3764056E-07  0.3211753E+04  0.7818609E-02  0.8185720E-01
        2   -1    0    0  501    0  0.00000000000E+00  0.00000000000E+00  0.20089290651E+04  0.20089290651E+04  0.25500000920E-02 0. -1.
       -2   -1    0    0    0  501  0.00000000000E+00  0.00000000000E+00 -0.12836882423E+04  0.12836882423E+04  0.25500000920E-02 0.  1.
    10030    2    1    2    0    0  0.00000000000E+00  0.00000000000E+00  0.72524082280E+03  0.32926173075E+04  0.32117525562E+04 0.  0.
        5    1    3    3  502    0 -0.12433788211E+03 -0.12625097320E+04 -0.64676370113E+03  0.14239789701E+04  0.46999998093E+01 0.  1.
       -5    1    3    3    0  502  0.12433788211E+03  0.12625097320E+04  0.13720045239E+04  0.18686383374E+04  0.46999998093E+01 0. -1.
</event>
<event>
 5   0  0.1365455E-07  0.3203966E+04  0.7818609E-02  0.8187771E-01
        1   -1    0    0  501    0  0.00000000000E+00  0.00000000000E+00  0.30355774401E+04  0.30355774401E+04  0.50400001928E-02 0. -1.
       -1   -1    0    0    0  501  0.00000000000E+00  0.00000000000E+00 -0.84542387265E+03  0.84542387267E+03  0.50400001928E-02 0.  1.
    10030    2    1    2    0    0  0.00000000000E+00  0.00000000000E+00  0.21901535674E+04  0.38810013128E+04  0.32039660642E+04 0.  0.
        3    1    3    3  502    0 -0.73795793969E+03  0.50370072492E+03 -0.51558204237E+03  0.10315625011E+04  0.10100000352E+00 0.  1.
       -3    1    3    3    0  502  0.73795793969E+03 -0.50370072492E+03  0.27057356098E+04  0.28494388117E+04  0.10100000352E+00 0. -1.
</event>
<event>
 5   0  0.3750285E-07  0.3195658E+04  0.7818609E-02  0.8189965E-01
       -2   -1    0    0    0  501  0.00000000000E+00  0.00000000000E+00  0.13087132823E+04  0.13087132823E+04  0.25500000920E-02 0. -1.
        2   -1    0    0  501    0  0.00000000000E+00  0.00000000000E+00 -0.19508153169E+04  0.19508153169E+04  0.25500000920E-02 0.  1.
    10030    2    1    2    0    0  0.00000000000E+00  0.00000000000E+00 -0.64210203459E+03  0.32595285992E+04  0.31956582524E+04 0.  0.
        1    1    3    3  502    0 -0.11758949845E+04 -0.10798982655E+04 -0.25535375997E+03  0.16168224458E+04  0.50400001928E-02 0. -1.
       -1    1    3    3    0  502  0.11758949845E+04  0.10798982655E+04 -0.38674827462E+03  0.16427061534E+04  0.50400001928E-02 0.  1.
</event>
<event>
 5   0  0.1317293E-07  0.3198876E+04  0.7818609E-02  0.8189114E-01
       -1   -1    0    0    0  501  0.00000000000E+00  0.00000000000E+00  0.18993747802E+04  0.18993747802E+04  0.50400001928E-02 0. -1.
        1   -1    0    0  501    0  0.00000000000E+00  0.00000000000E+00 -0.13468650019E+04  0.13468650019E+04  0.50400001928E-02 0.  1.
    10030    2    1    2    0    0  0.00000000000E+00  0.00000000000E+00  0.55250977829E+03  0.32462397820E+04  0.31988756880E+04 0.  0.
        1    1    3    3  502    0  0.10020407732E+04 -0.61353879888E+03 -0.82502563911E+03  0.14356820240E+04  0.50400001928E-02 0.  1.
       -1    1    3    3    0  502 -0.10020407732E+04  0.61353879888E+03  0.13775354174E+04  0.18105577580E+04  0.50400001928E-02 0. -1.
</event>
<event>
 5   0  0.3750285E-07  0.3202084E+04  0.7818609E-02  0.8188267E-01
       -2   -1    0    0    0  501  0.00000000000E+00  0.00000000000E+00  0.10162260411E+04  0.10162260411E+04  0.25500000920E-02 0.  1.
        2   -1    0    0  501    0  0.00000000000E+00  0.00000000000E+00 -0.25224070440E+04  0.25224070440E+04  0.25500000920E-02 0. -1.
    10030    2    1    2    0    0  0.00000000000E+00  0.00000000000E+00 -0.15061810029E+04  0.35386330851E+04  0.32020841490E+04 0.  0.
        1    1    3    3  502    0 -0.31687698788E+03  0.12619104350E+04 -0.17841621974E+04  0.22081810882E+04  0.50400001928E-02 0. -1.
       -1    1    3    3    0  502  0.31687698788E+03 -0.12619104350E+04  0.27798119448E+03  0.13304519969E+04  0.50400001928E-02 0.  1.
</event>
<event>
 5   0  0.3750285E-07  0.3195920E+04  0.7818609E-02  0.8189895E-01
       -2   -1    0    0    0  501  0.00000000000E+00  0.00000000000E+00  0.10587925459E+04  0.10587925459E+04  0.25500000920E-02 0. -1.
        2   -1    0    0  501    0  0.00000000000E+00  0.00000000000E+00 -0.24116871079E+04  0.24116871079E+04  0.25500000920E-02 0.  1.
    10030    2    1    2    0    0  0.00000000000E+00  0.00000000000E+00 -0.13528945620E+04  0.34704796537E+04  0.31959201071E+04 0.  0.
        1    1    3    3  502    0 -0.66200741553E+03  0.14056936918E+04 -0.10816643176E+04  0.18932052899E+04  0.50400001928E-02 0.  1.
       -1    1    3    3    0  502  0.66200741553E+03 -0.14056936918E+04 -0.27123024435E+03  0.15772743639E+04  0.50400001928E-02 0. -1.
</event>
<event>
 5   0  0.3764056E-07  0.3197582E+04  0.7818609E-02  0.8189456E-01
       -2   -1    0    0    0  501  0.00000000000E+00  0.00000000000E+00  0.12006570272E+04  0.12006570272E+04  0.25500000920E-02 0.  1.
        2   -1    0    0  501    0  0.00000000000E+00  0.00000000000E+00 -0.21289454926E+04  0.21289454926E+04  0.25500000920E-02 0. -1.
    10030    2    1    2    0    0  0.00000000000E+00  0.00000000000E+00 -0.92828846535E+03  0.33296025198E+04  0.31975824407E+04 0.  0.
        5    1    3    3  502    0  0.12071213977E+04 -0.94256690988E+03  0.13643152215E+02  0.15315948139E+04  0.46999998093E+01 0.  1.
       -5    1    3    3    0  502 -0.12071213977E+04  0.94256690988E+03 -0.94193161756E+03  0.17980077059E+04  0.46999998093E+01 0. -1.
</event>
<event>
 5   0  0.3942564E-07  0.3206878E+04  0.7818609E-02  0.8187003E-01
       -2   -1    0    0    0  501  0.00000000000E+00  0.00000000000E+00  0.14794835415E+04  0.14794835415E+04  0.25500000920E-02 0. -1.
        2   -1    0    0  501    0  0.00000000000E+00  0.00000000000E+00 -0.17377802186E+04  0.17377802186E+04  0.25500000920E-02 0.  1.
    10030    2    1    2    0    0  0.00000000000E+00  0.00000000000E+00 -0.25829667711E+03  0.32172637600E+04  0.32068783775E+04 0.  0.
        3    1    3    3  502    0  0.11204828752E+04  0.95987796420E+03 -0.75901085527E+03  0.16592001291E+04  0.10100000352E+00 0.  1.
       -3    1    3    3    0  502 -0.11204828752E+04 -0.95987796420E+03  0.50071417816E+03  0.15580636309E+04  0.10100000352E+00 0. -1.
</event>
<event>
 5   0  0.1270948E-07  0.3192765E+04  0.7818609E-02  0.8190730E-01
        1   -1    0    0  501    0  0.00000000000E+00  0.00000000000E+00  0.13833124831E+04  0.13833124831E+04  0.50400001928E-02 0.  1.
       -1   -1    0    0    0  501  0.00000000000E+00  0.00000000000E+00 -0.18422717786E+04  0.18422717786E+04  0.50400001928E-02 0. -1.
    10030    2    1    2    0    0  0.00000000000E+00  0.00000000000E+00 -0.45895929553E+03  0.32255842617E+04  0.31927652896E+04 0.  0.
        4    1    3    3  502    0 -0.91249757244E+03 -0.12834628437E+04 -0.49390899271E+03  0.16504170373E+04  0.12699999809E+01 0.  1.
       -4    1    3    3    0  502  0.91249757244E+03  0.12834628437E+04  0.34949697187E+02  0.15751672245E+04  0.12699999809E+01 0. -1.
</event>
<event>
 5   0  0.1365455E-07  0.3197250E+04  0.7818609E-02  0.8189544E-01
        1   -1    0    0  501    0  0.00000000000E+00  0.00000000000E+00  0.16767769782E+04  0.16767769782E+04  0.50400001928E-02 0. -1.
       -1   -1    0    0    0  501  0.00000000000E+00  0.00000000000E+00 -0.15241158258E+04  0.15241158258E+04  0.50400001928E-02 0.  1.
    10030    2    1    2    0    0  0.00000000000E+00  0.00000000000E+00  0.15266115241E+03  0.32008928040E+04  0.31972502741E+04 0.  0.
        3    1    3    3  502    0 -0.54030480165E+03 -0.82984204061E+03  0.13327644388E+04  0.16603698837E+04  0.10100000352E+00 0. -1.
       -3    1    3    3    0  502  0.54030480165E+03  0.82984204061E+03 -0.11801032864E+04  0.15405229203E+04  0.10100000352E+00 0.  1.
</event>
<event>
 5   0  0.1288096E-07  0.3199704E+04  0.7818609E-02  0.8188895E-01
       -1   -1    0    0    0  501  0.00000000000E+00  0.00000000000E+00  0.22236485327E+04  0.22236485328E+04  0.50400001928E-02 0. -1.
        1   -1    0    0  501    0  0.00000000000E+00  0.00000000000E+00 -0.11510478220E+04  0.11510478220E+04  0.50400001928E-02 0.  1.
    10030    2    1    2    0    0  0.00000000000E+00  0.00000000000E+00  0.10726007108E+04  0.33746963547E+04  0.31997036116E+04 0.  0.
        2    1    3    3  502    0  0.12080035814E+04 -0.92471950738E+03  0.14098723058E+02  0.15213735879E+04  0.25500000920E-02 0.  1.
       -2    1    3    3    0  502 -0.12080035814E+04  0.92471950738E+03  0.10585019877E+04  0.18533227668E+04  0.25500000920E-02 0. -1.
</event>
<event>
 5   0  0.1317293E-07  0.3197801E+04  0.7818609E-02  0.8189398E-01
       -1   -1    0    0    0  501  0.00000000000E+00  0.00000000000E+00  0.13655073006E+04  0.13655073006E+04  0.50400001928E-02 0.  1.
        1   -1    0    0  501    0  0.00000000000E+00  0.00000000000E+00 -0.18721853318E+04  0.18721853318E+04  0.50400001928E-02 0. -1.
    10030    2    1    2    0    0  0.00000000000E+00  0.00000000000E+00 -0.50667803116E+03  0.32376926324E+04  0.31978009561E+04 0.  0.
        1    1    3    3  502    0 -0.14427515699E+04  0.45435988669E+03  0.27130242664E+03  0.15367433116E+04  0.50400001928E-02 0.  1.
       -1    1    3    3    0  502  0.14427515699E+04 -0.45435988669E+03 -0.77798045780E+03  0.17009493208E+04  0.50400001928E-02 0. -1.
</event>
<event>
 5   0  0.3750285E-07  0.3195166E+04  0.7818609E-02  0.8190095E-01
       -2   -1    0    0    0  501  0.00000000000E+00  0.00000000000E+00  0.15433412716E+04  0.15433412716E+04  0.25500000920E-02 0.  1.
        2   -1    0    0  501    0  0.00000000000E+00  0.00000000000E+00 -0.16537315164E+04  0.16537315164E+04  0.25500000920E-02 0. -1.
    10030    2    1    2    0    0  0.00000000000E+00  0.00000000000E+00 -0.11039024482E+03  0.31970727880E+04  0.31951664129E+04 0.  0.
        1    1    3    3  502    0 -0.52008556124E+03 -0.15019213265E+04 -0.21658438011E+03  0.16041089289E+04  0.50400001928E-02 0. -1.
       -1    1    3    3    0  502  0.52008556124E+03  0.15019213265E+04  0.10619413529E+03  0.15929638591E+04  0.50400001928E-02 0.  1.
</event>
<event>
 5   0  0.1365455E-07  0.3200713E+04  0.7818609E-02  0.8188629E-01
        1   -1    0    0  501    0  0.00000000000E+00  0.00000000000E+00  0.19773559361E+04  0.19773559361E+04  0.50400001928E-02 0. -1.
       -1   -1    0    0    0  501  0.00000000000E+00  0.00000000000E+00 -0.12952354084E+04  0.12952354084E+04  0.50400001928E-02 0.  1.
    10030    2    1    2    0    0  0.00000000000E+00  0.00000000000E+00  0.68212052765E+03  0.32725913445E+04  0.32007133102E+04 0.  0.
        3    1    3    3  502    0 -0.97416856407E+03 -0.71195165989E+03 -0.73386332311E+03  0.14122446475E+04  0.10100000352E+00 0.  1.
       -3    1    3    3    0  502  0.97416856407E+03  0.71195165989E+03  0.14159838508E+04  0.18603466970E+04  0.10100000352E+00 0. -1.
</event>
<event>
 5   0  0.3858721E-07  0.3197214E+04  0.7818609E-02  0.8189553E-01
       -2   -1    0    0    0  501  0.00000000000E+00  0.00000000000E+00  0.12723350919E+04  0.12723350919E+04  0.25500000920E-02 0.  1.
        2   -1    0    0  501    0  0.00000000000E+00  0.00000000000E+00 -0.20085464955E+04  0.20085464955E+04  0.25500000920E-02 0. -1.
    10030    2    1    2    0    0  0.00000000000E+00  0.00000000000E+00 -0.73621140363E+03  0.32808815874E+04  0.31972139059E+04 0.  0.
        2    1    3    3  502    0  0.95083512555E+03 -0.11738417744E+04  0.16860345237E+03  0.15200062735E+04  0.25500000920E-02 0. -1.
       -2    1    3    3    0  502 -0.95083512555E+03  0.11738417744E+04 -0.90481485600E+03  0.17608753139E+04  0.25500000920E-02 0.  1.
</event>
<event>
 5   0  0.1277374E-07  0.3199477E+04  0.7818609E-02  0.8188955E-01
        1   -1    0    0  501    0  0.00000000000E+00  0.00000000000E+00  0.23021946224E+04  0.23021946224E+04  0.50400001928E-02 0.  1.
       -1   -1    0    0    0  501  0.00000000000E+00  0.00000000000E+00 -0.11116190595E+04  0.11116190595E+04  0.50400001928E-02 0. -1.
    10030    2    1    2    0    0  0.00000000000E+00  0.00000000000E+00  0.11905755629E+04  0.34138136820E+04  0.31994770954E+04 0.  0.
        5    1    3    3  502    0  0.70194001255E+03 -0.18459286080E+03 -0.92581913924E+03  0.11764172194E+04  0.46999998093E+01 0. -1.
       -5    1    3    3    0  502 -0.70194001255E+03  0.18459286080E+03  0.21163947021E+04  0.22373964626E+04  0.46999998093E+01 0.  1.
</event>
<event>
 5   0  0.3830207E-07  0.3197307E+04  0.7818609E-02  0.8189529E-01
        2   -1    0    0  501    0  0.00000000000E+00  0.00000000000E+00  0.19551851055E+04  0.19551851055E+04  0.25500000920E-02 0.  1.
       -2   -1    0    0    0  501  0.00000000000E+00  0.00000000000E+00 -0.13071363435E+04  0.13071363435E+04  0.25500000920E-02 0. -1.
    10030    2    1    2    0    0  0.00000000000E+00  0.00000000000E+00  0.64804876196E+03  0.32623214490E+04  0.31973073107E+04 0.  0.
        4    1    3    3  502    0  0.11305896650E+03 -0.70195903301E+03 -0.11369297316E+04  0.13409472925E+04  0.12699999809E+01 0. -1.
       -4    1    3    3    0  502 -0.11305896650E+03  0.70195903301E+03  0.17849784935E+04  0.19213741565E+04  0.12699999809E+01 0.  1.
</event>
<event>
 5   0  0.3750285E-07  0.3200215E+04  0.7818609E-02  0.8188760E-01
        2   -1    0    0  501    0  0.00000000000E+00  0.00000000000E+00  0.17583914674E+04  0.17583914674E+04  0.25500000920E-02 0. -1.
       -2   -1    0    0    0  501  0.00000000000E+00  0.00000000000E+00 -0.14560716770E+04  0.14560716770E+04  0.25500000920E-02 0.  1.
    10030    2    1    2    0    0  0.00000000000E+00  0.00000000000E+00  0.30231979050E+03  0.32144631444E+04  0.32002150007E+04 0.  0.
        1    1    3    3  502    0 -0.14234769143E+04  0.65828215516E+03  0.46994033207E+03  0.16372128258E+04  0.50400001928E-02 0. -1.
       -1    1    3    3    0  502  0.14234769143E+04 -0.65828215516E+03 -0.16762054157E+03  0.15772503186E+04  0.50400001928E-02 0.  1.
</event>
<event>
 5   0  0.3750285E-07  0.3200942E+04  0.7818609E-02  0.8188568E-01
       -2   -1    0    0    0  501  0.00000000000E+00  0.00000000000E+00  0.16897759567E+04  0.16897759567E+04  0.25500000920E-02 0.  1.
        2   -1    0    0  501    0  0.00000000000E+00  0.00000000000E+00 -0.15158858404E+04  0.15158858404E+04  0.25500000920E-02 0. -1.
    10030    2    1    2    0    0  0.00000000000E+00  0.00000000000E+00  0.17389011621E+03  0.32056617971E+04  0.32009420152E+04 0.  0.
        1    1    3    3  502    0 -0.13114874556E+04 -0.85665316179E+02  0.10016205904E+04  0.16524471852E+04  0.50400001928E-02 0. -1.
       -1    1    3    3    0  502  0.13114874556E+04  0.85665316179E+02 -0.82773047419E+03  0.15532146119E+04  0.50400001928E-02 0.  1.
</event>
<event>
 5   0  0.1270948E-07  0.3202000E+04  0.7818609E-02  0.8188289E-01
        1   -1    0    0  501    0  0.00000000000E+00  0.00000000000E+00  0.10073519567E+04  0.10073519567E+04  0.50400001928E-02 0. -1.
       -1   -1    0    0    0  501  0.00000000000E+00  0.00000000000E+00 -0.25444943943E+04  0.25444943943E+04  0.50400001928E-02 0.  1.
    10030    2    1    2    0    0  0.00000000000E+00  0.00000000000E+00 -0.15371424376E+04  0.35518463510E+04  0.32020002542E+04 0.  0.
        4    1    3    3  502    0 -0.17991115431E+03 -0.55863186074E+03  0.88372606527E+03  0.10608538781E+04  0.12699999809E+01 0. -1.
       -4    1    3    3    0  502  0.17991115431E+03  0.55863186074E+03 -0.24208685029E+04  0.24909924730E+04  0.12699999809E+01 0.  1.
</event>
<event>
 5   0  0.3830207E-07  0.3202171E+04  0.7818609E-02  0.8188244E-01
        2   -1    0    0  501    0  0.00000000000E+00  0.00000000000E+00  0.28145470712E+04  0.28145470712E+04  0.25500000920E-02 0. -1.
       -2   -1    0    0    0  501  0.00000000000E+00  0.00000000000E+00 -0.91079468695E+03  0.91079468695E+03  0.25500000920E-02 0.  1.
    10030    2    1    2    0    0  0.00000000000E+00  0.00000000000E+00  0.19037523843E+04  0.37253417582E+04  0.32021708378E+04 0.  0.
        4    1    3    3  502    0  0.12519074275E+04 -0.94681015056E+03  0.13193114000E+04  0.20504404042E+04  0.12699999809E+01 0.  1.
       -4    1    3    3    0  502 -0.12519074275E+04  0.94681015056E+03  0.58444098427E+03  0.16749013539E+04  0.12699999809E+01 0. -1.
</event>
<event>
 5   0  0.3830207E-07  0.3204951E+04  0.7818609E-02  0.8187511E-01
        2   -1    0    0  501    0  0.00000000000E+00  0.00000000000E+00  0.20167610475E+04  0.20167610475E+04  0.25500000920E-02 0. -1.
       -2   -1    0    0    0  501  0.00000000000E+00  0.00000000000E+00 -0.12732931803E+04  0.12732931804E+04  0.25500000920E-02 0.  1.
    10030    2    1    2    0    0  0.00000000000E+00  0.00000000000E+00  0.74346786710E+03  0.32900542278E+04  0.32049512247E+04 0.  0.
        4    1    3    3  502    0  0.25469207395E+03 -0.50604195966E+03  0.19105305796E+04  0.19927556865E+04  0.12699999809E+01 0. -1.
       -4    1    3    3    0  502 -0.25469207395E+03  0.50604195966E+03 -0.11670627125E+04  0.12972985413E+04  0.12699999809E+01 0.  1.
</event>
<event>
 5   0  0.1288096E-07  0.3199216E+04  0.7818609E-02  0.8189024E-01
        1   -1    0    0  501    0  0.00000000000E+00  0.00000000000E+00  0.15570023332E+04  0.15570023332E+04  0.50400001928E-02 0. -1.
       -1   -1    0    0    0  501  0.00000000000E+00  0.00000000000E+00 -0.16433799450E+04  0.16433799450E+04  0.50400001928E-02 0.  1.
    10030    2    1    2    0    0  0.00000000000E+00  0.00000000000E+00 -0.86377611766E+02  0.32003822782E+04  0.31992164095E+04 0.  0.
        2    1    3    3  502    0 -0.73448733516E+03  0.14205167050E+04 -0.80713191705E+02  0.16012039140E+04  0.25500000920E-02 0.  1.
       -2    1    3    3    0  502  0.73448733516E+03 -0.14205167050E+04 -0.56644200608E+01  0.15991783642E+04  0.25500000920E-02 0. -1.
</event>
<event>
 5   0  0.3750285E-07  0.3199668E+04  0.7818609E-02  0.8188905E-01
        2   -1    0    0  501    0  0.00000000000E+00  0.00000000000E+00  0.20611832268E+04  0.20611832268E+04  0.25500000920E-02 0. -1.
       -2   -1    0    0    0  501  0.00000000000E+00  0.00000000000E+00 -0.12417477451E+04  0.12417477451E+04  0.25500000920E-02 0.  1.
    10030    2    1    2    0    0  0.00000000000E+00  0.00000000000E+00  0.81943548177E+03  0.33029309719E+04  0.31996684979E+04 0.  0.
        1    1    3    3  502    0  0.37017915116E+03 -0.25368444960E+03 -0.11754451314E+04  0.12581969881E+04  0.50400001928E-02 0.  1.
       -1    1    3    3    0  502 -0.37017915116E+03  0.25368444960E+03  0.19948806131E+04  0.20447339838E+04  0.50400001928E-02 0. -1.
</event>
<event>
 5   0  0.1277374E-07  0.3198620E+04  0.7818609E-02  0.8189182E-01
        1   -1    0    0  501    0  0.00000000000E+00  0.00000000000E+00  0.15280270373E+04  0.15280270373E+04  0.50400001928E-02 0. -1.
       -1   -1    0    0    0  501  0.00000000000E+00  0.00000000000E+00 -0.16739182001E+04  0.16739182001E+04  0.50400001928E-02 0.  1.
    10030    2    1    2    0    0  0.00000000000E+00  0.00000000000E+00 -0.14589116279E+03  0.32019452374E+04  0.31986198699E+04 0.  0.
        5    1    3    3  502    0 -0.93288454367E+03  0.31687498045E+03 -0.13340516519E+04  0.16584327617E+04  0.46999998093E+01 0.  1.
       -5    1    3    3    0  502  0.93288454367E+03 -0.31687498045E+03  0.11881604891E+04  0.15435124758E+04  0.46999998093E+01 0. -1.
</event>
<event>
 5   0  0.1277374E-07  0.3204865E+04  0.7818609E-02  0.8187534E-01
       -1   -1    0    0    0  501  0.00000000000E+00  0.00000000000E+00  0.16066660434E+04  0.16066660434E+04  0.50400001928E-02 0. -1.
        1   -1    0    0  501    0  0.00000000000E+00  0.00000000000E+00 -0.15982096146E+04  0.15982096146E+04  0.50400001928E-02 0.  1.
    10030    2    1    2    0    0  0.00000000000E+00  0.00000000000E+00  0.84564288323E+01  0.32048756580E+04  0.32048645013E+04 0.  0.
        5    1    3    3  502    0  0.14178779953E+04 -0.60787497400E+03 -0.42922113946E+03  0.16012941236E+04  0.46999998093E+01 0. -1.
       -5    1    3    3    0  502 -0.14178779953E+04  0.60787497400E+03  0.43767756829E+03  0.16035815344E+04  0.46999998093E+01 0.  1.
</event>
<event>
 5   0  0.1277374E-07  0.3196782E+04  0.7818609E-02  0.8189668E-01
       -1   -1    0    0    0  501  0.00000000000E+00  0.00000000000E+00  0.20929221946E+04  0.20929221946E+04  0.50400001928E-02 0.  1.
        1   -1    0    0  501    0  0.00000000000E+00  0.00000000000E+00 -0.12207112051E+04  0.12207112052E+04  0.50400001928E-02 0. -1.
    10030    2    1    2    0    0  0.00000000000E+00  0.00000000000E+00  0.87221098947E+03  0.33136333998E+04  0.31967818659E+04 0.  0.
        5    1    3    3  502    0 -0.12409937728E+04  0.89883022854E+03  0.90756064235E+03  0.17809126125E+04  0.46999998093E+01 0.  1.
       -5    1    3    3    0  502  0.12409937728E+04 -0.89883022854E+03 -0.35349652884E+02  0.15327207873E+04  0.46999998093E+01 0. -1.
</event>
<event>
 5   0  0.1288096E-07  0.3189841E+04  0.7818609E-02  0.8191505E-01
       -1   -1    0    0    0  501  0.00000000000E+00  0.00000000000E+00  0.16290135232E+04  0.16290135232E+04  0.50400001928E-02 0. -1.
        1   -1    0    0  501    0  0.00000000000E+00  0.00000000000E+00 -0.15615407104E+04  0.15615407104E+04  0.50400001928E-02 0.  1.
    10030    2    1    2    0    0  0.00000000000E+00  0.00000000000E+00  0.67472812764E+02  0.31905542337E+04  0.31898407072E+04 0.  0.
        2    1    3    3  502    0 -0.14223896543E+02  0.15754800037E+04  0.28164537951E+03  0.16005198159E+04  0.25500000920E-02 0. -1.
       -2    1    3    3    0  502  0.14223896543E+02 -0.15754800037E+04 -0.21417256675E+03  0.15900344178E+04  0.25500000920E-02 0.  1.
</event>
<event>
 5   0  0.3942564E-07  0.3197355E+04  0.7818609E-02  0.8189516E-01
       -2   -1    0    0    0  501  0.00000000000E+00  0.00000000000E+00  0.31100891973E+04  0.31100891973E+04  0.25500000920E-02 0. -1.
        2   -1    0    0  501    0  0.00000000000E+00  0.00000000000E+00 -0.82176737591E+03  0.82176737592E+03  0.25500000920E-02 0.  1.
    10030    2    1    2    0    0  0.00000000000E+00  0.00000000000E+00  0.22883218214E+04  0.39318565732E+04  0.31973550560E+04 0.  0.
        3    1    3    3  502    0 -0.64928251874E+03  0.14604330770E+04  0.10991916412E+04  0.19397563857E+04  0.10100000352E+00 0. -1.
       -3    1    3    3    0  502  0.64928251874E+03 -0.14604330770E+04  0.11891301802E+04  0.19921001875E+04  0.10100000352E+00 0.  1.
</event>
<event>
 5   0  0.3764056E-07  0.3134405E+04  0.7818609E-02  0.8206359E-01
       -2   -1    0    0    0  501  0.00000000000E+00  0.00000000000E+00  0.83818658510E+03  0.83818658510E+03  0.25500000920E-02 0. -1.
        2   -1    0    0  501    0  0.00000000000E+00  0.00000000000E+00 -0.29302828821E+04  0.29302828821E+04  0.25500000920E-02 0.  1.
    10030    2    1    2    0    0  0.00000000000E+00  0.00000000000E+00 -0.20920962970E+04  0.37684694672E+04  0.31344050806E+04 0.  0.
        5    1    3    3  502    0 -0.13485974355E+04 -0.78147898437E+03 -0.84967570704E+03  0.17752169848E+04  0.46999998093E+01 0.  1.
       -5    1    3    3    0  502  0.13485974355E+04  0.78147898437E+03 -0.12424205899E+04  0.19932524823E+04  0.46999998093E+01 0. -1.
</event>
<event>
 5   0  0.3858721E-07  0.3203005E+04  0.7818609E-02  0.8188024E-01
        2   -1    0    0  501    0  0.00000000000E+00  0.00000000000E+00  0.20348879511E+04  0.20348879511E+04  0.25500000920E-02 0.  1.
       -2   -1    0    0    0  501  0.00000000000E+00  0.00000000000E+00 -0.12604185294E+04  0.12604185294E+04  0.25500000920E-02 0. -1.
    10030    2    1    2    0    0  0.00000000000E+00  0.00000000000E+00  0.77446942178E+03  0.32953064805E+04  0.32030051382E+04 0.  0.
        2    1    3    3  502    0  0.41490155212E+03  0.12997134394E+04  0.12501002246E+04  0.18504455934E+04  0.25500000920E-02 0.  1.
       -2    1    3    3    0  502 -0.41490155212E+03 -0.12997134394E+04 -0.47563080280E+03  0.14448608871E+04  0.25500000920E-02 0. -1.
</event>
<event>
 5   0  0.1270948E-07  0.3197255E+04  0.7818609E-02  0.8189542E-01
        1   -1    0    0  501    0  0.00000000000E+00  0.00000000000E+00  0.27702806903E+04  0.27702806903E+04  0.50400001928E-02 0. -1.
       -1   -1    0    0    0  501  0.00000000000E+00  0.00000000000E+00 -0.92250952958E+03  0.92250952960E+03  0.50400001928E-02 0.  1.
    10030    2    1    2    0    0  0.00000000000E+00  0.00000000000E+00  0.18477711607E+04  0.36927902199E+04  0.31972552832E+04 0.  0.
        4    1    3    3  502    0 -0.11268409214E+04  0.68529506191E+03 -0.11957968470E+03  0.13242736492E+04  0.12699999809E+01 0.  1.
       -4    1    3    3    0  502  0.11268409214E+04 -0.68529506191E+03  0.19673508454E+04  0.23685165707E+04  0.12699999809E+01 0. -1.
</event>
<event>
 5   0  0.3750285E-07  0.3199598E+04  0.7818609E-02  0.8188923E-01
        2   -1    0    0  501    0  0.00000000000E+00  0.00000000000E+00  0.30702496431E+04  0.30702496431E+04  0.25500000920E-02 0.  1.
       -2   -1    0    0    0  501  0.00000000000E+00  0.00000000000E+00 -0.83359871508E+03  0.83359871508E+03  0.25500000920E-02 0. -1.
    10030    2    1    2    0    0  0.00000000000E+00  0.00000000000E+00  0.22366509280E+04  0.39038483581E+04  0.31995975731E+04 0.  0.
        1    1    3    3  502    0 -0.37267296586E+03  0.47353388617E+03 -0.68983575655E+03  0.91596552985E+03  0.50400001928E-02 0. -1.
       -1    1    3    3    0  502  0.37267296586E+03 -0.47353388617E+03  0.29264866845E+04  0.29878828283E+04  0.50400001928E-02 0.  1.
</event>
<event>
 5   0  0.1288096E-07  0.3199509E+04  0.7818609E-02  0.8188947E-01
        1   -1    0    0  501    0  0.00000000000E+00  0.00000000000E+00  0.21915975652E+04  0.21915975652E+04  0.50400001928E-02 0.  1.
       -1   -1    0    0    0  501  0.00000000000E+00  0.00000000000E+00 -0.11677393121E+04  0.11677393121E+04  0.50400001928E-02 0. -1.
    10030    2    1    2    0    0  0.00000000000E+00  0.00000000000E+00  0.10238582531E+04  0.33593368773E+04  0.31995091081E+04 0.  0.
        2    1    3    3  502    0  0.10561295546E+04 -0.20149060979E+03 -0.73181489267E+03  0.13006002995E+04  0.25500000920E-02 0. -1.
       -2    1    3    3    0  502 -0.10561295546E+04  0.20149060979E+03  0.17556731458E+04  0.20587365778E+04  0.25500000920E-02 0.  1.
</event>
<event>
 5   0  0.1317293E-07  0.3193994E+04  0.7818609E-02  0.8190405E-01
        1   -1    0    0  501    0  0.00000000000E+00  0.00000000000E+00  0.16711671037E+04  0.16711671037E+04  0.50400001928E-02 0. -1.
       -1   -1    0    0    0  501  0.00000000000E+00  0.00000000000E+00 -0.15261184368E+04  0.15261184369E+04  0.50400001928E-02 0.  1.
    10030    2    1    2    0    0  0.00000000000E+00  0.00000000000E+00  0.14504866690E+03  0.31972855406E+04  0.31939936932E+04 0.  0.
        1    1    3    3  502    0  0.11160370944E+04 -0.93711409529E+03 -0.58135429153E+03  0.15689787876E+04  0.50400001928E-02 0.  1.
       -1    1    3    3    0  502 -0.11160370944E+04  0.93711409529E+03  0.72640295843E+03  0.16283067530E+04  0.50400001928E-02 0. -1.
</event>
<event>
 5   0  0.1365455E-07  0.3197484E+04  0.7818609E-02  0.8189482E-01
       -1   -1    0    0    0  501  0.00000000000E+00  0.00000000000E+00  0.10153479171E+04  0.10153479171E+04  0.50400001928E-02 0. -1.
        1   -1    0    0  501    0  0.00000000000E+00  0.00000000000E+00 -0.25173406326E+04  0.25173406326E+04  0.50400001928E-02 0.  1.
    10030    2    1    2    0    0  0.00000000000E+00  0.00000000000E+00 -0.15019927156E+04  0.35326885497E+04  0.31974843661E+04 0.  0.
        3    1    3    3  502    0  0.97262247367E+03  0.10060070832E+04 -0.16053206539E+04  0.21295772209E+04  0.10100000352E+00 0.  1.
       -3    1    3    3    0  502 -0.97262247367E+03 -0.10060070832E+04  0.10332793836E+03  0.14031113288E+04  0.10100000352E+00 0. -1.
</event>
<event>
 5   0  0.1288096E-07  0.3248601E+04  0.7818609E-02  0.8176098E-01
        1   -1    0    0  501    0  0.00000000000E+00  0.00000000000E+00  0.31250009084E+04  0.31250009084E+04  0.50400001928E-02 0. -1.
       -1   -1    0    0    0  501  0.00000000000E+00  0.00000000000E+00 -0.84427226840E+03  0.84427226841E+03  0.50400001928E-02 0.  1.
    10030    2    1    2    0    0  0.00000000000E+00  0.00000000000E+00  0.22807286400E+04  0.39692731768E+04  0.32486006869E+04 0.  0.
        2    1    3    3  502    0  0.16421974875E+02  0.15288955036E+04  0.47050965943E+03  0.15997407546E+04  0.25500000920E-02 0.  1.
       -2    1    3    3    0  502 -0.16421974875E+02 -0.15288955036E+04  0.18102189806E+04  0.23695324222E+04  0.25500000920E-02 0. -1.
</event>
<event>
 5   0  0.1365455E-07  0.3197168E+04  0.7818609E-02  0.8189566E-01
       -1   -1    0    0    0  501  0.00000000000E+00  0.00000000000E+00  0.15212476335E+04  0.15212476335E+04  0.50400001928E-02 0. -1.
        1   -1    0    0  501    0  0.00000000000E+00  0.00000000000E+00 -0.16798519290E+04  0.16798519290E+04  0.50400001928E-02 0.  1.
    10030    2    1    2    0    0  0.00000000000E+00  0.00000000000E+00 -0.15860429551E+03  0.32010995624E+04  0.31971679790E+04 0.  0.
        3    1    3    3  502    0 -0.10754318885E+04 -0.11103131909E+04 -0.48738356871E+03  0.16207689169E+04  0.10100000352E+00 0.  1.
       -3    1    3    3    0  502  0.10754318885E+04  0.11103131909E+04  0.32877927321E+03  0.15803306456E+04  0.10100000352E+00 0. -1.
</event>
<event>
 5   0  0.1317293E-07  0.3198504E+04  0.7818609E-02  0.8189212E-01
        1   -1    0    0  501    0  0.00000000000E+00  0.00000000000E+00  0.22870035395E+04  0.22870035395E+04  0.50400001928E-02 0.  1.
       -1   -1    0    0    0  501  0.00000000000E+00  0.00000000000E+00 -0.11183223533E+04  0.11183223533E+04  0.50400001928E-02 0. -1.
    10030    2    1    2    0    0  0.00000000000E+00  0.00000000000E+00  0.11686811862E+04  0.34053258928E+04  0.31985041381E+04 0.  0.
        1    1    3    3  502    0  0.45660592276E+03 -0.15126456718E+04  0.84733858475E+03  0.17929217981E+04  0.50400001928E-02 0.  1.
       -1    1    3    3    0  502 -0.45660592276E+03  0.15126456718E+04  0.32134260145E+03  0.16124040947E+04  0.50400001928E-02 0. -1.
</event>
<event>
 5   0  0.1288096E-07  0.3198292E+04  0.7818609E-02  0.8189268E-01
       -1   -1    0    0    0  501  0.00000000000E+00  0.00000000000E+00  0.83107822218E+03  0.83107822220E+03  0.50400001928E-02 0.  1.
        1   -1    0    0  501    0  0.00000000000E+00  0.00000000000E+00 -0.30770486038E+04  0.30770486038E+04  0.50400001928E-02 0. -1.
    10030    2    1    2    0    0  0.00000000000E+00  0.00000000000E+00 -0.22459703816E+04  0.39081268260E+04  0.31982920963E+04 0.  0.
        2    1    3    3  502    0 -0.49437837217E+03 -0.15116817788E+04 -0.91970053307E+03  0.18372372861E+04  0.25500000920E-02 0.  1.
       -2    1    3    3    0  502  0.49437837217E+03  0.15116817788E+04 -0.13262698485E+04  0.20708895398E+04  0.25500000920E-02 0. -1.
</event>
<event>
 5   0  0.3858721E-07  0.3201233E+04  0.7818609E-02  0.8188492E-01
        2   -1    0    0  501    0  0.00000000000E+00  0.00000000000E+00  0.24546814654E+04  0.24546814654E+04  0.25500000920E-02 0. -1.
       -2   -1    0    0    0  501  0.00000000000E+00  0.00000000000E+00 -0.10437090023E+04  0.10437090023E+04  0.25500000920E-02 0.  1.
    10030    2    1    2    0    0  0.00000000000E+00  0.00000000000E+00  0.14109724631E+04  0.34983904678E+04  0.32012329770E+04 0.  0.
        2    1    3    3  502    0  0.60092161427E+03  0.14709502166E+04  0.49478945305E+03  0.16642169116E+04  0.25500000920E-02 0. -1.
       -2    1    3    3    0  502 -0.60092161427E+03 -0.14709502166E+04  0.91618301003E+03  0.18341735561E+04  0.25500000920E-02 0.  1.
</event>
<event>
 5   0  0.1288096E-07  0.3199166E+04  0.7818609E-02  0.8189037E-01
       -1   -1    0    0    0  501  0.00000000000E+00  0.00000000000E+00  0.16430730260E+04  0.16430730260E+04  0.50400001928E-02 0. -1.
        1   -1    0    0  501    0  0.00000000000E+00  0.00000000000E+00 -0.15572442226E+04  0.15572442226E+04  0.50400001928E-02 0.  1.
    10030    2    1    2    0    0  0.00000000000E+00  0.00000000000E+00  0.85828803392E+02  0.32003172486E+04  0.31991661270E+04 0.  0.
        2    1    3    3  502    0 -0.14285837995E+04  0.19898870006E+03 -0.64886736150E+03  0.15816058383E+04  0.25500000920E-02 0.  1.
       -2    1    3    3    0  502  0.14285837995E+04 -0.19898870006E+03  0.73469616489E+03  0.16187114103E+04  0.25500000920E-02 0. -1.
</event>
<event>
 5   0  0.1277374E-07  0.3197503E+04  0.7818609E-02  0.8189477E-01
        1   -1    0    0  501    0  0.00000000000E+00  0.00000000000E+00  0.13435568652E+04  0.13435568652E+04  0.50400001928E-02 0. -1.
       -1   -1    0    0    0  501  0.00000000000E+00  0.00000000000E+00 -0.19024173974E+04  0.19024173974E+04  0.50400001928E-02 0.  1.
    10030    2    1    2    0    0  0.00000000000E+00  0.00000000000E+00 -0.55886053220E+03  0.32459742626E+04  0.31975027473E+04 0.  0.
        5    1    3    3  502    0 -0.10669307188E+04 -0.10756689457E+04  0.23877744757E+03  0.15337671267E+04  0.46999998093E+01 0. -1.
       -5    1    3    3    0  502  0.10669307188E+04  0.10756689457E+04 -0.79763797977E+03  0.17122071359E+04  0.46999998093E+01 0.  1.
</event>
<event>
 5   0  0.3942564E-07  0.3204654E+04  0.7818609E-02  0.8187589E-01
        2   -1    0    0  501    0  0.00000000000E+00  0.00000000000E+00  0.21431381042E+04  0.21431381042E+04  0.25500000920E-02 0.  1.
       -2   -1    0    0    0  501  0.00000000000E+00  0.00000000000E+00 -0.11979872424E+04  0.11979872424E+04  0.25500000920E-02 0. -1.
    10030    2    1    2    0    0  0.00000000000E+00  0.00000000000E+00  0.94515086177E+03  0.33411253466E+04  0.32046541827E+04 0.  0.
        3    1    3    3  502    0  0.61325322235E+03 -0.10839087034E+04 -0.57858350828E+03  0.13732066408E+04  0.10100000352E+00 0. -1.
       -3    1    3    3    0  502 -0.61325322235E+03  0.10839087034E+04  0.15237343700E+04  0.19679187058E+04  0.10100000352E+00 0.  1.
</event>
<event>
 5   0  0.3942564E-07  0.3209657E+04  0.7818609E-02  0.8186271E-01
        2   -1    0    0  501    0  0.00000000000E+00  0.00000000000E+00  0.21998338511E+04  0.21998338511E+04  0.25500000920E-02 0. -1.
       -2   -1    0    0    0  501  0.00000000000E+00  0.00000000000E+00 -0.11707585662E+04  0.11707585662E+04  0.25500000920E-02 0.  1.
    10030    2    1    2    0    0  0.00000000000E+00  0.00000000000E+00  0.10290752849E+04  0.33705924173E+04  0.32096568822E+04 0.  0.
        3    1    3    3  502    0  0.14417305549E+03 -0.56040042578E+03 -0.10573939960E+04  0.12053698935E+04  0.10100000352E+00 0.  1.
       -3    1    3    3    0  502 -0.14417305549E+03  0.56040042578E+03  0.20864692809E+04  0.21652225238E+04  0.10100000352E+00 0. -1.
</event>
<event>
 5   0  0.3830207E-07  0.3183665E+04  0.7818609E-02  0.8193145E-01
       -2   -1    0    0    0  501  0.00000000000E+00  0.00000000000E+00  0.20237036285E+04  0.20237036285E+04  0.25500000920E-02 0.  1.
        2   -1    0    0  501    0  0.00000000000E+00  0.00000000000E+00 -0.12521252222E+04  0.12521252222E+04  0.25500000920E-02 0. -1.
    10030    2    1    2    0    0  0.00000000000E+00  0.00000000000E+00  0.77157840629E+03  0.32758288506E+04  0.31836647785E+04 0.  0.
        4    1    3    3  502    0 -0.57066134635E+03 -0.12677214795E+04  0.11835775493E+04  0.18258229788E+04  0.12699999809E+01 0.  1.
       -4    1    3    3    0  502  0.57066134635E+03  0.12677214795E+04 -0.41199914296E+03  0.14500058719E+04  0.12699999809E+01 0. -1.
</event>
<event>
 5   0  0.3942564E-07  0.3198918E+04  0.7818609E-02  0.8189103E-01
        2   -1    0    0  501    0  0.00000000000E+00  0.00000000000E+00  0.15942534921E+04  0.15942534922E+04  0.25500000920E-02 0. -1.
       -2   -1    0    0    0  501  0.00000000000E+00  0.00000000000E+00 -0.16046813767E+04  0.16046813767E+04  0.25500000920E-02 0.  1.
    10030    2    1    2    0    0  0.00000000000E+00  0.00000000000E+00 -0.10427884562E+02  0.31989348689E+04  0.31989178724E+04 0.  0.
        3    1    3    3  502    0 -0.36580231160E+03  0.94223498909E+03 -0.12448377165E+04  0.16035083587E+04  0.10100000352E+00 0.  1.
       -3    1    3    3    0  502  0.36580231160E+03 -0.94223498909E+03  0.12344098320E+04  0.15954265101E+04  0.10100000352E+00 0. -1.
</event>
<event>
 5   0  0.3750285E-07  0.3215516E+04  0.7818609E-02  0.8184731E-01
        2   -1    0    0  501    0  0.00000000000E+00  0.00000000000E+00  0.18047266790E+04  0.18047266790E+04  0.25500000920E-02 0. -1.
       -2   -1    0    0    0  501  0.00000000000E+00  0.00000000000E+00 -0.14322869756E+04  0.14322869756E+04  0.25500000920E-02 0.  1.
    10030    2    1    2    0    0  0.00000000000E+00  0.00000000000E+00  0.37243970335E+03  0.32370136546E+04  0.32155164543E+04 0.  0.
        1    1    3    3  502    0 -0.12993792953E+04  0.18743023227E+03  0.11205247673E+04  0.17260047506E+04  0.50400001928E-02 0. -1.
       -1    1    3    3    0  502  0.12993792953E+04 -0.18743023227E+03 -0.74808506396E+03  0.15110089040E+04  0.50400001928E-02 0.  1.
</event>
<event>
 5   0  0.3764056E-07  0.3199150E+04  0.7818609E-02  0.8189042E-01
        2   -1    0    0  501    0  0.00000000000E+00  0.00000000000E+00  0.17299823486E+04  0.17299823486E+04  0.25500000920E-02 0. -1.
       -2   -1    0    0    0  501  0.00000000000E+00  0.00000000000E+00 -0.14789980882E+04  0.14789980882E+04  0.25500000920E-02 0.  1.
    10030    2    1    2    0    0  0.00000000000E+00  0.00000000000E+00  0.25098426041E+03  0.32089804367E+04  0.31991502535E+04 0.  0.
        5    1    3    3  502    0  0.41586174276E+03  0.93827475159E+03 -0.11051918816E+04  0.15082346249E+04  0.46999998093E+01 0.  1.
       -5    1    3    3    0  502 -0.41586174276E+03 -0.93827475159E+03  0.13561761420E+04  0.17007458119E+04  0.46999998093E+01 0. -1.
</event>
<event>
 5   0  0.3764056E-07  0.3197136E+04  0.7818609E-02  0.8189574E-01
        2   -1    0    0  501    0  0.00000000000E+00  0.00000000000E+00  0.28364427871E+04  0.28364427871E+04  0.25500000920E-02 0. -1.
       -2   -1    0    0    0  501  0.00000000000E+00  0.00000000000E+00 -0.90092407770E+03  0.90092407770E+03  0.25500000920E-02 0.  1.
    10030    2    1    2    0    0  0.00000000000E+00  0.00000000000E+00  0.19355187094E+04  0.37373668648E+04  0.31971359696E+04 0.  0.
        5    1    3    3  502    0  0.13091273843E+04 -0.65758695338E+03  0.22001613398E+03  0.14814399410E+04  0.46999998093E+01 0.  1.
       -5    1    3    3    0  502 -0.13091273843E+04  0.65758695338E+03  0.17155025755E+04  0.22559269239E+04  0.46999998093E+01 0. -1.
</event>
<event>
 5   0  0.1365455E-07  0.3186072E+04  0.7818609E-02  0.8192505E-01
        1   -1    0    0  501    0  0.00000000000E+00  0.00000000000E+00  0.79048828859E+03  0.79048828861E+03  0.50400001928E-02 0.  1.
       -1   -1    0    0    0  501  0.00000000000E+00  0.00000000000E+00 -0.32103748433E+04  0.32103748433E+04  0.50400001928E-02 0. -1.
    10030    2    1    2    0    0  0.00000000000E+00  0.00000000000E+00 -0.24198865547E+04  0.40008631319E+04  0.31860720115E+04 0.  0.
        3    1    3    3  502    0  0.60170619461E+03 -0.71675145365E+03  0.40892344994E+03  0.10212743946E+04  0.10100000352E+00 0.  1.
       -3    1    3    3    0  502 -0.60170619461E+03  0.71675145365E+03 -0.28288100047E+04  0.29795887373E+04  0.10100000352E+00 0. -1.
</event>
<event>
 5   0  0.1317293E-07  0.3222902E+04  0.7818609E-02  0.8182795E-01
        1   -1    0    0  501    0  0.00000000000E+00  0.00000000000E+00  0.18036287341E+04  0.18036287341E+04  0.50400001928E-02 0. -1.
       -1   -1    0    0    0  501  0.00000000000E+00  0.00000000000E+00 -0.14397499919E+04  0.14397499920E+04  0.50400001928E-02 0.  1.
    10030    2    1    2    0    0  0.00000000000E+00  0.00000000000E+00  0.36387874216E+03  0.32433787261E+04  0.32229020807E+04 0.  0.
        1    1    3    3  502    0  0.10987250407E+04  0.66283904021E+03 -0.79904734653E+03  0.15116312283E+04  0.50400001928E-02 0.  1.
       -1    1    3    3    0  502 -0.10987250407E+04 -0.66283904021E+03  0.11629260887E+04  0.17317474978E+04  0.50400001928E-02 0. -1.
</event>
<event>
 5   0  0.1365455E-07  0.3197830E+04  0.7818609E-02  0.8189390E-01
        1   -1    0    0  501    0  0.00000000000E+00  0.00000000000E+00  0.10857424599E+04  0.10857424599E+04  0.50400001928E-02 0.  1.
       -1   -1    0    0    0  501  0.00000000000E+00  0.00000000000E+00 -0.23546374177E+04  0.23546374177E+04  0.50400001928E-02 0. -1.
    10030    2    1    2    0    0  0.00000000000E+00  0.00000000000E+00 -0.12688949578E+04  0.34403798775E+04  0.31978304032E+04 0.  0.
        3    1    3    3  502    0  0.76066270318E+02 -0.17680113580E+02 -0.23525844117E+04  0.23538802196E+04  0.10100000352E+00 0. -1.
       -3    1    3    3    0  502 -0.76066270318E+02  0.17680113580E+02  0.10836894539E+04  0.10864996579E+04  0.10100000352E+00 0.  1.
</event>
<event>
 5   0  0.1317293E-07  0.3198850E+04  0.7818609E-02  0.8189121E-01
       -1   -1    0    0    0  501  0.00000000000E+00  0.00000000000E+00  0.76373673513E+03  0.76373673515E+03  0.50400001928E-02 0.  1.
        1   -1    0    0  501    0  0.00000000000E+00  0.00000000000E+00 -0.33495321342E+04  0.33495321342E+04  0.50400001928E-02 0. -1.
    10030    2    1    2    0    0  0.00000000000E+00  0.00000000000E+00 -0.25857953990E+04  0.41132688693E+04  0.31988502537E+04 0.  0.
        1    1    3    3  502    0  0.13523246979E+04  0.79252814040E+03 -0.17021115324E+04  0.23138856088E+04  0.50400001928E-02 0. -1.
       -1    1    3    3    0  502 -0.13523246979E+04 -0.79252814040E+03 -0.88368386662E+03  0.17993832605E+04  0.50400001928E-02 0.  1.
</event>
<event>
 5   0  0.1270948E-07  0.3168966E+04  0.7818609E-02  0.8197062E-01
       -1   -1    0    0    0  501  0.00000000000E+00  0.00000000000E+00  0.12502087856E+04  0.12502087857E+04  0.50400001928E-02 0. -1.
        1   -1    0    0  501    0  0.00000000000E+00  0.00000000000E+00 -0.20081331770E+04  0.20081331770E+04  0.50400001928E-02 0.  1.
    10030    2    1    2    0    0  0.00000000000E+00  0.00000000000E+00 -0.75792439134E+03  0.32583419626E+04  0.31689655982E+04 0.  0.
        4    1    3    3  502    0  0.13481907055E+04  0.56555863174E+03  0.24909214661E+03  0.14830789779E+04  0.12699999809E+01 0. -1.
       -4    1    3    3    0  502 -0.13481907055E+04 -0.56555863174E+03 -0.10070165380E+04  0.17752629847E+04  0.12699999809E+01 0.  1.
</event>
<event>
 5   0  0.3830207E-07  0.3186699E+04  0.7818609E-02  0.8192339E-01
       -2   -1    0    0    0  501  0.00000000000E+00  0.00000000000E+00  0.20040124992E+04  0.20040124992E+04  0.25500000920E-02 0. -1.
        2   -1    0    0  501    0  0.00000000000E+00  0.00000000000E+00 -0.12668396834E+04  0.12668396834E+04  0.25500000920E-02 0.  1.
    10030    2    1    2    0    0  0.00000000000E+00  0.00000000000E+00  0.73717281579E+03  0.32708521826E+04  0.31866989566E+04 0.  0.
        4    1    3    3  502    0  0.14257864936E+04 -0.48891908310E+03  0.89880514559E+03  0.17549248696E+04  0.12699999809E+01 0. -1.
       -4    1    3    3    0  502 -0.14257864936E+04  0.48891908310E+03 -0.16163232980E+03  0.15159273130E+04  0.12699999809E+01 0.  1.
</event>
<event>
 5   0  0.3764056E-07  0.3206370E+04  0.7818609E-02  0.8187137E-01
       -2   -1    0    0    0  501  0.00000000000E+00  0.00000000000E+00  0.24762607056E+04  0.24762607056E+04  0.25500000920E-02 0.  1.
        2   -1    0    0  501    0  0.00000000000E+00  0.00000000000E+00 -0.10379370189E+04  0.10379370189E+04  0.25500000920E-02 0. -1.
    10030    2    1    2    0    0  0.00000000000E+00  0.00000000000E+00  0.14383236867E+04  0.35141977245E+04  0.32063703185E+04 0.  0.
        5    1    3    3  502    0  0.13924637704E+04  0.43500303487E+03 -0.94940062585E+01  0.14588677865E+04  0.46999998093E+01 0. -1.
       -5    1    3    3    0  502 -0.13924637704E+04 -0.43500303487E+03  0.14478176929E+04  0.20553299380E+04  0.46999998093E+01 0.  1.
</event>
<event>
 5   0  0.1317293E-07  0.3194174E+04  0.7818609E-02  0.8190358E-01
        1   -1    0    0  501    0  0.00000000000E+00  0.00000000000E+00  0.27208894631E+04  0.27208894631E+04  0.50400001928E-02 0.  1.
       -1   -1    0    0    0  501  0.00000000000E+00  0.00000000000E+00 -0.93744586411E+03  0.93744586412E+03  0.50400001928E-02 0. -1.
    10030    2    1    2    0    0  0.00000000000E+00  0.00000000000E+00  0.17834435990E+04  0.36583353273E+04  0.31941738049E+04 0.  0.
        1    1    3    3  502    0 -0.22869946771E+03  0.48767838376E+03  0.26137184664E+04  0.26686434520E+04  0.50400001928E-02 0.  1.
       -1    1    3    3    0  502  0.22869946771E+03 -0.48767838376E+03 -0.83027486735E+03  0.98969187523E+03  0.50400001928E-02 0. -1.
</event>
<event>
 5   0  0.3942564E-07  0.3200162E+04  0.7818609E-02  0.8188774E-01
       -2   -1    0    0    0  501  0.00000000000E+00  0.00000000000E+00  0.11201119020E+04  0.11201119020E+04  0.25500000920E-02 0.  1.
        2   -1    0    0  501    0  0.00000000000E+00  0.00000000000E+00 -0.22857174435E+04  0.22857174435E+04  0.25500000920E-02 0. -1.
    10030    2    1    2    0    0  0.00000000000E+00  0.00000000000E+00 -0.11656055415E+04  0.34058293455E+04  0.32001620666E+04 0.  0.
        3    1    3    3  502    0 -0.96127303191E+03 -0.72599235499E+03 -0.17036483167E+04  0.20865110444E+04  0.10100000352E+00 0. -1.
       -3    1    3    3    0  502  0.96127303191E+03  0.72599235499E+03  0.53804277519E+03  0.13193183011E+04  0.10100000352E+00 0.  1.
</event>
<event>
 5   0  0.3750285E-07  0.3199588E+04  0.7818609E-02  0.8188926E-01
        2   -1    0    0  501    0  0.00000000000E+00  0.00000000000E+00  0.14783206789E+04  0.14783206789E+04  0.25500000920E-02 0.  1.
       -2   -1    0    0    0  501  0.00000000000E+00  0.00000000000E+00 -0.17312485523E+04  0.17312485523E+04  0.25500000920E-02 0. -1.
    10030    2    1    2    0    0  0.00000000000E+00  0.00000000000E+00 -0.25292787344E+03  0.32095692312E+04  0.31995878079E+04 0.  0.
        1    1    3    3  502    0 -0.39598864191E+03  0.13965577884E+04  0.54806210986E+03  0.15516290591E+04  0.50400001928E-02 0.  1.
       -1    1    3    3    0  502  0.39598864191E+03 -0.13965577884E+04 -0.80098998330E+03  0.16579401721E+04  0.50400001928E-02 0. -1.
</event>
<event>
 5   0  0.3858721E-07  0.3202498E+04  0.7818609E-02  0.8188158E-01
        2   -1    0    0  501    0  0.00000000000E+00  0.00000000000E+00  0.19704040179E+04  0.19704040179E+04  0.25500000920E-02 0. -1.
       -2   -1    0    0    0  501  0.00000000000E+00  0.00000000000E+00 -0.13012547776E+04  0.13012547776E+04  0.25500000920E-02 0.  1.
    10030    2    1    2    0    0  0.00000000000E+00  0.00000000000E+00  0.66914924034E+03  0.32716587955E+04  0.32024975516E+04 0.  0.
        2    1    3    3  502    0 -0.67523878567E+03  0.89866877951E+03  0.14995724973E+04  0.18741052979E+04  0.25500000920E-02 0. -1.
       -2    1    3    3    0  502  0.67523878567E+03 -0.89866877951E+03 -0.83042325693E+03  0.13975534976E+04  0.25500000920E-02 0.  1.
</event>
<event>
 5   0  0.1288096E-07  0.3202668E+04  0.7818609E-02  0.8188113E-01
       -1   -1    0    0    0  501  0.00000000000E+00  0.00000000000E+00  0.88396157549E+03  0.88396157550E+03  0.50400001928E-02 0. -1.
        1   -1    0    0  501    0  0.00000000000E+00  0.00000000000E+00 -0.29008839846E+04  0.29008839846E+04  0.50400001928E-02 0.  1.
    10030    2    1    2    0    0  0.00000000000E+00  0.00000000000E+00 -0.20169224091E+04  0.37848455601E+04  0.32026676239E+04 0.  0.
        2    1    3    3  502    0  0.73688643974E+03 -0.13908469548E+04 -0.66026107568E+03  0.17068689360E+04  0.25500000920E-02 0. -1.
       -2    1    3    3    0  502 -0.73688643974E+03  0.13908469548E+04 -0.13566613334E+04  0.20779766241E+04  0.25500000920E-02 0.  1.
</event>
<event>
 5   0  0.1270948E-07  0.3205432E+04  0.7818609E-02  0.8187384E-01
        1   -1    0    0  501    0  0.00000000000E+00  0.00000000000E+00  0.20712823491E+04  0.20712823491E+04  0.50400001928E-02 0. -1.
       -1   -1    0    0    0  501  0.00000000000E+00  0.00000000000E+00 -0.12401490993E+04  0.12401490993E+04  0.50400001928E-02 0.  1.
    10030    2    1    2    0    0  0.00000000000E+00  0.00000000000E+00  0.83113324980E+03  0.33114314484E+04  0.32054322265E+04 0.  0.
        4    1    3    3  502    0  0.12449512695E+04  0.73926459798E+03  0.11255197006E+04  0.18339062186E+04  0.12699999809E+01 0. -1.
       -4    1    3    3    0  502 -0.12449512695E+04 -0.73926459798E+03 -0.29438645079E+03  0.14775252298E+04  0.12699999809E+01 0.  1.
</event>
<event>
 5   0  0.3764056E-07  0.3209270E+04  0.7818609E-02  0.8186373E-01
        2   -1    0    0  501    0  0.00000000000E+00  0.00000000000E+00  0.20561040732E+04  0.20561040732E+04  0.25500000920E-02 0. -1.
       -2   -1    0    0    0  501  0.00000000000E+00  0.00000000000E+00 -0.12522973619E+04  0.12522973619E+04  0.25500000920E-02 0.  1.
    10030    2    1    2    0    0  0.00000000000E+00  0.00000000000E+00  0.80380671129E+03  0.33084014351E+04  0.32092701392E+04 0.  0.
        5    1    3    3  502    0  0.14406678257E+04 -0.34860256552E+02 -0.32565355120E+03  0.14774340415E+04  0.46999998093E+01 0.  1.
       -5    1    3    3    0  502 -0.14406678257E+04  0.34860256552E+02  0.11294602625E+04  0.18309673935E+04  0.46999998093E+01 0. -1.
</event>
<event>
 5   0  0.1288096E-07  0.3201033E+04  0.7818609E-02  0.8188544E-01
       -1   -1    0    0    0  501  0.00000000000E+00  0.00000000000E+00  0.86378943550E+03  0.86378943551E+03  0.50400001928E-02 0. -1.
        1   -1    0    0  501    0  0.00000000000E+00  0.00000000000E+00 -0.29655990310E+04  0.29655990310E+04  0.50400001928E-02 0.  1.
    10030    2    1    2    0    0  0.00000000000E+00  0.00000000000E+00 -0.21018095955E+04  0.38293884665E+04  0.32010330289E+04 0.  0.
        2    1    3    3  502    0 -0.86261985012E+03  0.13194111332E+04 -0.71960512408E+03  0.17328561045E+04  0.25500000920E-02 0.  1.
       -2    1    3    3    0  502  0.86261985012E+03 -0.13194111332E+04 -0.13822044715E+04  0.20965323621E+04  0.25500000920E-02 0. -1.
</event>
<event>
 5   0  0.1277374E-07  0.3185066E+04  0.7818609E-02  0.8192772E-01
        1   -1    0    0  501    0  0.00000000000E+00  0.00000000000E+00  0.16591615890E+04  0.16591615890E+04  0.50400001928E-02 0.  1.
       -1   -1    0    0    0  501  0.00000000000E+00  0.00000000000E+00 -0.15285797658E+04  0.15285797658E+04  0.50400001928E-02 0. -1.
    10030    2    1    2    0    0  0.00000000000E+00  0.00000000000E+00  0.13058182319E+03  0.31877413548E+04  0.31850656716E+04 0.  0.
        5    1    3    3  502    0  0.26059736453E+03 -0.11409824463E+03 -0.15029361712E+04  0.15296302235E+04  0.46999998093E+01 0. -1.
       -5    1    3    3    0  502 -0.26059736453E+03  0.11409824463E+03  0.16335179944E+04  0.16581111313E+04  0.46999998093E+01 0.  1.
</event>
<event>
 5   0  0.1270948E-07  0.3197102E+04  0.7818609E-02  0.8189583E-01
       -1   -1    0    0    0  501  0.00000000000E+00  0.00000000000E+00  0.14995659148E+04  0.14995659148E+04  0.50400001928E-02 0. -1.
        1   -1    0    0  501    0  0.00000000000E+00  0.00000000000E+00 -0.17040702240E+04  0.17040702240E+04  0.50400001928E-02 0.  1.
    10030    2    1    2    0    0  0.00000000000E+00  0.00000000000E+00 -0.20450430913E+03  0.32036361388E+04  0.31971022032E+04 0.  0.
        4    1    3    3  502    0  0.12960629655E+04  0.61837833157E+03  0.60146013227E+03  0.15568965525E+04  0.12699999809E+01 0. -1.
       -4    1    3    3    0  502 -0.12960629655E+04 -0.61837833157E+03 -0.80596444140E+03  0.16467395863E+04  0.12699999809E+01 0.  1.
</event>
<event>
 5   0  0.1365455E-07  0.3201092E+04  0.7818609E-02  0.8188529E-01
        1   -1    0    0  501    0  0.00000000000E+00  0.00000000000E+00  0.33620561206E+04  0.33620561206E+04  0.50400001928E-02 0. -1.
       -1   -1    0    0    0  501  0.00000000000E+00  0.00000000000E+00 -0.76195874661E+03  0.76195874663E+03  0.50400001928E-02 0.  1.
    10030    2    1    2    0    0  0.00000000000E+00  0.00000000000E+00  0.26000973740E+04  0.41240148672E+04  0.32010923559E+04 0.  0.
        3    1    3    3  502    0 -0.66950892715E+02  0.15802661128E+04  0.16156849040E+04  0.22610088740E+04  0.10100000352E+00 0. -1.
       -3    1    3    3    0  502  0.66950892715E+02 -0.15802661128E+04  0.98441246999E+03  0.18630059932E+04  0.10100000352E+00 0.  1.
</event>
<event>
 5   0  0.1277374E-07  0.3202355E+04  0.7818609E-02  0.8188196E-01
       -1   -1    0    0    0  501  0.00000000000E+00  0.00000000000E+00  0.12449212133E+04  0.12449212133E+04  0.50400001928E-02 0.  1.
        1   -1    0    0  501    0  0.00000000000E+00  0.00000000000E+00 -0.20593826961E+04  0.20593826961E+04  0.50400001928E-02 0. -1.
    10030    2    1    2    0    0  0.00000000000E+00  0.00000000000E+00 -0.81446148274E+03  0.33043039094E+04  0.32023548865E+04 0.  0.
        5    1    3    3  502    0  0.96738233452E+03 -0.11399073753E+04 -0.99865325120E+03  0.17979287560E+04  0.46999998093E+01 0. -1.
       -5    1    3    3    0  502 -0.96738233452E+03  0.11399073753E+04  0.18419176846E+03  0.15063751534E+04  0.46999998093E+01 0.  1.
</event>
<event>
 5   0  0.1317293E-07  0.3200560E+04  0.7818609E-02  0.8188669E-01
        1   -1    0    0  501    0  0.00000000000E+00  0.00000000000E+00  0.10011673043E+04  0.10011673043E+04  0.50400001928E-02 0. -1.
       -1   -1    0    0    0  501  0.00000000000E+00  0.00000000000E+00 -0.25579106141E+04  0.25579106141E+04  0.50400001928E-02 0.  1.
    10030    2    1    2    0    0  0.00000000000E+00  0.00000000000E+00 -0.15567433098E+04  0.35590779184E+04  0.32005602472E+04 0.  0.
        1    1    3    3  502    0 -0.19508171298E+03 -0.12710990158E+04 -0.18375041619E+04  0.22428042999E+04  0.50400001928E-02 0.  1.
       -1    1    3    3    0  502  0.19508171298E+03  0.12710990158E+04  0.28076085207E+03  0.13162736185E+04  0.50400001928E-02 0. -1.
</event>
<event>
 5   0  0.3750285E-07  0.3201208E+04  0.7818609E-02  0.8188498E-01
        2   -1    0    0  501    0  0.00000000000E+00  0.00000000000E+00  0.22902134735E+04  0.22902134735E+04  0.25500000920E-02 0.  1.
       -2   -1    0    0    0  501  0.00000000000E+00  0.00000000000E+00 -0.11186440589E+04  0.11186440589E+04  0.25500000920E-02 0. -1.
    10030    2    1    2    0    0  0.00000000000E+00  0.00000000000E+00  0.11715694146E+04  0.34088575324E+04  0.32012083317E+04 0.  0.
        1    1    3    3  502    0  0.82764616166E+03 -0.52369107682E+03 -0.76230487428E+03  0.12411120958E+04  0.50400001928E-02 0. -1.
       -1    1    3    3    0  502 -0.82764616166E+03  0.52369107682E+03  0.19338742889E+04  0.21677454367E+04  0.50400001928E-02 0.  1.
</event>
<event>
 5   0  0.1317293E-07  0.3199099E+04  0.7818609E-02  0.8189055E-01
       -1   -1    0    0    0  501  0.00000000000E+00  0.00000000000E+00  0.99759522662E+03  0.99759522663E+03  0.50400001928E-02 0. -1.
        1   -1    0    0  501    0  0.00000000000E+00  0.00000000000E+00 -0.25647260833E+04  0.25647260833E+04  0.50400001928E-02 0.  1.
    10030    2    1    2    0    0  0.00000000000E+00  0.00000000000E+00 -0.15671308567E+04  0.35623213099E+04  0.31990989346E+04 0.  0.
        1    1    3    3  502    0 -0.10562421241E+04 -0.11656492933E+04 -0.46049939381E+03  0.16390379469E+04  0.50400001928E-02 0. -1.
       -1    1    3    3    0  502  0.10562421241E+04  0.11656492933E+04 -0.11066314628E+04  0.19232833630E+04  0.50400001928E-02 0.  1.
</event>
<event>
 5   0  0.3830207E-07  0.3190679E+04  0.7818609E-02  0.8191283E-01
       -2   -1    0    0    0  501  0.00000000000E+00  0.00000000000E+00  0.12445854804E+04  0.12445854805E+04  0.25500000920E-02 0.  1.
        2   -1    0    0  501    0  0.00000000000E+00  0.00000000000E+00 -0.20449445421E+04  0.20449445421E+04  0.25500000920E-02 0. -1.
    10030    2    1    2    0    0  0.00000000000E+00  0.00000000000E+00 -0.80035906166E+03  0.32895300226E+04  0.31906791035E+04 0.  0.
        4    1    3    3  502    0  0.77058112178E+03 -0.80810193857E+03 -0.15749022156E+04  0.19305808997E+04  0.12699999809E+01 0. -1.
       -4    1    3    3    0  502 -0.77058112178E+03  0.80810193857E+03  0.77454315399E+03  0.13589491229E+04  0.12699999809E+01 0.  1.
</event>
<event>
 5   0  0.3764056E-07  0.3200952E+04  0.7818609E-02  0.8188566E-01
       -2   -1    0    0    0  501  0.00000000000E+00  0.00000000000E+00  0.15303162979E+04  0.15303162979E+04  0.25500000920E-02 0.  1.
        2   -1    0    0  501    0  0.00000000000E+00  0.00000000000E+00 -0.16738525649E+04  0.16738525649E+04  0.25500000920E-02 0. -1.
    10030    2    1    2    0    0  0.00000000000E+00  0.00000000000E+00 -0.14353626701E+03  0.32041688628E+04  0.32009522710E+04 0.  0.
        5    1    3    3  502    0  0.21649973681E+01  0.80156580344E+03  0.13148998204E+04  0.15399662503E+04  0.46999998093E+01 0.  1.
       -5    1    3    3    0  502 -0.21649973681E+01 -0.80156580344E+03 -0.14584360874E+04  0.16642026125E+04  0.46999998093E+01 0. -1.
</event>
<event>
 5   0  0.1288096E-07  0.3195196E+04  0.7818609E-02  0.8190087E-01
        1   -1    0    0  501    0  0.00000000000E+00  0.00000000000E+00  0.23669719700E+04  0.23669719700E+04  0.50400001928E-02 0.  1.
       -1   -1    0    0    0  501  0.00000000000E+00  0.00000000000E+00 -0.10783058604E+04  0.10783058604E+04  0.50400001928E-02 0. -1.
    10030    2    1    2    0    0  0.00000000000E+00  0.00000000000E+00  0.12886661096E+04  0.34452778304E+04  0.31951962360E+04 0.  0.
        2    1    3    3  502    0 -0.12248598336E+04  0.45206799186E+03 -0.34841901930E+03  0.13513115459E+04  0.25500000920E-02 0. -1.
       -2    1    3    3    0  502  0.12248598336E+04 -0.45206799186E+03  0.16370851289E+04  0.20939662844E+04  0.25500000920E-02 0.  1.
</event>
<event>
 5   0  0.1317293E-07  0.3201250E+04  0.7818609E-02  0.8188487E-01
        1   -1    0    0  501    0  0.00000000000E+00  0.00000000000E+00  0.26224684249E+04  0.26224684249E+04  0.50400001928E-02 0. -1.
       -1   -1    0    0    0  501  0.00000000000E+00  0.00000000000E+00 -0.97694243686E+03  0.97694243688E+03  0.50400001928E-02 0.  1.
    10030    2    1    2    0    0  0.00000000000E+00  0.00000000000E+00  0.16455259881E+04  0.35994108618E+04  0.32012501893E+04 0.  0.
        1    1    3    3  502    0 -0.46074174788E+03 -0.15176256825E+04  0.10653002395E+04  0.19105850598E+04  0.50400001928E-02 0. -1.
       -1    1    3    3    0  502  0.46074174788E+03  0.15176256825E+04  0.58022574859E+03  0.16888258020E+04  0.50400001928E-02 0.  1.
</event>
<event>
 5   0  0.3858721E-07  0.3199638E+04  0.7818609E-02  0.8188913E-01
       -2   -1    0    0    0  501  0.00000000000E+00  0.00000000000E+00  0.95664624235E+03  0.95664624235E+03  0.25500000920E-02 0.  1.
        2   -1    0    0  501    0  0.00000000000E+00  0.00000000000E+00 -0.26754095354E+04  0.26754095354E+04  0.25500000920E-02 0. -1.
    10030    2    1    2    0    0  0.00000000000E+00  0.00000000000E+00 -0.17187632931E+04  0.36320557778E+04  0.31996377788E+04 0.  0.
        2    1    3    3  502    0  0.14715682370E+04 -0.62597643957E+03 -0.91091401807E+03  0.18404140641E+04  0.25500000920E-02 0. -1.
       -2    1    3    3    0  502 -0.14715682370E+04  0.62597643957E+03 -0.80784927501E+03  0.17916417137E+04  0.25500000920E-02 0.  1.
</event>
<event>
 5   0  0.1365455E-07  0.3191874E+04  0.7818609E-02  0.8190966E-01
       -1   -1    0    0    0  501  0.00000000000E+00  0.00000000000E+00  0.26318704362E+04  0.26318704362E+04  0.50400001928E-02 0. -1.
        1   -1    0    0  501    0  0.00000000000E+00  0.00000000000E+00 -0.96775865789E+03  0.96775865791E+03  0.50400001928E-02 0.  1.
    10030    2    1    2    0    0  0.00000000000E+00  0.00000000000E+00  0.16641117783E+04  0.35996290941E+04  0.31918743090E+04 0.  0.
        3    1    3    3  502    0  0.14470412612E+04  0.54018326225E+03  0.12849684621E+04  0.20091964382E+04  0.10100000352E+00 0. -1.
       -3    1    3    3    0  502 -0.14470412612E+04 -0.54018326225E+03  0.37914331622E+03  0.15904326559E+04  0.10100000352E+00 0.  1.
</event>
<event>
 5   0  0.1365455E-07  0.3206196E+04  0.7818609E-02  0.8187183E-01
        1   -1    0    0  501    0  0.00000000000E+00  0.00000000000E+00  0.19713256959E+04  0.19713256959E+04  0.50400001928E-02 0. -1.
       -1   -1    0    0    0  501  0.00000000000E+00  0.00000000000E+00 -0.13036524107E+04  0.13036524107E+04  0.50400001928E-02 0.  1.
    10030    2    1    2    0    0  0.00000000000E+00  0.00000000000E+00  0.66767328523E+03  0.32749781066E+04  0.32061961859E+04 0.  0.
        3    1    3    3  502    0 -0.10743835093E+04  0.55471605755E+03  0.14089921047E+04  0.18566821459E+04  0.10100000352E+00 0. -1.
       -3    1    3    3    0  502  0.10743835093E+04 -0.55471605755E+03 -0.74131881950E+03  0.14182959606E+04  0.10100000352E+00 0.  1.
</event>
<event>
 5   0  0.3858721E-07  0.3198933E+04  0.7818609E-02  0.8189099E-01
        2   -1    0    0  501    0  0.00000000000E+00  0.00000000000E+00  0.21711184434E+04  0.21711184434E+04  0.25500000920E-02 0.  1.
       -2   -1    0    0    0  501  0.00000000000E+00  0.00000000000E+00 -0.11783297758E+04  0.11783297758E+04  0.25500000920E-02 0. -1.
    10030    2    1    2    0    0  0.00000000000E+00  0.00000000000E+00  0.99278866761E+03  0.33494482192E+04  0.31989332651E+04 0.  0.
        2    1    3    3  502    0  0.11790567321E+04  0.10639356858E+04  0.69549825919E+03  0.17337392392E+04  0.25500000920E-02 0. -1.
       -2    1    3    3    0  502 -0.11790567321E+04 -0.10639356858E+04  0.29729040841E+03  0.16157089800E+04  0.25500000920E-02 0.  1.
</event>
<event>
 5   0  0.1277374E-07  0.3206679E+04  0.7818609E-02  0.8187055E-01
       -1   -1    0    0    0  501  0.00000000000E+00  0.00000000000E+00  0.15179158598E+04  0.15179158599E+04  0.50400001928E-02 0.  1.
        1   -1    0    0  501    0  0.00000000000E+00  0.00000000000E+00 -0.16935707079E+04  0.16935707079E+04  0.50400001928E-02 0. -1.
    10030    2    1    2    0    0  0.00000000000E+00  0.00000000000E+00 -0.17565484802E+03  0.32114865677E+04  0.32066791777E+04 0.  0.
        5    1    3    3  502    0 -0.12585394649E+04 -0.64619815533E+03  0.66774520576E+03  0.15644166295E+04  0.46999998093E+01 0.  1.
       -5    1    3    3    0  502  0.12585394649E+04  0.64619815533E+03 -0.84340005378E+03  0.16470699382E+04  0.46999998093E+01 0. -1.
</event>
<event>
 5   0  0.3942564E-07  0.3215992E+04  0.7818609E-02  0.8184607E-01
       -2   -1    0    0    0  501  0.00000000000E+00  0.00000000000E+00  0.13489987326E+04  0.13489987326E+04  0.25500000920E-02 0. -1.
        2   -1    0    0  501    0  0.00000000000E+00  0.00000000000E+00 -0.19167182464E+04  0.19167182464E+04  0.25500000920E-02 0.  1.
    10030    2    1    2    0    0  0.00000000000E+00  0.00000000000E+00 -0.56771951381E+03  0.32657169790E+04  0.32159915953E+04 0.  0.
        3    1    3    3  502    0 -0.14356333276E+04  0.49104977969E+03  0.25679865559E+03  0.15388692268E+04  0.10100000352E+00 0. -1.
       -3    1    3    3    0  502  0.14356333276E+04 -0.49104977969E+03 -0.82451816940E+03  0.17268477522E+04  0.10100000352E+00 0.  1.
</event>
<event>
 5   0  0.3942564E-07  0.3197602E+04  0.7818609E-02  0.8189451E-01
       -2   -1    0    0    0  501  0.00000000000E+00  0.00000000000E+00  0.12778611286E+04  0.12778611286E+04  0.25500000920E-02 0.  1.
        2   -1    0    0  501    0  0.00000000000E+00  0.00000000000E+00 -0.20003466179E+04  0.20003466179E+04  0.25500000920E-02 0. -1.
    10030    2    1    2    0    0  0.00000000000E+00  0.00000000000E+00 -0.72248548930E+03  0.32782077464E+04  0.31976023434E+04 0.  0.
        3    1    3    3  502    0  0.97514249078E+03  0.12619709353E+04 -0.47673987405E+03  0.16645583308E+04  0.10100000352E+00 0. -1.
       -3    1    3    3    0  502 -0.97514249078E+03 -0.12619709353E+04 -0.24574561524E+03  0.16136494156E+04  0.10100000352E+00 0.  1.
</event>
<event>
 5   0  0.3858721E-07  0.3207323E+04  0.7818609E-02  0.8186886E-01
        2   -1    0    0  501    0  0.00000000000E+00  0.00000000000E+00  0.23156894470E+04  0.23156894470E+04  0.25500000920E-02 0.  1.
       -2   -1    0    0    0  501  0.00000000000E+00  0.00000000000E+00 -0.11105681380E+04  0.11105681380E+04  0.25500000920E-02 0. -1.
    10030    2    1    2    0    0  0.00000000000E+00  0.00000000000E+00  0.12051213091E+04  0.34262575850E+04  0.32073234431E+04 0.  0.
        2    1    3    3  502    0  0.61603223606E+03  0.12292219138E+04 -0.27915812483E+03  0.14030008867E+04  0.25500000920E-02 0. -1.
       -2    1    3    3    0  502 -0.61603223606E+03 -0.12292219138E+04  0.14842794339E+04  0.20232566983E+04  0.25500000920E-02 0.  1.
</event>
<event>
 5   0  0.1270948E-07  0.3200079E+04  0.7818609E-02  0.8188796E-01
        1   -1    0    0  501    0  0.00000000000E+00  0.00000000000E+00  0.22417151534E+04  0.22417151534E+04  0.50400001928E-02 0. -1.
       -1   -1    0    0    0  501  0.00000000000E+00  0.00000000000E+00 -0.11420387663E+04  0.11420387663E+04  0.50400001928E-02 0.  1.
    10030    2    1    2    0    0  0.00000000000E+00  0.00000000000E+00  0.10996763872E+04  0.33837539197E+04  0.32000785042E+04 0.  0.
        4    1    3    3  502    0  0.18338738858E+03 -0.15064538876E+04  0.10859810410E+04  0.18661164712E+04  0.12699999809E+01 0. -1.
       -4    1    3    3    0  502 -0.18338738858E+03  0.15064538876E+04  0.13695346120E+02  0.15176374485E+04  0.12699999809E+01 0.  1.
</event>
<event>
 5   0  0.3750285E-07  0.3200911E+04  0.7818609E-02  0.8188577E-01
       -2   -1    0    0    0  501  0.00000000000E+00  0.00000000000E+00  0.11171019303E+04  0.11171019303E+04  0.25500000920E-02 0.  1.
        2   -1    0    0  501    0  0.00000000000E+00  0.00000000000E+00 -0.22929496659E+04  0.22929496659E+04  0.25500000920E-02 0. -1.
    10030    2    1    2    0    0  0.00000000000E+00  0.00000000000E+00 -0.11758477356E+04  0.34100515962E+04  0.32009114313E+04 0.  0.
        1    1    3    3  502    0  0.87589888859E+03  0.11501698401E+04 -0.13193454807E+04  0.19572332568E+04  0.50400001928E-02 0. -1.
       -1    1    3    3    0  502 -0.87589888859E+03 -0.11501698401E+04  0.14349774512E+03  0.14528183393E+04  0.50400001928E-02 0.  1.
</event>
<event>
 5   0  0.3858721E-07  0.3205656E+04  0.7818609E-02  0.8187325E-01
        2   -1    0    0  501    0  0.00000000000E+00  0.00000000000E+00  0.97145417725E+03  0.97145417725E+03  0.25500000920E-02 0. -1.
       -2   -1    0    0    0  501  0.00000000000E+00  0.00000000000E+00 -0.26445488278E+04  0.26445488278E+04  0.25500000920E-02 0.  1.
    10030    2    1    2    0    0  0.00000000000E+00  0.00000000000E+00 -0.16730946505E+04  0.36160030050E+04  0.32056562546E+04 0.  0.
        2    1    3    3  502    0  0.98702498850E+03 -0.10071778097E+04 -0.16959322021E+04  0.22056317695E+04  0.25500000920E-02 0.  1.
       -2    1    3    3    0  502 -0.98702498850E+03  0.10071778097E+04  0.22837551551E+02  0.14103712356E+04  0.25500000920E-02 0. -1.
</event>
<event>
 5   0  0.3750285E-07  0.3205573E+04  0.7818609E-02  0.8187347E-01
        2   -1    0    0  501    0  0.00000000000E+00  0.00000000000E+00  0.25292818443E+04  0.25292818443E+04  0.25500000920E-02 0. -1.
       -2   -1    0    0    0  501  0.00000000000E+00  0.00000000000E+00 -0.10156737163E+04  0.10156737163E+04  0.25500000920E-02 0.  1.
    10030    2    1    2    0    0  0.00000000000E+00  0.00000000000E+00  0.15136081281E+04  0.35449555606E+04  0.32055733280E+04 0.  0.
        1    1    3    3  502    0 -0.75411035522E+03  0.52506237274E+02 -0.80615255869E+03  0.11051340555E+04  0.50400001928E-02 0.  1.
       -1    1    3    3    0  502  0.75411035522E+03 -0.52506237274E+02  0.23197606868E+04  0.24398215051E+04  0.50400001928E-02 0. -1.
</event>
<event>
 5   0  0.3942564E-07  0.3210928E+04  0.7818609E-02  0.8185937E-01
       -2   -1    0    0    0  501  0.00000000000E+00  0.00000000000E+00  0.70185724021E+03  0.70185724022E+03  0.25500000920E-02 0.  1.
        2   -1    0    0  501    0  0.00000000000E+00  0.00000000000E+00 -0.36724206259E+04  0.36724206259E+04  0.25500000920E-02 0. -1.
    10030    2    1    2    0    0  0.00000000000E+00  0.00000000000E+00 -0.29705633856E+04  0.43742778661E+04  0.32109282181E+04 0.  0.
        3    1    3    3  502    0  0.73265436989E+02 -0.12182606002E+04 -0.64301975114E+02  0.12221544372E+04  0.10100000352E+00 0.  1.
       -3    1    3    3    0  502 -0.73265436989E+02  0.12182606002E+04 -0.29062614105E+04  0.31521234289E+04  0.10100000352E+00 0. -1.
</event>
<event>
 5   0  0.1288096E-07  0.3200882E+04  0.7818609E-02  0.8188584E-01
       -1   -1    0    0    0  501  0.00000000000E+00  0.00000000000E+00  0.17586648016E+04  0.17586648016E+04  0.50400001928E-02 0. -1.
        1   -1    0    0  501    0  0.00000000000E+00  0.00000000000E+00 -0.14564525133E+04  0.14564525133E+04  0.50400001928E-02 0.  1.
    10030    2    1    2    0    0  0.00000000000E+00  0.00000000000E+00  0.30221228826E+03  0.32151173149E+04  0.32008822349E+04 0.  0.
        2    1    3    3  502    0  0.29224837418E+03 -0.62640907572E+03 -0.12987863307E+04  0.14712727059E+04  0.25500000920E-02 0.  1.
       -2    1    3    3    0  502 -0.29224837418E+03  0.62640907572E+03  0.16009986190E+04  0.17438446090E+04  0.25500000920E-02 0. -1.
</event>
<event>
 5   0  0.3750285E-07  0.3207249E+04  0.7818609E-02  0.8186905E-01
       -2   -1    0    0    0  501  0.00000000000E+00  0.00000000000E+00  0.12028457283E+04  0.12028457283E+04  0.25500000920E-02 0. -1.
        2   -1    0    0  501    0  0.00000000000E+00  0.00000000000E+00 -0.21379396964E+04  0.21379396964E+04  0.25500000920E-02 0.  1.
    10030    2    1    2    0    0  0.00000000000E+00  0.00000000000E+00 -0.93509396814E+03  0.33407854247E+04  0.32072490588E+04 0.  0.
        1    1    3    3  502    0  0.14624959712E+04  0.93979054994E+02 -0.11457191681E+04  0.18602147566E+04  0.50400001928E-02 0.  1.
       -1    1    3    3    0  502 -0.14624959712E+04 -0.93979054994E+02  0.21062519994E+03  0.14805706681E+04  0.50400001928E-02 0. -1.
</event>
<event>
 5   0  0.3830207E-07  0.3225176E+04  0.7818609E-02  0.8182200E-01
        2   -1    0    0  501    0  0.00000000000E+00  0.00000000000E+00  0.13266397462E+04  0.13266397462E+04  0.25500000920E-02 0.  1.
       -2   -1    0    0    0  501  0.00000000000E+00  0.00000000000E+00 -0.19601705120E+04  0.19601705120E+04  0.25500000920E-02 0. -1.
    10030    2    1    2    0    0  0.00000000000E+00  0.00000000000E+00 -0.63353076582E+03  0.32868102582E+04  0.32251760328E+04 0.  0.
        4    1    3    3  502    0  0.83450384933E+03 -0.10944232193E+04  0.53969948608E+03  0.14783220237E+04  0.12699999809E+01 0.  1.
       -4    1    3    3    0  502 -0.83450384933E+03  0.10944232193E+04 -0.11732302519E+04  0.18084882345E+04  0.12699999809E+01 0. -1.
</event>
<event>
 5   0  0.1317293E-07  0.3191106E+04  0.7818609E-02  0.8191170E-01
        1   -1    0    0  501    0  0.00000000000E+00  0.00000000000E+00  0.14132987237E+04  0.14132987237E+04  0.50400001928E-02 0.  1.
       -1   -1    0    0    0  501  0.00000000000E+00  0.00000000000E+00 -0.18013100400E+04  0.18013100400E+04  0.50400001928E-02 0. -1.
    10030    2    1    2    0    0  0.00000000000E+00  0.00000000000E+00 -0.38801131628E+03  0.32146087637E+04  0.31911058776E+04 0.  0.
        1    1    3    3  502    0  0.53847179831E+03  0.12466761990E+04 -0.10378119657E+04  0.17091539132E+04  0.50400001928E-02 0. -1.
       -1    1    3    3    0  502 -0.53847179831E+03 -0.12466761990E+04  0.64980064946E+03  0.15054548505E+04  0.50400001928E-02 0.  1.
</event>
<event>
 5   0  0.1288096E-07  0.3197573E+04  0.7818609E-02  0.8189458E-01
       -1   -1    0    0    0  501  0.00000000000E+00  0.00000000000E+00  0.14711948798E+04  0.14711948798E+04  0.50400001928E-02 0. -1.
        1   -1    0    0  501    0  0.00000000000E+00  0.00000000000E+00 -0.17374435958E+04  0.17374435959E+04  0.50400001928E-02 0.  1.
    10030    2    1    2    0    0  0.00000000000E+00  0.00000000000E+00 -0.26624871606E+03  0.32086384756E+04  0.31975729059E+04 0.  0.
        2    1    3    3  502    0  0.51137550073E+02 -0.88385732391E+03  0.12027600012E+04  0.14934692626E+04  0.25500000920E-02 0. -1.
       -2    1    3    3    0  502 -0.51137550073E+02  0.88385732391E+03 -0.14690087172E+04  0.17151692130E+04  0.25500000920E-02 0.  1.
</event>
<event>
 5   0  0.1277374E-07  0.3190607E+04  0.7818609E-02  0.8191302E-01
       -1   -1    0    0    0  501  0.00000000000E+00  0.00000000000E+00  0.14540917605E+04  0.14540917605E+04  0.50400001928E-02 0. -1.
        1   -1    0    0  501    0  0.00000000000E+00  0.00000000000E+00 -0.17502285112E+04  0.17502285112E+04  0.50400001928E-02 0.  1.
    10030    2    1    2    0    0  0.00000000000E+00  0.00000000000E+00 -0.29613675070E+03  0.32043202717E+04  0.31906067493E+04 0.  0.
        5    1    3    3  502    0 -0.49259237555E+03  0.35860653762E+02 -0.16715053397E+04  0.17429530761E+04  0.46999998093E+01 0.  1.
       -5    1    3    3    0  502  0.49259237555E+03 -0.35860653762E+02  0.13753685890E+04  0.14613671956E+04  0.46999998093E+01 0. -1.
</event>
<event>
 5   0  0.1365455E-07  0.3199106E+04  0.7818609E-02  0.8189053E-01
        1   -1    0    0  501    0  0.00000000000E+00  0.00000000000E+00  0.12040894665E+04  0.12040894665E+04  0.50400001928E-02 0. -1.
       -1   -1    0    0    0  501  0.00000000000E+00  0.00000000000E+00 -0.21248995723E+04  0.21248995723E+04  0.50400001928E-02 0.  1.
    10030    2    1    2    0    0  0.00000000000E+00  0.00000000000E+00 -0.92081010588E+03  0.33289890388E+04  0.31991056202E+04 0.  0.
        3    1    3    3  502    0 -0.82717481414E+03 -0.10444688548E+04  0.46064980740E+03  0.14097274975E+04  0.10100000352E+00 0. -1.
       -3    1    3    3    0  502  0.82717481414E+03  0.10444688548E+04 -0.13814599133E+04  0.19192615413E+04  0.10100000352E+00 0.  1.
</event>
<event>
 5   0  0.3830207E-07  0.3196177E+04  0.7818609E-02  0.8189828E-01
       -2   -1    0    0    0  501  0.00000000000E+00  0.00000000000E+00  0.19790508265E+04  0.19790508265E+04  0.25500000920E-02 0. -1.
        2   -1    0    0  501    0  0.00000000000E+00  0.00000000000E+00 -0.12904605620E+04  0.12904605620E+04  0.25500000920E-02 0.  1.
    10030    2    1    2    0    0  0.00000000000E+00  0.00000000000E+00  0.68859026447E+03  0.32695113885E+04  0.31961771176E+04 0.  0.
        4    1    3    3  502    0  0.12843405716E+04 -0.95046576919E+03  0.37614710598E+03  0.16414640235E+04  0.12699999809E+01 0.  1.
       -4    1    3    3    0  502 -0.12843405716E+04  0.95046576919E+03  0.31244315849E+03  0.16280473650E+04  0.12699999809E+01 0. -1.
</event>
<event>
 5   0  0.1317293E-07  0.3164845E+04  0.7818609E-02  0.8198164E-01
       -1   -1    0    0    0  501  0.00000000000E+00  0.00000000000E+00  0.11303872451E+04  0.11303872451E+04  0.50400001928E-02 0. -1.
        1   -1    0    0  501    0  0.00000000000E+00  0.00000000000E+00 -0.22152234284E+04  0.22152234284E+04  0.50400001928E-02 0.  1.
    10030    2    1    2    0    0  0.00000000000E+00  0.00000000000E+00 -0.10848361833E+04  0.33456106734E+04  0.31648445829E+04 0.  0.
        1    1    3    3  502    0 -0.58692821217E+03  0.58769994127E+03  0.88143021343E+03  0.12111131939E+04  0.50400001928E-02 0. -1.
       -1    1    3    3    0  502  0.58692821217E+03 -0.58769994127E+03 -0.19662663968E+04  0.21344974796E+04  0.50400001928E-02 0.  1.
</event>
<event>
 5   0  0.3764056E-07  0.3240347E+04  0.7818609E-02  0.8178242E-01
       -2   -1    0    0    0  501  0.00000000000E+00  0.00000000000E+00  0.12457074761E+04  0.12457074761E+04  0.25500000920E-02 0. -1.
        2   -1    0    0  501    0  0.00000000000E+00  0.00000000000E+00 -0.21072065490E+04  0.21072065490E+04  0.25500000920E-02 0.  1.
    10030    2    1    2    0    0  0.00000000000E+00  0.00000000000E+00 -0.86149907288E+03  0.33529140252E+04  0.32403474825E+04 0.  0.
        5    1    3    3  502    0 -0.46706792252E+03 -0.64045083104E+03 -0.18928512254E+04  0.20521300063E+04  0.46999998093E+01 0.  1.
       -5    1    3    3    0  502  0.46706792252E+03  0.64045083104E+03  0.10313521525E+04  0.13007840189E+04  0.46999998093E+01 0. -1.
</event>
<event>
 5   0  0.3764056E-07  0.3197231E+04  0.7818609E-02  0.8189549E-01
        2   -1    0    0  501    0  0.00000000000E+00  0.00000000000E+00  0.21808397144E+04  0.21808397144E+04  0.25500000920E-02 0. -1.
       -2   -1    0    0    0  501  0.00000000000E+00  0.00000000000E+00 -0.11718289222E+04  0.11718289222E+04  0.25500000920E-02 0.  1.
    10030    2    1    2    0    0  0.00000000000E+00  0.00000000000E+00  0.10090107922E+04  0.33526686365E+04  0.31972307092E+04 0.  0.
        5    1    3    3  502    0 -0.47912423018E+03 -0.15072015672E+04  0.74893059679E+03  0.17498959171E+04  0.46999998093E+01 0. -1.
       -5    1    3    3    0  502  0.47912423018E+03  0.15072015672E+04  0.26008019540E+03  0.16027727194E+04  0.46999998093E+01 0.  1.
</event>
<event>
 5   0  0.3764056E-07  0.3198156E+04  0.7818609E-02  0.8189304E-01
        2   -1    0    0  501    0  0.00000000000E+00  0.00000000000E+00  0.21434671102E+04  0.21434671102E+04  0.25500000920E-02 0.  1.
       -2   -1    0    0    0  501  0.00000000000E+00  0.00000000000E+00 -0.11929502850E+04  0.11929502850E+04  0.25500000920E-02 0. -1.
    10030    2    1    2    0    0  0.00000000000E+00  0.00000000000E+00  0.95051682518E+03  0.33364173953E+04  0.31981555310E+04 0.  0.
        5    1    3    3  502    0 -0.12176249112E+04  0.93629426207E+03  0.93919782426E+03  0.18003810743E+04  0.46999998093E+01 0.  1.
       -5    1    3    3    0  502  0.12176249112E+04 -0.93629426207E+03  0.11319000923E+02  0.15360363210E+04  0.46999998093E+01 0. -1.
</event>
<event>
 5   0  0.3858721E-07  0.3199024E+04  0.7818609E-02  0.8189075E-01
        2   -1    0    0  501    0  0.00000000000E+00  0.00000000000E+00  0.25840127759E+04  0.25840127759E+04  0.25500000920E-02 0.  1.
       -2   -1    0    0    0  501  0.00000000000E+00  0.00000000000E+00 -0.99010298824E+03  0.99010298825E+03  0.25500000920E-02 0. -1.
    10030    2    1    2    0    0  0.00000000000E+00  0.00000000000E+00  0.15939097877E+04  0.35741157642E+04  0.31990240831E+04 0.  0.
        2    1    3    3  502    0 -0.15514062236E+04 -0.24095690951E+03  0.11386171557E+04  0.19394253092E+04  0.25500000920E-02 0.  1.
       -2    1    3    3    0  502  0.15514062236E+04  0.24095690951E+03  0.45529263199E+03  0.16346904550E+04  0.25500000920E-02 0. -1.
</event>
<event>
 5   0  0.1270948E-07  0.3197160E+04  0.7818609E-02  0.8189568E-01
        1   -1    0    0  501    0  0.00000000000E+00  0.00000000000E+00  0.22888602141E+04  0.22888602141E+04  0.50400001928E-02 0.  1.
       -1   -1    0    0    0  501  0.00000000000E+00  0.00000000000E+00 -0.11164764475E+04  0.11164764475E+04  0.50400001928E-02 0. -1.
    10030    2    1    2    0    0  0.00000000000E+00  0.00000000000E+00  0.11723837666E+04  0.34053366617E+04  0.31971603155E+04 0.  0.
        4    1    3    3  502    0  0.56908768761E+03 -0.11888841051E+04 -0.37722065131E+03  0.13709862305E+04  0.12699999809E+01 0. -1.
       -4    1    3    3    0  502 -0.56908768761E+03  0.11888841051E+04  0.15496044180E+04  0.20343504311E+04  0.12699999809E+01 0.  1.
</event>
<event>
 5   0  0.3750285E-07  0.3169765E+04  0.7818609E-02  0.8196848E-01
       -2   -1    0    0    0  501  0.00000000000E+00  0.00000000000E+00  0.92423752267E+03  0.92423752268E+03  0.25500000920E-02 0.  1.
        2   -1    0    0  501    0  0.00000000000E+00  0.00000000000E+00 -0.27177573270E+04  0.27177573270E+04  0.25500000920E-02 0. -1.
    10030    2    1    2    0    0  0.00000000000E+00  0.00000000000E+00 -0.17935198043E+04  0.36419948497E+04  0.31697654797E+04 0.  0.
        1    1    3    3  502    0 -0.80273945863E+02 -0.65884378084E+03  0.75686609241E+03  0.10066604769E+04  0.50400001928E-02 0.  1.
       -1    1    3    3    0  502  0.80273945863E+02  0.65884378084E+03 -0.25503858967E+04  0.26353343728E+04  0.50400001928E-02 0. -1.
</event>
<event>
 5   0  0.3764056E-07  0.3204218E+04  0.7818609E-02  0.8187704E-01
       -2   -1    0    0    0  501  0.00000000000E+00  0.00000000000E+00  0.16936613478E+04  0.16936613478E+04  0.25500000920E-02 0. -1.
        2   -1    0    0  501    0  0.00000000000E+00  0.00000000000E+00 -0.15155060471E+04  0.15155060471E+04  0.25500000920E-02 0.  1.
    10030    2    1    2    0    0  0.00000000000E+00  0.00000000000E+00  0.17815530066E+03  0.32091673949E+04  0.32042184785E+04 0.  0.
        5    1    3    3  502    0  0.11874262048E+04 -0.87214366003E+03  0.71942748773E+03  0.16395772491E+04  0.46999998093E+01 0.  1.
       -5    1    3    3    0  502 -0.11874262048E+04  0.87214366003E+03 -0.54127218707E+03  0.15695901459E+04  0.46999998093E+01 0. -1.
</event>
<event>
 5   0  0.3830207E-07  0.3204117E+04  0.7818609E-02  0.8187731E-01
        2   -1    0    0  501    0  0.00000000000E+00  0.00000000000E+00  0.78585749638E+03  0.78585749638E+03  0.25500000920E-02 0. -1.
       -2   -1    0    0    0  501  0.00000000000E+00  0.00000000000E+00 -0.32659747521E+04  0.32659747521E+04  0.25500000920E-02 0.  1.
    10030    2    1    2    0    0  0.00000000000E+00  0.00000000000E+00 -0.24801172558E+04  0.40518322485E+04  0.32041165659E+04 0.  0.
        4    1    3    3  502    0  0.44973930486E+03 -0.13924385792E+04 -0.20648831015E+04  0.25307892988E+04  0.12699999809E+01 0.  1.
       -4    1    3    3    0  502 -0.44973930486E+03  0.13924385792E+04 -0.41523415430E+03  0.15210429497E+04  0.12699999809E+01 0. -1.
</event>
<event>
 5   0  0.3764056E-07  0.3203420E+04  0.7818609E-02  0.8187915E-01
        2   -1    0    0  501    0  0.00000000000E+00  0.00000000000E+00  0.15643624439E+04  0.15643624439E+04  0.25500000920E-02 0.  1.
       -2   -1    0    0    0  501  0.00000000000E+00  0.00000000000E+00 -0.16399487559E+04  0.16399487559E+04  0.25500000920E-02 0. -1.
    10030    2    1    2    0    0  0.00000000000E+00  0.00000000000E+00 -0.75586312059E+02  0.32043111998E+04  0.32034195751E+04 0.  0.
        5    1    3    3  502    0  0.10710417975E+04 -0.55833017944E+02  0.11521615523E+04  0.15740858269E+04  0.46999998093E+01 0.  1.
       -5    1    3    3    0  502 -0.10710417975E+04  0.55833017944E+02 -0.12277478644E+04  0.16302253729E+04  0.46999998093E+01 0. -1.
</event>
<event>
 5   0  0.3764056E-07  0.3201624E+04  0.7818609E-02  0.8188388E-01
       -2   -1    0    0    0  501  0.00000000000E+00  0.00000000000E+00  0.13473902794E+04  0.13473902794E+04  0.25500000920E-02 0. -1.
        2   -1    0    0  501    0  0.00000000000E+00  0.00000000000E+00 -0.19018987142E+04  0.19018987142E+04  0.25500000920E-02 0.  1.
    10030    2    1    2    0    0  0.00000000000E+00  0.00000000000E+00 -0.55450843486E+03  0.32492889936E+04  0.32016244876E+04 0.  0.
        5    1    3    3  502    0  0.12322912936E+04  0.34608206251E+03 -0.12529529916E+04  0.17911526779E+04  0.46999998093E+01 0. -1.
       -5    1    3    3    0  502 -0.12322912936E+04 -0.34608206251E+03  0.69844455679E+03  0.14581363157E+04  0.46999998093E+01 0.  1.
</event>
<event>
 5   0  0.1270948E-07  0.3203863E+04  0.7818609E-02  0.8187798E-01
       -1   -1    0    0    0  501  0.00000000000E+00  0.00000000000E+00  0.91098213379E+03  0.91098213380E+03  0.50400001928E-02 0. -1.
        1   -1    0    0  501    0  0.00000000000E+00  0.00000000000E+00 -0.28169420915E+04  0.28169420915E+04  0.50400001928E-02 0.  1.
    10030    2    1    2    0    0  0.00000000000E+00  0.00000000000E+00 -0.19059599577E+04  0.37279242253E+04  0.32038626171E+04 0.  0.
        4    1    3    3  502    0 -0.10924995135E+04  0.31738907827E+03  0.35927487484E+03  0.11930511568E+04  0.12699999809E+01 0. -1.
       -4    1    3    3    0  502  0.10924995135E+04 -0.31738907827E+03 -0.22652348326E+04  0.25348730685E+04  0.12699999809E+01 0.  1.
</event>
<event>
 5   0  0.1365455E-07  0.3203187E+04  0.7818609E-02  0.8187976E-01
       -1   -1    0    0    0  501  0.00000000000E+00  0.00000000000E+00  0.16546378192E+04  0.16546378192E+04  0.50400001928E-02 0. -1.
        1   -1    0    0  501    0  0.00000000000E+00  0.00000000000E+00 -0.15502492575E+04  0.15502492575E+04  0.50400001928E-02 0.  1.
    10030    2    1    2    0    0  0.00000000000E+00  0.00000000000E+00  0.10438856174E+03  0.32048870767E+04  0.32031865700E+04 0.  0.
        3    1    3    3  502    0 -0.29529321990E+03  0.15728386555E+04  0.11611495910E+03  0.16045255423E+04  0.10100000352E+00 0. -1.
       -3    1    3    3    0  502  0.29529321990E+03 -0.15728386555E+04 -0.11726397358E+02  0.16003615343E+04  0.10100000352E+00 0.  1.
</event>
<event>
 5   0  0.1277374E-07  0.3200911E+04  0.7818609E-02  0.8188577E-01
       -1   -1    0    0    0  501  0.00000000000E+00  0.00000000000E+00  0.12617413489E+04  0.12617413489E+04  0.50400001928E-02 0. -1.
        1   -1    0    0  501    0  0.00000000000E+00  0.00000000000E+00 -0.20300969780E+04  0.20300969780E+04  0.50400001928E-02 0.  1.
    10030    2    1    2    0    0  0.00000000000E+00  0.00000000000E+00 -0.76835562909E+03  0.32918383269E+04  0.32009106826E+04 0.  0.
        5    1    3    3  502    0  0.96357895166E+03  0.12438761917E+04 -0.83076120074E+02  0.15756383176E+04  0.46999998093E+01 0. -1.
       -5    1    3    3    0  502 -0.96357895166E+03 -0.12438761917E+04 -0.68527950901E+03  0.17162000093E+04  0.46999998093E+01 0.  1.
</event>
<event>
 5   0  0.3750285E-07  0.3231171E+04  0.7818609E-02  0.8180633E-01
        2   -1    0    0  501    0  0.00000000000E+00  0.00000000000E+00  0.15665981614E+04  0.15665981614E+04  0.25500000920E-02 0. -1.
       -2   -1    0    0    0  501  0.00000000000E+00  0.00000000000E+00 -0.16661043933E+04  0.16661043933E+04  0.25500000920E-02 0.  1.
    10030    2    1    2    0    0  0.00000000000E+00  0.00000000000E+00 -0.99506231896E+02  0.32327025547E+04  0.32311707347E+04 0.  0.
        1    1    3    3  502    0 -0.12661571906E+04 -0.34274790627E+03 -0.99332584132E+03  0.16453955104E+04  0.50400001928E-02 0.  1.
       -1    1    3    3    0  502  0.12661571906E+04  0.34274790627E+03  0.89381960942E+03  0.15873070443E+04  0.50400001928E-02 0. -1.
</event>
<event>
 5   0  0.3764056E-07  0.3193179E+04  0.7818609E-02  0.8190621E-01
       -2   -1    0    0    0  501  0.00000000000E+00  0.00000000000E+00  0.13718907526E+04  0.13718907526E+04  0.25500000920E-02 0.  1.
        2   -1    0    0  501    0  0.00000000000E+00  0.00000000000E+00 -0.18580908164E+04  0.18580908164E+04  0.25500000920E-02 0. -1.
    10030    2    1    2    0    0  0.00000000000E+00  0.00000000000E+00 -0.48620006382E+03  0.32299815689E+04  0.31931787350E+04 0.  0.
        5    1    3    3  502    0 -0.15703884776E+04  0.20748530491E+03 -0.44516574562E+03  0.16454071695E+04  0.46999998093E+01 0.  1.
       -5    1    3    3    0  502  0.15703884776E+04 -0.20748530491E+03 -0.41034318194E+02  0.15845743995E+04  0.46999998093E+01 0. -1.
</event>
<event>
 5   0  0.1277374E-07  0.3203819E+04  0.7818609E-02  0.8187809E-01
        1   -1    0    0  501    0  0.00000000000E+00  0.00000000000E+00  0.18326606769E+04  0.18326606769E+04  0.50400001928E-02 0. -1.
       -1   -1    0    0    0  501  0.00000000000E+00  0.00000000000E+00 -0.14002123397E+04  0.14002123398E+04  0.50400001928E-02 0.  1.
    10030    2    1    2    0    0  0.00000000000E+00  0.00000000000E+00  0.43244833712E+03  0.32328730166E+04  0.32038190301E+04 0.  0.
        5    1    3    3  502    0 -0.14570451340E+03  0.10283405830E+04  0.14468650093E+04  0.17810543521E+04  0.46999998093E+01 0. -1.
       -5    1    3    3    0  502  0.14570451340E+03 -0.10283405830E+04 -0.10144166722E+04  0.14518186645E+04  0.46999998093E+01 0.  1.
</event>
<event>
 5   0  0.1317293E-07  0.3194055E+04  0.7818609E-02  0.8190389E-01
        1   -1    0    0  501    0  0.00000000000E+00  0.00000000000E+00  0.12564969888E+04  0.12564969888E+04  0.50400001928E-02 0.  1.
       -1   -1    0    0    0  501  0.00000000000E+00  0.00000000000E+00 -0.20298477713E+04  0.20298477713E+04  0.50400001928E-02 0. -1.
    10030    2    1    2    0    0  0.00000000000E+00  0.00000000000E+00 -0.77335078244E+03  0.32863447601E+04  0.31940554863E+04 0.  0.
        1    1    3    3  502    0  0.45499727063E+03  0.19966082739E+03  0.11749440407E+04  0.12756882304E+04  0.50400001928E-02 0.  1.
       -1    1    3    3    0  502 -0.45499727063E+03 -0.19966082739E+03 -0.19482948232E+04  0.20106565297E+04  0.50400001928E-02 0. -1.
</event>
<event>
 5   0  0.3830207E-07  0.3209049E+04  0.7818609E-02  0.8186432E-01
        2   -1    0    0  501    0  0.00000000000E+00  0.00000000000E+00  0.33679942456E+04  0.33679942456E+04  0.25500000920E-02 0.  1.
       -2   -1    0    0    0  501  0.00000000000E+00  0.00000000000E+00 -0.76440106038E+03  0.76440106039E+03  0.25500000920E-02 0. -1.
    10030    2    1    2    0    0  0.00000000000E+00  0.00000000000E+00  0.26035931852E+04  0.41323953060E+04  0.32090486894E+04 0.  0.
        4    1    3    3  502    0  0.10213246012E+04 -0.60634119620E+02  0.28934441695E+04  0.30690065514E+04  0.12699999809E+01 0.  1.
       -4    1    3    3    0  502 -0.10213246012E+04  0.60634119620E+02 -0.28985098427E+03  0.10633887546E+04  0.12699999809E+01 0. -1.
</event>
<event>
 5   0  0.1317293E-07  0.3199855E+04  0.7818609E-02  0.8188855E-01
       -1   -1    0    0    0  501  0.00000000000E+00  0.00000000000E+00  0.15775545438E+04  0.15775545438E+04  0.50400001928E-02 0.  1.
        1   -1    0    0  501    0  0.00000000000E+00  0.00000000000E+00 -0.16226181955E+04  0.16226181955E+04  0.50400001928E-02 0. -1.
    10030    2    1    2    0    0  0.00000000000E+00  0.00000000000E+00 -0.45063651703E+02  0.32001727393E+04  0.31998554387E+04 0.  0.
        1    1    3    3  502    0  0.23214232748E+03  0.46311658025E+03 -0.15364195818E+04  0.16214043784E+04  0.50400001928E-02 0. -1.
       -1    1    3    3    0  502 -0.23214232748E+03 -0.46311658025E+03  0.14913559301E+04  0.15787683609E+04  0.50400001928E-02 0.  1.
</event>
<event>
 5   0  0.3830207E-07  0.3193194E+04  0.7818609E-02  0.8190617E-01
        2   -1    0    0  501    0  0.00000000000E+00  0.00000000000E+00  0.29647907699E+04  0.29647907699E+04  0.25500000920E-02 0.  1.
       -2   -1    0    0    0  501  0.00000000000E+00  0.00000000000E+00 -0.85979813380E+03  0.85979813380E+03  0.25500000920E-02 0. -1.
    10030    2    1    2    0    0  0.00000000000E+00  0.00000000000E+00  0.21049926361E+04  0.38245889037E+04  0.31931937436E+04 0.  0.
        4    1    3    3  502    0  0.15585992181E+03  0.94923045863E+03 -0.47374888682E+03  0.10722734723E+04  0.12699999809E+01 0. -1.
       -4    1    3    3    0  502 -0.15585992181E+03 -0.94923045863E+03  0.25787415229E+04  0.27523154313E+04  0.12699999809E+01 0.  1.
</event>
<event>
 5   0  0.3750285E-07  0.3202250E+04  0.7818609E-02  0.8188223E-01
        2   -1    0    0  501    0  0.00000000000E+00  0.00000000000E+00  0.19741600287E+04  0.19741600287E+04  0.25500000920E-02 0.  1.
       -2   -1    0    0    0  501  0.00000000000E+00  0.00000000000E+00 -0.12985785316E+04  0.12985785316E+04  0.25500000920E-02 0. -1.
    10030    2    1    2    0    0  0.00000000000E+00  0.00000000000E+00  0.67558149707E+03  0.32727385602E+04  0.32022503532E+04 0.  0.
        1    1    3    3  502    0  0.23119706616E+03 -0.15841368303E+04  0.36405170125E+03  0.16417902490E+04  0.50400001928E-02 0. -1.
       -1    1    3    3    0  502 -0.23119706616E+03  0.15841368303E+04  0.31152979583E+03  0.16309483113E+04  0.50400001928E-02 0.  1.
</event>
<event>
 5   0  0.1288096E-07  0.3197497E+04  0.7818609E-02  0.8189478E-01
        1   -1    0    0  501    0  0.00000000000E+00  0.00000000000E+00  0.10827062826E+04  0.10827062826E+04  0.50400001928E-02 0. -1.
       -1   -1    0    0    0  501  0.00000000000E+00  0.00000000000E+00 -0.23607484146E+04  0.23607484146E+04  0.50400001928E-02 0.  1.
    10030    2    1    2    0    0  0.00000000000E+00  0.00000000000E+00 -0.12780421320E+04  0.34434546971E+04  0.31974972338E+04 0.  0.
        2    1    3    3  502    0 -0.38957061337E+03 -0.55631640044E+03 -0.21976748836E+04  0.23002234878E+04  0.25500000920E-02 0.  1.
       -2    1    3    3    0  502  0.38957061337E+03  0.55631640044E+03  0.91963275155E+03  0.11432312093E+04  0.25500000920E-02 0. -1.
</event>
<event>
 5   0  0.1317293E-07  0.3205828E+04  0.7818609E-02  0.8187280E-01
       -1   -1    0    0    0  501  0.00000000000E+00  0.00000000000E+00  0.16217699708E+04  0.16217699708E+04  0.50400001928E-02 0.  1.
        1   -1    0    0  501    0  0.00000000000E+00  0.00000000000E+00 -0.15842771059E+04  0.15842771059E+04  0.50400001928E-02 0. -1.
    10030    2    1    2    0    0  0.00000000000E+00  0.00000000000E+00  0.37492864848E+02  0.32060470767E+04  0.32058278405E+04 0.  0.
        1    1    3    3  502    0  0.10423448926E+04 -0.64100600198E+03 -0.10166800918E+04  0.15909148245E+04  0.50400001928E-02 0. -1.
       -1    1    3    3    0  502 -0.10423448926E+04  0.64100600198E+03  0.10541729567E+04  0.16151322522E+04  0.50400001928E-02 0.  1.
</event>
<event>
 5   0  0.1230450E-07  0.3198505E+04  0.7818609E-02  0.8189212E-01
        3   -1    0    0  501    0  0.00000000000E+00  0.00000000000E+00  0.13327253517E+04  0.13327253555E+04  0.10100000352E+00 0.  1.
       -3   -1    0    0    0  501  0.00000000000E+00  0.00000000000E+00 -0.19190816878E+04  0.19190816905E+04  0.10100000352E+00 0. -1.
    10030    2    1    2    0    0  0.00000000000E+00  0.00000000000E+00 -0.58635633615E+03  0.32518070460E+04  0.31985051683E+04 0.  0.
        3    1    3    3  502    0  0.43291838310E+03  0.60538716824E+03 -0.17322872720E+04  0.18853994677E+04  0.10100000352E+00 0. -1.
       -3    1    3    3    0  502 -0.43291838310E+03 -0.60538716824E+03  0.11459309359E+04  0.13664075783E+04  0.10100000352E+00 0.  1.
</event>
<event>
 5   0  0.3830207E-07  0.3200858E+04  0.7818609E-02  0.8188591E-01
        2   -1    0    0  501    0  0.00000000000E+00  0.00000000000E+00  0.27699179014E+04  0.27699179014E+04  0.25500000920E-02 0.  1.
       -2   -1    0    0    0  501  0.00000000000E+00  0.00000000000E+00 -0.92471065456E+03  0.92471065457E+03  0.25500000920E-02 0. -1.
    10030    2    1    2    0    0  0.00000000000E+00  0.00000000000E+00  0.18452072469E+04  0.36946285560E+04  0.32008577574E+04 0.  0.
        4    1    3    3  502    0 -0.15667185366E+04  0.15686651354E+03  0.12534500496E+04  0.20125488108E+04  0.12699999809E+01 0.  1.
       -4    1    3    3    0  502  0.15667185366E+04 -0.15686651354E+03  0.59175719726E+03  0.16820797452E+04  0.12699999809E+01 0. -1.
</event>
<event>
 5   0  0.1270948E-07  0.3200083E+04  0.7818609E-02  0.8188795E-01
       -1   -1    0    0    0  501  0.00000000000E+00  0.00000000000E+00  0.17475908202E+04  0.17475908202E+04  0.50400001928E-02 0.  1.
        1   -1    0    0  501    0  0.00000000000E+00  0.00000000000E+00 -0.14649496812E+04  0.14649496812E+04  0.50400001928E-02 0. -1.
    10030    2    1    2    0    0  0.00000000000E+00  0.00000000000E+00  0.28264113905E+03  0.32125405014E+04  0.32000828832E+04 0.  0.
        4    1    3    3  502    0  0.20998429763E+03  0.18755987188E+03  0.17225264331E+04  0.17453856412E+04  0.12699999809E+01 0.  1.
       -4    1    3    3    0  502 -0.20998429763E+03 -0.18755987188E+03 -0.14398852941E+04  0.14671548602E+04  0.12699999809E+01 0. -1.
</event>
<event>
 5   0  0.3830207E-07  0.3178135E+04  0.7818609E-02  0.8194616E-01
        2   -1    0    0  501    0  0.00000000000E+00  0.00000000000E+00  0.13477815970E+04  0.13477815970E+04  0.25500000920E-02 0. -1.
       -2   -1    0    0    0  501  0.00000000000E+00  0.00000000000E+00 -0.18735493151E+04  0.18735493151E+04  0.25500000920E-02 0.  1.
    10030    2    1    2    0    0  0.00000000000E+00  0.00000000000E+00 -0.52576771814E+03  0.32213309121E+04  0.31781348543E+04 0.  0.
        4    1    3    3  502    0 -0.11378222021E+04  0.10447099104E+04  0.11511314417E+03  0.15489708872E+04  0.12699999809E+01 0.  1.
       -4    1    3    3    0  502  0.11378222021E+04 -0.10447099104E+04 -0.64088086231E+03  0.16723600249E+04  0.12699999809E+01 0. -1.
</event>
<event>
 5   0  0.1288096E-07  0.3211549E+04  0.7818609E-02  0.8185774E-01
        1   -1    0    0  501    0  0.00000000000E+00  0.00000000000E+00  0.19563508039E+04  0.19563508039E+04  0.50400001928E-02 0. -1.
       -1   -1    0    0    0  501  0.00000000000E+00  0.00000000000E+00 -0.13180211392E+04  0.13180211392E+04  0.50400001928E-02 0.  1.
    10030    2    1    2    0    0  0.00000000000E+00  0.00000000000E+00  0.63832966475E+03  0.32743719431E+04  0.32115489816E+04 0.  0.
        2    1    3    3  502    0 -0.82631309661E+02  0.15926675707E+04  0.12816692703E+03  0.15999514634E+04  0.25500000920E-02 0.  1.
       -2    1    3    3    0  502  0.82631309661E+02 -0.15926675707E+04  0.51016273772E+03  0.16744204797E+04  0.25500000920E-02 0. -1.
</event>
<event>
 5   0  0.3750285E-07  0.3199605E+04  0.7818609E-02  0.8188921E-01
        2   -1    0    0  501    0  0.00000000000E+00  0.00000000000E+00  0.13286461765E+04  0.13286461765E+04  0.25500000920E-02 0.  1.
       -2   -1    0    0    0  501  0.00000000000E+00  0.00000000000E+00 -0.19262979537E+04  0.19262979537E+04  0.25500000920E-02 0. -1.
    10030    2    1    2    0    0  0.00000000000E+00  0.00000000000E+00 -0.59765177718E+03  0.32549441301E+04  0.31996052324E+04 0.  0.
        1    1    3    3  502    0  0.67077750836E+03  0.47654304693E+03 -0.16945363383E+04  0.18837433857E+04  0.50400001928E-02 0. -1.
       -1    1    3    3    0  502 -0.67077750836E+03 -0.47654304693E+03  0.10968845611E+04  0.13712007445E+04  0.50400001928E-02 0.  1.
</event>
<event>
 5   0  0.1365455E-07  0.3196701E+04  0.7818609E-02  0.8189689E-01
       -1   -1    0    0    0  501  0.00000000000E+00  0.00000000000E+00  0.26960827088E+04  0.26960827088E+04  0.50400001928E-02 0. -1.
        1   -1    0    0  501    0  0.00000000000E+00  0.00000000000E+00 -0.94756874506E+03  0.94756874507E+03  0.50400001928E-02 0.  1.
    10030    2    1    2    0    0  0.00000000000E+00  0.00000000000E+00  0.17485139638E+04  0.36436514539E+04  0.31967006172E+04 0.  0.
        3    1    3    3  502    0 -0.65587170515E+03 -0.13878109563E+04  0.36638375309E+03  0.15781077304E+04  0.10100000352E+00 0.  1.
       -3    1    3    3    0  502  0.65587170515E+03  0.13878109563E+04  0.13821302107E+04  0.20655437235E+04  0.10100000352E+00 0. -1.
</event>
<event>
 5   0  0.1317293E-07  0.3200270E+04  0.7818609E-02  0.8188746E-01
       -1   -1    0    0    0  501  0.00000000000E+00  0.00000000000E+00  0.10463004613E+04  0.10463004613E+04  0.50400001928E-02 0. -1.
        1   -1    0    0  501    0  0.00000000000E+00  0.00000000000E+00 -0.24471291647E+04  0.24471291647E+04  0.50400001928E-02 0.  1.
    10030    2    1    2    0    0  0.00000000000E+00  0.00000000000E+00 -0.14008287034E+04  0.34934296260E+04  0.32002702223E+04 0.  0.
        1    1    3    3  502    0  0.56789764680E+03 -0.14951715344E+04 -0.64708503266E+03  0.17253303144E+04  0.50400001928E-02 0.  1.
       -1    1    3    3    0  502 -0.56789764680E+03  0.14951715344E+04 -0.75374367071E+03  0.17680993116E+04  0.50400001928E-02 0. -1.
</event>
<event>
 5   0  0.1365455E-07  0.3199252E+04  0.7818609E-02  0.8189015E-01
        1   -1    0    0  501    0  0.00000000000E+00  0.00000000000E+00  0.20350080237E+04  0.20350080237E+04  0.50400001928E-02 0.  1.
       -1   -1    0    0    0  501  0.00000000000E+00  0.00000000000E+00 -0.12573926455E+04  0.12573926455E+04  0.50400001928E-02 0. -1.
    10030    2    1    2    0    0  0.00000000000E+00  0.00000000000E+00  0.77761537824E+03  0.32924006692E+04  0.31992524893E+04 0.  0.
        3    1    3    3  502    0 -0.13152778293E+04 -0.61192415806E+03  0.10825241074E+04  0.18100456892E+04  0.10100000352E+00 0.  1.
       -3    1    3    3    0  502  0.13152778293E+04  0.61192415806E+03 -0.30490872917E+03  0.14823549801E+04  0.10100000352E+00 0. -1.
</event>
<event>
 5   0  0.3942564E-07  0.3192769E+04  0.7818609E-02  0.8190729E-01
        2   -1    0    0  501    0  0.00000000000E+00  0.00000000000E+00  0.29927794342E+04  0.29927794342E+04  0.25500000920E-02 0.  1.
       -2   -1    0    0    0  501  0.00000000000E+00  0.00000000000E+00 -0.85153062064E+03  0.85153062064E+03  0.25500000920E-02 0. -1.
    10030    2    1    2    0    0  0.00000000000E+00  0.00000000000E+00  0.21412488135E+04  0.38443100548E+04  0.31927689105E+04 0.  0.
        3    1    3    3  502    0  0.10095188434E+04 -0.32965934377E+03  0.25057598866E+04  0.27215135858E+04  0.10100000352E+00 0.  1.
       -3    1    3    3    0  502 -0.10095188434E+04  0.32965934377E+03 -0.36451107311E+03  0.11227964690E+04  0.10100000352E+00 0. -1.
</event>
<event>
 5   0  0.3858721E-07  0.3206900E+04  0.7818609E-02  0.8186997E-01
       -2   -1    0    0    0  501  0.00000000000E+00  0.00000000000E+00  0.16180807432E+04  0.16180807432E+04  0.25500000920E-02 0. -1.
        2   -1    0    0  501    0  0.00000000000E+00  0.00000000000E+00 -0.15889514130E+04  0.15889514130E+04  0.25500000920E-02 0.  1.
    10030    2    1    2    0    0  0.00000000000E+00  0.00000000000E+00  0.29129330141E+02  0.32070321562E+04  0.32068998633E+04 0.  0.
        2    1    3    3  502    0  0.82308158303E+03  0.32885143032E+03 -0.13216959529E+04  0.15913788825E+04  0.25500000920E-02 0.  1.
       -2    1    3    3    0  502 -0.82308158303E+03 -0.32885143032E+03  0.13508252831E+04  0.16156532737E+04  0.25500000920E-02 0. -1.
</event>
<event>
 5   0  0.1270948E-07  0.3163246E+04  0.7818609E-02  0.8198592E-01
        1   -1    0    0  501    0  0.00000000000E+00  0.00000000000E+00  0.17877019941E+04  0.17877019941E+04  0.50400001928E-02 0. -1.
       -1   -1    0    0    0  501  0.00000000000E+00  0.00000000000E+00 -0.13992997359E+04  0.13992997359E+04  0.50400001928E-02 0.  1.
    10030    2    1    2    0    0  0.00000000000E+00  0.00000000000E+00  0.38840225820E+03  0.31870017300E+04  0.31632457560E+04 0.  0.
        4    1    3    3  502    0 -0.73930351241E+03  0.61587109554E+03 -0.10704797560E+04  0.14393732701E+04  0.12699999809E+01 0.  1.
       -4    1    3    3    0  502  0.73930351241E+03 -0.61587109554E+03  0.14588820142E+04  0.17476284599E+04  0.12699999809E+01 0. -1.
</event>
<event>
 5   0  0.3750285E-07  0.3202832E+04  0.7818609E-02  0.8188070E-01
        2   -1    0    0  501    0  0.00000000000E+00  0.00000000000E+00  0.23756196592E+04  0.23756196592E+04  0.25500000920E-02 0.  1.
       -2   -1    0    0    0  501  0.00000000000E+00  0.00000000000E+00 -0.10795216334E+04  0.10795216334E+04  0.25500000920E-02 0. -1.
    10030    2    1    2    0    0  0.00000000000E+00  0.00000000000E+00  0.12960980258E+04  0.34551412926E+04  0.32028317564E+04 0.  0.
        1    1    3    3  502    0  0.13337619377E+03  0.15757138410E+04  0.37541600538E+03  0.16253001246E+04  0.50400001928E-02 0.  1.
       -1    1    3    3    0  502 -0.13337619377E+03 -0.15757138410E+04  0.92068202039E+03  0.18298411681E+04  0.50400001928E-02 0. -1.
</event>
<event>
 5   0  0.3764056E-07  0.3208528E+04  0.7818609E-02  0.8186568E-01
       -2   -1    0    0    0  501  0.00000000000E+00  0.00000000000E+00  0.83201797804E+03  0.83201797804E+03  0.25500000920E-02 0.  1.
        2   -1    0    0  501    0  0.00000000000E+00  0.00000000000E+00 -0.30932789657E+04  0.30932789657E+04  0.25500000920E-02 0. -1.
    10030    2    1    2    0    0  0.00000000000E+00  0.00000000000E+00 -0.22612609877E+04  0.39252969437E+04  0.32085284543E+04 0.  0.
        5    1    3    3  502    0 -0.11214716870E+04 -0.79076237674E+03 -0.21473280373E+04  0.25483413568E+04  0.46999998093E+01 0. -1.
       -5    1    3    3    0  502  0.11214716870E+04  0.79076237674E+03 -0.11393295034E+03  0.13769555869E+04  0.46999998093E+01 0.  1.
</event>
<event>
 5   0  0.1270948E-07  0.3199568E+04  0.7818609E-02  0.8188931E-01
        1   -1    0    0  501    0  0.00000000000E+00  0.00000000000E+00  0.19144859167E+04  0.19144859167E+04  0.50400001928E-02 0.  1.
       -1   -1    0    0    0  501  0.00000000000E+00  0.00000000000E+00 -0.13368122238E+04  0.13368122238E+04  0.50400001928E-02 0. -1.
    10030    2    1    2    0    0  0.00000000000E+00  0.00000000000E+00  0.57767369292E+03  0.32512981405E+04  0.31995675806E+04 0.  0.
        4    1    3    3  502    0  0.32918558302E+03  0.83206410193E+03 -0.10587309259E+04  0.13862202582E+04  0.12699999809E+01 0. -1.
       -4    1    3    3    0  502 -0.32918558302E+03 -0.83206410193E+03  0.16364046188E+04  0.18650778823E+04  0.12699999809E+01 0.  1.
</event>
<event>
 5   0  0.3750285E-07  0.3205715E+04  0.7818609E-02  0.8187309E-01
       -2   -1    0    0    0  501  0.00000000000E+00  0.00000000000E+00  0.11519176740E+04  0.11519176740E+04  0.25500000920E-02 0. -1.
        2   -1    0    0  501    0  0.00000000000E+00  0.00000000000E+00 -0.22303264055E+04  0.22303264055E+04  0.25500000920E-02 0.  1.
    10030    2    1    2    0    0  0.00000000000E+00  0.00000000000E+00 -0.10784087316E+04  0.33822440795E+04  0.32057151497E+04 0.  0.
        1    1    3    3  502    0  0.65416820860E+03  0.85812978927E+03 -0.17897278274E+04  0.20898441273E+04  0.50400001928E-02 0.  1.
       -1    1    3    3    0  502 -0.65416820860E+03 -0.85812978927E+03  0.71131909577E+03  0.12923999522E+04  0.50400001928E-02 0. -1.
</event>
<event>
 5   0  0.1317293E-07  0.3201191E+04  0.7818609E-02  0.8188503E-01
       -1   -1    0    0    0  501  0.00000000000E+00  0.00000000000E+00  0.16042843882E+04  0.16042843882E+04  0.50400001928E-02 0. -1.
        1   -1    0    0  501    0  0.00000000000E+00  0.00000000000E+00 -0.15969151118E+04  0.15969151118E+04  0.50400001928E-02 0.  1.
    10030    2    1    2    0    0  0.00000000000E+00  0.00000000000E+00  0.73692764067E+01  0.32011995000E+04  0.32011910179E+04 0.  0.
        1    1    3    3  502    0  0.14251567235E+03 -0.12382926458E+04  0.10077921686E+04  0.16029112417E+04  0.50400001928E-02 0. -1.
       -1    1    3    3    0  502 -0.14251567235E+03  0.12382926458E+04 -0.10004228922E+04  0.15982882584E+04  0.50400001928E-02 0.  1.
</event>
<event>
 5   0  0.3750285E-07  0.3200744E+04  0.7818609E-02  0.8188621E-01
       -2   -1    0    0    0  501  0.00000000000E+00  0.00000000000E+00  0.11718159583E+04  0.11718159583E+04  0.25500000920E-02 0. -1.
        2   -1    0    0  501    0  0.00000000000E+00  0.00000000000E+00 -0.21856587849E+04  0.21856587849E+04  0.25500000920E-02 0.  1.
    10030    2    1    2    0    0  0.00000000000E+00  0.00000000000E+00 -0.10138428266E+04  0.33574747433E+04  0.32007435659E+04 0.  0.
        1    1    3    3  502    0 -0.11717336958E+02 -0.55789507243E+03  0.10664612968E+04  0.12036294718E+04  0.50400001928E-02 0. -1.
       -1    1    3    3    0  502  0.11717336958E+02  0.55789507243E+03 -0.20803041234E+04  0.21538452715E+04  0.50400001928E-02 0.  1.
</event>
<event>
 5   0  0.1270948E-07  0.3198872E+04  0.7818609E-02  0.8189115E-01
       -1   -1    0    0    0  501  0.00000000000E+00  0.00000000000E+00  0.12783716027E+04  0.12783716027E+04  0.50400001928E-02 0. -1.
        1   -1    0    0  501    0  0.00000000000E+00  0.00000000000E+00 -0.20011355659E+04  0.20011355659E+04  0.50400001928E-02 0.  1.
    10030    2    1    2    0    0  0.00000000000E+00  0.00000000000E+00 -0.72276396319E+03  0.32795071686E+04  0.31988716014E+04 0.  0.
        4    1    3    3  502    0  0.12607958909E+03  0.15052749323E+04 -0.90041555803E+03  0.17585501058E+04  0.12699999809E+01 0.  1.
       -4    1    3    3    0  502 -0.12607958909E+03 -0.15052749323E+04  0.17765159483E+03  0.15209570628E+04  0.12699999809E+01 0. -1.
</event>
<event>
 5   0  0.3858721E-07  0.3203089E+04  0.7818609E-02  0.8188002E-01
       -2   -1    0    0    0  501  0.00000000000E+00  0.00000000000E+00  0.14081441994E+04  0.14081441994E+04  0.25500000920E-02 0.  1.
        2   -1    0    0  501    0  0.00000000000E+00  0.00000000000E+00 -0.18215076003E+04  0.18215076003E+04  0.25500000920E-02 0. -1.
    10030    2    1    2    0    0  0.00000000000E+00  0.00000000000E+00 -0.41336340094E+03  0.32296517997E+04  0.32030893597E+04 0.  0.
        2    1    3    3  502    0 -0.44492244414E+03 -0.33130042541E+02 -0.17575827325E+04  0.18133258512E+04  0.25500000920E-02 0. -1.
       -2    1    3    3    0  502  0.44492244414E+03  0.33130042541E+02  0.13442193316E+04  0.14163259485E+04  0.25500000920E-02 0.  1.
</event>
<event>
 5   0  0.3858721E-07  0.3194563E+04  0.7818609E-02  0.8190254E-01
        2   -1    0    0  501    0  0.00000000000E+00  0.00000000000E+00  0.13740729000E+04  0.13740729000E+04  0.25500000920E-02 0. -1.
       -2   -1    0    0    0  501  0.00000000000E+00  0.00000000000E+00 -0.18567492663E+04  0.18567492663E+04  0.25500000920E-02 0.  1.
    10030    2    1    2    0    0  0.00000000000E+00  0.00000000000E+00 -0.48267636628E+03  0.32308221663E+04  0.31945634124E+04 0.  0.
        2    1    3    3  502    0 -0.13209163071E+04 -0.70037530689E+03 -0.80982437650E+03  0.17003414309E+04  0.25500000920E-02 0.  1.
       -2    1    3    3    0  502  0.13209163071E+04  0.70037530689E+03  0.32714801022E+03  0.15304807354E+04  0.25500000920E-02 0. -1.
</event>
<event>
 5   0  0.1270948E-07  0.3185103E+04  0.7818609E-02  0.8192763E-01
       -1   -1    0    0    0  501  0.00000000000E+00  0.00000000000E+00  0.25060942559E+04  0.25060942559E+04  0.50400001928E-02 0. -1.
        1   -1    0    0  501    0  0.00000000000E+00  0.00000000000E+00 -0.10120208927E+04  0.10120208927E+04  0.50400001928E-02 0.  1.
    10030    2    1    2    0    0  0.00000000000E+00  0.00000000000E+00  0.14940733632E+04  0.35181151486E+04  0.31851026646E+04 0.  0.
        4    1    3    3  502    0 -0.15639388962E+04 -0.15877994711E+03  0.46520850266E+03  0.16393707655E+04  0.12699999809E+01 0.  1.
       -4    1    3    3    0  502  0.15639388962E+04  0.15877994711E+03  0.10288648606E+04  0.18787443831E+04  0.12699999809E+01 0. -1.
</event>
<event>
 5   0  0.1277374E-07  0.3203149E+04  0.7818609E-02  0.8187986E-01
        1   -1    0    0  501    0  0.00000000000E+00  0.00000000000E+00  0.23554678664E+04  0.23554678664E+04  0.50400001928E-02 0. -1.
       -1   -1    0    0    0  501  0.00000000000E+00  0.00000000000E+00 -0.10889727467E+04  0.10889727467E+04  0.50400001928E-02 0.  1.
    10030    2    1    2    0    0  0.00000000000E+00  0.00000000000E+00  0.12664951197E+04  0.34444406131E+04  0.32031486460E+04 0.  0.
        5    1    3    3  502    0  0.27556363043E+03 -0.31795705016E+03 -0.10284711760E+04  0.11112187229E+04  0.46999998093E+01 0.  1.
       -5    1    3    3    0  502 -0.27556363043E+03  0.31795705016E+03  0.22949662957E+04  0.23332218902E+04  0.46999998093E+01 0. -1.
</event>
<event>
 5   0  0.1288096E-07  0.3197646E+04  0.7818609E-02  0.8189439E-01
        1   -1    0    0  501    0  0.00000000000E+00  0.00000000000E+00  0.15852216930E+04  0.15852216930E+04  0.50400001928E-02 0.  1.
       -1   -1    0    0    0  501  0.00000000000E+00  0.00000000000E+00 -0.16125408157E+04  0.16125408157E+04  0.50400001928E-02 0. -1.
    10030    2    1    2    0    0  0.00000000000E+00  0.00000000000E+00 -0.27319122663E+02  0.31977625087E+04  0.31976458102E+04 0.  0.
        2    1    3    3  502    0 -0.38134872863E+03  0.13825786078E+04  0.69296669488E+03  0.15928444054E+04  0.25500000920E-02 0.  1.
       -2    1    3    3    0  502  0.38134872863E+03 -0.13825786078E+04 -0.72028581754E+03  0.16049181033E+04  0.25500000920E-02 0. -1.
</event>
<event>
 5   0  0.3942564E-07  0.3195588E+04  0.7818609E-02  0.8189983E-01
        2   -1    0    0  501    0  0.00000000000E+00  0.00000000000E+00  0.17288789554E+04  0.17288789554E+04  0.25500000920E-02 0. -1.
       -2   -1    0    0    0  501  0.00000000000E+00  0.00000000000E+00 -0.14766478711E+04  0.14766478711E+04  0.25500000920E-02 0.  1.
    10030    2    1    2    0    0  0.00000000000E+00  0.00000000000E+00  0.25223108426E+03  0.32055268265E+04  0.31955878514E+04 0.  0.
        3    1    3    3  502    0 -0.11096312082E+04  0.36106152271E+03 -0.96874540706E+03  0.15166128429E+04  0.10100000352E+00 0.  1.
       -3    1    3    3    0  502  0.11096312082E+04 -0.36106152271E+03  0.12209764913E+04  0.16889139836E+04  0.10100000352E+00 0. -1.
</event>
<event>
 5   0  0.1288096E-07  0.3206351E+04  0.7818609E-02  0.8187142E-01
        1   -1    0    0  501    0  0.00000000000E+00  0.00000000000E+00  0.19823866862E+04  0.19823866862E+04  0.50400001928E-02 0.  1.
       -1   -1    0    0    0  501  0.00000000000E+00  0.00000000000E+00 -0.12965037760E+04  0.12965037760E+04  0.50400001928E-02 0. -1.
    10030    2    1    2    0    0  0.00000000000E+00  0.00000000000E+00  0.68588291013E+03  0.32788904622E+04  0.32063510876E+04 0.  0.
        2    1    3    3  502    0 -0.17172809468E+03  0.73093777636E+03 -0.11055829313E+04  0.13364408664E+04  0.25500000920E-02 0. -1.
       -2    1    3    3    0  502  0.17172809468E+03 -0.73093777636E+03  0.17914658414E+04  0.19424495958E+04  0.25500000920E-02 0.  1.
</event>
<event>
 5   0  0.1317293E-07  0.3196809E+04  0.7818609E-02  0.8189660E-01
       -1   -1    0    0    0  501  0.00000000000E+00  0.00000000000E+00  0.13754445716E+04  0.13754445716E+04  0.50400001928E-02 0.  1.
        1   -1    0    0  501    0  0.00000000000E+00  0.00000000000E+00 -0.18575063056E+04  0.18575063056E+04  0.50400001928E-02 0. -1.
    10030    2    1    2    0    0  0.00000000000E+00  0.00000000000E+00 -0.48206173400E+03  0.32329508771E+04  0.31968090119E+04 0.  0.
        1    1    3    3  502    0 -0.30887675280E+03  0.78063277049E+02 -0.18250719452E+04  0.18526700539E+04  0.50400001928E-02 0. -1.
       -1    1    3    3    0  502  0.30887675280E+03 -0.78063277049E+02  0.13430102112E+04  0.13802808232E+04  0.50400001928E-02 0.  1.
</event>
<event>
 5   0  0.3750285E-07  0.3178875E+04  0.7818609E-02  0.8194419E-01
       -2   -1    0    0    0  501  0.00000000000E+00  0.00000000000E+00  0.11379875834E+04  0.11379875834E+04  0.25500000920E-02 0. -1.
        2   -1    0    0  501    0  0.00000000000E+00  0.00000000000E+00 -0.22199816131E+04  0.22199816131E+04  0.25500000920E-02 0.  1.
    10030    2    1    2    0    0  0.00000000000E+00  0.00000000000E+00 -0.10819940297E+04  0.33579691965E+04  0.31788749652E+04 0.  0.
        1    1    3    3  502    0  0.65200741491E+03  0.14265677090E+04 -0.26940817471E+03  0.15914741161E+04  0.50400001928E-02 0. -1.
       -1    1    3    3    0  502 -0.65200741491E+03 -0.14265677090E+04 -0.81258585498E+03  0.17664950804E+04  0.50400001928E-02 0.  1.
</event>
<event>
 5   0  0.1230450E-07  0.3199679E+04  0.7818609E-02  0.8188902E-01
        3   -1    0    0  501    0  0.00000000000E+00  0.00000000000E+00  0.15720333292E+04  0.15720333325E+04  0.10100000352E+00 0. -1.
       -3   -1    0    0    0  501  0.00000000000E+00  0.00000000000E+00 -0.16281375060E+04  0.16281375091E+04  0.10100000352E+00 0.  1.
    10030    2    1    2    0    0  0.00000000000E+00  0.00000000000E+00 -0.56104176769E+02  0.32001708416E+04  0.31996790053E+04 0.  0.
        2    1    3    3  502    0 -0.69975662392E+03  0.13053070887E+04 -0.63312483878E+03  0.16106933259E+04  0.25500000920E-02 0.  1.
       -2    1    3    3    0  502  0.69975662392E+03 -0.13053070887E+04  0.57702066201E+03  0.15894775157E+04  0.25500000920E-02 0. -1.
</event>
<event>
 5   0  0.1277374E-07  0.3203280E+04  0.7818609E-02  0.8187952E-01
        1   -1    0    0  501    0  0.00000000000E+00  0.00000000000E+00  0.15479594426E+04  0.15479594426E+04  0.50400001928E-02 0. -1.
       -1   -1    0    0    0  501  0.00000000000E+00  0.00000000000E+00 -0.16571816204E+04  0.16571816204E+04  0.50400001928E-02 0.  1.
    10030    2    1    2    0    0  0.00000000000E+00  0.00000000000E+00 -0.10922217773E+03  0.32051410630E+04  0.32032795304E+04 0.  0.
        5    1    3    3  502    0 -0.70162865289E+03 -0.14323103972E+04  0.91870731836E+02  0.15975788437E+04  0.46999998093E+01 0. -1.
       -5    1    3    3    0  502  0.70162865289E+03  0.14323103972E+04 -0.20109290956E+03  0.16075622193E+04  0.46999998093E+01 0.  1.
</event>
<event>
 5   0  0.3858721E-07  0.3204599E+04  0.7818609E-02  0.8187604E-01
        2   -1    0    0  501    0  0.00000000000E+00  0.00000000000E+00  0.22326739401E+04  0.22326739401E+04  0.25500000920E-02 0. -1.
       -2   -1    0    0    0  501  0.00000000000E+00  0.00000000000E+00 -0.11499050949E+04  0.11499050949E+04  0.25500000920E-02 0.  1.
    10030    2    1    2    0    0  0.00000000000E+00  0.00000000000E+00  0.10827688452E+04  0.33825790350E+04  0.32045986575E+04 0.  0.
        2    1    3    3  502    0 -0.11688113683E+03 -0.13467461152E+04  0.14493792407E+04  0.19819400804E+04  0.25500000920E-02 0.  1.
       -2    1    3    3    0  502  0.11688113683E+03  0.13467461152E+04 -0.36661039558E+03  0.14006389546E+04  0.25500000920E-02 0. -1.
</event>
<event>
 5   0  0.3858721E-07  0.3199587E+04  0.7818609E-02  0.8188926E-01
        2   -1    0    0  501    0  0.00000000000E+00  0.00000000000E+00  0.19366515617E+04  0.19366515617E+04  0.25500000920E-02 0.  1.
       -2   -1    0    0    0  501  0.00000000000E+00  0.00000000000E+00 -0.13215276503E+04  0.13215276503E+04  0.25500000920E-02 0. -1.
    10030    2    1    2    0    0  0.00000000000E+00  0.00000000000E+00  0.61512391139E+03  0.32581792120E+04  0.31995865907E+04 0.  0.
        2    1    3    3  502    0 -0.14648971561E+04  0.56459053534E+03  0.62085229372E+03  0.16882368676E+04  0.25500000920E-02 0.  1.
       -2    1    3    3    0  502  0.14648971561E+04 -0.56459053534E+03 -0.57283823316E+01  0.15699423444E+04  0.25500000920E-02 0. -1.
</event>
<event>
 5   0  0.1365455E-07  0.3205187E+04  0.7818609E-02  0.8187449E-01
       -1   -1    0    0    0  501  0.00000000000E+00  0.00000000000E+00  0.15040949894E+04  0.15040949894E+04  0.50400001928E-02 0. -1.
        1   -1    0    0  501    0  0.00000000000E+00  0.00000000000E+00 -0.17075419443E+04  0.17075419443E+04  0.50400001928E-02 0.  1.
    10030    2    1    2    0    0  0.00000000000E+00  0.00000000000E+00 -0.20344695496E+03  0.32116369337E+04  0.32051865984E+04 0.  0.
        3    1    3    3  502    0  0.28231014439E+03  0.14076229684E+04  0.61189221098E+03  0.15606131893E+04  0.10100000352E+00 0. -1.
       -3    1    3    3    0  502 -0.28231014439E+03 -0.14076229684E+04 -0.81533916595E+03  0.16510237444E+04  0.10100000352E+00 0.  1.
</event>
<event>
 5   0  0.3764056E-07  0.3202392E+04  0.7818609E-02  0.8188186E-01
       -2   -1    0    0    0  501  0.00000000000E+00  0.00000000000E+00  0.11393824850E+04  0.11393824850E+04  0.25500000920E-02 0.  1.
        2   -1    0    0  501    0  0.00000000000E+00  0.00000000000E+00 -0.22501914549E+04  0.22501914549E+04  0.25500000920E-02 0. -1.
    10030    2    1    2    0    0  0.00000000000E+00  0.00000000000E+00 -0.11108089699E+04  0.33895739399E+04  0.32023920632E+04 0.  0.
        5    1    3    3  502    0  0.10133750175E+04  0.95030610523E+03  0.28724190743E+03  0.14186404136E+04  0.46999998093E+01 0.  1.
       -5    1    3    3    0  502 -0.10133750175E+04 -0.95030610523E+03 -0.13980508773E+04  0.19709335263E+04  0.46999998093E+01 0. -1.
</event>
<event>
 5   0  0.1270948E-07  0.3140375E+04  0.7818609E-02  0.8204744E-01
        1   -1    0    0  501    0  0.00000000000E+00  0.00000000000E+00  0.13522960969E+04  0.13522960969E+04  0.50400001928E-02 0.  1.
       -1   -1    0    0    0  501  0.00000000000E+00  0.00000000000E+00 -0.18231868476E+04  0.18231868476E+04  0.50400001928E-02 0. -1.
    10030    2    1    2    0    0  0.00000000000E+00  0.00000000000E+00 -0.47089075075E+03  0.31754829445E+04  0.31403747916E+04 0.  0.
        4    1    3    3  502    0 -0.62459058749E+03 -0.14202862171E+04  0.84156437666E+01  0.15515794457E+04  0.12699999809E+01 0.  1.
       -4    1    3    3    0  502  0.62459058749E+03  0.14202862171E+04 -0.47930639452E+03  0.16239034987E+04  0.12699999809E+01 0. -1.
</event>
<event>
 5   0  0.3858721E-07  0.3204452E+04  0.7818609E-02  0.8187642E-01
        2   -1    0    0  501    0  0.00000000000E+00  0.00000000000E+00  0.20910160007E+04  0.20910160007E+04  0.25500000920E-02 0.  1.
       -2   -1    0    0    0  501  0.00000000000E+00  0.00000000000E+00 -0.12276943145E+04  0.12276943145E+04  0.25500000920E-02 0. -1.
    10030    2    1    2    0    0  0.00000000000E+00  0.00000000000E+00  0.86332168620E+03  0.33187103152E+04  0.32044521875E+04 0.  0.
        2    1    3    3  502    0 -0.42792127294E+03  0.15381100576E+04  0.29183081946E+03  0.16229800961E+04  0.25500000920E-02 0.  1.
       -2    1    3    3    0  502  0.42792127294E+03 -0.15381100576E+04  0.57149086674E+03  0.16957302191E+04  0.25500000920E-02 0. -1.
</event>
<event>
 5   0  0.1277374E-07  0.3200740E+04  0.7818609E-02  0.8188622E-01
        1   -1    0    0  501    0  0.00000000000E+00  0.00000000000E+00  0.17704973778E+04  0.17704973778E+04  0.50400001928E-02 0. -1.
       -1   -1    0    0    0  501  0.00000000000E+00  0.00000000000E+00 -0.14465903295E+04  0.14465903295E+04  0.50400001928E-02 0.  1.
    10030    2    1    2    0    0  0.00000000000E+00  0.00000000000E+00  0.32390704830E+03  0.32170877073E+04  0.32007401552E+04 0.  0.
        5    1    3    3  502    0 -0.63579464002E+02 -0.94718689441E+03  0.14569270601E+04  0.17389260794E+04  0.46999998093E+01 0. -1.
       -5    1    3    3    0  502  0.63579464002E+02  0.94718689441E+03 -0.11330200118E+04  0.14781616279E+04  0.46999998093E+01 0.  1.
</event>
<event>
 5   0  0.1230450E-07  0.3189554E+04  0.7818609E-02  0.8191581E-01
        3   -1    0    0  501    0  0.00000000000E+00  0.00000000000E+00  0.18666020558E+04  0.18666020585E+04  0.10100000352E+00 0. -1.
       -3   -1    0    0    0  501  0.00000000000E+00  0.00000000000E+00 -0.13625364556E+04  0.13625364593E+04  0.10100000352E+00 0.  1.
    10030    2    1    2    0    0  0.00000000000E+00  0.00000000000E+00  0.50406560022E+03  0.32291385179E+04  0.31895537992E+04 0.  0.
        4    1    3    3  502    0 -0.31449538334E+03 -0.57988539616E+03 -0.12179294850E+04  0.13851094766E+04  0.12699999809E+01 0.  1.
       -4    1    3    3    0  502  0.31449538334E+03  0.57988539616E+03  0.17219950852E+04  0.18440290413E+04  0.12699999809E+01 0. -1.
</event>
<event>
 5   0  0.1288096E-07  0.3189341E+04  0.7818609E-02  0.8191638E-01
       -1   -1    0    0    0  501  0.00000000000E+00  0.00000000000E+00  0.12853136395E+04  0.12853136395E+04  0.50400001928E-02 0. -1.
        1   -1    0    0  501    0  0.00000000000E+00  0.00000000000E+00 -0.19784848355E+04  0.19784848355E+04  0.50400001928E-02 0.  1.
    10030    2    1    2    0    0  0.00000000000E+00  0.00000000000E+00 -0.69317119596E+03  0.32637984750E+04  0.31893407122E+04 0.  0.
        2    1    3    3  502    0 -0.14202537373E+03 -0.12914198871E+04 -0.12928551715E+04  0.18328696151E+04  0.25500000920E-02 0.  1.
       -2    1    3    3    0  502  0.14202537373E+03  0.12914198871E+04  0.59968397549E+03  0.14309288599E+04  0.25500000920E-02 0. -1.
</event>
<event>
 5   0  0.1277374E-07  0.3201079E+04  0.7818609E-02  0.8188532E-01
        1   -1    0    0  501    0  0.00000000000E+00  0.00000000000E+00  0.32059624981E+04  0.32059624981E+04  0.50400001928E-02 0.  1.
       -1   -1    0    0    0  501  0.00000000000E+00  0.00000000000E+00 -0.79905060429E+03  0.79905060430E+03  0.50400001928E-02 0. -1.
    10030    2    1    2    0    0  0.00000000000E+00  0.00000000000E+00  0.24069118938E+04  0.40050131024E+04  0.32010787379E+04 0.  0.
        5    1    3    3  502    0 -0.39580140316E+03  0.15386480769E+04  0.96082568492E+03  0.18566918813E+04  0.46999998093E+01 0.  1.
       -5    1    3    3    0  502  0.39580140316E+03 -0.15386480769E+04  0.14460862089E+04  0.21483212211E+04  0.46999998093E+01 0. -1.
</event>
<event>
 5   0  0.3858721E-07  0.3197922E+04  0.7818609E-02  0.8189366E-01
        2   -1    0    0  501    0  0.00000000000E+00  0.00000000000E+00  0.94111532141E+03  0.94111532141E+03  0.25500000920E-02 0. -1.
       -2   -1    0    0    0  501  0.00000000000E+00  0.00000000000E+00 -0.27166449126E+04  0.27166449126E+04  0.25500000920E-02 0.  1.
    10030    2    1    2    0    0  0.00000000000E+00  0.00000000000E+00 -0.17755295912E+04  0.36577602340E+04  0.31979219190E+04 0.  0.
        2    1    3    3  502    0 -0.76407633385E+03  0.19253957017E+03 -0.24791551666E+04  0.26013639634E+04  0.25500000920E-02 0.  1.
       -2    1    3    3    0  502  0.76407633385E+03 -0.19253957017E+03  0.70362557545E+03  0.10563962706E+04  0.25500000920E-02 0. -1.
</event>
<event>
 5   0  0.3858721E-07  0.3197688E+04  0.7818609E-02  0.8189428E-01
       -2   -1    0    0    0  501  0.00000000000E+00  0.00000000000E+00  0.26474742386E+04  0.26474742386E+04  0.25500000920E-02 0.  1.
        2   -1    0    0  501    0  0.00000000000E+00  0.00000000000E+00 -0.96556256040E+03  0.96556256040E+03  0.25500000920E-02 0. -1.
    10030    2    1    2    0    0  0.00000000000E+00  0.00000000000E+00  0.16819116782E+04  0.36130367990E+04  0.31976879175E+04 0.  0.
        2    1    3    3  502    0 -0.13513656324E+04 -0.85441537099E+03  0.83039842835E+03  0.18016037990E+04  0.25500000920E-02 0. -1.
       -2    1    3    3    0  502  0.13513656324E+04  0.85441537099E+03  0.85151324981E+03  0.18114330000E+04  0.25500000920E-02 0.  1.
</event>
<event>
 5   0  0.1270948E-07  0.3200224E+04  0.7818609E-02  0.8188758E-01
        1   -1    0    0  501    0  0.00000000000E+00  0.00000000000E+00  0.20658967167E+04  0.20658967167E+04  0.50400001928E-02 0. -1.
       -1   -1    0    0    0  501  0.00000000000E+00  0.00000000000E+00 -0.12393450652E+04  0.12393450652E+04  0.50400001928E-02 0.  1.
    10030    2    1    2    0    0  0.00000000000E+00  0.00000000000E+00  0.82655165154E+03  0.33052417819E+04  0.32002243052E+04 0.  0.
        4    1    3    3  502    0 -0.10817077849E+04  0.40128482010E+03  0.15583680322E+04  0.19389775077E+04  0.12699999809E+01 0. -1.
       -4    1    3    3    0  502  0.10817077849E+04 -0.40128482010E+03 -0.73181638068E+03  0.13662642741E+04  0.12699999809E+01 0.  1.
</event>
<event>
 5   0  0.3830207E-07  0.3200164E+04  0.7818609E-02  0.8188774E-01
        2   -1    0    0  501    0  0.00000000000E+00  0.00000000000E+00  0.20086163854E+04  0.20086163854E+04  0.25500000920E-02 0. -1.
       -2   -1    0    0    0  501  0.00000000000E+00  0.00000000000E+00 -0.12746399627E+04  0.12746399627E+04  0.25500000920E-02 0.  1.
    10030    2    1    2    0    0  0.00000000000E+00  0.00000000000E+00  0.73397642268E+03  0.32832563481E+04  0.32001641923E+04 0.  0.
        4    1    3    3  502    0  0.13844887921E+04  0.54566087767E+03  0.97022253966E+03  0.17764820287E+04  0.12699999809E+01 0. -1.
       -4    1    3    3    0  502 -0.13844887921E+04 -0.54566087767E+03 -0.23624611698E+03  0.15067743194E+04  0.12699999809E+01 0.  1.
</event>
<event>
 5   0  0.1230450E-07  0.3204257E+04  0.7818609E-02  0.8187694E-01
       -3   -1    0    0    0  501  0.00000000000E+00  0.00000000000E+00  0.14408153023E+04  0.14408153058E+04  0.10100000352E+00 0. -1.
        3   -1    0    0  501    0  0.00000000000E+00  0.00000000000E+00 -0.17815019778E+04  0.17815019807E+04  0.10100000352E+00 0.  1.
    10030    2    1    2    0    0  0.00000000000E+00  0.00000000000E+00 -0.34068667552E+03  0.32223172865E+04  0.32042567444E+04 0.  0.
        5    1    3    3  502    0  0.50252404912E+03  0.12245613792E+03 -0.16952235401E+04  0.17723800006E+04  0.46999998093E+01 0.  1.
       -5    1    3    3    0  502 -0.50252404912E+03 -0.12245613792E+03  0.13545368645E+04  0.14499372859E+04  0.46999998093E+01 0. -1.
</event>
<event>
 5   0  0.1230450E-07  0.3193351E+04  0.7818609E-02  0.8190575E-01
        3   -1    0    0  501    0  0.00000000000E+00  0.00000000000E+00  0.14701226801E+04  0.14701226835E+04  0.10100000352E+00 0.  1.
       -3   -1    0    0    0  501  0.00000000000E+00  0.00000000000E+00 -0.17341219010E+04  0.17341219039E+04  0.10100000352E+00 0. -1.
    10030    2    1    2    0    0  0.00000000000E+00  0.00000000000E+00 -0.26399922092E+03  0.32042445875E+04  0.31933505582E+04 0.  0.
        4    1    3    3  502    0 -0.53732716494E+03 -0.10772385763E+04  0.92048618906E+03  0.15154074929E+04  0.12699999809E+01 0.  1.
       -4    1    3    3    0  502  0.53732716494E+03  0.10772385763E+04 -0.11844854100E+04  0.16888370945E+04  0.12699999809E+01 0. -1.
</event>
<event>
 5   0  0.1365455E-07  0.3204017E+04  0.7818609E-02  0.8187757E-01
        1   -1    0    0  501    0  0.00000000000E+00  0.00000000000E+00  0.14393611031E+04  0.14393611031E+04  0.50400001928E-02 0.  1.
       -1   -1    0    0    0  501  0.00000000000E+00  0.00000000000E+00 -0.17830351793E+04  0.17830351793E+04  0.50400001928E-02 0. -1.
    10030    2    1    2    0    0  0.00000000000E+00  0.00000000000E+00 -0.34367407619E+03  0.32223962825E+04  0.32040171552E+04 0.  0.
        3    1    3    3  502    0 -0.56224531969E+03 -0.46766985616E+03 -0.16053540509E+04  0.17640851830E+04  0.10100000352E+00 0. -1.
       -3    1    3    3    0  502  0.56224531969E+03  0.46766985616E+03  0.12616799747E+04  0.14583110994E+04  0.10100000352E+00 0.  1.
</event>
<event>
 5   0  0.3858721E-07  0.3197600E+04  0.7818609E-02  0.8189451E-01
        2   -1    0    0  501    0  0.00000000000E+00  0.00000000000E+00  0.27886353347E+04  0.27886353347E+04  0.25500000920E-02 0.  1.
       -2   -1    0    0    0  501  0.00000000000E+00  0.00000000000E+00 -0.91663503288E+03  0.91663503288E+03  0.25500000920E-02 0. -1.
    10030    2    1    2    0    0  0.00000000000E+00  0.00000000000E+00  0.18720003018E+04  0.37052703676E+04  0.31975996258E+04 0.  0.
        2    1    3    3  502    0 -0.14729122669E+04  0.44439337585E+03  0.14400365733E+04  0.21072876764E+04  0.25500000920E-02 0.  1.
       -2    1    3    3    0  502  0.14729122669E+04 -0.44439337585E+03  0.43196372849E+03  0.15979826912E+04  0.25500000920E-02 0. -1.
</event>
<event>
 5   0  0.1317293E-07  0.3199873E+04  0.7818609E-02  0.8188851E-01
        1   -1    0    0  501    0  0.00000000000E+00  0.00000000000E+00  0.89550872334E+03  0.89550872336E+03  0.50400001928E-02 0.  1.
       -1   -1    0    0    0  501  0.00000000000E+00  0.00000000000E+00 -0.28584842235E+04  0.28584842235E+04  0.50400001928E-02 0. -1.
    10030    2    1    2    0    0  0.00000000000E+00  0.00000000000E+00 -0.19629755002E+04  0.37539929469E+04  0.31998734711E+04 0.  0.
        1    1    3    3  502    0 -0.58471978574E+02 -0.13411418775E+03  0.88764432013E+03  0.89962104617E+03  0.50400001928E-02 0.  1.
       -1    1    3    3    0  502  0.58471978574E+02  0.13411418775E+03 -0.28506198203E+04  0.28543719007E+04  0.50400001928E-02 0. -1.
</event>
<event>
 5   0  0.3858721E-07  0.3187092E+04  0.7818609E-02  0.8192235E-01
       -2   -1    0    0    0  501  0.00000000000E+00  0.00000000000E+00  0.15782319366E+04  0.15782319366E+04  0.25500000920E-02 0.  1.
        2   -1    0    0  501    0  0.00000000000E+00  0.00000000000E+00 -0.16090084596E+04  0.16090084596E+04  0.25500000920E-02 0. -1.
    10030    2    1    2    0    0  0.00000000000E+00  0.00000000000E+00 -0.30776522994E+02  0.31872403962E+04  0.31870918011E+04 0.  0.
        2    1    3    3  502    0 -0.83142937694E+03 -0.13101214424E+04  0.34752745221E+03  0.15901158236E+04  0.25500000920E-02 0.  1.
       -2    1    3    3    0  502  0.83142937694E+03  0.13101214424E+04 -0.37830397521E+03  0.15971245725E+04  0.25500000920E-02 0. -1.
</event>
<event>
 5   0  0.3858721E-07  0.3195214E+04  0.7818609E-02  0.8190082E-01
        2   -1    0    0  501    0  0.00000000000E+00  0.00000000000E+00  0.23288298722E+04  0.23288298722E+04  0.25500000920E-02 0.  1.
       -2   -1    0    0    0  501  0.00000000000E+00  0.00000000000E+00 -0.10959787906E+04  0.10959787906E+04  0.25500000920E-02 0. -1.
    10030    2    1    2    0    0  0.00000000000E+00  0.00000000000E+00  0.12328510815E+04  0.34248086628E+04  0.31952140128E+04 0.  0.
        2    1    3    3  502    0  0.65005048481E+03  0.14581445478E+03 -0.93998904266E+03  0.11521314545E+04  0.25500000920E-02 0. -1.
       -2    1    3    3    0  502 -0.65005048481E+03 -0.14581445478E+03  0.21728401242E+04  0.22726772083E+04  0.25500000920E-02 0.  1.
</event>
<event>
 5   0  0.1365455E-07  0.3198832E+04  0.7818609E-02  0.8189126E-01
       -1   -1    0    0    0  501  0.00000000000E+00  0.00000000000E+00  0.11976044728E+04  0.11976044729E+04  0.50400001928E-02 0.  1.
        1   -1    0    0  501    0  0.00000000000E+00  0.00000000000E+00 -0.21360403722E+04  0.21360403722E+04  0.50400001928E-02 0. -1.
    10030    2    1    2    0    0  0.00000000000E+00  0.00000000000E+00 -0.93843589936E+03  0.33336448451E+04  0.31988319768E+04 0.  0.
        3    1    3    3  502    0 -0.19753766935E+03 -0.15225620242E+04 -0.93634427950E+03  0.17983205688E+04  0.10100000352E+00 0.  1.
       -3    1    3    3    0  502  0.19753766935E+03  0.15225620242E+04 -0.20916198585E+01  0.15353242763E+04  0.10100000352E+00 0. -1.
</event>
<event>
 5   0  0.1317293E-07  0.3201516E+04  0.7818609E-02  0.8188417E-01
        1   -1    0    0  501    0  0.00000000000E+00  0.00000000000E+00  0.23536028985E+04  0.23536028985E+04  0.50400001928E-02 0. -1.
       -1   -1    0    0    0  501  0.00000000000E+00  0.00000000000E+00 -0.10887246512E+04  0.10887246512E+04  0.50400001928E-02 0.  1.
    10030    2    1    2    0    0  0.00000000000E+00  0.00000000000E+00  0.12648782473E+04  0.34423275498E+04  0.32015155754E+04 0.  0.
        1    1    3    3  502    0  0.15973793064E+04 -0.38298646734E+02  0.52853688591E+03  0.16829850489E+04  0.50400001928E-02 0. -1.
       -1    1    3    3    0  502 -0.15973793064E+04  0.38298646734E+02  0.73634136141E+03  0.17593425009E+04  0.50400001928E-02 0.  1.
</event>
<event>
 5   0  0.1365455E-07  0.3202438E+04  0.7818609E-02  0.8188174E-01
        1   -1    0    0  501    0  0.00000000000E+00  0.00000000000E+00  0.15658757526E+04  0.15658757526E+04  0.50400001928E-02 0.  1.
       -1   -1    0    0    0  501  0.00000000000E+00  0.00000000000E+00 -0.16373597844E+04  0.16373597845E+04  0.50400001928E-02 0. -1.
    10030    2    1    2    0    0  0.00000000000E+00  0.00000000000E+00 -0.71484031852E+02  0.32032355371E+04  0.32024378119E+04 0.  0.
        3    1    3    3  502    0 -0.17671538506E+03  0.14377522001E+03  0.15495825456E+04  0.15662393550E+04  0.10100000352E+00 0.  1.
       -3    1    3    3    0  502  0.17671538506E+03 -0.14377522001E+03 -0.16210665775E+04  0.16369961821E+04  0.10100000352E+00 0. -1.
</event>
<event>
 5   0  0.1230450E-07  0.3206433E+04  0.7818609E-02  0.8187120E-01
       -3   -1    0    0    0  501  0.00000000000E+00  0.00000000000E+00  0.20055508641E+04  0.20055508667E+04  0.10100000352E+00 0. -1.
        3   -1    0    0  501    0  0.00000000000E+00  0.00000000000E+00 -0.12815943788E+04  0.12815943828E+04  0.10100000352E+00 0.  1.
    10030    2    1    2    0    0  0.00000000000E+00  0.00000000000E+00  0.72395648530E+03  0.32871452495E+04  0.32064327373E+04 0.  0.
        3    1    3    3  502    0  0.65968358197E+03 -0.52889958961E+03  0.17583911070E+04  0.19511167315E+04  0.10100000352E+00 0. -1.
       -3    1    3    3    0  502 -0.65968358197E+03  0.52889958961E+03 -0.10344346217E+04  0.13360285181E+04  0.10100000352E+00 0.  1.
</event>
<event>
 5   0  0.1270948E-07  0.3197242E+04  0.7818609E-02  0.8189546E-01
        1   -1    0    0  501    0  0.00000000000E+00  0.00000000000E+00  0.23117421793E+04  0.23117421793E+04  0.50400001928E-02 0. -1.
       -1   -1    0    0    0  501  0.00000000000E+00  0.00000000000E+00 -0.11054821673E+04  0.11054821673E+04  0.50400001928E-02 0.  1.
    10030    2    1    2    0    0  0.00000000000E+00  0.00000000000E+00  0.12062600120E+04  0.34172243466E+04  0.31972424085E+04 0.  0.
        4    1    3    3  502    0 -0.25240334751E+03  0.13721162112E+04 -0.23106955949E+03  0.14141446535E+04  0.12699999809E+01 0.  1.
       -4    1    3    3    0  502  0.25240334751E+03 -0.13721162112E+04  0.14373295715E+04  0.20030796931E+04  0.12699999809E+01 0. -1.
</event>
<event>
 5   0  0.1270948E-07  0.3202433E+04  0.7818609E-02  0.8188175E-01
        1   -1    0    0  501    0  0.00000000000E+00  0.00000000000E+00  0.30700244686E+04  0.30700244686E+04  0.50400001928E-02 0. -1.
       -1   -1    0    0    0  501  0.00000000000E+00  0.00000000000E+00 -0.83513788893E+03  0.83513788894E+03  0.50400001928E-02 0.  1.
    10030    2    1    2    0    0  0.00000000000E+00  0.00000000000E+00  0.22348865797E+04  0.39051623576E+04  0.32024326714E+04 0.  0.
        4    1    3    3  502    0 -0.14427103418E+04 -0.67765453882E+03  0.13034356420E+04  0.20590227998E+04  0.12699999809E+01 0. -1.
       -4    1    3    3    0  502  0.14427103418E+04  0.67765453882E+03  0.93145093765E+03  0.18461395577E+04  0.12699999809E+01 0.  1.
</event>
<event>
 5   0  0.3750285E-07  0.3205504E+04  0.7818609E-02  0.8187365E-01
        2   -1    0    0  501    0  0.00000000000E+00  0.00000000000E+00  0.22892217181E+04  0.22892217181E+04  0.25500000920E-02 0.  1.
       -2   -1    0    0    0  501  0.00000000000E+00  0.00000000000E+00 -0.11221338688E+04  0.11221338688E+04  0.25500000920E-02 0. -1.
    10030    2    1    2    0    0  0.00000000000E+00  0.00000000000E+00  0.11670878493E+04  0.34113555869E+04  0.32055035318E+04 0.  0.
        1    1    3    3  502    0 -0.15203834750E+04  0.46065724071E+03  0.35768325133E+03  0.16284066792E+04  0.50400001928E-02 0. -1.
       -1    1    3    3    0  502  0.15203834750E+04 -0.46065724071E+03  0.80940459800E+03  0.17829489078E+04  0.50400001928E-02 0.  1.
</event>
<event>
 5   0  0.3942564E-07  0.3201770E+04  0.7818609E-02  0.8188350E-01
        2   -1    0    0  501    0  0.00000000000E+00  0.00000000000E+00  0.14496696883E+04  0.14496696884E+04  0.25500000920E-02 0. -1.
       -2   -1    0    0    0  501  0.00000000000E+00  0.00000000000E+00 -0.17678732242E+04  0.17678732242E+04  0.25500000920E-02 0.  1.
    10030    2    1    2    0    0  0.00000000000E+00  0.00000000000E+00 -0.31820353587E+03  0.32175429126E+04  0.32017696519E+04 0.  0.
        3    1    3    3  502    0  0.35956397080E+03 -0.96960129767E+03 -0.13871774802E+04  0.17302237709E+04  0.10100000352E+00 0.  1.
       -3    1    3    3    0  502 -0.35956397080E+03  0.96960129767E+03  0.10689739443E+04  0.14873191417E+04  0.10100000352E+00 0. -1.
</event>
<event>
 5   0  0.1230450E-07  0.3198243E+04  0.7818609E-02  0.8189281E-01
       -3   -1    0    0    0  501  0.00000000000E+00  0.00000000000E+00  0.15667217812E+04  0.15667217845E+04  0.10100000352E+00 0.  1.
        3   -1    0    0  501    0  0.00000000000E+00  0.00000000000E+00 -0.16321907735E+04  0.16321907766E+04  0.10100000352E+00 0. -1.
    10030    2    1    2    0    0  0.00000000000E+00  0.00000000000E+00 -0.65468992282E+02  0.31989125611E+04  0.31982425462E+04 0.  0.
        4    1    3    3  502    0 -0.15684382397E+03  0.92363113601E+03 -0.13289584490E+04  0.16259848193E+04  0.12699999809E+01 0. -1.
       -4    1    3    3    0  502  0.15684382397E+03 -0.92363113601E+03  0.12634894568E+04  0.15729277417E+04  0.12699999809E+01 0.  1.
</event>
<event>
 5   0  0.3858721E-07  0.3203355E+04  0.7818609E-02  0.8187932E-01
        2   -1    0    0  501    0  0.00000000000E+00  0.00000000000E+00  0.16249261959E+04  0.16249261959E+04  0.25500000920E-02 0. -1.
       -2   -1    0    0    0  501  0.00000000000E+00  0.00000000000E+00 -0.15787616790E+04  0.15787616790E+04  0.25500000920E-02 0.  1.
    10030    2    1    2    0    0  0.00000000000E+00  0.00000000000E+00  0.46164516924E+02  0.32036878749E+04  0.32033552468E+04 0.  0.
        2    1    3    3  502    0 -0.46222340305E+02  0.15812664486E+04 -0.22760514112E+03  0.15982315809E+04  0.25500000920E-02 0.  1.
       -2    1    3    3    0  502  0.46222340305E+02 -0.15812664486E+04  0.27376965804E+03  0.16054562939E+04  0.25500000920E-02 0. -1.
</event>
<event>
 5   0  0.3830207E-07  0.3198178E+04  0.7818609E-02  0.8189299E-01
       -2   -1    0    0    0  501  0.00000000000E+00  0.00000000000E+00  0.19118681054E+04  0.19118681054E+04  0.25500000920E-02 0.  1.
        2   -1    0    0  501    0  0.00000000000E+00  0.00000000000E+00 -0.13374800599E+04  0.13374800599E+04  0.25500000920E-02 0. -1.
    10030    2    1    2    0    0  0.00000000000E+00  0.00000000000E+00  0.57438804554E+03  0.32493481653E+04  0.31981778988E+04 0.  0.
        4    1    3    3  502    0  0.69969418212E+03  0.11071658393E+03 -0.11693591868E+04  0.13671988265E+04  0.12699999809E+01 0. -1.
       -4    1    3    3    0  502 -0.69969418212E+03 -0.11071658393E+03  0.17437472323E+04  0.18821493388E+04  0.12699999809E+01 0.  1.
</event>
<event>
 5   0  0.1270948E-07  0.3197937E+04  0.7818609E-02  0.8189362E-01
        1   -1    0    0  501    0  0.00000000000E+00  0.00000000000E+00  0.18080471066E+04  0.18080471066E+04  0.50400001928E-02 0. -1.
       -1   -1    0    0    0  501  0.00000000000E+00  0.00000000000E+00 -0.14140675639E+04  0.14140675639E+04  0.50400001928E-02 0.  1.
    10030    2    1    2    0    0  0.00000000000E+00  0.00000000000E+00  0.39397954269E+03  0.32221146705E+04  0.31979373149E+04 0.  0.
        4    1    3    3  502    0 -0.52745533106E+03  0.13507059034E+04  0.87594158032E+03  0.16940752134E+04  0.12699999809E+01 0. -1.
       -4    1    3    3    0  502  0.52745533106E+03 -0.13507059034E+04 -0.48196203763E+03  0.15280394571E+04  0.12699999809E+01 0.  1.
</event>
<event>
 5   0  0.3764056E-07  0.3205653E+04  0.7818609E-02  0.8187326E-01
        2   -1    0    0  501    0  0.00000000000E+00  0.00000000000E+00  0.23465774840E+04  0.23465774840E+04  0.25500000920E-02 0.  1.
       -2   -1    0    0    0  501  0.00000000000E+00  0.00000000000E+00 -0.10948085622E+04  0.10948085622E+04  0.25500000920E-02 0. -1.
    10030    2    1    2    0    0  0.00000000000E+00  0.00000000000E+00  0.12517689219E+04  0.34413860462E+04  0.32056532073E+04 0.  0.
        5    1    3    3  502    0  0.95858029396E+03  0.16297815171E+03  0.19937878864E+04  0.22182538818E+04  0.46999998093E+01 0.  1.
       -5    1    3    3    0  502 -0.95858029396E+03 -0.16297815171E+03 -0.74201896458E+03  0.12231321644E+04  0.46999998093E+01 0. -1.
</event>
<event>
 5   0  0.3942564E-07  0.3198426E+04  0.7818609E-02  0.8189233E-01
       -2   -1    0    0    0  501  0.00000000000E+00  0.00000000000E+00  0.14220705003E+04  0.14220705003E+04  0.25500000920E-02 0. -1.
        2   -1    0    0  501    0  0.00000000000E+00  0.00000000000E+00 -0.17984218747E+04  0.17984218747E+04  0.25500000920E-02 0.  1.
    10030    2    1    2    0    0  0.00000000000E+00  0.00000000000E+00 -0.37635137440E+03  0.32204923750E+04  0.31984262974E+04 0.  0.
        3    1    3    3  502    0 -0.59822310705E+02 -0.68156318014E+03 -0.16436152893E+04  0.17803309543E+04  0.10100000352E+00 0.  1.
       -3    1    3    3    0  502  0.59822310705E+02  0.68156318014E+03  0.12672639149E+04  0.14401614207E+04  0.10100000352E+00 0. -1.
</event>
<event>
 5   0  0.1270948E-07  0.3200548E+04  0.7818609E-02  0.8188673E-01
        1   -1    0    0  501    0  0.00000000000E+00  0.00000000000E+00  0.14673690206E+04  0.14673690206E+04  0.50400001928E-02 0.  1.
       -1   -1    0    0    0  501  0.00000000000E+00  0.00000000000E+00 -0.17452162977E+04  0.17452162977E+04  0.50400001928E-02 0. -1.
    10030    2    1    2    0    0  0.00000000000E+00  0.00000000000E+00 -0.27784727708E+03  0.32125853182E+04  0.32005476590E+04 0.  0.
        4    1    3    3  502    0 -0.14083635566E+04 -0.74481848932E+03 -0.28992957292E+03  0.16193527287E+04  0.12699999809E+01 0.  1.
       -4    1    3    3    0  502  0.14083635566E+04  0.74481848932E+03  0.12082295837E+02  0.15932325896E+04  0.12699999809E+01 0. -1.
</event>
<event>
 5   0  0.1365455E-07  0.3185236E+04  0.7818609E-02  0.8192727E-01
       -1   -1    0    0    0  501  0.00000000000E+00  0.00000000000E+00  0.11448852000E+04  0.11448852000E+04  0.50400001928E-02 0.  1.
        1   -1    0    0  501    0  0.00000000000E+00  0.00000000000E+00 -0.22154466534E+04  0.22154466534E+04  0.50400001928E-02 0. -1.
    10030    2    1    2    0    0  0.00000000000E+00  0.00000000000E+00 -0.10705614534E+04  0.33603318534E+04  0.31852359943E+04 0.  0.
        3    1    3    3  502    0 -0.22982750661E+03 -0.51042306042E+03  0.10376806889E+04  0.11790392723E+04  0.10100000352E+00 0.  1.
       -3    1    3    3    0  502  0.22982750661E+03  0.51042306042E+03 -0.21082421423E+04  0.21812925811E+04  0.10100000352E+00 0. -1.
</event>
<event>
 5   0  0.3830207E-07  0.3197859E+04  0.7818609E-02  0.8189383E-01
        2   -1    0    0  501    0  0.00000000000E+00  0.00000000000E+00  0.21779711910E+04  0.21779711911E+04  0.25500000920E-02 0.  1.
       -2   -1    0    0    0  501  0.00000000000E+00  0.00000000000E+00 -0.11738334498E+04  0.11738334498E+04  0.25500000920E-02 0. -1.
    10030    2    1    2    0    0  0.00000000000E+00  0.00000000000E+00  0.10041377412E+04  0.33518046409E+04  0.31978589317E+04 0.  0.
        4    1    3    3  502    0  0.72355603837E+03 -0.68059640405E+03  0.18153133163E+04  0.20693257006E+04  0.12699999809E+01 0. -1.
       -4    1    3    3    0  502 -0.72355603837E+03  0.68059640405E+03 -0.81117557504E+03  0.12824789403E+04  0.12699999809E+01 0.  1.
</event>
<event>
 5   0  0.3942564E-07  0.3204346E+04  0.7818609E-02  0.8187670E-01
        2   -1    0    0  501    0  0.00000000000E+00  0.00000000000E+00  0.15960444721E+04  0.15960444721E+04  0.25500000920E-02 0.  1.
       -2   -1    0    0    0  501  0.00000000000E+00  0.00000000000E+00 -0.16083250681E+04  0.16083250681E+04  0.25500000920E-02 0. -1.
    10030    2    1    2    0    0  0.00000000000E+00  0.00000000000E+00 -0.12280595963E+02  0.32043695402E+04  0.32043460077E+04 0.  0.
        3    1    3    3  502    0  0.88609891738E+03 -0.89033271174E+03  0.98839940604E+03  0.15983732433E+04  0.10100000352E+00 0.  1.
       -3    1    3    3    0  502 -0.88609891738E+03  0.89033271174E+03 -0.10006800020E+04  0.16059962969E+04  0.10100000352E+00 0. -1.
</event>
<event>
 5   0  0.3858721E-07  0.3205415E+04  0.7818609E-02  0.8187388E-01
        2   -1    0    0  501    0  0.00000000000E+00  0.00000000000E+00  0.18529480046E+04  0.18529480046E+04  0.25500000920E-02 0. -1.
       -2   -1    0    0    0  501  0.00000000000E+00  0.00000000000E+00 -0.13862621449E+04  0.13862621449E+04  0.25500000920E-02 0.  1.
    10030    2    1    2    0    0  0.00000000000E+00  0.00000000000E+00  0.46668585963E+03  0.32392101495E+04  0.32054152151E+04 0.  0.
        2    1    3    3  502    0  0.53788554019E+03  0.14876897912E+04  0.49321151600E+03  0.16570453731E+04  0.25500000920E-02 0.  1.
       -2    1    3    3    0  502 -0.53788554019E+03 -0.14876897912E+04 -0.26525656370E+02  0.15821647764E+04  0.25500000920E-02 0. -1.
</event>
<event>
 5   0  0.3858721E-07  0.3185807E+04  0.7818609E-02  0.8192575E-01
        2   -1    0    0  501    0  0.00000000000E+00  0.00000000000E+00  0.17976161136E+04  0.17976161136E+04  0.25500000920E-02 0.  1.
       -2   -1    0    0    0  501  0.00000000000E+00  0.00000000000E+00 -0.14115039849E+04  0.14115039849E+04  0.25500000920E-02 0. -1.
    10030    2    1    2    0    0  0.00000000000E+00  0.00000000000E+00  0.38611212867E+03  0.32091200986E+04  0.31858074692E+04 0.  0.
        2    1    3    3  502    0 -0.38680256260E+03 -0.67183631911E+03  0.15947710781E+04  0.17732103806E+04  0.25500000920E-02 0.  1.
       -2    1    3    3    0  502  0.38680256260E+03  0.67183631911E+03 -0.12086589495E+04  0.14359097180E+04  0.25500000920E-02 0. -1.
</event>
<event>
 5   0  0.3830207E-07  0.3199130E+04  0.7818609E-02  0.8189047E-01
       -2   -1    0    0    0  501  0.00000000000E+00  0.00000000000E+00  0.15374552349E+04  0.15374552349E+04  0.25500000920E-02 0.  1.
        2   -1    0    0  501    0  0.00000000000E+00  0.00000000000E+00 -0.16641834405E+04  0.16641834405E+04  0.25500000920E-02 0. -1.
    10030    2    1    2    0    0  0.00000000000E+00  0.00000000000E+00 -0.12672820554E+03  0.32016386754E+04  0.31991295956E+04 0.  0.
        4    1    3    3  502    0 -0.63227046796E+03 -0.28409646476E+03 -0.15060665040E+04  0.16579248093E+04  0.12699999809E+01 0. -1.
       -4    1    3    3    0  502  0.63227046796E+03  0.28409646476E+03  0.13793382984E+04  0.15437138661E+04  0.12699999809E+01 0.  1.
</event>
<event>
 5   0  0.3764056E-07  0.3197462E+04  0.7818609E-02  0.8189488E-01
        2   -1    0    0  501    0  0.00000000000E+00  0.00000000000E+00  0.16572288754E+04  0.16572288754E+04  0.25500000920E-02 0.  1.
       -2   -1    0    0    0  501  0.00000000000E+00  0.00000000000E+00 -0.15422983241E+04  0.15422983241E+04  0.25500000920E-02 0. -1.
    10030    2    1    2    0    0  0.00000000000E+00  0.00000000000E+00  0.11493055129E+03  0.31995271994E+04  0.31974623169E+04 0.  0.
        5    1    3    3  502    0  0.12295590988E+03  0.37688331573E+03  0.16072585581E+04  0.16554338864E+04  0.46999998093E+01 0.  1.
       -5    1    3    3    0  502 -0.12295590988E+03 -0.37688331573E+03 -0.14923280068E+04  0.15440933131E+04  0.46999998093E+01 0. -1.
</event>
<event>
 5   0  0.3764056E-07  0.3204518E+04  0.7818609E-02  0.8187625E-01
       -2   -1    0    0    0  501  0.00000000000E+00  0.00000000000E+00  0.11536410463E+04  0.11536410463E+04  0.25500000920E-02 0.  1.
        2   -1    0    0  501    0  0.00000000000E+00  0.00000000000E+00 -0.22253322857E+04  0.22253322857E+04  0.25500000920E-02 0. -1.
    10030    2    1    2    0    0  0.00000000000E+00  0.00000000000E+00 -0.10716912394E+04  0.33789733320E+04  0.32045184765E+04 0.  0.
        5    1    3    3  502    0 -0.13548697980E+04  0.54870852140E+03  0.15596633874E+03  0.14700682977E+04  0.46999998093E+01 0.  1.
       -5    1    3    3    0  502  0.13548697980E+04 -0.54870852140E+03 -0.12276575781E+04  0.19089050343E+04  0.46999998093E+01 0. -1.
</event>
<event>
 5   0  0.3942564E-07  0.3201454E+04  0.7818609E-02  0.8188433E-01
        2   -1    0    0  501    0  0.00000000000E+00  0.00000000000E+00  0.11185331654E+04  0.11185331654E+04  0.25500000920E-02 0.  1.
       -2   -1    0    0    0  501  0.00000000000E+00  0.00000000000E+00 -0.22907916173E+04  0.22907916173E+04  0.25500000920E-02 0. -1.
    10030    2    1    2    0    0  0.00000000000E+00  0.00000000000E+00 -0.11722584519E+04  0.34093247826E+04  0.32014536691E+04 0.  0.
        3    1    3    3  502    0 -0.33635390627E+03 -0.78140367311E+02 -0.22506552062E+04  0.22769911582E+04  0.10100000352E+00 0. -1.
       -3    1    3    3    0  502  0.33635390627E+03  0.78140367311E+02  0.10783967543E+04  0.11323336245E+04  0.10100000352E+00 0.  1.
</event>
<event>
 5   0  0.1317293E-07  0.3199560E+04  0.7818609E-02  0.8188934E-01
       -1   -1    0    0    0  501  0.00000000000E+00  0.00000000000E+00  0.16284568990E+04  0.16284568990E+04  0.50400001928E-02 0. -1.
        1   -1    0    0  501    0  0.00000000000E+00  0.00000000000E+00 -0.15716076570E+04  0.15716076571E+04  0.50400001928E-02 0.  1.
    10030    2    1    2    0    0  0.00000000000E+00  0.00000000000E+00  0.56849241920E+02  0.32000645560E+04  0.31995595519E+04 0.  0.
        1    1    3    3  502    0 -0.11517246619E+04  0.11100121240E+04  0.19871480313E+01  0.15995626155E+04  0.50400001928E-02 0.  1.
       -1    1    3    3    0  502  0.11517246619E+04 -0.11100121240E+04  0.54862093889E+02  0.16005019405E+04  0.50400001928E-02 0. -1.
</event>
<event>
 5   0  0.1317293E-07  0.3206238E+04  0.7818609E-02  0.8187172E-01
       -1   -1    0    0    0  501  0.00000000000E+00  0.00000000000E+00  0.13282420896E+04  0.13282420896E+04  0.50400001928E-02 0. -1.
        1   -1    0    0  501    0  0.00000000000E+00  0.00000000000E+00 -0.19348810727E+04  0.19348810727E+04  0.50400001928E-02 0.  1.
    10030    2    1    2    0    0  0.00000000000E+00  0.00000000000E+00 -0.60663898311E+03  0.32631231623E+04  0.32062379694E+04 0.  0.
        1    1    3    3  502    0  0.94966961653E+03 -0.11285683023E+04  0.33587735136E+03  0.15127301110E+04  0.50400001928E-02 0. -1.
       -1    1    3    3    0  502 -0.94966961653E+03  0.11285683023E+04 -0.94251633447E+03  0.17503930514E+04  0.50400001928E-02 0.  1.
</event>
<event>
 5   0  0.3858721E-07  0.3198611E+04  0.7818609E-02  0.8189184E-01
       -2   -1    0    0    0  501  0.00000000000E+00  0.00000000000E+00  0.15420945816E+04  0.15420945816E+04  0.25500000920E-02 0.  1.
        2   -1    0    0  501    0  0.00000000000E+00  0.00000000000E+00 -0.16586389748E+04  0.16586389748E+04  0.25500000920E-02 0. -1.
    10030    2    1    2    0    0  0.00000000000E+00  0.00000000000E+00 -0.11654439324E+03  0.32007335564E+04  0.31986110585E+04 0.  0.
        2    1    3    3  502    0  0.10462169427E+04  0.28154193029E+03  0.11189192564E+04  0.15575031467E+04  0.25500000920E-02 0.  1.
       -2    1    3    3    0  502 -0.10462169427E+04 -0.28154193029E+03 -0.12354636496E+04  0.16432304097E+04  0.25500000920E-02 0. -1.
</event>
<event>
 5   0  0.3830207E-07  0.3202058E+04  0.7818609E-02  0.8188274E-01
        2   -1    0    0  501    0  0.00000000000E+00  0.00000000000E+00  0.17259652082E+04  0.17259652082E+04  0.25500000920E-02 0. -1.
       -2   -1    0    0    0  501  0.00000000000E+00  0.00000000000E+00 -0.14851364966E+04  0.14851364966E+04  0.25500000920E-02 0.  1.
    10030    2    1    2    0    0  0.00000000000E+00  0.00000000000E+00  0.24082871168E+03  0.32111017048E+04  0.32020580398E+04 0.  0.
        4    1    3    3  502    0 -0.78493293300E+03 -0.13828464672E+04 -0.66950827307E+02  0.15914986922E+04  0.12699999809E+01 0. -1.
       -4    1    3    3    0  502  0.78493293300E+03  0.13828464672E+04  0.30777953898E+03  0.16196030126E+04  0.12699999809E+01 0.  1.
</event>
<event>
 5   0  0.1277374E-07  0.3200397E+04  0.7818609E-02  0.8188712E-01
        1   -1    0    0  501    0  0.00000000000E+00  0.00000000000E+00  0.10693639753E+04  0.10693639754E+04  0.50400001928E-02 0. -1.
       -1   -1    0    0    0  501  0.00000000000E+00  0.00000000000E+00 -0.23945398579E+04  0.23945398579E+04  0.50400001928E-02 0.  1.
    10030    2    1    2    0    0  0.00000000000E+00  0.00000000000E+00 -0.13251758826E+04  0.34639038333E+04  0.32003966389E+04 0.  0.
        5    1    3    3  502    0  0.12883408359E+04  0.13068895975E+03 -0.16800474065E+04  0.21211985037E+04  0.46999998093E+01 0.  1.
       -5    1    3    3    0  502 -0.12883408359E+04 -0.13068895975E+03  0.35487152398E+03  0.13427053296E+04  0.46999998093E+01 0. -1.
</event>
<event>
 5   0  0.3750285E-07  0.3191276E+04  0.7818609E-02  0.8191125E-01
        2   -1    0    0  501    0  0.00000000000E+00  0.00000000000E+00  0.22244933062E+04  0.22244933062E+04  0.25500000920E-02 0.  1.
       -2   -1    0    0    0  501  0.00000000000E+00  0.00000000000E+00 -0.11445573577E+04  0.11445573577E+04  0.25500000920E-02 0. -1.
    10030    2    1    2    0    0  0.00000000000E+00  0.00000000000E+00  0.10799359485E+04  0.33690506639E+04  0.31912757204E+04 0.  0.
        1    1    3    3  502    0 -0.15920766991E+04  0.99056458938E+02  0.58139397204E+03  0.16978042727E+04  0.50400001928E-02 0. -1.
       -1    1    3    3    0  502  0.15920766991E+04 -0.99056458938E+02  0.49854197643E+03  0.16712463912E+04  0.50400001928E-02 0.  1.
</event>
<event>
 5   0  0.1277374E-07  0.3203016E+04  0.7818609E-02  0.8188021E-01
       -1   -1    0    0    0  501  0.00000000000E+00  0.00000000000E+00  0.25450960672E+04  0.25450960672E+04  0.50400001928E-02 0.  1.
        1   -1    0    0  501    0  0.00000000000E+00  0.00000000000E+00 -0.10077530081E+04  0.10077530081E+04  0.50400001928E-02 0. -1.
    10030    2    1    2    0    0  0.00000000000E+00  0.00000000000E+00  0.15373430591E+04  0.35528490753E+04  0.32030162146E+04 0.  0.
        5    1    3    3  502    0  0.11942743636E+04 -0.10496306379E+04  0.98142901722E+03  0.18684862155E+04  0.46999998093E+01 0.  1.
       -5    1    3    3    0  502 -0.11942743636E+04  0.10496306379E+04  0.55591404183E+03  0.16843628598E+04  0.46999998093E+01 0. -1.
</event>
<event>
 5   0  0.1270948E-07  0.3199054E+04  0.7818609E-02  0.8189067E-01
       -1   -1    0    0    0  501  0.00000000000E+00  0.00000000000E+00  0.10019747689E+04  0.10019747689E+04  0.50400001928E-02 0. -1.
        1   -1    0    0  501    0  0.00000000000E+00  0.00000000000E+00 -0.25534442841E+04  0.25534442841E+04  0.50400001928E-02 0.  1.
    10030    2    1    2    0    0  0.00000000000E+00  0.00000000000E+00 -0.15514695152E+04  0.35554190529E+04  0.31990540766E+04 0.  0.
        4    1    3    3  502    0  0.76457896081E+03 -0.11996220056E+04 -0.15885081104E+04  0.21323774463E+04  0.12699999809E+01 0.  1.
       -4    1    3    3    0  502 -0.76457896081E+03  0.11996220056E+04  0.37038595225E+02  0.14230416066E+04  0.12699999809E+01 0. -1.
</event>
<event>
 5   0  0.1317293E-07  0.3207482E+04  0.7818609E-02  0.8186844E-01
        1   -1    0    0  501    0  0.00000000000E+00  0.00000000000E+00  0.14140280074E+04  0.14140280074E+04  0.50400001928E-02 0. -1.
       -1   -1    0    0    0  501  0.00000000000E+00  0.00000000000E+00 -0.18189073540E+04  0.18189073540E+04  0.50400001928E-02 0.  1.
    10030    2    1    2    0    0  0.00000000000E+00  0.00000000000E+00 -0.40487934665E+03  0.32329353614E+04  0.32074824654E+04 0.  0.
        1    1    3    3  502    0 -0.77342915556E+03  0.61132181452E+03 -0.14774198509E+04  0.17761408828E+04  0.50400001928E-02 0.  1.
       -1    1    3    3    0  502  0.77342915556E+03 -0.61132181452E+03  0.10725405043E+04  0.14567944786E+04  0.50400001928E-02 0. -1.
</event>
<event>
 5   0  0.1317293E-07  0.3198565E+04  0.7818609E-02  0.8189196E-01
       -1   -1    0    0    0  501  0.00000000000E+00  0.00000000000E+00  0.15401396439E+04  0.15401396439E+04  0.50400001928E-02 0. -1.
        1   -1    0    0  501    0  0.00000000000E+00  0.00000000000E+00 -0.16606963920E+04  0.16606963920E+04  0.50400001928E-02 0.  1.
    10030    2    1    2    0    0  0.00000000000E+00  0.00000000000E+00 -0.12055674812E+03  0.32008360359E+04  0.31985648968E+04 0.  0.
        1    1    3    3  502    0  0.30476559852E+03 -0.10386961418E+04  0.11178139248E+04  0.15560461804E+04  0.50400001928E-02 0. -1.
       -1    1    3    3    0  502 -0.30476559852E+03  0.10386961418E+04 -0.12383706729E+04  0.16447898555E+04  0.50400001928E-02 0.  1.
</event>
<event>
 5   0  0.1317293E-07  0.3197434E+04  0.7818609E-02  0.8189495E-01
        1   -1    0    0  501    0  0.00000000000E+00  0.00000000000E+00  0.20363263419E+04  0.20363263419E+04  0.50400001928E-02 0. -1.
       -1   -1    0    0    0  501  0.00000000000E+00  0.00000000000E+00 -0.12551505420E+04  0.12551505420E+04  0.50400001928E-02 0.  1.
    10030    2    1    2    0    0  0.00000000000E+00  0.00000000000E+00  0.78117579992E+03  0.32914768840E+04  0.31974340411E+04 0.  0.
        1    1    3    3  502    0  0.32455649302E+03 -0.11085461072E+03  0.19980108058E+04  0.20272328041E+04  0.50400001928E-02 0. -1.
       -1    1    3    3    0  502 -0.32455649302E+03  0.11085461072E+03 -0.12168350059E+04  0.12642440799E+04  0.50400001928E-02 0.  1.
</event>
<event>
 5   0  0.1288096E-07  0.3204210E+04  0.7818609E-02  0.8187706E-01
       -1   -1    0    0    0  501  0.00000000000E+00  0.00000000000E+00  0.10691288997E+04  0.10691288997E+04  0.50400001928E-02 0.  1.
        1   -1    0    0  501    0  0.00000000000E+00  0.00000000000E+00 -0.24007771673E+04  0.24007771673E+04  0.50400001928E-02 0. -1.
    10030    2    1    2    0    0  0.00000000000E+00  0.00000000000E+00 -0.13316482676E+04  0.34699060670E+04  0.32042098878E+04 0.  0.
        2    1    3    3  502    0  0.91603666116E+03  0.48284948753E+03  0.65803222354E+03  0.12268957574E+04  0.25500000920E-02 0. -1.
       -2    1    3    3    0  502 -0.91603666116E+03 -0.48284948753E+03 -0.19896804911E+04  0.22430103096E+04  0.25500000920E-02 0.  1.
</event>
<event>
 5   0  0.1277374E-07  0.3195903E+04  0.7818609E-02  0.8189900E-01
        1   -1    0    0  501    0  0.00000000000E+00  0.00000000000E+00  0.17552232994E+04  0.17552232994E+04  0.50400001928E-02 0. -1.
       -1   -1    0    0    0  501  0.00000000000E+00  0.00000000000E+00 -0.14547717273E+04  0.14547717273E+04  0.50400001928E-02 0.  1.
    10030    2    1    2    0    0  0.00000000000E+00  0.00000000000E+00  0.30045157210E+03  0.32099950266E+04  0.31959031468E+04 0.  0.
        5    1    3    3  502    0  0.76555506450E+03 -0.13361170833E+04  0.57889061876E+03  0.16451200125E+04  0.46999998093E+01 0.  1.
       -5    1    3    3    0  502 -0.76555506450E+03  0.13361170833E+04 -0.27843904666E+03  0.15648750141E+04  0.46999998093E+01 0. -1.
</event>
<event>
 5   0  0.3942564E-07  0.3184610E+04  0.7818609E-02  0.8192893E-01
        2   -1    0    0  501    0  0.00000000000E+00  0.00000000000E+00  0.25132801449E+04  0.25132801449E+04  0.25500000920E-02 0.  1.
       -2   -1    0    0    0  501  0.00000000000E+00  0.00000000000E+00 -0.10088151909E+04  0.10088151909E+04  0.25500000920E-02 0. -1.
    10030    2    1    2    0    0  0.00000000000E+00  0.00000000000E+00  0.15044649540E+04  0.35220953357E+04  0.31846099849E+04 0.  0.
        3    1    3    3  502    0  0.63903916119E+03  0.11243656555E+04  0.17795780021E+04  0.21998788723E+04  0.10100000352E+00 0.  1.
       -3    1    3    3    0  502 -0.63903916119E+03 -0.11243656555E+04 -0.27511304811E+03  0.13222164635E+04  0.10100000352E+00 0. -1.
</event>
<event>
 5   0  0.1365455E-07  0.3199859E+04  0.7818609E-02  0.8188854E-01
       -1   -1    0    0    0  501  0.00000000000E+00  0.00000000000E+00  0.10187497229E+04  0.10187497230E+04  0.50400001928E-02 0.  1.
        1   -1    0    0  501    0  0.00000000000E+00  0.00000000000E+00 -0.25126623284E+04  0.25126623284E+04  0.50400001928E-02 0. -1.
    10030    2    1    2    0    0  0.00000000000E+00  0.00000000000E+00 -0.14939126055E+04  0.35314120514E+04  0.31998587788E+04 0.  0.
        3    1    3    3  502    0  0.13250733686E+03 -0.50046907177E+02 -0.25057291255E+04  0.25097293376E+04  0.10100000352E+00 0. -1.
       -3    1    3    3    0  502 -0.13250733686E+03  0.50046907177E+02  0.10118165200E+04  0.10216827138E+04  0.10100000352E+00 0.  1.
</event>
<event>
 5   0  0.1288096E-07  0.3169750E+04  0.7818609E-02  0.8196852E-01
       -1   -1    0    0    0  501  0.00000000000E+00  0.00000000000E+00  0.13740359757E+04  0.13740359757E+04  0.50400001928E-02 0. -1.
        1   -1    0    0  501    0  0.00000000000E+00  0.00000000000E+00 -0.18280662092E+04  0.18280662092E+04  0.50400001928E-02 0.  1.
    10030    2    1    2    0    0  0.00000000000E+00  0.00000000000E+00 -0.45403023347E+03  0.32021021850E+04  0.31697499823E+04 0.  0.
        2    1    3    3  502    0  0.59030374400E+03  0.16874207761E+03  0.12490264067E+04  0.13917612451E+04  0.25500000920E-02 0. -1.
       -2    1    3    3    0  502 -0.59030374400E+03 -0.16874207761E+03 -0.17030566401E+04  0.18103409398E+04  0.25500000920E-02 0.  1.
</event>
<event>
 5   0  0.3764056E-07  0.3208507E+04  0.7818609E-02  0.8186574E-01
       -2   -1    0    0    0  501  0.00000000000E+00  0.00000000000E+00  0.11993228050E+04  0.11993228050E+04  0.25500000920E-02 0.  1.
        2   -1    0    0  501    0  0.00000000000E+00  0.00000000000E+00 -0.21459017138E+04  0.21459017138E+04  0.25500000920E-02 0. -1.
    10030    2    1    2    0    0  0.00000000000E+00  0.00000000000E+00 -0.94657890883E+03  0.33452245188E+04  0.32085067322E+04 0.  0.
        5    1    3    3  502    0 -0.15111398727E+04 -0.46017030516E+03 -0.76504612981E+03  0.17551689649E+04  0.46999998093E+01 0. -1.
       -5    1    3    3    0  502  0.15111398727E+04  0.46017030516E+03 -0.18153277902E+03  0.15900555539E+04  0.46999998093E+01 0.  1.
</event>
<event>
 5   0  0.3942564E-07  0.3193290E+04  0.7818609E-02  0.8190592E-01
        2   -1    0    0  501    0  0.00000000000E+00  0.00000000000E+00  0.15491737757E+04  0.15491737757E+04  0.25500000920E-02 0.  1.
       -2   -1    0    0    0  501  0.00000000000E+00  0.00000000000E+00 -0.16455708137E+04  0.16455708137E+04  0.25500000920E-02 0. -1.
    10030    2    1    2    0    0  0.00000000000E+00  0.00000000000E+00 -0.96397037947E+02  0.31947445894E+04  0.31932899340E+04 0.  0.
        3    1    3    3  502    0  0.81828066095E+03 -0.13709373086E+04 -0.33265360522E+02  0.15969217071E+04  0.10100000352E+00 0.  1.
       -3    1    3    3    0  502 -0.81828066095E+03  0.13709373086E+04 -0.63131677425E+02  0.15978228823E+04  0.10100000352E+00 0. -1.
</event>
<event>
 5   0  0.1317293E-07  0.3200804E+04  0.7818609E-02  0.8188605E-01
        1   -1    0    0  501    0  0.00000000000E+00  0.00000000000E+00  0.10757261828E+04  0.10757261828E+04  0.50400001928E-02 0.  1.
       -1   -1    0    0    0  501  0.00000000000E+00  0.00000000000E+00 -0.23809836425E+04  0.23809836425E+04  0.50400001928E-02 0. -1.
    10030    2    1    2    0    0  0.00000000000E+00  0.00000000000E+00 -0.13052574597E+04  0.34567098254E+04  0.32008039273E+04 0.  0.
        1    1    3    3  502    0  0.75151437071E+02  0.11990875602E+04  0.48917456603E+03  0.12972087232E+04  0.50400001928E-02 0.  1.
       -1    1    3    3    0  502 -0.75151437071E+02 -0.11990875602E+04 -0.17944320257E+04  0.21595011022E+04  0.50400001928E-02 0. -1.
</event>
<event>
 5   0  0.3830207E-07  0.3190458E+04  0.7818609E-02  0.8191342E-01
        2   -1    0    0  501    0  0.00000000000E+00  0.00000000000E+00  0.15064375158E+04  0.15064375158E+04  0.25500000920E-02 0.  1.
       -2   -1    0    0    0  501  0.00000000000E+00  0.00000000000E+00 -0.16892536807E+04  0.16892536807E+04  0.25500000920E-02 0. -1.
    10030    2    1    2    0    0  0.00000000000E+00  0.00000000000E+00 -0.18281616484E+03  0.31956911965E+04  0.31904577216E+04 0.  0.
        4    1    3    3  502    0  0.90163459868E+03 -0.12413724203E+04 -0.52893471249E+03  0.16228752196E+04  0.12699999809E+01 0. -1.
       -4    1    3    3    0  502 -0.90163459868E+03  0.12413724203E+04  0.34611854765E+03  0.15728159769E+04  0.12699999809E+01 0.  1.
</event>
<event>
 5   0  0.3750285E-07  0.3202077E+04  0.7818609E-02  0.8188269E-01
        2   -1    0    0  501    0  0.00000000000E+00  0.00000000000E+00  0.16030824756E+04  0.16030824756E+04  0.25500000920E-02 0.  1.
       -2   -1    0    0    0  501  0.00000000000E+00  0.00000000000E+00 -0.15989968842E+04  0.15989968842E+04  0.25500000920E-02 0. -1.
    10030    2    1    2    0    0  0.00000000000E+00  0.00000000000E+00  0.40855914114E+01  0.32020793598E+04  0.32020767533E+04 0.  0.
        1    1    3    3  502    0  0.67639055200E+03  0.53586056398E+03  0.13506258007E+04  0.16027603615E+04  0.50400001928E-02 0.  1.
       -1    1    3    3    0  502 -0.67639055200E+03 -0.53586056398E+03 -0.13465402093E+04  0.15993189982E+04  0.50400001928E-02 0. -1.
</event>
<event>
 5   0  0.3942564E-07  0.3196972E+04  0.7818609E-02  0.8189617E-01
        2   -1    0    0  501    0  0.00000000000E+00  0.00000000000E+00  0.22711297473E+04  0.22711297473E+04  0.25500000920E-02 0.  1.
       -2   -1    0    0    0  501  0.00000000000E+00  0.00000000000E+00 -0.11250599783E+04  0.11250599783E+04  0.25500000920E-02 0. -1.
    10030    2    1    2    0    0  0.00000000000E+00  0.00000000000E+00  0.11460697690E+04  0.33961897257E+04  0.31969718074E+04 0.  0.
        3    1    3    3  502    0  0.76367706517E+03 -0.13763663943E+04  0.86890439220E+03  0.17979382537E+04  0.10100000352E+00 0.  1.
       -3    1    3    3    0  502 -0.76367706517E+03  0.13763663943E+04  0.27716537679E+03  0.15982514719E+04  0.10100000352E+00 0. -1.
</event>
<event>
 5   0  0.1277374E-07  0.3212579E+04  0.7818609E-02  0.8185503E-01
        1   -1    0    0  501    0  0.00000000000E+00  0.00000000000E+00  0.19513725789E+04  0.19513725789E+04  0.50400001928E-02 0.  1.
       -1   -1    0    0    0  501  0.00000000000E+00  0.00000000000E+00 -0.13222315824E+04  0.13222315824E+04  0.50400001928E-02 0. -1.
    10030    2    1    2    0    0  0.00000000000E+00  0.00000000000E+00  0.62914099658E+03  0.32736041613E+04  0.32125793082E+04 0.  0.
        5    1    3    3  502    0 -0.43062059453E+03  0.12468502201E+03  0.18863241865E+04  0.19388711865E+04  0.46999998093E+01 0.  1.
       -5    1    3    3    0  502  0.43062059453E+03 -0.12468502201E+03 -0.12571831899E+04  0.13347329748E+04  0.46999998093E+01 0. -1.
</event>
<event>
 5   0  0.1288096E-07  0.3198898E+04  0.7818609E-02  0.8189108E-01
       -1   -1    0    0    0  501  0.00000000000E+00  0.00000000000E+00  0.14216386010E+04  0.14216386010E+04  0.50400001928E-02 0.  1.
        1   -1    0    0  501    0  0.00000000000E+00  0.00000000000E+00 -0.17994984391E+04  0.17994984391E+04  0.50400001928E-02 0. -1.
    10030    2    1    2    0    0  0.00000000000E+00  0.00000000000E+00 -0.37785983810E+03  0.32211370401E+04  0.31988975873E+04 0.  0.
        2    1    3    3  502    0 -0.26738910382E+03 -0.29590757311E+03  0.13707666631E+04  0.14276062025E+04  0.25500000920E-02 0.  1.
       -2    1    3    3    0  502  0.26738910382E+03  0.29590757311E+03 -0.17486265012E+04  0.17935308376E+04  0.25500000920E-02 0. -1.
</event>
<event>
 5   0  0.1365455E-07  0.3211638E+04  0.7818609E-02  0.8185750E-01
        1   -1    0    0  501    0  0.00000000000E+00  0.00000000000E+00  0.81793059306E+03  0.81793059308E+03  0.50400001928E-02 0. -1.
       -1   -1    0    0    0  501  0.00000000000E+00  0.00000000000E+00 -0.31526565098E+04  0.31526565099E+04  0.50400001928E-02 0.  1.
    10030    2    1    2    0    0  0.00000000000E+00  0.00000000000E+00 -0.23347259168E+04  0.39705871029E+04  0.32116377186E+04 0.  0.
        3    1    3    3  502    0  0.59664340041E+03  0.62935010553E+03 -0.28382559291E+04  0.29677873293E+04  0.10100000352E+00 0.  1.
       -3    1    3    3    0  502 -0.59664340041E+03 -0.62935010553E+03  0.50353001230E+03  0.10027997737E+04  0.10100000352E+00 0. -1.
</event>
<event>
 5   0  0.3858721E-07  0.3194921E+04  0.7818609E-02  0.8190160E-01
        2   -1    0    0  501    0  0.00000000000E+00  0.00000000000E+00  0.13015931092E+04  0.13015931092E+04  0.25500000920E-02 0.  1.
       -2   -1    0    0    0  501  0.00000000000E+00  0.00000000000E+00 -0.19605825473E+04  0.19605825473E+04  0.25500000920E-02 0. -1.
    10030    2    1    2    0    0  0.00000000000E+00  0.00000000000E+00 -0.65898943810E+03  0.32621756566E+04  0.31949214286E+04 0.  0.
        2    1    3    3  502    0  0.10769328357E+04 -0.84164517037E+03  0.51479094966E+03  0.14605343704E+04  0.25500000920E-02 0.  1.
       -2    1    3    3    0  502 -0.10769328357E+04  0.84164517037E+03 -0.11737803878E+04  0.18016412862E+04  0.25500000920E-02 0. -1.
</event>
<event>
 5   0  0.3830207E-07  0.3197850E+04  0.7818609E-02  0.8189385E-01
       -2   -1    0    0    0  501  0.00000000000E+00  0.00000000000E+00  0.32294529126E+04  0.32294529126E+04  0.25500000920E-02 0.  1.
        2   -1    0    0  501    0  0.00000000000E+00  0.00000000000E+00 -0.79163887049E+03  0.79163887050E+03  0.25500000920E-02 0. -1.
    10030    2    1    2    0    0  0.00000000000E+00  0.00000000000E+00  0.24378140421E+04  0.40210917831E+04  0.31978495625E+04 0.  0.
        4    1    3    3  502    0  0.11346199436E+02 -0.68737296054E+03  0.30341277825E+04  0.31110357337E+04  0.12699999809E+01 0.  1.
       -4    1    3    3    0  502 -0.11346199436E+02  0.68737296054E+03 -0.59631374039E+03  0.91005604937E+03  0.12699999809E+01 0. -1.
</event>
<event>
 5   0  0.1288096E-07  0.3166157E+04  0.7818609E-02  0.8197813E-01
       -1   -1    0    0    0  501  0.00000000000E+00  0.00000000000E+00  0.20475100406E+04  0.20475100406E+04  0.50400001928E-02 0.  1.
        1   -1    0    0  501    0  0.00000000000E+00  0.00000000000E+00 -0.12239929581E+04  0.12239929581E+04  0.50400001928E-02 0. -1.
    10030    2    1    2    0    0  0.00000000000E+00  0.00000000000E+00  0.82351708251E+03  0.32715029986E+04  0.31661572110E+04 0.  0.
        2    1    3    3  502    0  0.67029307291E+02  0.73605463004E+03  0.18582914439E+04  0.19998791056E+04  0.25500000920E-02 0.  1.
       -2    1    3    3    0  502 -0.67029307291E+02 -0.73605463004E+03 -0.10347743614E+04  0.12716238931E+04  0.25500000920E-02 0. -1.
</event>
<event>
 5   0  0.1277374E-07  0.3186302E+04  0.7818609E-02  0.8192444E-01
       -1   -1    0    0    0  501  0.00000000000E+00  0.00000000000E+00  0.13821432962E+04  0.13821432962E+04  0.50400001928E-02 0. -1.
        1   -1    0    0  501    0  0.00000000000E+00  0.00000000000E+00 -0.18363724262E+04  0.18363724262E+04  0.50400001928E-02 0.  1.
    10030    2    1    2    0    0  0.00000000000E+00  0.00000000000E+00 -0.45422912999E+03  0.32185157224E+04  0.31863018302E+04 0.  0.
        5    1    3    3  502    0 -0.93712803588E+02 -0.64950145992E+03  0.12392764281E+04  0.14023060976E+04  0.46999998093E+01 0. -1.
       -5    1    3    3    0  502  0.93712803588E+02  0.64950145992E+03 -0.16935055581E+04  0.18162096249E+04  0.46999998093E+01 0.  1.
</event>
<event>
 5   0  0.1288096E-07  0.3199830E+04  0.7818609E-02  0.8188862E-01
       -1   -1    0    0    0  501  0.00000000000E+00  0.00000000000E+00  0.34053046465E+04  0.34053046465E+04  0.50400001928E-02 0.  1.
        1   -1    0    0  501    0  0.00000000000E+00  0.00000000000E+00 -0.75168839404E+03  0.75168839406E+03  0.50400001928E-02 0. -1.
    10030    2    1    2    0    0  0.00000000000E+00  0.00000000000E+00  0.26536162524E+04  0.41569930405E+04  0.31998299836E+04 0.  0.
        2    1    3    3  502    0  0.79366147156E+03  0.11583787090E+04  0.33063067972E+03  0.14425867084E+04  0.25500000920E-02 0. -1.
       -2    1    3    3    0  502 -0.79366147156E+03 -0.11583787090E+04  0.23229855727E+04  0.27144063321E+04  0.25500000920E-02 0.  1.
</event>
<event>
 5   0  0.3858721E-07  0.3205523E+04  0.7818609E-02  0.8187360E-01
       -2   -1    0    0    0  501  0.00000000000E+00  0.00000000000E+00  0.17337966303E+04  0.17337966303E+04  0.25500000920E-02 0. -1.
        2   -1    0    0  501    0  0.00000000000E+00  0.00000000000E+00 -0.14816292330E+04  0.14816292330E+04  0.25500000920E-02 0.  1.
    10030    2    1    2    0    0  0.00000000000E+00  0.00000000000E+00  0.25216739732E+03  0.32154258633E+04  0.32055225918E+04 0.  0.
        2    1    3    3  502    0 -0.66724712648E+03 -0.47794011185E+03 -0.12548314281E+04  0.14994156833E+04  0.25500000920E-02 0.  1.
       -2    1    3    3    0  502  0.66724712648E+03  0.47794011185E+03  0.15069988254E+04  0.17160101801E+04  0.25500000920E-02 0. -1.
</event>
<event>
 5   0  0.3942564E-07  0.3208950E+04  0.7818609E-02  0.8186457E-01
       -2   -1    0    0    0  501  0.00000000000E+00  0.00000000000E+00  0.16957833566E+04  0.16957833567E+04  0.25500000920E-02 0.  1.
        2   -1    0    0  501    0  0.00000000000E+00  0.00000000000E+00 -0.15180831613E+04  0.15180831613E+04  0.25500000920E-02 0. -1.
    10030    2    1    2    0    0  0.00000000000E+00  0.00000000000E+00  0.17770019540E+03  0.32138665179E+04  0.32089500830E+04 0.  0.
        3    1    3    3  502    0 -0.14382936413E+04 -0.60312115359E+03 -0.28841844937E+03  0.15860734335E+04  0.10100000352E+00 0. -1.
       -3    1    3    3    0  502  0.14382936413E+04  0.60312115359E+03  0.46611864477E+03  0.16277930844E+04  0.10100000352E+00 0.  1.
</event>
<event>
 5   0  0.3858721E-07  0.3205850E+04  0.7818609E-02  0.8187274E-01
        2   -1    0    0  501    0  0.00000000000E+00  0.00000000000E+00  0.22153707842E+04  0.22153707842E+04  0.25500000920E-02 0. -1.
       -2   -1    0    0    0  501  0.00000000000E+00  0.00000000000E+00 -0.11597913415E+04  0.11597913415E+04  0.25500000920E-02 0.  1.
    10030    2    1    2    0    0  0.00000000000E+00  0.00000000000E+00  0.10555794427E+04  0.33751621257E+04  0.32058495621E+04 0.  0.
        2    1    3    3  502    0  0.10359615272E+04  0.12217805985E+04  0.46636693747E+03  0.16683711329E+04  0.25500000920E-02 0.  1.
       -2    1    3    3    0  502 -0.10359615272E+04 -0.12217805985E+04  0.58921250526E+03  0.17067909928E+04  0.25500000920E-02 0. -1.
</event>
<event>
 5   0  0.1365455E-07  0.3191864E+04  0.7818609E-02  0.8190969E-01
        1   -1    0    0  501    0  0.00000000000E+00  0.00000000000E+00  0.81452901059E+03  0.81452901060E+03  0.50400001928E-02 0.  1.
       -1   -1    0    0    0  501  0.00000000000E+00  0.00000000000E+00 -0.31269600206E+04  0.31269600206E+04  0.50400001928E-02 0. -1.
    10030    2    1    2    0    0  0.00000000000E+00  0.00000000000E+00 -0.23124310100E+04  0.39414890312E+04  0.31918644406E+04 0.  0.
        3    1    3    3  502    0  0.33011683959E+03 -0.15482807372E+04 -0.14057945098E+04  0.21171699466E+04  0.10100000352E+00 0. -1.
       -3    1    3    3    0  502 -0.33011683959E+03  0.15482807372E+04 -0.90663650029E+03  0.18243190847E+04  0.10100000352E+00 0.  1.
</event>
<event>
 5   0  0.1277374E-07  0.3201951E+04  0.7818609E-02  0.8188302E-01
        1   -1    0    0  501    0  0.00000000000E+00  0.00000000000E+00  0.19014024963E+04  0.19014024963E+04  0.50400001928E-02 0. -1.
       -1   -1    0    0    0  501  0.00000000000E+00  0.00000000000E+00 -0.13480171143E+04  0.13480171143E+04  0.50400001928E-02 0.  1.
    10030    2    1    2    0    0  0.00000000000E+00  0.00000000000E+00  0.55338538194E+03  0.32494196106E+04  0.32019513464E+04 0.  0.
        5    1    3    3  502    0  0.12010035218E+04  0.41177010909E+03  0.12664132500E+04  0.17932620255E+04  0.46999998093E+01 0. -1.
       -5    1    3    3    0  502 -0.12010035218E+04 -0.41177010909E+03 -0.71302786810E+03  0.14561575852E+04  0.46999998093E+01 0.  1.
</event>
<event>
 5   0  0.3764056E-07  0.3205015E+04  0.7818609E-02  0.8187494E-01
        2   -1    0    0  501    0  0.00000000000E+00  0.00000000000E+00  0.18301997029E+04  0.18301997029E+04  0.25500000920E-02 0. -1.
       -2   -1    0    0    0  501  0.00000000000E+00  0.00000000000E+00 -0.14031425375E+04  0.14031425375E+04  0.25500000920E-02 0.  1.
    10030    2    1    2    0    0  0.00000000000E+00  0.00000000000E+00  0.42705716538E+03  0.32333422403E+04  0.32050154790E+04 0.  0.
        5    1    3    3  502    0  0.10658774258E+04 -0.95134317945E+03 -0.51873820489E+03  0.15199539293E+04  0.46999998093E+01 0.  1.
       -5    1    3    3    0  502 -0.10658774258E+04  0.95134317945E+03  0.94579537027E+03  0.17133883110E+04  0.46999998093E+01 0. -1.
</event>
<event>
 5   0  0.1277374E-07  0.3205207E+04  0.7818609E-02  0.8187443E-01
        1   -1    0    0  501    0  0.00000000000E+00  0.00000000000E+00  0.14317655705E+04  0.14317655705E+04  0.50400001928E-02 0.  1.
       -1   -1    0    0    0  501  0.00000000000E+00  0.00000000000E+00 -0.17938262431E+04  0.17938262431E+04  0.50400001928E-02 0. -1.
    10030    2    1    2    0    0  0.00000000000E+00  0.00000000000E+00 -0.36206067263E+03  0.32255918136E+04  0.32052074218E+04 0.  0.
        5    1    3    3  502    0 -0.14986126143E+04 -0.15439797104E+03 -0.73098368205E+03  0.16745261224E+04  0.46999998093E+01 0. -1.
       -5    1    3    3    0  502  0.14986126143E+04  0.15439797104E+03  0.36892300942E+03  0.15510656911E+04  0.46999998093E+01 0.  1.
</event>
<event>
 5   0  0.1288096E-07  0.3186213E+04  0.7818609E-02  0.8192468E-01
       -1   -1    0    0    0  501  0.00000000000E+00  0.00000000000E+00  0.23305136342E+04  0.23305136342E+04  0.50400001928E-02 0.  1.
        1   -1    0    0  501    0  0.00000000000E+00  0.00000000000E+00 -0.10890251573E+04  0.10890251573E+04  0.50400001928E-02 0. -1.
    10030    2    1    2    0    0  0.00000000000E+00  0.00000000000E+00  0.12414884769E+04  0.34195387915E+04  0.31862127845E+04 0.  0.
        2    1    3    3  502    0  0.28762785980E+03 -0.49397107824E+03 -0.97517811214E+03  0.11303581566E+04  0.25500000920E-02 0. -1.
       -2    1    3    3    0  502 -0.28762785980E+03  0.49397107824E+03  0.22166665890E+04  0.22891806348E+04  0.25500000920E-02 0.  1.
</event>
<event>
 5   0  0.3764056E-07  0.3198765E+04  0.7818609E-02  0.8189144E-01
       -2   -1    0    0    0  501  0.00000000000E+00  0.00000000000E+00  0.21570532897E+04  0.21570532897E+04  0.25500000920E-02 0.  1.
        2   -1    0    0  501    0  0.00000000000E+00  0.00000000000E+00 -0.11858880107E+04  0.11858880107E+04  0.25500000920E-02 0. -1.
    10030    2    1    2    0    0  0.00000000000E+00  0.00000000000E+00  0.97116527901E+03  0.33429413003E+04  0.31987645331E+04 0.  0.
        5    1    3    3  502    0 -0.84470037002E+03  0.35948080417E+03 -0.88312597451E+03  0.12738440801E+04  0.46999998093E+01 0. -1.
       -5    1    3    3    0  502  0.84470037002E+03 -0.35948080417E+03  0.18542912535E+04  0.20690972202E+04  0.46999998093E+01 0.  1.
</event>
<event>
 5   0  0.1317293E-07  0.3199839E+04  0.7818609E-02  0.8188860E-01
       -1   -1    0    0    0  501  0.00000000000E+00  0.00000000000E+00  0.12228033697E+04  0.12228033697E+04  0.50400001928E-02 0.  1.
        1   -1    0    0  501    0  0.00000000000E+00  0.00000000000E+00 -0.20933392228E+04  0.20933392228E+04  0.50400001928E-02 0. -1.
    10030    2    1    2    0    0  0.00000000000E+00  0.00000000000E+00 -0.87053585314E+03  0.33161425925E+04  0.31998389056E+04 0.  0.
        1    1    3    3  502    0 -0.27745801551E+03 -0.29774127812E+03 -0.20387978970E+04  0.20790213284E+04  0.50400001928E-02 0. -1.
       -1    1    3    3    0  502  0.27745801551E+03  0.29774127812E+03  0.11682620438E+04  0.12371212641E+04  0.50400001928E-02 0.  1.
</event>
<event>
 5   0  0.3942564E-07  0.3203980E+04  0.7818609E-02  0.8187767E-01
        2   -1    0    0  501    0  0.00000000000E+00  0.00000000000E+00  0.19368537245E+04  0.19368537245E+04  0.25500000920E-02 0.  1.
       -2   -1    0    0    0  501  0.00000000000E+00  0.00000000000E+00 -0.13250209421E+04  0.13250209421E+04  0.25500000920E-02 0. -1.
    10030    2    1    2    0    0  0.00000000000E+00  0.00000000000E+00  0.61183278243E+03  0.32618746666E+04  0.32039798669E+04 0.  0.
        3    1    3    3  502    0 -0.88875135588E+02 -0.15927545971E+04  0.15627144030E+03  0.16028682945E+04  0.10100000352E+00 0. -1.
       -3    1    3    3    0  502  0.88875135588E+02  0.15927545971E+04  0.45556134212E+03  0.16590063722E+04  0.10100000352E+00 0.  1.
</event>
<event>
 5   0  0.3750285E-07  0.3159758E+04  0.7818609E-02  0.8199526E-01
       -2   -1    0    0    0  501  0.00000000000E+00  0.00000000000E+00  0.23252030316E+04  0.23252030316E+04  0.25500000920E-02 0.  1.
        2   -1    0    0  501    0  0.00000000000E+00  0.00000000000E+00 -0.10734624124E+04  0.10734624124E+04  0.25500000920E-02 0. -1.
    10030    2    1    2    0    0  0.00000000000E+00  0.00000000000E+00  0.12517406191E+04  0.33986654440E+04  0.31597582539E+04 0.  0.
        1    1    3    3  502    0  0.42685393028E+03  0.43172703297E+02  0.22613447746E+04  0.23016838075E+04  0.50400001928E-02 0.  1.
       -1    1    3    3    0  502 -0.42685393028E+03 -0.43172703297E+02 -0.10096041555E+04  0.10969816365E+04  0.50400001928E-02 0. -1.
</event>
<event>
 5   0  0.3942564E-07  0.3201394E+04  0.7818609E-02  0.8188449E-01
       -2   -1    0    0    0  501  0.00000000000E+00  0.00000000000E+00  0.13337128887E+04  0.13337128887E+04  0.25500000920E-02 0.  1.
        2   -1    0    0  501    0  0.00000000000E+00  0.00000000000E+00 -0.19211266572E+04  0.19211266572E+04  0.25500000920E-02 0. -1.
    10030    2    1    2    0    0  0.00000000000E+00  0.00000000000E+00 -0.58741376841E+03  0.32548395459E+04  0.32013943110E+04 0.  0.
        3    1    3    3  502    0 -0.11914413484E+04 -0.74065164924E+03 -0.10773758091E+04  0.17688516039E+04  0.10100000352E+00 0. -1.
       -3    1    3    3    0  502  0.11914413484E+04  0.74065164924E+03  0.48996204072E+03  0.14859879420E+04  0.10100000352E+00 0.  1.
</event>
<event>
 5   0  0.1288096E-07  0.3197462E+04  0.7818609E-02  0.8189488E-01
        1   -1    0    0  501    0  0.00000000000E+00  0.00000000000E+00  0.18347049926E+04  0.18347049926E+04  0.50400001928E-02 0. -1.
       -1   -1    0    0    0  501  0.00000000000E+00  0.00000000000E+00 -0.13931070905E+04  0.13931070906E+04  0.50400001928E-02 0.  1.
    10030    2    1    2    0    0  0.00000000000E+00  0.00000000000E+00  0.44159790209E+03  0.32278120832E+04  0.31974618273E+04 0.  0.
        2    1    3    3  502    0 -0.18169226446E+03 -0.13914385004E+04  0.99411682773E+03  0.17197038834E+04  0.25500000920E-02 0. -1.
       -2    1    3    3    0  502  0.18169226446E+03  0.13914385004E+04 -0.55251892564E+03  0.15081081998E+04  0.25500000920E-02 0.  1.
</event>
<event>
 5   0  0.3830207E-07  0.3197436E+04  0.7818609E-02  0.8189495E-01
        2   -1    0    0  501    0  0.00000000000E+00  0.00000000000E+00  0.15295741928E+04  0.15295741928E+04  0.25500000920E-02 0.  1.
       -2   -1    0    0    0  501  0.00000000000E+00  0.00000000000E+00 -0.16709875543E+04  0.16709875543E+04  0.25500000920E-02 0. -1.
    10030    2    1    2    0    0  0.00000000000E+00  0.00000000000E+00 -0.14141336148E+03  0.32005617470E+04  0.31974361225E+04 0.  0.
        4    1    3    3  502    0  0.97805996679E+03  0.60684308592E+03 -0.11813128005E+04  0.16493518045E+04  0.12699999809E+01 0. -1.
       -4    1    3    3    0  502 -0.97805996679E+03 -0.60684308592E+03  0.10398994390E+04  0.15512099425E+04  0.12699999809E+01 0.  1.
</event>
<event>
 5   0  0.1277374E-07  0.3196897E+04  0.7818609E-02  0.8189637E-01
       -1   -1    0    0    0  501  0.00000000000E+00  0.00000000000E+00  0.16633503067E+04  0.16633503067E+04  0.50400001928E-02 0. -1.
        1   -1    0    0  501    0  0.00000000000E+00  0.00000000000E+00 -0.15360791801E+04  0.15360791801E+04  0.50400001928E-02 0.  1.
    10030    2    1    2    0    0  0.00000000000E+00  0.00000000000E+00  0.12727112658E+03  0.31994294868E+04  0.31968971052E+04 0.  0.
        5    1    3    3  502    0  0.68637430004E+03  0.53427957363E+03 -0.12784902550E+04  0.15463258922E+04  0.46999998093E+01 0.  1.
       -5    1    3    3    0  502 -0.68637430004E+03 -0.53427957363E+03  0.14057613816E+04  0.16531035946E+04  0.46999998093E+01 0. -1.
</event>
<event>
 5   0  0.1288096E-07  0.3210884E+04  0.7818609E-02  0.8185949E-01
        1   -1    0    0  501    0  0.00000000000E+00  0.00000000000E+00  0.29192667441E+04  0.29192667441E+04  0.50400001928E-02 0.  1.
       -1   -1    0    0    0  501  0.00000000000E+00  0.00000000000E+00 -0.88290811600E+03  0.88290811602E+03  0.50400001928E-02 0. -1.
    10030    2    1    2    0    0  0.00000000000E+00  0.00000000000E+00  0.20363586281E+04  0.38021748601E+04  0.32108841780E+04 0.  0.
        2    1    3    3  502    0 -0.14722755046E+04 -0.17514565354E+03  0.17473450089E+04  0.22916120399E+04  0.25500000920E-02 0. -1.
       -2    1    3    3    0  502  0.14722755046E+04  0.17514565354E+03  0.28901361918E+03  0.15105628201E+04  0.25500000920E-02 0.  1.
</event>
<event>
 5   0  0.1288096E-07  0.3199163E+04  0.7818609E-02  0.8189038E-01
        1   -1    0    0  501    0  0.00000000000E+00  0.00000000000E+00  0.29377290032E+04  0.29377290032E+04  0.50400001928E-02 0.  1.
       -1   -1    0    0    0  501  0.00000000000E+00  0.00000000000E+00 -0.87096548207E+03  0.87096548208E+03  0.50400001928E-02 0. -1.
    10030    2    1    2    0    0  0.00000000000E+00  0.00000000000E+00  0.20667635212E+04  0.38086944853E+04  0.31991627389E+04 0.  0.
        2    1    3    3  502    0  0.45853156207E+03  0.79366150710E+03  0.25940691964E+04  0.27512442234E+04  0.25500000920E-02 0.  1.
       -2    1    3    3    0  502 -0.45853156207E+03 -0.79366150710E+03 -0.52730567522E+03  0.10574502619E+04  0.25500000920E-02 0. -1.
</event>
<event>
 5   0  0.1365455E-07  0.3197551E+04  0.7818609E-02  0.8189464E-01
       -1   -1    0    0    0  501  0.00000000000E+00  0.00000000000E+00  0.14602506909E+04  0.14602506909E+04  0.50400001928E-02 0.  1.
        1   -1    0    0  501    0  0.00000000000E+00  0.00000000000E+00 -0.17504416744E+04  0.17504416744E+04  0.50400001928E-02 0. -1.
    10030    2    1    2    0    0  0.00000000000E+00  0.00000000000E+00 -0.29019098349E+03  0.32106923654E+04  0.31975513535E+04 0.  0.
        3    1    3    3  502    0 -0.97746991163E+03  0.50881525235E+03  0.10180013576E+04  0.15002223713E+04  0.10100000352E+00 0.  1.
       -3    1    3    3    0  502  0.97746991163E+03 -0.50881525235E+03 -0.13081923411E+04  0.17104699941E+04  0.10100000352E+00 0. -1.
</event>
<event>
 5   0  0.1277374E-07  0.3199016E+04  0.7818609E-02  0.8189077E-01
       -1   -1    0    0    0  501  0.00000000000E+00  0.00000000000E+00  0.14101395796E+04  0.14101395796E+04  0.50400001928E-02 0. -1.
        1   -1    0    0  501    0  0.00000000000E+00  0.00000000000E+00 -0.18143071923E+04  0.18143071923E+04  0.50400001928E-02 0.  1.
    10030    2    1    2    0    0  0.00000000000E+00  0.00000000000E+00 -0.40416761268E+03  0.32244467719E+04  0.31990163372E+04 0.  0.
        5    1    3    3  502    0 -0.47862689870E+03 -0.14852975777E+04  0.15172179899E+03  0.15678756956E+04  0.46999998093E+01 0.  1.
       -5    1    3    3    0  502  0.47862689870E+03  0.14852975777E+04 -0.55588941166E+03  0.16565710762E+04  0.46999998093E+01 0. -1.
</event>
<event>
 5   0  0.3764056E-07  0.3206228E+04  0.7818609E-02  0.8187174E-01
       -2   -1    0    0    0  501  0.00000000000E+00  0.00000000000E+00  0.11284448186E+04  0.11284448186E+04  0.25500000920E-02 0.  1.
        2   -1    0    0  501    0  0.00000000000E+00  0.00000000000E+00 -0.22774477089E+04  0.22774477089E+04  0.25500000920E-02 0. -1.
    10030    2    1    2    0    0  0.00000000000E+00  0.00000000000E+00 -0.11490028903E+04  0.34058925276E+04  0.32062277317E+04 0.  0.
        5    1    3    3  502    0 -0.23320469398E+03  0.32623992827E+03 -0.22232982884E+04  0.22591800037E+04  0.46999998093E+01 0. -1.
       -5    1    3    3    0  502  0.23320469398E+03 -0.32623992827E+03  0.10742953980E+04  0.11467125239E+04  0.46999998093E+01 0.  1.
</event>
<event>
 5   0  0.1317293E-07  0.3204878E+04  0.7818609E-02  0.8187530E-01
        1   -1    0    0  501    0  0.00000000000E+00  0.00000000000E+00  0.90302115905E+03  0.90302115906E+03  0.50400001928E-02 0. -1.
       -1   -1    0    0    0  501  0.00000000000E+00  0.00000000000E+00 -0.28435781471E+04  0.28435781471E+04  0.50400001928E-02 0.  1.
    10030    2    1    2    0    0  0.00000000000E+00  0.00000000000E+00 -0.19405569881E+04  0.37465993062E+04  0.32048783030E+04 0.  0.
        1    1    3    3  502    0  0.76950693323E+03  0.13183751515E+04 -0.15400619984E+04  0.21684199130E+04  0.50400001928E-02 0.  1.
       -1    1    3    3    0  502 -0.76950693323E+03 -0.13183751515E+04 -0.40049498972E+03  0.15781793932E+04  0.50400001928E-02 0. -1.
</event>
<event>
 5   0  0.1277374E-07  0.3202512E+04  0.7818609E-02  0.8188154E-01
       -1   -1    0    0    0  501  0.00000000000E+00  0.00000000000E+00  0.14775751442E+04  0.14775751442E+04  0.50400001928E-02 0.  1.
        1   -1    0    0  501    0  0.00000000000E+00  0.00000000000E+00 -0.17352898917E+04  0.17352898917E+04  0.50400001928E-02 0. -1.
    10030    2    1    2    0    0  0.00000000000E+00  0.00000000000E+00 -0.25771474751E+03  0.32128650359E+04  0.32025122713E+04 0.  0.
        5    1    3    3  502    0 -0.98250201535E+03 -0.27010219794E+03 -0.13680563653E+04  0.17058328512E+04  0.46999998093E+01 0. -1.
       -5    1    3    3    0  502  0.98250201535E+03  0.27010219794E+03  0.11103416178E+04  0.15070321847E+04  0.46999998093E+01 0.  1.
</event>
<event>
 5   0  0.1270948E-07  0.3219611E+04  0.7818609E-02  0.8183657E-01
       -1   -1    0    0    0  501  0.00000000000E+00  0.00000000000E+00  0.16416050439E+04  0.16416050439E+04  0.50400001928E-02 0.  1.
        1   -1    0    0  501    0  0.00000000000E+00  0.00000000000E+00 -0.15786220435E+04  0.15786220435E+04  0.50400001928E-02 0. -1.
    10030    2    1    2    0    0  0.00000000000E+00  0.00000000000E+00  0.62983000417E+02  0.32202270874E+04  0.32196111002E+04 0.  0.
        4    1    3    3  502    0 -0.10520270068E+04  0.58764057575E+03 -0.10361348636E+04  0.15892323108E+04  0.12699999809E+01 0. -1.
       -4    1    3    3    0  502  0.10520270068E+04 -0.58764057575E+03  0.10991178640E+04  0.16309947766E+04  0.12699999809E+01 0.  1.
</event>
<event>
 5   0  0.1288096E-07  0.3200884E+04  0.7818609E-02  0.8188584E-01
       -1   -1    0    0    0  501  0.00000000000E+00  0.00000000000E+00  0.14446143434E+04  0.14446143434E+04  0.50400001928E-02 0. -1.
        1   -1    0    0  501    0  0.00000000000E+00  0.00000000000E+00 -0.17730780557E+04  0.17730780557E+04  0.50400001928E-02 0.  1.
    10030    2    1    2    0    0  0.00000000000E+00  0.00000000000E+00 -0.32846371230E+03  0.32176923991E+04  0.32008836225E+04 0.  0.
        2    1    3    3  502    0 -0.22660560518E+02 -0.32190186999E+03  0.14115711860E+04  0.14479874061E+04  0.25500000920E-02 0. -1.
       -2    1    3    3    0  502  0.22660560518E+02  0.32190186999E+03 -0.17400348983E+04  0.17697049930E+04  0.25500000920E-02 0.  1.
</event>
<event>
 5   0  0.3858721E-07  0.3199900E+04  0.7818609E-02  0.8188844E-01
       -2   -1    0    0    0  501  0.00000000000E+00  0.00000000000E+00  0.11265341344E+04  0.11265341344E+04  0.25500000920E-02 0. -1.
        2   -1    0    0  501    0  0.00000000000E+00  0.00000000000E+00 -0.22723145328E+04  0.22723145328E+04  0.25500000920E-02 0.  1.
    10030    2    1    2    0    0  0.00000000000E+00  0.00000000000E+00 -0.11457803984E+04  0.33988486672E+04  0.31998999268E+04 0.  0.
        2    1    3    3  502    0  0.93300222649E+03 -0.10203874070E+04  0.28224600774E+03  0.14111507446E+04  0.25500000920E-02 0. -1.
       -2    1    3    3    0  502 -0.93300222649E+03  0.10203874070E+04 -0.14280264061E+04  0.19876979226E+04  0.25500000920E-02 0.  1.
</event>
<event>
 5   0  0.3942564E-07  0.3200546E+04  0.7818609E-02  0.8188673E-01
        2   -1    0    0  501    0  0.00000000000E+00  0.00000000000E+00  0.17532382061E+04  0.17532382061E+04  0.25500000920E-02 0.  1.
       -2   -1    0    0    0  501  0.00000000000E+00  0.00000000000E+00 -0.14606535076E+04  0.14606535076E+04  0.25500000920E-02 0. -1.
    10030    2    1    2    0    0  0.00000000000E+00  0.00000000000E+00  0.29258469852E+03  0.32138917137E+04  0.32005459130E+04 0.  0.
        3    1    3    3  502    0 -0.16622972832E+03 -0.73622985076E+03 -0.12706930087E+04  0.14779470384E+04  0.10100000352E+00 0. -1.
       -3    1    3    3    0  502  0.16622972832E+03  0.73622985076E+03  0.15632777072E+04  0.17359446753E+04  0.10100000352E+00 0.  1.
</event>
<event>
 5   0  0.3830207E-07  0.3200808E+04  0.7818609E-02  0.8188604E-01
       -2   -1    0    0    0  501  0.00000000000E+00  0.00000000000E+00  0.12509133114E+04  0.12509133114E+04  0.25500000920E-02 0.  1.
        2   -1    0    0  501    0  0.00000000000E+00  0.00000000000E+00 -0.20475377768E+04  0.20475377768E+04  0.25500000920E-02 0. -1.
    10030    2    1    2    0    0  0.00000000000E+00  0.00000000000E+00 -0.79662446538E+03  0.32984510882E+04  0.32008075610E+04 0.  0.
        4    1    3    3  502    0 -0.75707346271E+03 -0.57602402975E+03  0.92793194517E+03  0.13289180632E+04  0.12699999809E+01 0.  1.
       -4    1    3    3    0  502  0.75707346271E+03  0.57602402975E+03 -0.17245564106E+04  0.19695330251E+04  0.12699999809E+01 0. -1.
</event>
<event>
 5   0  0.1277374E-07  0.3197217E+04  0.7818609E-02  0.8189552E-01
       -1   -1    0    0    0  501  0.00000000000E+00  0.00000000000E+00  0.13485540389E+04  0.13485540389E+04  0.50400001928E-02 0.  1.
        1   -1    0    0  501    0  0.00000000000E+00  0.00000000000E+00 -0.18950296332E+04  0.18950296332E+04  0.50400001928E-02 0. -1.
    10030    2    1    2    0    0  0.00000000000E+00  0.00000000000E+00 -0.54647559428E+03  0.32435836721E+04  0.31972174563E+04 0.  0.
        5    1    3    3  502    0  0.13424519948E+04 -0.76286825652E+03  0.14674943863E+03  0.15510328246E+04  0.46999998093E+01 0.  1.
       -5    1    3    3    0  502 -0.13424519948E+04  0.76286825652E+03 -0.69322503292E+03  0.16925508475E+04  0.46999998093E+01 0. -1.
</event>
<event>
 5   0  0.3750285E-07  0.3202322E+04  0.7818609E-02  0.8188204E-01
       -2   -1    0    0    0  501  0.00000000000E+00  0.00000000000E+00  0.20003404718E+04  0.20003404718E+04  0.25500000920E-02 0. -1.
        2   -1    0    0  501    0  0.00000000000E+00  0.00000000000E+00 -0.12816397146E+04  0.12816397147E+04  0.25500000920E-02 0.  1.
    10030    2    1    2    0    0  0.00000000000E+00  0.00000000000E+00  0.71870075710E+03  0.32819801864E+04  0.32023215275E+04 0.  0.
        1    1    3    3  502    0 -0.41700589093E+03 -0.81829314634E+03  0.17035469696E+04  0.19353474789E+04  0.50400001928E-02 0. -1.
       -1    1    3    3    0  502  0.41700589093E+03  0.81829314634E+03 -0.98484621254E+03  0.13466327075E+04  0.50400001928E-02 0.  1.
</event>
<event>
 5   0  0.3764056E-07  0.3195264E+04  0.7818609E-02  0.8190069E-01
        2   -1    0    0  501    0  0.00000000000E+00  0.00000000000E+00  0.21979021071E+04  0.21979021071E+04  0.25500000920E-02 0.  1.
       -2   -1    0    0    0  501  0.00000000000E+00  0.00000000000E+00 -0.11613020372E+04  0.11613020372E+04  0.25500000920E-02 0. -1.
    10030    2    1    2    0    0  0.00000000000E+00  0.00000000000E+00  0.10366000700E+04  0.33592041443E+04  0.31952641171E+04 0.  0.
        5    1    3    3  502    0  0.10831260880E+04 -0.10901616694E+04  0.97750773868E+03  0.18213066895E+04  0.46999998093E+01 0.  1.
       -5    1    3    3    0  502 -0.10831260880E+04  0.10901616694E+04  0.59092331287E+02  0.15378974548E+04  0.46999998093E+01 0. -1.
</event>
<event>
 5   0  0.1270948E-07  0.3199268E+04  0.7818609E-02  0.8189010E-01
       -1   -1    0    0    0  501  0.00000000000E+00  0.00000000000E+00  0.10789415405E+04  0.10789415405E+04  0.50400001928E-02 0. -1.
        1   -1    0    0  501    0  0.00000000000E+00  0.00000000000E+00 -0.23716108399E+04  0.23716108399E+04  0.50400001928E-02 0.  1.
    10030    2    1    2    0    0  0.00000000000E+00  0.00000000000E+00 -0.12926692995E+04  0.34505523804E+04  0.31992683245E+04 0.  0.
        4    1    3    3  502    0 -0.75020197372E+03 -0.59425070979E+03  0.73609272380E+03  0.12073818859E+04  0.12699999809E+01 0. -1.
       -4    1    3    3    0  502  0.75020197372E+03  0.59425070979E+03 -0.20287620233E+04  0.22431704945E+04  0.12699999809E+01 0.  1.
</event>
<event>
 5   0  0.1288096E-07  0.3206606E+04  0.7818609E-02  0.8187075E-01
       -1   -1    0    0    0  501  0.00000000000E+00  0.00000000000E+00  0.15093388614E+04  0.15093388614E+04  0.50400001928E-02 0.  1.
        1   -1    0    0  501    0  0.00000000000E+00  0.00000000000E+00 -0.17031173983E+04  0.17031173983E+04  0.50400001928E-02 0. -1.
    10030    2    1    2    0    0  0.00000000000E+00  0.00000000000E+00 -0.19377853688E+03  0.32124562597E+04  0.32066064771E+04 0.  0.
        2    1    3    3  502    0  0.78535246283E+03 -0.11828243925E+03  0.12984229069E+04  0.15220615203E+04  0.25500000920E-02 0.  1.
       -2    1    3    3    0  502 -0.78535246283E+03  0.11828243925E+03 -0.14922014438E+04  0.16903947394E+04  0.25500000920E-02 0. -1.
</event>
<event>
 5   0  0.1288096E-07  0.3204269E+04  0.7818609E-02  0.8187691E-01
        1   -1    0    0  501    0  0.00000000000E+00  0.00000000000E+00  0.22583553947E+04  0.22583553947E+04  0.50400001928E-02 0.  1.
       -1   -1    0    0    0  501  0.00000000000E+00  0.00000000000E+00 -0.11365946708E+04  0.11365946708E+04  0.50400001928E-02 0. -1.
    10030    2    1    2    0    0  0.00000000000E+00  0.00000000000E+00  0.11217607239E+04  0.33949500655E+04  0.32042688441E+04 0.  0.
        2    1    3    3  502    0  0.28086127144E+03 -0.14669407771E+04 -0.53302383333E+02  0.14945365306E+04  0.25500000920E-02 0. -1.
       -2    1    3    3    0  502 -0.28086127144E+03  0.14669407771E+04  0.11750631072E+04  0.19004135348E+04  0.25500000920E-02 0.  1.
</event>
<event>
 5   0  0.1277374E-07  0.3205415E+04  0.7818609E-02  0.8187389E-01
        1   -1    0    0  501    0  0.00000000000E+00  0.00000000000E+00  0.25380611625E+04  0.25380611625E+04  0.50400001928E-02 0. -1.
       -1   -1    0    0    0  501  0.00000000000E+00  0.00000000000E+00 -0.10120602407E+04  0.10120602407E+04  0.50400001928E-02 0.  1.
    10030    2    1    2    0    0  0.00000000000E+00  0.00000000000E+00  0.15260009217E+04  0.35501214032E+04  0.32054146634E+04 0.  0.
        5    1    3    3  502    0 -0.28714365318E+03 -0.35898688722E+03  0.24634696813E+04  0.25059984086E+04  0.46999998093E+01 0. -1.
       -5    1    3    3    0  502  0.28714365318E+03  0.35898688722E+03 -0.93746875961E+03  0.10441229947E+04  0.46999998093E+01 0.  1.
</event>
<event>
 5   0  0.1288096E-07  0.3203381E+04  0.7818609E-02  0.8187925E-01
       -1   -1    0    0    0  501  0.00000000000E+00  0.00000000000E+00  0.12049282178E+04  0.12049282178E+04  0.50400001928E-02 0. -1.
        1   -1    0    0  501    0  0.00000000000E+00  0.00000000000E+00 -0.21290992964E+04  0.21290992964E+04  0.50400001928E-02 0.  1.
    10030    2    1    2    0    0  0.00000000000E+00  0.00000000000E+00 -0.92417107855E+03  0.33340275142E+04  0.32033806023E+04 0.  0.
        2    1    3    3  502    0  0.11265602526E+04  0.11303745660E+04 -0.60375134861E+03  0.17062826123E+04  0.25500000920E-02 0.  1.
       -2    1    3    3    0  502 -0.11265602526E+04 -0.11303745660E+04 -0.32041972994E+03  0.16277449019E+04  0.25500000920E-02 0. -1.
</event>
<event>
 5   0  0.3858721E-07  0.3199900E+04  0.7818609E-02  0.8188844E-01
       -2   -1    0    0    0  501  0.00000000000E+00  0.00000000000E+00  0.24013954703E+04  0.24013954703E+04  0.25500000920E-02 0.  1.
        2   -1    0    0  501    0  0.00000000000E+00  0.00000000000E+00 -0.10659803954E+04  0.10659803954E+04  0.25500000920E-02 0. -1.
    10030    2    1    2    0    0  0.00000000000E+00  0.00000000000E+00  0.13354150749E+04  0.34673758657E+04  0.31999003065E+04 0.  0.
        2    1    3    3  502    0 -0.65350417282E+03 -0.11837059153E+04 -0.25913340284E+03  0.13767271038E+04  0.25500000920E-02 0. -1.
       -2    1    3    3    0  502  0.65350417282E+03  0.11837059153E+04  0.15945484778E+04  0.20906487619E+04  0.25500000920E-02 0.  1.
</event>
<event>
 5   0  0.3858721E-07  0.3163007E+04  0.7818609E-02  0.8198656E-01
        2   -1    0    0  501    0  0.00000000000E+00  0.00000000000E+00  0.22707841660E+04  0.22707841660E+04  0.25500000920E-02 0.  1.
       -2   -1    0    0    0  501  0.00000000000E+00  0.00000000000E+00 -0.11014495007E+04  0.11014495007E+04  0.25500000920E-02 0. -1.
    10030    2    1    2    0    0  0.00000000000E+00  0.00000000000E+00  0.11693346652E+04  0.33722336667E+04  0.31630074840E+04 0.  0.
        2    1    3    3  502    0  0.59251489653E+03  0.39615795102E+03  0.20898397133E+04  0.22080409987E+04  0.25500000920E-02 0.  1.
       -2    1    3    3    0  502 -0.59251489653E+03 -0.39615795102E+03 -0.92050504805E+03  0.11641926680E+04  0.25500000920E-02 0. -1.
</event>
<event>
 5   0  0.3942564E-07  0.3199450E+04  0.7818609E-02  0.8188962E-01
       -2   -1    0    0    0  501  0.00000000000E+00  0.00000000000E+00  0.10375252510E+04  0.10375252510E+04  0.25500000920E-02 0. -1.
        2   -1    0    0  501    0  0.00000000000E+00  0.00000000000E+00 -0.24665624625E+04  0.24665624625E+04  0.25500000920E-02 0.  1.
    10030    2    1    2    0    0  0.00000000000E+00  0.00000000000E+00 -0.14290372114E+04  0.35040877135E+04  0.31994504766E+04 0.  0.
        3    1    3    3  502    0  0.83303225677E+02  0.59482457803E+03 -0.23383819896E+04  0.24142878962E+04  0.10100000352E+00 0.  1.
       -3    1    3    3    0  502 -0.83303225677E+02 -0.59482457803E+03  0.90934477819E+03  0.10897998173E+04  0.10100000352E+00 0. -1.
</event>
<event>
 5   0  0.1317293E-07  0.3200037E+04  0.7818609E-02  0.8188807E-01
       -1   -1    0    0    0  501  0.00000000000E+00  0.00000000000E+00  0.16238491203E+04  0.16238491203E+04  0.50400001928E-02 0. -1.
        1   -1    0    0  501    0  0.00000000000E+00  0.00000000000E+00 -0.15765376796E+04  0.15765376797E+04  0.50400001928E-02 0.  1.
    10030    2    1    2    0    0  0.00000000000E+00  0.00000000000E+00  0.47311440613E+02  0.32003867999E+04  0.32000370774E+04 0.  0.
        1    1    3    3  502    0  0.38367246748E+02  0.15085407729E+04 -0.50827834648E+03  0.15923297983E+04  0.50400001928E-02 0. -1.
       -1    1    3    3    0  502 -0.38367246748E+02 -0.15085407729E+04  0.55558978709E+03  0.16080570016E+04  0.50400001928E-02 0.  1.
</event>
<event>
 5   0  0.1288096E-07  0.3186181E+04  0.7818609E-02  0.8192476E-01
       -1   -1    0    0    0  501  0.00000000000E+00  0.00000000000E+00  0.25882357184E+04  0.25882357184E+04  0.50400001928E-02 0. -1.
        1   -1    0    0  501    0  0.00000000000E+00  0.00000000000E+00 -0.98056661393E+03  0.98056661394E+03  0.50400001928E-02 0.  1.
    10030    2    1    2    0    0  0.00000000000E+00  0.00000000000E+00  0.16076691045E+04  0.35688023323E+04  0.31861811213E+04 0.  0.
        2    1    3    3  502    0 -0.11621849132E+04  0.26435355550E+03  0.19878371830E+04  0.23177690223E+04  0.25500000920E-02 0. -1.
       -2    1    3    3    0  502  0.11621849132E+04 -0.26435355550E+03 -0.38016807850E+03  0.12510333100E+04  0.25500000920E-02 0.  1.
</event>
<event>
 5   0  0.1288096E-07  0.3191024E+04  0.7818609E-02  0.8191192E-01
        1   -1    0    0  501    0  0.00000000000E+00  0.00000000000E+00  0.10721489769E+04  0.10721489769E+04  0.50400001928E-02 0. -1.
       -1   -1    0    0    0  501  0.00000000000E+00  0.00000000000E+00 -0.23743510868E+04  0.23743510868E+04  0.50400001928E-02 0.  1.
    10030    2    1    2    0    0  0.00000000000E+00  0.00000000000E+00 -0.13022021099E+04  0.34465000637E+04  0.31910237157E+04 0.  0.
        2    1    3    3  502    0 -0.15231499142E+04 -0.47061534746E+03 -0.72104383733E+03  0.17496767364E+04  0.25500000920E-02 0. -1.
       -2    1    3    3    0  502  0.15231499142E+04  0.47061534746E+03 -0.58115827255E+03  0.16968233274E+04  0.25500000920E-02 0.  1.
</event>
<event>
 5   0  0.3942564E-07  0.3195813E+04  0.7818609E-02  0.8189924E-01
        2   -1    0    0  501    0  0.00000000000E+00  0.00000000000E+00  0.18765280966E+04  0.18765280966E+04  0.25500000920E-02 0.  1.
       -2   -1    0    0    0  501  0.00000000000E+00  0.00000000000E+00 -0.13606537467E+04  0.13606537467E+04  0.25500000920E-02 0. -1.
    10030    2    1    2    0    0  0.00000000000E+00  0.00000000000E+00  0.51587434990E+03  0.32371818433E+04  0.31958128765E+04 0.  0.
        3    1    3    3  502    0  0.74337440709E+03 -0.12132720890E+04 -0.47857208542E+03  0.15012214768E+04  0.10100000352E+00 0. -1.
       -3    1    3    3    0  502 -0.74337440709E+03  0.12132720890E+04  0.99444643533E+03  0.17359603665E+04  0.10100000352E+00 0.  1.
</event>
<event>
 5   0  0.3858721E-07  0.3198015E+04  0.7818609E-02  0.8189342E-01
        2   -1    0    0  501    0  0.00000000000E+00  0.00000000000E+00  0.11155727002E+04  0.11155727002E+04  0.25500000920E-02 0.  1.
       -2   -1    0    0    0  501  0.00000000000E+00  0.00000000000E+00 -0.22919394356E+04  0.22919394356E+04  0.25500000920E-02 0. -1.
    10030    2    1    2    0    0  0.00000000000E+00  0.00000000000E+00 -0.11763667354E+04  0.34075121359E+04  0.31980150500E+04 0.  0.
        2    1    3    3  502    0  0.66995842455E+03  0.25878519998E+03 -0.21104109261E+04  0.22292708106E+04  0.25500000920E-02 0. -1.
       -2    1    3    3    0  502 -0.66995842455E+03 -0.25878519998E+03  0.93404419066E+03  0.11782413252E+04  0.25500000920E-02 0.  1.
</event>
<event>
 5   0  0.3858721E-07  0.3208152E+04  0.7818609E-02  0.8186667E-01
        2   -1    0    0  501    0  0.00000000000E+00  0.00000000000E+00  0.17012162822E+04  0.17012162822E+04  0.25500000920E-02 0.  1.
       -2   -1    0    0    0  501  0.00000000000E+00  0.00000000000E+00 -0.15124828355E+04  0.15124828355E+04  0.25500000920E-02 0. -1.
    10030    2    1    2    0    0  0.00000000000E+00  0.00000000000E+00  0.18873344666E+03  0.32136991177E+04  0.32081523818E+04 0.  0.
        2    1    3    3  502    0 -0.62255171057E+03 -0.53191491212E+03  0.14760833578E+04  0.16879947231E+04  0.25500000920E-02 0.  1.
       -2    1    3    3    0  502  0.62255171057E+03  0.53191491212E+03 -0.12873499111E+04  0.15257043946E+04  0.25500000920E-02 0. -1.
</event>
<event>
 5   0  0.1270948E-07  0.3210508E+04  0.7818609E-02  0.8186047E-01
        1   -1    0    0  501    0  0.00000000000E+00  0.00000000000E+00  0.17804496527E+04  0.17804496527E+04  0.50400001928E-02 0. -1.
       -1   -1    0    0    0  501  0.00000000000E+00  0.00000000000E+00 -0.14472977981E+04  0.14472977981E+04  0.50400001928E-02 0.  1.
    10030    2    1    2    0    0  0.00000000000E+00  0.00000000000E+00  0.33315185462E+03  0.32277474508E+04  0.32105082850E+04 0.  0.
        4    1    3    3  502    0 -0.72962108624E+03 -0.68155056356E+02 -0.12693253142E+04  0.14656672226E+04  0.12699999809E+01 0.  1.
       -4    1    3    3    0  502  0.72962108624E+03  0.68155056356E+02  0.16024771688E+04  0.17620802282E+04  0.12699999809E+01 0. -1.
</event>
<event>
 5   0  0.1230450E-07  0.3180254E+04  0.7818609E-02  0.8194052E-01
       -3   -1    0    0    0  501  0.00000000000E+00  0.00000000000E+00  0.29196649651E+04  0.29196649669E+04  0.10100000352E+00 0.  1.
        3   -1    0    0  501    0  0.00000000000E+00  0.00000000000E+00 -0.86602514348E+03  0.86602514936E+03  0.10100000352E+00 0. -1.
    10030    2    1    2    0    0  0.00000000000E+00  0.00000000000E+00  0.20536398216E+04  0.37856901162E+04  0.31802536281E+04 0.  0.
        3    1    3    3  502    0  0.91543590156E+03 -0.28871385984E+03 -0.48224559206E+03  0.10742157158E+04  0.10100000352E+00 0. -1.
       -3    1    3    3    0  502 -0.91543590156E+03  0.28871385984E+03  0.25358854137E+04  0.27114744005E+04  0.10100000352E+00 0.  1.
</event>
<event>
 5   0  0.3750285E-07  0.3196215E+04  0.7818609E-02  0.8189817E-01
       -2   -1    0    0    0  501  0.00000000000E+00  0.00000000000E+00  0.11358472202E+04  0.11358472202E+04  0.25500000920E-02 0. -1.
        2   -1    0    0  501    0  0.00000000000E+00  0.00000000000E+00 -0.22484956719E+04  0.22484956719E+04  0.25500000920E-02 0.  1.
    10030    2    1    2    0    0  0.00000000000E+00  0.00000000000E+00 -0.11126484517E+04  0.33843428920E+04  0.31962149855E+04 0.  0.
        1    1    3    3  502    0 -0.11744929360E+04 -0.82157345774E+03  0.19205130237E+03  0.14461328798E+04  0.50400001928E-02 0. -1.
       -1    1    3    3    0  502  0.11744929360E+04  0.82157345774E+03 -0.13046997541E+04  0.19382100123E+04  0.50400001928E-02 0.  1.
</event>
<event>
 5   0  0.3942564E-07  0.3203602E+04  0.7818609E-02  0.8187867E-01
       -2   -1    0    0    0  501  0.00000000000E+00  0.00000000000E+00  0.12794305714E+04  0.12794305714E+04  0.25500000920E-02 0.  1.
        2   -1    0    0  501    0  0.00000000000E+00  0.00000000000E+00 -0.20053973789E+04  0.20053973789E+04  0.25500000920E-02 0. -1.
    10030    2    1    2    0    0  0.00000000000E+00  0.00000000000E+00 -0.72596680751E+03  0.32848279503E+04  0.32036021690E+04 0.  0.
        3    1    3    3  502    0 -0.11047597033E+04 -0.52536395070E+03  0.69728741729E+03  0.14080877228E+04  0.10100000352E+00 0.  1.
       -3    1    3    3    0  502  0.11047597033E+04  0.52536395070E+03 -0.14232542248E+04  0.18767402274E+04  0.10100000352E+00 0. -1.
</event>
<event>
 5   0  0.1288096E-07  0.3201822E+04  0.7818609E-02  0.8188336E-01
        1   -1    0    0  501    0  0.00000000000E+00  0.00000000000E+00  0.93564956673E+03  0.93564956674E+03  0.50400001928E-02 0. -1.
       -1   -1    0    0    0  501  0.00000000000E+00  0.00000000000E+00 -0.27391834878E+04  0.27391834878E+04  0.50400001928E-02 0.  1.
    10030    2    1    2    0    0  0.00000000000E+00  0.00000000000E+00 -0.18035339210E+04  0.36748330545E+04  0.32018218836E+04 0.  0.
        2    1    3    3  502    0  0.75022244069E+03 -0.35327016103E+03 -0.24734818805E+04  0.26087824996E+04  0.25500000920E-02 0.  1.
       -2    1    3    3    0  502 -0.75022244069E+03  0.35327016103E+03  0.66994795946E+03  0.10660505549E+04  0.25500000920E-02 0. -1.
</event>
<event>
 5   0  0.3942564E-07  0.3202640E+04  0.7818609E-02  0.8188120E-01
       -2   -1    0    0    0  501  0.00000000000E+00  0.00000000000E+00  0.12973193473E+04  0.12973193473E+04  0.25500000920E-02 0.  1.
        2   -1    0    0  501    0  0.00000000000E+00  0.00000000000E+00 -0.19765567311E+04  0.19765567311E+04  0.25500000920E-02 0. -1.
    10030    2    1    2    0    0  0.00000000000E+00  0.00000000000E+00 -0.67923738376E+03  0.32738760784E+04  0.32026397164E+04 0.  0.
        3    1    3    3  502    0 -0.92604711155E+03  0.52045676715E+03 -0.15645144382E+04  0.18910695219E+04  0.10100000352E+00 0.  1.
       -3    1    3    3    0  502  0.92604711155E+03 -0.52045676715E+03  0.88527705442E+03  0.13828065565E+04  0.10100000352E+00 0. -1.
</event>
<event>
 5   0  0.3858721E-07  0.3205033E+04  0.7818609E-02  0.8187489E-01
       -2   -1    0    0    0  501  0.00000000000E+00  0.00000000000E+00  0.18371796727E+04  0.18371796727E+04  0.25500000920E-02 0. -1.
        2   -1    0    0  501    0  0.00000000000E+00  0.00000000000E+00 -0.13978264500E+04  0.13978264500E+04  0.25500000920E-02 0.  1.
    10030    2    1    2    0    0  0.00000000000E+00  0.00000000000E+00  0.43935322275E+03  0.32350061227E+04  0.32050325052E+04 0.  0.
        2    1    3    3  502    0  0.11159460284E+04 -0.92885588413E+03 -0.46486171193E+03  0.15245344217E+04  0.25500000920E-02 0.  1.
       -2    1    3    3    0  502 -0.11159460284E+04  0.92885588413E+03  0.90421493468E+03  0.17104717010E+04  0.25500000920E-02 0. -1.
</event>
<event>
 5   0  0.3764056E-07  0.3197873E+04  0.7818609E-02  0.8189379E-01
        2   -1    0    0  501    0  0.00000000000E+00  0.00000000000E+00  0.14926032921E+04  0.14926032921E+04  0.25500000920E-02 0.  1.
       -2   -1    0    0    0  501  0.00000000000E+00  0.00000000000E+00 -0.17128452181E+04  0.17128452181E+04  0.25500000920E-02 0. -1.
    10030    2    1    2    0    0  0.00000000000E+00  0.00000000000E+00 -0.22024192593E+03  0.32054485102E+04  0.31978733005E+04 0.  0.
        5    1    3    3  502    0 -0.87908215632E+03 -0.20976544116E+02 -0.14487059532E+04  0.16946965752E+04  0.46999998093E+01 0. -1.
       -5    1    3    3    0  502  0.87908215632E+03  0.20976544116E+02  0.12284640273E+04  0.15107519351E+04  0.46999998093E+01 0.  1.
</event>
<event>
 5   0  0.1277374E-07  0.3185720E+04  0.7818609E-02  0.8192599E-01
       -1   -1    0    0    0  501  0.00000000000E+00  0.00000000000E+00  0.11676461774E+04  0.11676461774E+04  0.50400001928E-02 0. -1.
        1   -1    0    0  501    0  0.00000000000E+00  0.00000000000E+00 -0.21729208913E+04  0.21729208913E+04  0.50400001928E-02 0.  1.
    10030    2    1    2    0    0  0.00000000000E+00  0.00000000000E+00 -0.10052747140E+04  0.33405670687E+04  0.31857198700E+04 0.  0.
        5    1    3    3  502    0 -0.73807882471E+02  0.13835940680E+04 -0.13265783519E+04  0.19182315716E+04  0.46999998093E+01 0.  1.
       -5    1    3    3    0  502  0.73807882471E+02 -0.13835940680E+04  0.32130363792E+03  0.14223354971E+04  0.46999998093E+01 0. -1.
</event>
<event>
 5   0  0.1277374E-07  0.3203677E+04  0.7818609E-02  0.8187847E-01
        1   -1    0    0  501    0  0.00000000000E+00  0.00000000000E+00  0.18408540259E+04  0.18408540259E+04  0.50400001928E-02 0.  1.
       -1   -1    0    0    0  501  0.00000000000E+00  0.00000000000E+00 -0.13938568518E+04  0.13938568518E+04  0.50400001928E-02 0. -1.
    10030    2    1    2    0    0  0.00000000000E+00  0.00000000000E+00  0.44699717412E+03  0.32347108777E+04  0.32036772604E+04 0.  0.
        5    1    3    3  502    0  0.61217614483E+03 -0.49227068330E+03  0.16330065812E+04  0.18121320709E+04  0.46999998093E+01 0.  1.
       -5    1    3    3    0  502 -0.61217614483E+03  0.49227068330E+03 -0.11860094071E+04  0.14225788068E+04  0.46999998093E+01 0. -1.
</event>
<event>
 5   0  0.3750285E-07  0.3200825E+04  0.7818609E-02  0.8188599E-01
       -2   -1    0    0    0  501  0.00000000000E+00  0.00000000000E+00  0.14116529266E+04  0.14116529266E+04  0.25500000920E-02 0. -1.
        2   -1    0    0  501    0  0.00000000000E+00  0.00000000000E+00 -0.18144115991E+04  0.18144115991E+04  0.25500000920E-02 0.  1.
    10030    2    1    2    0    0  0.00000000000E+00  0.00000000000E+00 -0.40275867248E+03  0.32260645257E+04  0.32008245462E+04 0.  0.
        1    1    3    3  502    0 -0.53280149842E+02  0.15521250870E+04 -0.59093506484E+03  0.16616664259E+04  0.50400001928E-02 0. -1.
       -1    1    3    3    0  502  0.53280149842E+02 -0.15521250870E+04  0.18817639236E+03  0.15643980998E+04  0.50400001928E-02 0.  1.
</event>
<event>
 5   0  0.1270948E-07  0.3200817E+04  0.7818609E-02  0.8188601E-01
        1   -1    0    0  501    0  0.00000000000E+00  0.00000000000E+00  0.23866772159E+04  0.23866772159E+04  0.50400001928E-02 0. -1.
       -1   -1    0    0    0  501  0.00000000000E+00  0.00000000000E+00 -0.10731689794E+04  0.10731689794E+04  0.50400001928E-02 0.  1.
    10030    2    1    2    0    0  0.00000000000E+00  0.00000000000E+00  0.13135082365E+04  0.34598461953E+04  0.32008173656E+04 0.  0.
        4    1    3    3  502    0  0.11563042877E+04 -0.60379728481E+03 -0.34547783157E+03  0.13494322184E+04  0.12699999809E+01 0.  1.
       -4    1    3    3    0  502 -0.11563042877E+04  0.60379728481E+03  0.16589860681E+04  0.21104139769E+04  0.12699999809E+01 0. -1.
</event>
<event>
 5   0  0.3858721E-07  0.3201481E+04  0.7818609E-02  0.8188426E-01
        2   -1    0    0  501    0  0.00000000000E+00  0.00000000000E+00  0.25127980865E+04  0.25127980865E+04  0.25500000920E-02 0.  1.
       -2   -1    0    0    0  501  0.00000000000E+00  0.00000000000E+00 -0.10197276398E+04  0.10197276398E+04  0.25500000920E-02 0. -1.
    10030    2    1    2    0    0  0.00000000000E+00  0.00000000000E+00  0.14930704467E+04  0.35325257263E+04  0.32014806961E+04 0.  0.
        2    1    3    3  502    0  0.12468268850E+04 -0.10038739465E+04  0.75252623745E+03  0.17687950474E+04  0.25500000920E-02 0. -1.
       -2    1    3    3    0  502 -0.12468268850E+04  0.10038739465E+04  0.74054420929E+03  0.17637306789E+04  0.25500000920E-02 0.  1.
</event>
<event>
 5   0  0.1317293E-07  0.3204509E+04  0.7818609E-02  0.8187627E-01
       -1   -1    0    0    0  501  0.00000000000E+00  0.00000000000E+00  0.15875274800E+04  0.15875274800E+04  0.50400001928E-02 0. -1.
        1   -1    0    0  501    0  0.00000000000E+00  0.00000000000E+00 -0.16171179263E+04  0.16171179263E+04  0.50400001928E-02 0.  1.
    10030    2    1    2    0    0  0.00000000000E+00  0.00000000000E+00 -0.29590446278E+02  0.32046454064E+04  0.32045087901E+04 0.  0.
        1    1    3    3  502    0  0.32535174609E+03  0.46608219024E+03  0.14833116255E+04  0.15884897686E+04  0.50400001928E-02 0. -1.
       -1    1    3    3    0  502 -0.32535174609E+03 -0.46608219024E+03 -0.15129020717E+04  0.16161556377E+04  0.50400001928E-02 0.  1.
</event>
<event>
 5   0  0.3830207E-07  0.3212293E+04  0.7818609E-02  0.8185578E-01
       -2   -1    0    0    0  501  0.00000000000E+00  0.00000000000E+00  0.15043512145E+04  0.15043512145E+04  0.25500000920E-02 0.  1.
        2   -1    0    0  501    0  0.00000000000E+00  0.00000000000E+00 -0.17148296258E+04  0.17148296258E+04  0.25500000920E-02 0. -1.
    10030    2    1    2    0    0  0.00000000000E+00  0.00000000000E+00 -0.21047841135E+03  0.32191808403E+04  0.32122926580E+04 0.  0.
        4    1    3    3  502    0  0.10584714315E+04  0.81822382051E+03  0.78540295001E+03  0.15513579208E+04  0.12699999809E+01 0. -1.
       -4    1    3    3    0  502 -0.10584714315E+04 -0.81822382051E+03 -0.99588136136E+03  0.16678229194E+04  0.12699999809E+01 0.  1.
</event>
<event>
 5   0  0.1270948E-07  0.3199310E+04  0.7818609E-02  0.8188999E-01
       -1   -1    0    0    0  501  0.00000000000E+00  0.00000000000E+00  0.18594656379E+04  0.18594656379E+04  0.50400001928E-02 0.  1.
        1   -1    0    0  501    0  0.00000000000E+00  0.00000000000E+00 -0.13761460942E+04  0.13761460942E+04  0.50400001928E-02 0. -1.
    10030    2    1    2    0    0  0.00000000000E+00  0.00000000000E+00  0.48331954372E+03  0.32356117321E+04  0.31993101599E+04 0.  0.
        4    1    3    3  502    0  0.10815585563E+04 -0.69014447120E+03 -0.72460059522E+03  0.14734707114E+04  0.12699999809E+01 0. -1.
       -4    1    3    3    0  502 -0.10815585563E+04  0.69014447120E+03  0.12079201389E+04  0.17621410207E+04  0.12699999809E+01 0.  1.
</event>
<event>
 5   0  0.3764056E-07  0.3204342E+04  0.7818609E-02  0.8187671E-01
       -2   -1    0    0    0  501  0.00000000000E+00  0.00000000000E+00  0.11122391404E+04  0.11122391404E+04  0.25500000920E-02 0. -1.
        2   -1    0    0  501    0  0.00000000000E+00  0.00000000000E+00 -0.23079135020E+04  0.23079135020E+04  0.25500000920E-02 0.  1.
    10030    2    1    2    0    0  0.00000000000E+00  0.00000000000E+00 -0.11956743615E+04  0.34201526424E+04  0.32043418854E+04 0.  0.
        5    1    3    3  502    0 -0.25447320332E+03 -0.68766699815E+03 -0.21183090615E+04  0.22416283995E+04  0.46999998093E+01 0.  1.
       -5    1    3    3    0  502  0.25447320332E+03  0.68766699815E+03  0.92263469996E+03  0.11785242429E+04  0.46999998093E+01 0. -1.
</event>
<event>
 5   0  0.1270948E-07  0.3194823E+04  0.7818609E-02  0.8190186E-01
       -1   -1    0    0    0  501  0.00000000000E+00  0.00000000000E+00  0.80391684601E+03  0.80391684603E+03  0.50400001928E-02 0.  1.
        1   -1    0    0  501    0  0.00000000000E+00  0.00000000000E+00 -0.31741140498E+04  0.31741140498E+04  0.50400001928E-02 0. -1.
    10030    2    1    2    0    0  0.00000000000E+00  0.00000000000E+00 -0.23701972038E+04  0.39780308958E+04  0.31948231600E+04 0.  0.
        4    1    3    3  502    0 -0.10372577914E+04  0.18349660669E+03  0.31019389906E+03  0.10980877006E+04  0.12699999809E+01 0.  1.
       -4    1    3    3    0  502  0.10372577914E+04 -0.18349660669E+03 -0.26803911029E+04  0.28799431952E+04  0.12699999809E+01 0. -1.
</event>
<event>
 5   0  0.1277374E-07  0.3209743E+04  0.7818609E-02  0.8186249E-01
       -1   -1    0    0    0  501  0.00000000000E+00  0.00000000000E+00  0.13469214770E+04  0.13469214770E+04  0.50400001928E-02 0. -1.
        1   -1    0    0  501    0  0.00000000000E+00  0.00000000000E+00 -0.19122212372E+04  0.19122212373E+04  0.50400001928E-02 0.  1.
    10030    2    1    2    0    0  0.00000000000E+00  0.00000000000E+00 -0.56529976023E+03  0.32591427143E+04  0.32097425774E+04 0.  0.
        5    1    3    3  502    0  0.85904730645E+03  0.21680447934E+03  0.10760867741E+04  0.13938978773E+04  0.46999998093E+01 0. -1.
       -5    1    3    3    0  502 -0.85904730645E+03 -0.21680447934E+03 -0.16413865343E+04  0.18652448370E+04  0.46999998093E+01 0.  1.
</event>
<event>
 5   0  0.3750285E-07  0.3199642E+04  0.7818609E-02  0.8188912E-01
       -2   -1    0    0    0  501  0.00000000000E+00  0.00000000000E+00  0.12530904745E+04  0.12530904745E+04  0.25500000920E-02 0. -1.
        2   -1    0    0  501    0  0.00000000000E+00  0.00000000000E+00 -0.20424919964E+04  0.20424919964E+04  0.25500000920E-02 0.  1.
    10030    2    1    2    0    0  0.00000000000E+00  0.00000000000E+00 -0.78940152191E+03  0.32955824709E+04  0.31996420206E+04 0.  0.
        1    1    3    3  502    0 -0.70266780624E+03 -0.80708891781E+03 -0.16196002177E+04  0.19411953617E+04  0.50400001928E-02 0.  1.
       -1    1    3    3    0  502  0.70266780624E+03  0.80708891781E+03  0.83019869575E+03  0.13543871092E+04  0.50400001928E-02 0. -1.
</event>
<event>
 5   0  0.1277374E-07  0.3205830E+04  0.7818609E-02  0.8187279E-01
       -1   -1    0    0    0  501  0.00000000000E+00  0.00000000000E+00  0.11578104857E+04  0.11578104858E+04  0.50400001928E-02 0.  1.
        1   -1    0    0  501    0  0.00000000000E+00  0.00000000000E+00 -0.22191336185E+04  0.22191336186E+04  0.50400001928E-02 0. -1.
    10030    2    1    2    0    0  0.00000000000E+00  0.00000000000E+00 -0.10613231328E+04  0.33769441043E+04  0.32058297976E+04 0.  0.
        5    1    3    3  502    0 -0.10730313352E+04 -0.97981008763E+03  0.18213238216E+03  0.14644515522E+04  0.46999998093E+01 0.  1.
       -5    1    3    3    0  502  0.10730313352E+04  0.97981008763E+03 -0.12434555150E+04  0.19124925521E+04  0.46999998093E+01 0. -1.
</event>
<event>
 5   0  0.3750285E-07  0.3189181E+04  0.7818609E-02  0.8191680E-01
        2   -1    0    0  501    0  0.00000000000E+00  0.00000000000E+00  0.24452318594E+04  0.24452318594E+04  0.25500000920E-02 0.  1.
       -2   -1    0    0    0  501  0.00000000000E+00  0.00000000000E+00 -0.10398683965E+04  0.10398683965E+04  0.25500000920E-02 0. -1.
    10030    2    1    2    0    0  0.00000000000E+00  0.00000000000E+00  0.14053634629E+04  0.34851002559E+04  0.31891812948E+04 0.  0.
        1    1    3    3  502    0 -0.13147713773E+04 -0.20555027672E+03 -0.25738410241E+03  0.13554044662E+04  0.50400001928E-02 0. -1.
       -1    1    3    3    0  502  0.13147713773E+04  0.20555027672E+03  0.16627475653E+04  0.21296957897E+04  0.50400001928E-02 0.  1.
</event>
<event>
 5   0  0.1365455E-07  0.3205932E+04  0.7818609E-02  0.8187252E-01
        1   -1    0    0  501    0  0.00000000000E+00  0.00000000000E+00  0.17664203754E+04  0.17664203754E+04  0.50400001928E-02 0. -1.
       -1   -1    0    0    0  501  0.00000000000E+00  0.00000000000E+00 -0.14546369082E+04  0.14546369082E+04  0.50400001928E-02 0.  1.
    10030    2    1    2    0    0  0.00000000000E+00  0.00000000000E+00  0.31178346717E+03  0.32210572837E+04  0.32059321724E+04 0.  0.
        3    1    3    3  502    0  0.42883807297E+03  0.14860229298E+04  0.57898893400E+03  0.16514824966E+04  0.10100000352E+00 0. -1.
       -3    1    3    3    0  502 -0.42883807297E+03 -0.14860229298E+04 -0.26720546683E+03  0.15695747871E+04  0.10100000352E+00 0.  1.
</event>
<event>
 5   0  0.1277374E-07  0.3202328E+04  0.7818609E-02  0.8188203E-01
        1   -1    0    0  501    0  0.00000000000E+00  0.00000000000E+00  0.14157319555E+04  0.14157319555E+04  0.50400001928E-02 0.  1.
       -1   -1    0    0    0  501  0.00000000000E+00  0.00000000000E+00 -0.18108834128E+04  0.18108834128E+04  0.50400001928E-02 0. -1.
    10030    2    1    2    0    0  0.00000000000E+00  0.00000000000E+00 -0.39515145733E+03  0.32266153683E+04  0.32023276004E+04 0.  0.
        5    1    3    3  502    0 -0.15251751930E+04  0.48617247896E+03 -0.23219291016E+03  0.16175471202E+04  0.46999998093E+01 0.  1.
       -5    1    3    3    0  502  0.15251751930E+04 -0.48617247896E+03 -0.16295854716E+03  0.16090682480E+04  0.46999998093E+01 0. -1.
</event>
<event>
 5   0  0.3830207E-07  0.3198816E+04  0.7818609E-02  0.8189130E-01
        2   -1    0    0  501    0  0.00000000000E+00  0.00000000000E+00  0.14757277591E+04  0.14757277591E+04  0.25500000920E-02 0. -1.
       -2   -1    0    0    0  501  0.00000000000E+00  0.00000000000E+00 -0.17334536344E+04  0.17334536344E+04  0.25500000920E-02 0.  1.
    10030    2    1    2    0    0  0.00000000000E+00  0.00000000000E+00 -0.25772587524E+03  0.32091813935E+04  0.31988158105E+04 0.  0.
        4    1    3    3  502    0  0.60990105364E+03 -0.43323290068E+03 -0.15471036097E+04  0.17184880661E+04  0.12699999809E+01 0.  1.
       -4    1    3    3    0  502 -0.60990105364E+03  0.43323290068E+03  0.12893777344E+04  0.14906933274E+04  0.12699999809E+01 0. -1.
</event>
<event>
 5   0  0.3858721E-07  0.3197207E+04  0.7818609E-02  0.8189555E-01
       -2   -1    0    0    0  501  0.00000000000E+00  0.00000000000E+00  0.14720166616E+04  0.14720166616E+04  0.25500000920E-02 0.  1.
        2   -1    0    0  501    0  0.00000000000E+00  0.00000000000E+00 -0.17360762393E+04  0.17360762393E+04  0.25500000920E-02 0. -1.
    10030    2    1    2    0    0  0.00000000000E+00  0.00000000000E+00 -0.26405957772E+03  0.32080929009E+04  0.31972069999E+04 0.  0.
        2    1    3    3  502    0  0.97850275447E+03  0.10667856274E+04  0.54853756952E+03  0.15480286433E+04  0.25500000920E-02 0.  1.
       -2    1    3    3    0  502 -0.97850275447E+03 -0.10667856274E+04 -0.81259714724E+03  0.16600642575E+04  0.25500000920E-02 0. -1.
</event>
<event>
 5   0  0.1270948E-07  0.3203612E+04  0.7818609E-02  0.8187864E-01
        1   -1    0    0  501    0  0.00000000000E+00  0.00000000000E+00  0.23987577162E+04  0.23987577162E+04  0.50400001928E-02 0.  1.
       -1   -1    0    0    0  501  0.00000000000E+00  0.00000000000E+00 -0.10696295393E+04  0.10696295394E+04  0.50400001928E-02 0. -1.
    10030    2    1    2    0    0  0.00000000000E+00  0.00000000000E+00  0.13291281768E+04  0.34683872555E+04  0.32036117811E+04 0.  0.
        4    1    3    3  502    0 -0.82829095723E+03  0.12958436715E+04  0.11493488591E+04  0.19199690476E+04  0.12699999809E+01 0.  1.
       -4    1    3    3    0  502  0.82829095723E+03 -0.12958436715E+04  0.17977931773E+03  0.15484182080E+04  0.12699999809E+01 0. -1.
</event>
<event>
 5   0  0.3764056E-07  0.3200363E+04  0.7818609E-02  0.8188721E-01
        2   -1    0    0  501    0  0.00000000000E+00  0.00000000000E+00  0.11481870170E+04  0.11481870170E+04  0.25500000920E-02 0. -1.
       -2   -1    0    0    0  501  0.00000000000E+00  0.00000000000E+00 -0.22301076731E+04  0.22301076731E+04  0.25500000920E-02 0.  1.
    10030    2    1    2    0    0  0.00000000000E+00  0.00000000000E+00 -0.10819206561E+04  0.33782946901E+04  0.32003629025E+04 0.  0.
        5    1    3    3  502    0  0.38867281877E+03 -0.13265989417E+04  0.30984544528E+03  0.14166713106E+04  0.46999998093E+01 0. -1.
       -5    1    3    3    0  502 -0.38867281877E+03  0.13265989417E+04 -0.13917661014E+04  0.19616233796E+04  0.46999998093E+01 0.  1.
</event>
<event>
 5   0  0.1317293E-07  0.3201006E+04  0.7818609E-02  0.8188551E-01
       -1   -1    0    0    0  501  0.00000000000E+00  0.00000000000E+00  0.12365160904E+04  0.12365160904E+04  0.50400001928E-02 0.  1.
        1   -1    0    0  501    0  0.00000000000E+00  0.00000000000E+00 -0.20716350908E+04  0.20716350908E+04  0.50400001928E-02 0. -1.
    10030    2    1    2    0    0  0.00000000000E+00  0.00000000000E+00 -0.83511900045E+03  0.33081511812E+04  0.32010061688E+04 0.  0.
        1    1    3    3  502    0 -0.74156138534E+03  0.66813193584E+03 -0.17105554114E+04  0.19804831197E+04  0.50400001928E-02 0.  1.
       -1    1    3    3    0  502  0.74156138534E+03 -0.66813193584E+03  0.87543641094E+03  0.13276680615E+04  0.50400001928E-02 0. -1.
</event>
<event>
 5   0  0.3830207E-07  0.3194399E+04  0.7818609E-02  0.8190298E-01
        2   -1    0    0  501    0  0.00000000000E+00  0.00000000000E+00  0.25161328918E+04  0.25161328918E+04  0.25500000920E-02 0.  1.
       -2   -1    0    0    0  501  0.00000000000E+00  0.00000000000E+00 -0.10138757328E+04  0.10138757328E+04  0.25500000920E-02 0. -1.
    10030    2    1    2    0    0  0.00000000000E+00  0.00000000000E+00  0.15022571590E+04  0.35300086246E+04  0.31943988978E+04 0.  0.
        4    1    3    3  502    0  0.27090377859E+03  0.12903354714E+04  0.17473343932E+04  0.21889571902E+04  0.12699999809E+01 0.  1.
       -4    1    3    3    0  502 -0.27090377859E+03 -0.12903354714E+04 -0.24507723419E+03  0.13410514344E+04  0.12699999809E+01 0. -1.
</event>
<event>
 5   0  0.1288096E-07  0.3187745E+04  0.7818609E-02  0.8192061E-01
        1   -1    0    0  501    0  0.00000000000E+00  0.00000000000E+00  0.14718425825E+04  0.14718425825E+04  0.50400001928E-02 0. -1.
       -1   -1    0    0    0  501  0.00000000000E+00  0.00000000000E+00 -0.17260198272E+04  0.17260198272E+04  0.50400001928E-02 0.  1.
    10030    2    1    2    0    0  0.00000000000E+00  0.00000000000E+00 -0.25417724471E+03  0.31978624096E+04  0.31877449583E+04 0.  0.
        2    1    3    3  502    0  0.42302634099E+02 -0.90019044836E+03  0.11917310296E+04  0.14941068245E+04  0.25500000920E-02 0. -1.
       -2    1    3    3    0  502 -0.42302634099E+02  0.90019044836E+03 -0.14459082743E+04  0.17037555851E+04  0.25500000920E-02 0.  1.
</event>
<event>
 5   0  0.1288096E-07  0.3199189E+04  0.7818609E-02  0.8189031E-01
       -1   -1    0    0    0  501  0.00000000000E+00  0.00000000000E+00  0.16790955813E+04  0.16790955813E+04  0.50400001928E-02 0.  1.
        1   -1    0    0  501    0  0.00000000000E+00  0.00000000000E+00 -0.15238576726E+04  0.15238576726E+04  0.50400001928E-02 0. -1.
    10030    2    1    2    0    0  0.00000000000E+00  0.00000000000E+00  0.15523790868E+03  0.32029532539E+04  0.31991890752E+04 0.  0.
        2    1    3    3  502    0  0.15191999334E+04  0.31670196316E+03  0.46593367812E+03  0.16202971219E+04  0.25500000920E-02 0.  1.
       -2    1    3    3    0  502 -0.15191999334E+04 -0.31670196316E+03 -0.31069576943E+03  0.15826561320E+04  0.25500000920E-02 0. -1.
</event>
<event>
 5   0  0.3858721E-07  0.3203713E+04  0.7818609E-02  0.8187837E-01
        2   -1    0    0  501    0  0.00000000000E+00  0.00000000000E+00  0.10249969782E+04  0.10249969782E+04  0.25500000920E-02 0.  1.
       -2   -1    0    0    0  501  0.00000000000E+00  0.00000000000E+00 -0.25033674710E+04  0.25033674710E+04  0.25500000920E-02 0. -1.
    10030    2    1    2    0    0  0.00000000000E+00  0.00000000000E+00 -0.14783704928E+04  0.35283644492E+04  0.32037129042E+04 0.  0.
        2    1    3    3  502    0 -0.11054128588E+04 -0.93668436338E+03  0.13140054032E+02  0.14489609539E+04  0.25500000920E-02 0.  1.
       -2    1    3    3    0  502  0.11054128588E+04  0.93668436338E+03 -0.14915105468E+04  0.20794034953E+04  0.25500000920E-02 0. -1.
</event>
<event>
 5   0  0.1277374E-07  0.3197688E+04  0.7818609E-02  0.8189428E-01
        1   -1    0    0  501    0  0.00000000000E+00  0.00000000000E+00  0.16745698491E+04  0.16745698491E+04  0.50400001928E-02 0.  1.
       -1   -1    0    0    0  501  0.00000000000E+00  0.00000000000E+00 -0.15265423761E+04  0.15265423761E+04  0.50400001928E-02 0. -1.
    10030    2    1    2    0    0  0.00000000000E+00  0.00000000000E+00  0.14802747302E+03  0.32011122252E+04  0.31976878124E+04 0.  0.
        5    1    3    3  502    0 -0.47407221988E+03 -0.14845800399E+04  0.43154797425E+03  0.16170893941E+04  0.46999998093E+01 0.  1.
       -5    1    3    3    0  502  0.47407221988E+03  0.14845800399E+04 -0.28352050123E+03  0.15840228310E+04  0.46999998093E+01 0. -1.
</event>
<event>
 5   0  0.1317293E-07  0.3201633E+04  0.7818609E-02  0.8188386E-01
       -1   -1    0    0    0  501  0.00000000000E+00  0.00000000000E+00  0.11570517261E+04  0.11570517261E+04  0.50400001928E-02 0. -1.
        1   -1    0    0  501    0  0.00000000000E+00  0.00000000000E+00 -0.22147792638E+04  0.22147792638E+04  0.50400001928E-02 0.  1.
    10030    2    1    2    0    0  0.00000000000E+00  0.00000000000E+00 -0.10577275377E+04  0.33718309899E+04  0.32016334394E+04 0.  0.
        1    1    3    3  502    0 -0.93918892264E+03  0.80220554467E+03 -0.16013322372E+04  0.20223438141E+04  0.50400001928E-02 0.  1.
       -1    1    3    3    0  502  0.93918892264E+03 -0.80220554467E+03  0.54360469957E+03  0.13494871758E+04  0.50400001928E-02 0. -1.
</event>
<event>
 5   0  0.1277374E-07  0.3184406E+04  0.7818609E-02  0.8192948E-01
       -1   -1    0    0    0  501  0.00000000000E+00  0.00000000000E+00  0.14187710111E+04  0.14187710111E+04  0.50400001928E-02 0. -1.
        1   -1    0    0  501    0  0.00000000000E+00  0.00000000000E+00 -0.17868351889E+04  0.17868351889E+04  0.50400001928E-02 0.  1.
    10030    2    1    2    0    0  0.00000000000E+00  0.00000000000E+00 -0.36806417785E+03  0.32056062000E+04  0.31844057327E+04 0.  0.
        5    1    3    3  502    0 -0.52283081677E+03  0.12661946684E+04 -0.10009065798E+04  0.16965957305E+04  0.46999998093E+01 0.  1.
       -5    1    3    3    0  502  0.52283081677E+03 -0.12661946684E+04  0.63284240195E+03  0.15090104695E+04  0.46999998093E+01 0. -1.
</event>
<event>
 5   0  0.3858721E-07  0.3198318E+04  0.7818609E-02  0.8189261E-01
        2   -1    0    0  501    0  0.00000000000E+00  0.00000000000E+00  0.16566168939E+04  0.16566168939E+04  0.25500000920E-02 0. -1.
       -2   -1    0    0    0  501  0.00000000000E+00  0.00000000000E+00 -0.15436943478E+04  0.15436943478E+04  0.25500000920E-02 0.  1.
    10030    2    1    2    0    0  0.00000000000E+00  0.00000000000E+00  0.11292254610E+03  0.32003112418E+04  0.31983183929E+04 0.  0.
        2    1    3    3  502    0 -0.14795821115E+03 -0.76041497958E+02 -0.15350127518E+04  0.15440006768E+04  0.25500000920E-02 0.  1.
       -2    1    3    3    0  502  0.14795821115E+03  0.76041497958E+02  0.16479352979E+04  0.16563105650E+04  0.25500000920E-02 0. -1.
</event>
<event>
 5   0  0.3858721E-07  0.3193555E+04  0.7818609E-02  0.8190521E-01
        2   -1    0    0  501    0  0.00000000000E+00  0.00000000000E+00  0.24179335891E+04  0.24179335891E+04  0.25500000920E-02 0. -1.
       -2   -1    0    0    0  501  0.00000000000E+00  0.00000000000E+00 -0.10544949762E+04  0.10544949762E+04  0.25500000920E-02 0.  1.
    10030    2    1    2    0    0  0.00000000000E+00  0.00000000000E+00  0.13634386129E+04  0.34724285653E+04  0.31935552743E+04 0.  0.
        2    1    3    3  502    0  0.14568003731E+04  0.10404985729E+03  0.13835319464E+04  0.20117789010E+04  0.25500000920E-02 0. -1.
       -2    1    3    3    0  502 -0.14568003731E+04 -0.10404985729E+03 -0.20093333483E+02  0.14606496643E+04  0.25500000920E-02 0.  1.
</event>
<event>
 5   0  0.1317293E-07  0.3182994E+04  0.7818609E-02  0.8193323E-01
        1   -1    0    0  501    0  0.00000000000E+00  0.00000000000E+00  0.16474534196E+04  0.16474534196E+04  0.50400001928E-02 0. -1.
       -1   -1    0    0    0  501  0.00000000000E+00  0.00000000000E+00 -0.15374415211E+04  0.15374415211E+04  0.50400001928E-02 0.  1.
    10030    2    1    2    0    0  0.00000000000E+00  0.00000000000E+00  0.11001189848E+03  0.31848949408E+04  0.31829943710E+04 0.  0.
        1    1    3    3  502    0 -0.12752573400E+04 -0.74187686505E+03  0.65218785469E+03  0.16130751885E+04  0.50400001928E-02 0. -1.
       -1    1    3    3    0  502  0.12752573400E+04  0.74187686505E+03 -0.54217595621E+03  0.15718197522E+04  0.50400001928E-02 0.  1.
</event>
<event>
 5   0  0.3942564E-07  0.3183511E+04  0.7818609E-02  0.8193186E-01
        2   -1    0    0  501    0  0.00000000000E+00  0.00000000000E+00  0.17854424965E+04  0.17854424965E+04  0.25500000920E-02 0.  1.
       -2   -1    0    0    0  501  0.00000000000E+00  0.00000000000E+00 -0.14190795822E+04  0.14190795822E+04  0.25500000920E-02 0. -1.
    10030    2    1    2    0    0  0.00000000000E+00  0.00000000000E+00  0.36636291433E+03  0.32045220788E+04  0.31835106358E+04 0.  0.
        3    1    3    3  502    0 -0.32430929715E+03 -0.33140801329E+03 -0.13495889532E+04  0.14270242269E+04  0.10100000352E+00 0. -1.
       -3    1    3    3    0  502  0.32430929715E+03  0.33140801329E+03  0.17159518675E+04  0.17774978518E+04  0.10100000352E+00 0.  1.
</event>
<event>
 5   0  0.3942564E-07  0.3209957E+04  0.7818609E-02  0.8186193E-01
        2   -1    0    0  501    0  0.00000000000E+00  0.00000000000E+00  0.11503836869E+04  0.11503836869E+04  0.25500000920E-02 0.  1.
       -2   -1    0    0    0  501  0.00000000000E+00  0.00000000000E+00 -0.22392140365E+04  0.22392140365E+04  0.25500000920E-02 0. -1.
    10030    2    1    2    0    0  0.00000000000E+00  0.00000000000E+00 -0.10888303496E+04  0.33895977234E+04  0.32099565724E+04 0.  0.
        3    1    3    3  502    0 -0.11427438384E+04 -0.10490195993E+04 -0.10947899448E+03  0.15550856120E+04  0.10100000352E+00 0. -1.
       -3    1    3    3    0  502  0.11427438384E+04  0.10490195993E+04 -0.97935135516E+03  0.18345121115E+04  0.10100000352E+00 0.  1.
</event>
<event>
 5   0  0.3830207E-07  0.3204618E+04  0.7818609E-02  0.8187599E-01
        2   -1    0    0  501    0  0.00000000000E+00  0.00000000000E+00  0.20229945729E+04  0.20229945729E+04  0.25500000920E-02 0.  1.
       -2   -1    0    0    0  501  0.00000000000E+00  0.00000000000E+00 -0.12691061444E+04  0.12691061444E+04  0.25500000920E-02 0. -1.
    10030    2    1    2    0    0  0.00000000000E+00  0.00000000000E+00  0.75388842852E+03  0.32921007173E+04  0.32046184438E+04 0.  0.
        4    1    3    3  502    0  0.94673682717E+03  0.94307856764E+03  0.12852096612E+04  0.18540424188E+04  0.12699999809E+01 0.  1.
       -4    1    3    3    0  502 -0.94673682717E+03 -0.94307856764E+03 -0.53132123268E+03  0.14380582985E+04  0.12699999809E+01 0. -1.
</event>
<event>
 5   0  0.1270948E-07  0.3205145E+04  0.7818609E-02  0.8187460E-01
       -1   -1    0    0    0  501  0.00000000000E+00  0.00000000000E+00  0.29828471518E+04  0.29828471519E+04  0.50400001928E-02 0. -1.
        1   -1    0    0  501    0  0.00000000000E+00  0.00000000000E+00 -0.86100223199E+03  0.86100223201E+03  0.50400001928E-02 0.  1.
    10030    2    1    2    0    0  0.00000000000E+00  0.00000000000E+00  0.21218449199E+04  0.38438493839E+04  0.32051446491E+04 0.  0.
        4    1    3    3  502    0 -0.15421703402E+04  0.33522060030E+03  0.13949463074E+04  0.21063093369E+04  0.12699999809E+01 0. -1.
       -4    1    3    3    0  502  0.15421703402E+04 -0.33522060030E+03  0.72689861244E+03  0.17375400470E+04  0.12699999809E+01 0.  1.
</event>
<event>
 5   0  0.1270948E-07  0.3210410E+04  0.7818609E-02  0.8186073E-01
       -1   -1    0    0    0  501  0.00000000000E+00  0.00000000000E+00  0.14567781187E+04  0.14567781187E+04  0.50400001928E-02 0. -1.
        1   -1    0    0  501    0  0.00000000000E+00  0.00000000000E+00 -0.17687550777E+04  0.17687550777E+04  0.50400001928E-02 0.  1.
    10030    2    1    2    0    0  0.00000000000E+00  0.00000000000E+00 -0.31197695900E+03  0.32255331965E+04  0.32104103754E+04 0.  0.
        4    1    3    3  502    0  0.14581655451E+04  0.63552755227E+03 -0.37273613690E+03  0.16337306593E+04  0.12699999809E+01 0. -1.
       -4    1    3    3    0  502 -0.14581655451E+04 -0.63552755227E+03  0.60759177904E+02  0.15918025371E+04  0.12699999809E+01 0.  1.
</event>
<event>
 5   0  0.3764056E-07  0.3189215E+04  0.7818609E-02  0.8191671E-01
       -2   -1    0    0    0  501  0.00000000000E+00  0.00000000000E+00  0.13335163513E+04  0.13335163513E+04  0.25500000920E-02 0. -1.
        2   -1    0    0  501    0  0.00000000000E+00  0.00000000000E+00 -0.19068178438E+04  0.19068178438E+04  0.25500000920E-02 0.  1.
    10030    2    1    2    0    0  0.00000000000E+00  0.00000000000E+00 -0.57330149250E+03  0.32403341950E+04  0.31892148084E+04 0.  0.
        5    1    3    3  502    0  0.38031874822E+03 -0.10165032175E+04 -0.14736357690E+04  0.18301763880E+04  0.46999998093E+01 0.  1.
       -5    1    3    3    0  502 -0.38031874822E+03  0.10165032175E+04  0.90033427652E+03  0.14101578071E+04  0.46999998093E+01 0. -1.
</event>
<event>
 5   0  0.1270948E-07  0.3207748E+04  0.7818609E-02  0.8186774E-01
       -1   -1    0    0    0  501  0.00000000000E+00  0.00000000000E+00  0.14218594026E+04  0.14218594026E+04  0.50400001928E-02 0.  1.
        1   -1    0    0  501    0  0.00000000000E+00  0.00000000000E+00 -0.18091889235E+04  0.18091889235E+04  0.50400001928E-02 0. -1.
    10030    2    1    2    0    0  0.00000000000E+00  0.00000000000E+00 -0.38732952089E+03  0.32310483262E+04  0.32077482957E+04 0.  0.
        4    1    3    3  502    0  0.82383334338E+03 -0.53217166035E+03  0.10846090410E+04  0.14622880833E+04  0.12699999809E+01 0.  1.
       -4    1    3    3    0  502 -0.82383334338E+03  0.53217166035E+03 -0.14719385619E+04  0.17687602429E+04  0.12699999809E+01 0. -1.
</event>
<event>
 5   0  0.3942564E-07  0.3203195E+04  0.7818609E-02  0.8187974E-01
       -2   -1    0    0    0  501  0.00000000000E+00  0.00000000000E+00  0.11220914018E+04  0.11220914018E+04  0.25500000920E-02 0. -1.
        2   -1    0    0  501    0  0.00000000000E+00  0.00000000000E+00 -0.22860118241E+04  0.22860118241E+04  0.25500000920E-02 0.  1.
    10030    2    1    2    0    0  0.00000000000E+00  0.00000000000E+00 -0.11639204223E+04  0.34081032258E+04  0.32031947878E+04 0.  0.
        3    1    3    3  502    0 -0.90347725278E+03 -0.10824929862E+04  0.22627331793E+03  0.14280272533E+04  0.10100000352E+00 0. -1.
       -3    1    3    3    0  502  0.90347725278E+03  0.10824929862E+04 -0.13901937402E+04  0.19800759725E+04  0.10100000352E+00 0.  1.
</event>
<event>
 5   0  0.3764056E-07  0.3198627E+04  0.7818609E-02  0.8189180E-01
       -2   -1    0    0    0  501  0.00000000000E+00  0.00000000000E+00  0.10089432026E+04  0.10089432026E+04  0.25500000920E-02 0.  1.
        2   -1    0    0  501    0  0.00000000000E+00  0.00000000000E+00 -0.25351308249E+04  0.25351308249E+04  0.25500000920E-02 0. -1.
    10030    2    1    2    0    0  0.00000000000E+00  0.00000000000E+00 -0.15261876223E+04  0.35440740275E+04  0.31986265887E+04 0.  0.
        5    1    3    3  502    0 -0.15648661330E+03  0.15261402354E+04 -0.12637680522E+04  0.19876427893E+04  0.46999998093E+01 0. -1.
       -5    1    3    3    0  502  0.15648661330E+03 -0.15261402354E+04 -0.26241957013E+03  0.15564312382E+04  0.46999998093E+01 0.  1.
</event>
<event>
 5   0  0.1270948E-07  0.3199241E+04  0.7818609E-02  0.8189018E-01
        1   -1    0    0  501    0  0.00000000000E+00  0.00000000000E+00  0.17098792595E+04  0.17098792595E+04  0.50400001928E-02 0. -1.
       -1   -1    0    0    0  501  0.00000000000E+00  0.00000000000E+00 -0.14964720219E+04  0.14964720219E+04  0.50400001928E-02 0.  1.
    10030    2    1    2    0    0  0.00000000000E+00  0.00000000000E+00  0.21340723753E+03  0.32063512814E+04  0.31992414555E+04 0.  0.
        4    1    3    3  502    0 -0.54990780238E+03  0.10419786670E+04  0.11910816728E+04  0.16753493062E+04  0.12699999809E+01 0. -1.
       -4    1    3    3    0  502  0.54990780238E+03 -0.10419786670E+04 -0.97767443531E+03  0.15310019752E+04  0.12699999809E+01 0.  1.
</event>
<event>
 5   0  0.1365455E-07  0.3225452E+04  0.7818609E-02  0.8182128E-01
       -1   -1    0    0    0  501  0.00000000000E+00  0.00000000000E+00  0.78760785657E+03  0.78760785658E+03  0.50400001928E-02 0.  1.
        1   -1    0    0  501    0  0.00000000000E+00  0.00000000000E+00 -0.33022587944E+04  0.33022587944E+04  0.50400001928E-02 0. -1.
    10030    2    1    2    0    0  0.00000000000E+00  0.00000000000E+00 -0.25146509379E+04  0.40898666510E+04  0.32254518883E+04 0.  0.
        3    1    3    3  502    0  0.13692467431E+04  0.70652847446E+03 -0.65337249237E+03  0.16735933654E+04  0.10100000352E+00 0.  1.
       -3    1    3    3    0  502 -0.13692467431E+04 -0.70652847446E+03 -0.18612784455E+04  0.24162732856E+04  0.10100000352E+00 0. -1.
</event>
<event>
 5   0  0.1270948E-07  0.3197311E+04  0.7818609E-02  0.8189528E-01
        1   -1    0    0  501    0  0.00000000000E+00  0.00000000000E+00  0.15329300126E+04  0.15329300126E+04  0.50400001928E-02 0.  1.
       -1   -1    0    0    0  501  0.00000000000E+00  0.00000000000E+00 -0.16671989013E+04  0.16671989013E+04  0.50400001928E-02 0. -1.
    10030    2    1    2    0    0  0.00000000000E+00  0.00000000000E+00 -0.13426888870E+03  0.32001289139E+04  0.31973108906E+04 0.  0.
        4    1    3    3  502    0  0.12671760152E+04  0.74103516197E+03 -0.70080338555E+03  0.16266515185E+04  0.12699999809E+01 0. -1.
       -4    1    3    3    0  502 -0.12671760152E+04 -0.74103516197E+03  0.56653449685E+03  0.15734773954E+04  0.12699999809E+01 0.  1.
</event>
<event>
 5   0  0.3764056E-07  0.3203618E+04  0.7818609E-02  0.8187862E-01
       -2   -1    0    0    0  501  0.00000000000E+00  0.00000000000E+00  0.15334484564E+04  0.15334484564E+04  0.25500000920E-02 0. -1.
        2   -1    0    0  501    0  0.00000000000E+00  0.00000000000E+00 -0.16732172958E+04  0.16732172958E+04  0.25500000920E-02 0.  1.
    10030    2    1    2    0    0  0.00000000000E+00  0.00000000000E+00 -0.13976883941E+03  0.32066657521E+04  0.32036182540E+04 0.  0.
        5    1    3    3  502    0 -0.63380192941E+03  0.12134843796E+04  0.76248414847E+03  0.15670524534E+04  0.46999998093E+01 0. -1.
       -5    1    3    3    0  502  0.63380192941E+03 -0.12134843796E+04 -0.90225298788E+03  0.16396132987E+04  0.46999998093E+01 0.  1.
</event>
<event>
 5   0  0.1270948E-07  0.3199950E+04  0.7818609E-02  0.8188830E-01
        1   -1    0    0  501    0  0.00000000000E+00  0.00000000000E+00  0.18407800214E+04  0.18407800214E+04  0.50400001928E-02 0. -1.
       -1   -1    0    0    0  501  0.00000000000E+00  0.00000000000E+00 -0.13906712238E+04  0.13906712238E+04  0.50400001928E-02 0.  1.
    10030    2    1    2    0    0  0.00000000000E+00  0.00000000000E+00  0.45010879762E+03  0.32314512452E+04  0.31999498778E+04 0.  0.
        4    1    3    3  502    0 -0.95865855453E+03 -0.12557370103E+04  0.48056004024E+03  0.16513149997E+04  0.12699999809E+01 0. -1.
       -4    1    3    3    0  502  0.95865855453E+03  0.12557370103E+04 -0.30451242616E+02  0.15801362455E+04  0.12699999809E+01 0.  1.
</event>
<event>
 5   0  0.1288096E-07  0.3199408E+04  0.7818609E-02  0.8188973E-01
       -1   -1    0    0    0  501  0.00000000000E+00  0.00000000000E+00  0.21803270857E+04  0.21803270857E+04  0.50400001928E-02 0. -1.
        1   -1    0    0  501    0  0.00000000000E+00  0.00000000000E+00 -0.11737014752E+04  0.11737014752E+04  0.50400001928E-02 0.  1.
    10030    2    1    2    0    0  0.00000000000E+00  0.00000000000E+00  0.10066256105E+04  0.33540285609E+04  0.31994081434E+04 0.  0.
        2    1    3    3  502    0 -0.13119903721E+04 -0.91282302394E+03  0.43307869444E+03  0.16559353143E+04  0.25500000920E-02 0.  1.
       -2    1    3    3    0  502  0.13119903721E+04  0.91282302394E+03  0.57354691605E+03  0.16980932467E+04  0.25500000920E-02 0. -1.
</event>
<event>
 5   0  0.1277374E-07  0.3196888E+04  0.7818609E-02  0.8189639E-01
        1   -1    0    0  501    0  0.00000000000E+00  0.00000000000E+00  0.17314113387E+04  0.17314113387E+04  0.50400001928E-02 0. -1.
       -1   -1    0    0    0  501  0.00000000000E+00  0.00000000000E+00 -0.14756883197E+04  0.14756883197E+04  0.50400001928E-02 0.  1.
    10030    2    1    2    0    0  0.00000000000E+00  0.00000000000E+00  0.25572301897E+03  0.32070996584E+04  0.31968881676E+04 0.  0.
        5    1    3    3  502    0 -0.42287411585E+03 -0.25060200110E+03  0.16536989480E+04  0.17252148218E+04  0.46999998093E+01 0. -1.
       -5    1    3    3    0  502  0.42287411585E+03  0.25060200110E+03 -0.13979759290E+04  0.14818848366E+04  0.46999998093E+01 0.  1.
</event>
<event>
 5   0  0.3858721E-07  0.3195829E+04  0.7818609E-02  0.8189920E-01
        2   -1    0    0  501    0  0.00000000000E+00  0.00000000000E+00  0.11188064636E+04  0.11188064636E+04  0.25500000920E-02 0.  1.
       -2   -1    0    0    0  501  0.00000000000E+00  0.00000000000E+00 -0.22821910094E+04  0.22821910094E+04  0.25500000920E-02 0. -1.
    10030    2    1    2    0    0  0.00000000000E+00  0.00000000000E+00 -0.11633845458E+04  0.34009974730E+04  0.31958285639E+04 0.  0.
        2    1    3    3  502    0  0.13295644053E+04  0.86857539910E+03 -0.39382175380E+03  0.16362335730E+04  0.25500000920E-02 0. -1.
       -2    1    3    3    0  502 -0.13295644053E+04 -0.86857539910E+03 -0.76956279202E+03  0.17647639000E+04  0.25500000920E-02 0.  1.
</event>
<event>
 5   0  0.3830207E-07  0.3162966E+04  0.7818609E-02  0.8198667E-01
        2   -1    0    0  501    0  0.00000000000E+00  0.00000000000E+00  0.16486941510E+04  0.16486941510E+04  0.25500000920E-02 0.  1.
       -2   -1    0    0    0  501  0.00000000000E+00  0.00000000000E+00 -0.15170119010E+04  0.15170119010E+04  0.25500000920E-02 0. -1.
    10030    2    1    2    0    0  0.00000000000E+00  0.00000000000E+00  0.13168225004E+03  0.31657060520E+04  0.31629661068E+04 0.  0.
        4    1    3    3  502    0 -0.12418973168E+03 -0.13516633993E+04  0.87812903682E+03  0.16166413494E+04  0.12699999809E+01 0.  1.
       -4    1    3    3    0  502  0.12418973168E+03  0.13516633993E+04 -0.74644678678E+03  0.15490647026E+04  0.12699999809E+01 0. -1.
</event>
<event>
 5   0  0.3942564E-07  0.3205137E+04  0.7818609E-02  0.8187462E-01
       -2   -1    0    0    0  501  0.00000000000E+00  0.00000000000E+00  0.12447143132E+04  0.12447143132E+04  0.25500000920E-02 0. -1.
        2   -1    0    0  501    0  0.00000000000E+00  0.00000000000E+00 -0.20633052662E+04  0.20633052662E+04  0.25500000920E-02 0.  1.
    10030    2    1    2    0    0  0.00000000000E+00  0.00000000000E+00 -0.81859095297E+03  0.33080195794E+04  0.32051368753E+04 0.  0.
        3    1    3    3  502    0  0.15390812986E+04  0.35943174179E+03 -0.68287610923E+03  0.17217090960E+04  0.10100000352E+00 0.  1.
       -3    1    3    3    0  502 -0.15390812986E+04 -0.35943174179E+03 -0.13571484374E+03  0.15863104833E+04  0.10100000352E+00 0. -1.
</event>
<event>
 5   0  0.1317293E-07  0.3184903E+04  0.7818609E-02  0.8192816E-01
        1   -1    0    0  501    0  0.00000000000E+00  0.00000000000E+00  0.14756183951E+04  0.14756183951E+04  0.50400001928E-02 0.  1.
       -1   -1    0    0    0  501  0.00000000000E+00  0.00000000000E+00 -0.17185345934E+04  0.17185345934E+04  0.50400001928E-02 0. -1.
    10030    2    1    2    0    0  0.00000000000E+00  0.00000000000E+00 -0.24291619826E+03  0.31941529885E+04  0.31849026727E+04 0.  0.
        1    1    3    3  502    0 -0.30103435492E+03 -0.65049299418E+03  0.13046911930E+04  0.14886174551E+04  0.50400001928E-02 0.  1.
       -1    1    3    3    0  502  0.30103435492E+03  0.65049299418E+03 -0.15476073913E+04  0.17055355335E+04  0.50400001928E-02 0. -1.
</event>
<event>
 5   0  0.1365455E-07  0.3197662E+04  0.7818609E-02  0.8189435E-01
       -1   -1    0    0    0  501  0.00000000000E+00  0.00000000000E+00  0.11802914119E+04  0.11802914119E+04  0.50400001928E-02 0.  1.
        1   -1    0    0  501    0  0.00000000000E+00  0.00000000000E+00 -0.21657870759E+04  0.21657870759E+04  0.50400001928E-02 0. -1.
    10030    2    1    2    0    0  0.00000000000E+00  0.00000000000E+00 -0.98549566403E+03  0.33460784878E+04  0.31976615741E+04 0.  0.
        3    1    3    3  502    0  0.11132313395E+04 -0.74610182538E+03 -0.14051753711E+04  0.19417697554E+04  0.10100000352E+00 0. -1.
       -3    1    3    3    0  502 -0.11132313395E+04  0.74610182538E+03  0.41967970706E+03  0.14043087324E+04  0.10100000352E+00 0.  1.
</event>
<event>
 5   0  0.1277374E-07  0.3180521E+04  0.7818609E-02  0.8193980E-01
       -1   -1    0    0    0  501  0.00000000000E+00  0.00000000000E+00  0.11351454513E+04  0.11351454513E+04  0.50400001928E-02 0. -1.
        1   -1    0    0  501    0  0.00000000000E+00  0.00000000000E+00 -0.22278455824E+04  0.22278455824E+04  0.50400001928E-02 0.  1.
    10030    2    1    2    0    0  0.00000000000E+00  0.00000000000E+00 -0.10927001310E+04  0.33629910337E+04  0.31805212020E+04 0.  0.
        5    1    3    3  502    0 -0.11190447951E+03 -0.72159404631E+03  0.94738484658E+03  0.11961524643E+04  0.46999998093E+01 0. -1.
       -5    1    3    3    0  502  0.11190447951E+03  0.72159404631E+03 -0.20400849776E+04  0.21668385695E+04  0.46999998093E+01 0.  1.
</event>
<event>
 5   0  0.1277374E-07  0.3196378E+04  0.7818609E-02  0.8189774E-01
       -1   -1    0    0    0  501  0.00000000000E+00  0.00000000000E+00  0.12338042424E+04  0.12338042425E+04  0.50400001928E-02 0.  1.
        1   -1    0    0  501    0  0.00000000000E+00  0.00000000000E+00 -0.20701887213E+04  0.20701887213E+04  0.50400001928E-02 0. -1.
    10030    2    1    2    0    0  0.00000000000E+00  0.00000000000E+00 -0.83638447889E+03  0.33039929638E+04  0.31963777168E+04 0.  0.
        5    1    3    3  502    0 -0.62352576369E+03 -0.23599993389E+03 -0.19195766602E+04  0.20320622509E+04  0.46999998093E+01 0. -1.
       -5    1    3    3    0  502  0.62352576369E+03  0.23599993389E+03  0.10831921814E+04  0.12719307129E+04  0.46999998093E+01 0.  1.
</event>
<event>
 5   0  0.3858721E-07  0.3200146E+04  0.7818609E-02  0.8188779E-01
       -2   -1    0    0    0  501  0.00000000000E+00  0.00000000000E+00  0.12397512523E+04  0.12397512523E+04  0.25500000920E-02 0. -1.
        2   -1    0    0  501    0  0.00000000000E+00  0.00000000000E+00 -0.20651184542E+04  0.20651184542E+04  0.25500000920E-02 0.  1.
    10030    2    1    2    0    0  0.00000000000E+00  0.00000000000E+00 -0.82536720188E+03  0.33048697065E+04  0.32001457402E+04 0.  0.
        2    1    3    3  502    0  0.12994697448E+04 -0.90922565603E+03 -0.63156346245E+03  0.17070985087E+04  0.25500000920E-02 0.  1.
       -2    1    3    3    0  502 -0.12994697448E+04  0.90922565603E+03 -0.19380373943E+03  0.15977711978E+04  0.25500000920E-02 0. -1.
</event>
<event>
 5   0  0.3858721E-07  0.3200909E+04  0.7818609E-02  0.8188577E-01
        2   -1    0    0  501    0  0.00000000000E+00  0.00000000000E+00  0.14991916501E+04  0.14991916501E+04  0.25500000920E-02 0.  1.
       -2   -1    0    0    0  501  0.00000000000E+00  0.00000000000E+00 -0.17085566385E+04  0.17085566385E+04  0.25500000920E-02 0. -1.
    10030    2    1    2    0    0  0.00000000000E+00  0.00000000000E+00 -0.20936498834E+03  0.32077482886E+04  0.32009085249E+04 0.  0.
        2    1    3    3  502    0  0.20719490684E+03 -0.67746316602E+03 -0.15428685143E+04  0.16977424196E+04  0.25500000920E-02 0. -1.
       -2    1    3    3    0  502 -0.20719490684E+03  0.67746316602E+03  0.13335035260E+04  0.15100058690E+04  0.25500000920E-02 0.  1.
</event>
<event>
 5   0  0.1365455E-07  0.3207705E+04  0.7818609E-02  0.8186785E-01
        1   -1    0    0  501    0  0.00000000000E+00  0.00000000000E+00  0.13687549103E+04  0.13687549103E+04  0.50400001928E-02 0.  1.
       -1   -1    0    0    0  501  0.00000000000E+00  0.00000000000E+00 -0.18793308849E+04  0.18793308849E+04  0.50400001928E-02 0. -1.
    10030    2    1    2    0    0  0.00000000000E+00  0.00000000000E+00 -0.51057597462E+03  0.32480857953E+04  0.32077053336E+04 0.  0.
        3    1    3    3  502    0 -0.85213832577E+03 -0.95774585195E+03  0.72065333682E+03  0.14706318660E+04  0.10100000352E+00 0.  1.
       -3    1    3    3    0  502  0.85213832577E+03  0.95774585195E+03 -0.12312293114E+04  0.17774539293E+04  0.10100000352E+00 0. -1.
</event>
<event>
 5   0  0.1317293E-07  0.3179138E+04  0.7818609E-02  0.8194349E-01
        1   -1    0    0  501    0  0.00000000000E+00  0.00000000000E+00  0.19429866482E+04  0.19429866482E+04  0.50400001928E-02 0.  1.
       -1   -1    0    0    0  501  0.00000000000E+00  0.00000000000E+00 -0.13004356485E+04  0.13004356485E+04  0.50400001928E-02 0. -1.
    10030    2    1    2    0    0  0.00000000000E+00  0.00000000000E+00  0.64255099974E+03  0.32434222967E+04  0.31791376830E+04 0.  0.
        1    1    3    3  502    0 -0.15265687681E+03  0.18712601922E+03  0.19241617628E+04  0.19392572699E+04  0.50400001928E-02 0.  1.
       -1    1    3    3    0  502  0.15265687681E+03 -0.18712601922E+03 -0.12816107631E+04  0.13041650268E+04  0.50400001928E-02 0. -1.
</event>
<event>
 5   0  0.3750285E-07  0.3201723E+04  0.7818609E-02  0.8188362E-01
       -2   -1    0    0    0  501  0.00000000000E+00  0.00000000000E+00  0.21772603958E+04  0.21772603958E+04  0.25500000920E-02 0.  1.
        2   -1    0    0  501    0  0.00000000000E+00  0.00000000000E+00 -0.11770563007E+04  0.11770563007E+04  0.25500000920E-02 0. -1.
    10030    2    1    2    0    0  0.00000000000E+00  0.00000000000E+00  0.10002040951E+04  0.33543166966E+04  0.32017233280E+04 0.  0.
        1    1    3    3  502    0 -0.35648585126E+03 -0.13806564299E+04 -0.26221980640E+03  0.14498460492E+04  0.50400001928E-02 0. -1.
       -1    1    3    3    0  502  0.35648585126E+03  0.13806564299E+04  0.12624239015E+04  0.19044706474E+04  0.50400001928E-02 0.  1.
</event>
<event>
 5   0  0.3764056E-07  0.3201379E+04  0.7818609E-02  0.8188453E-01
       -2   -1    0    0    0  501  0.00000000000E+00  0.00000000000E+00  0.10963269128E+04  0.10963269128E+04  0.25500000920E-02 0.  1.
        2   -1    0    0  501    0  0.00000000000E+00  0.00000000000E+00 -0.23370832820E+04  0.23370832820E+04  0.25500000920E-02 0. -1.
    10030    2    1    2    0    0  0.00000000000E+00  0.00000000000E+00 -0.12407563692E+04  0.34334101948E+04  0.32013792650E+04 0.  0.
        5    1    3    3  502    0 -0.70844026350E+03 -0.14574281548E+03 -0.21518295480E+04  0.22701367952E+04  0.46999998093E+01 0. -1.
       -5    1    3    3    0  502  0.70844026350E+03  0.14574281548E+03  0.91107317883E+03  0.11632733997E+04  0.46999998093E+01 0.  1.
</event>
<event>
 5   0  0.1288096E-07  0.3208754E+04  0.7818609E-02  0.8186509E-01
        1   -1    0    0  501    0  0.00000000000E+00  0.00000000000E+00  0.16148209480E+04  0.16148209480E+04  0.50400001928E-02 0. -1.
       -1   -1    0    0    0  501  0.00000000000E+00  0.00000000000E+00 -0.15940006915E+04  0.15940006915E+04  0.50400001928E-02 0.  1.
    10030    2    1    2    0    0  0.00000000000E+00  0.00000000000E+00  0.20820256480E+02  0.32088216396E+04  0.32087540933E+04 0.  0.
        2    1    3    3  502    0 -0.48347141581E+03  0.15089924783E+04 -0.24103660628E+03  0.16027793220E+04  0.25500000920E-02 0. -1.
       -2    1    3    3    0  502  0.48347141581E+03 -0.15089924783E+04  0.26185686276E+03  0.16060423176E+04  0.25500000920E-02 0.  1.
</event>
<event>
 5   0  0.1288096E-07  0.3236955E+04  0.7818609E-02  0.8179125E-01
        1   -1    0    0  501    0  0.00000000000E+00  0.00000000000E+00  0.13803686759E+04  0.13803686759E+04  0.50400001928E-02 0.  1.
       -1   -1    0    0    0  501  0.00000000000E+00  0.00000000000E+00 -0.18976596231E+04  0.18976596231E+04  0.50400001928E-02 0. -1.
    10030    2    1    2    0    0  0.00000000000E+00  0.00000000000E+00 -0.51729094726E+03  0.32780282990E+04  0.32369552986E+04 0.  0.
        2    1    3    3  502    0 -0.55319983702E+03  0.45070280095E+03  0.12124768930E+04  0.14068629253E+04  0.25500000920E-02 0.  1.
       -2    1    3    3    0  502  0.55319983702E+03 -0.45070280095E+03 -0.17297678403E+04  0.18711653737E+04  0.25500000920E-02 0. -1.
</event>
<event>
 5   0  0.1365455E-07  0.3201169E+04  0.7818609E-02  0.8188509E-01
        1   -1    0    0  501    0  0.00000000000E+00  0.00000000000E+00  0.17629949874E+04  0.17629949874E+04  0.50400001928E-02 0.  1.
       -1   -1    0    0    0  501  0.00000000000E+00  0.00000000000E+00 -0.14531354608E+04  0.14531354608E+04  0.50400001928E-02 0. -1.
    10030    2    1    2    0    0  0.00000000000E+00  0.00000000000E+00  0.30985952660E+03  0.32161304483E+04  0.32011688700E+04 0.  0.
        3    1    3    3  502    0  0.12887288312E+04  0.16127225037E+03  0.10947374013E+04  0.16986114114E+04  0.10100000352E+00 0.  1.
       -3    1    3    3    0  502 -0.12887288312E+04 -0.16127225037E+03 -0.78487787466E+03  0.15175190369E+04  0.10100000352E+00 0. -1.
</event>
<event>
 5   0  0.3942564E-07  0.3203368E+04  0.7818609E-02  0.8187928E-01
        2   -1    0    0  501    0  0.00000000000E+00  0.00000000000E+00  0.20728322665E+04  0.20728322665E+04  0.25500000920E-02 0. -1.
       -2   -1    0    0    0  501  0.00000000000E+00  0.00000000000E+00 -0.12376265575E+04  0.12376265575E+04  0.25500000920E-02 0.  1.
    10030    2    1    2    0    0  0.00000000000E+00  0.00000000000E+00  0.83520570899E+03  0.33104588239E+04  0.32033683910E+04 0.  0.
        3    1    3    3  502    0  0.59396640907E+03  0.26468361146E+01  0.19548075197E+04  0.20430554447E+04  0.10100000352E+00 0. -1.
       -3    1    3    3    0  502 -0.59396640907E+03 -0.26468361146E+01 -0.11196018107E+04  0.12674033792E+04  0.10100000352E+00 0.  1.
</event>
<event>
 5   0  0.1277374E-07  0.3201169E+04  0.7818609E-02  0.8188509E-01
       -1   -1    0    0    0  501  0.00000000000E+00  0.00000000000E+00  0.33617844500E+04  0.33617844500E+04  0.50400001928E-02 0.  1.
        1   -1    0    0  501    0  0.00000000000E+00  0.00000000000E+00 -0.76205670016E+03  0.76205670018E+03  0.50400001928E-02 0. -1.
    10030    2    1    2    0    0  0.00000000000E+00  0.00000000000E+00  0.25997277499E+04  0.41238411502E+04  0.32011687645E+04 0.  0.
        5    1    3    3  502    0 -0.62351704921E+03 -0.98081850910E+03  0.27175430096E+04  0.29556455399E+04  0.46999998093E+01 0.  1.
       -5    1    3    3    0  502  0.62351704921E+03  0.98081850910E+03 -0.11781525978E+03  0.11681956103E+04  0.46999998093E+01 0. -1.
</event>
<event>
 5   0  0.1270948E-07  0.3202600E+04  0.7818609E-02  0.8188131E-01
        1   -1    0    0  501    0  0.00000000000E+00  0.00000000000E+00  0.11341430640E+04  0.11341430641E+04  0.50400001928E-02 0. -1.
       -1   -1    0    0    0  501  0.00000000000E+00  0.00000000000E+00 -0.22608802037E+04  0.22608802037E+04  0.50400001928E-02 0.  1.
    10030    2    1    2    0    0  0.00000000000E+00  0.00000000000E+00 -0.11267371397E+04  0.33950232678E+04  0.32025999449E+04 0.  0.
        4    1    3    3  502    0 -0.11237188765E+04  0.86849972531E+02 -0.17691980055E+04  0.20977011767E+04  0.12699999809E+01 0.  1.
       -4    1    3    3    0  502  0.11237188765E+04 -0.86849972531E+02  0.64246086581E+03  0.12973220911E+04  0.12699999809E+01 0. -1.
</event>
<event>
 5   0  0.3942564E-07  0.3196313E+04  0.7818609E-02  0.8189792E-01
       -2   -1    0    0    0  501  0.00000000000E+00  0.00000000000E+00  0.11014001073E+04  0.11014001073E+04  0.25500000920E-02 0.  1.
        2   -1    0    0  501    0  0.00000000000E+00  0.00000000000E+00 -0.23189610718E+04  0.23189610718E+04  0.25500000920E-02 0. -1.
    10030    2    1    2    0    0  0.00000000000E+00  0.00000000000E+00 -0.12175609646E+04  0.34203611791E+04  0.31963128590E+04 0.  0.
        3    1    3    3  502    0  0.15871780990E+04  0.15687075507E+03 -0.71770557902E+03  0.17489551338E+04  0.10100000352E+00 0. -1.
       -3    1    3    3    0  502 -0.15871780990E+04 -0.15687075507E+03 -0.49985538554E+03  0.16714060453E+04  0.10100000352E+00 0.  1.
</event>
<event>
 5   0  0.3764056E-07  0.3200614E+04  0.7818609E-02  0.8188655E-01
        2   -1    0    0  501    0  0.00000000000E+00  0.00000000000E+00  0.15707343876E+04  0.15707343876E+04  0.25500000920E-02 0.  1.
       -2   -1    0    0    0  501  0.00000000000E+00  0.00000000000E+00 -0.16304360671E+04  0.16304360671E+04  0.25500000920E-02 0. -1.
    10030    2    1    2    0    0  0.00000000000E+00  0.00000000000E+00 -0.59701679530E+02  0.32011704547E+04  0.32006136895E+04 0.  0.
        5    1    3    3  502    0 -0.36553558402E+03 -0.44545150682E+02  0.15277766053E+04  0.15715355482E+04  0.46999998093E+01 0.  1.
       -5    1    3    3    0  502  0.36553558402E+03  0.44545150682E+02 -0.15874782848E+04  0.16296349065E+04  0.46999998093E+01 0. -1.
</event>
<event>
 5   0  0.3764056E-07  0.3201373E+04  0.7818609E-02  0.8188455E-01
        2   -1    0    0  501    0  0.00000000000E+00  0.00000000000E+00  0.16837822035E+04  0.16837822035E+04  0.25500000920E-02 0. -1.
       -2   -1    0    0    0  501  0.00000000000E+00  0.00000000000E+00 -0.15216912272E+04  0.15216912272E+04  0.25500000920E-02 0.  1.
    10030    2    1    2    0    0  0.00000000000E+00  0.00000000000E+00  0.16209097622E+03  0.32054734307E+04  0.32013725854E+04 0.  0.
        5    1    3    3  502    0 -0.64876092114E+03  0.10130621097E+03  0.15427170853E+04  0.16766489724E+04  0.46999998093E+01 0. -1.
       -5    1    3    3    0  502  0.64876092114E+03 -0.10130621097E+03 -0.13806261091E+04  0.15288244583E+04  0.46999998093E+01 0.  1.
</event>
<event>
 5   0  0.3764056E-07  0.3210678E+04  0.7818609E-02  0.8186003E-01
        2   -1    0    0  501    0  0.00000000000E+00  0.00000000000E+00  0.17599566792E+04  0.17599566792E+04  0.25500000920E-02 0.  1.
       -2   -1    0    0    0  501  0.00000000000E+00  0.00000000000E+00 -0.14643047730E+04  0.14643047730E+04  0.25500000920E-02 0. -1.
    10030    2    1    2    0    0  0.00000000000E+00  0.00000000000E+00  0.29565190618E+03  0.32242614522E+04  0.32106777886E+04 0.  0.
        5    1    3    3  502    0 -0.20916646066E+03 -0.12339487003E+04  0.11574205001E+04  0.17047065165E+04  0.46999998093E+01 0.  1.
       -5    1    3    3    0  502  0.20916646066E+03  0.12339487003E+04 -0.86176859388E+03  0.15195549357E+04  0.46999998093E+01 0. -1.
</event>
<event>
 5   0  0.3858721E-07  0.3206302E+04  0.7818609E-02  0.8187155E-01
        2   -1    0    0  501    0  0.00000000000E+00  0.00000000000E+00  0.24750932582E+04  0.24750932582E+04  0.25500000920E-02 0.  1.
       -2   -1    0    0    0  501  0.00000000000E+00  0.00000000000E+00 -0.10383823224E+04  0.10383823224E+04  0.25500000920E-02 0. -1.
    10030    2    1    2    0    0  0.00000000000E+00  0.00000000000E+00  0.14367109358E+04  0.35134755806E+04  0.32063019730E+04 0.  0.
        2    1    3    3  502    0  0.26413139919E+03 -0.69197473456E+03  0.22763618977E+04  0.23938291331E+04  0.25500000920E-02 0.  1.
       -2    1    3    3    0  502 -0.26413139919E+03  0.69197473456E+03 -0.83965096193E+03  0.11196464474E+04  0.25500000920E-02 0. -1.
</event>
<event>
 5   0  0.3830207E-07  0.3196580E+04  0.7818609E-02  0.8189721E-01
        2   -1    0    0  501    0  0.00000000000E+00  0.00000000000E+00  0.20933988354E+04  0.20933988354E+04  0.25500000920E-02 0. -1.
       -2   -1    0    0    0  501  0.00000000000E+00  0.00000000000E+00 -0.12202792384E+04  0.12202792384E+04  0.25500000920E-02 0.  1.
    10030    2    1    2    0    0  0.00000000000E+00  0.00000000000E+00  0.87311959700E+03  0.33136780737E+04  0.31965801328E+04 0.  0.
        4    1    3    3  502    0 -0.78612299690E+02  0.67406750125E+03  0.19366288669E+04  0.20520915844E+04  0.12699999809E+01 0. -1.
       -4    1    3    3    0  502  0.78612299690E+02 -0.67406750125E+03 -0.10635092699E+04  0.12615864893E+04  0.12699999809E+01 0.  1.
</event>
<event>
 5   0  0.3764056E-07  0.3182920E+04  0.7818609E-02  0.8193343E-01
        2   -1    0    0  501    0  0.00000000000E+00  0.00000000000E+00  0.18557525911E+04  0.18557525911E+04  0.25500000920E-02 0.  1.
       -2   -1    0    0    0  501  0.00000000000E+00  0.00000000000E+00 -0.13648072072E+04  0.13648072072E+04  0.25500000920E-02 0. -1.
    10030    2    1    2    0    0  0.00000000000E+00  0.00000000000E+00  0.49094538386E+03  0.32205597983E+04  0.31829197358E+04 0.  0.
        5    1    3    3  502    0  0.34622498148E+03  0.11490979478E+04  0.13030239201E+04  0.17714940750E+04  0.46999998093E+01 0.  1.
       -5    1    3    3    0  502 -0.34622498148E+03 -0.11490979478E+04 -0.81207853620E+03  0.14490657233E+04  0.46999998093E+01 0. -1.
</event>
<event>
 5   0  0.3764056E-07  0.3194245E+04  0.7818609E-02  0.8190339E-01
       -2   -1    0    0    0  501  0.00000000000E+00  0.00000000000E+00  0.12672000644E+04  0.12672000644E+04  0.25500000920E-02 0. -1.
        2   -1    0    0  501    0  0.00000000000E+00  0.00000000000E+00 -0.20129422490E+04  0.20129422490E+04  0.25500000920E-02 0.  1.
    10030    2    1    2    0    0  0.00000000000E+00  0.00000000000E+00 -0.74574218462E+03  0.32801423133E+04  0.31942451675E+04 0.  0.
        5    1    3    3  502    0  0.14004931006E+03  0.54596713115E+03 -0.19074068845E+04  0.19889487250E+04  0.46999998093E+01 0.  1.
       -5    1    3    3    0  502 -0.14004931006E+03 -0.54596713115E+03  0.11616646999E+04  0.12911935883E+04  0.46999998093E+01 0. -1.
</event>
<event>
 5   0  0.3750285E-07  0.3201390E+04  0.7818609E-02  0.8188450E-01
        2   -1    0    0  501    0  0.00000000000E+00  0.00000000000E+00  0.14241668251E+04  0.14241668251E+04  0.25500000920E-02 0. -1.
       -2   -1    0    0    0  501  0.00000000000E+00  0.00000000000E+00 -0.17991046264E+04  0.17991046264E+04  0.25500000920E-02 0.  1.
    10030    2    1    2    0    0  0.00000000000E+00  0.00000000000E+00 -0.37493780129E+03  0.32232714515E+04  0.32013904003E+04 0.  0.
        1    1    3    3  502    0  0.15670318114E+02  0.33942993914E+02  0.14237271940E+04  0.14242179639E+04  0.50400001928E-02 0. -1.
       -1    1    3    3    0  502 -0.15670318114E+02 -0.33942993914E+02 -0.17986649953E+04  0.17990534876E+04  0.50400001928E-02 0.  1.
</event>
<event>
 5   0  0.3750285E-07  0.3200204E+04  0.7818609E-02  0.8188763E-01
       -2   -1    0    0    0  501  0.00000000000E+00  0.00000000000E+00  0.12088479518E+04  0.12088479518E+04  0.25500000920E-02 0.  1.
        2   -1    0    0  501    0  0.00000000000E+00  0.00000000000E+00 -0.21179884153E+04  0.21179884153E+04  0.25500000920E-02 0. -1.
    10030    2    1    2    0    0  0.00000000000E+00  0.00000000000E+00 -0.90914046352E+03  0.33268363671E+04  0.32002037171E+04 0.  0.
        1    1    3    3  502    0  0.13483860229E+04 -0.76178844735E+03 -0.36332848791E+02  0.15491244563E+04  0.50400001928E-02 0.  1.
       -1    1    3    3    0  502 -0.13483860229E+04  0.76178844735E+03 -0.87280761473E+03  0.17777119107E+04  0.50400001928E-02 0. -1.
</event>
<event>
 5   0  0.1288096E-07  0.3206369E+04  0.7818609E-02  0.8187137E-01
        1   -1    0    0  501    0  0.00000000000E+00  0.00000000000E+00  0.17664780367E+04  0.17664780367E+04  0.50400001928E-02 0.  1.
       -1   -1    0    0    0  501  0.00000000000E+00  0.00000000000E+00 -0.14549858921E+04  0.14549858921E+04  0.50400001928E-02 0. -1.
    10030    2    1    2    0    0  0.00000000000E+00  0.00000000000E+00  0.31149214461E+03  0.32214639288E+04  0.32063690506E+04 0.  0.
        2    1    3    3  502    0  0.33566462684E+03  0.15207990822E+04  0.53793146020E+03  0.16476865132E+04  0.25500000920E-02 0. -1.
       -2    1    3    3    0  502 -0.33566462684E+03 -0.15207990822E+04 -0.22643931558E+03  0.15737774156E+04  0.25500000920E-02 0.  1.
</event>
<event>
 5   0  0.3942564E-07  0.3195861E+04  0.7818609E-02  0.8189911E-01
        2   -1    0    0  501    0  0.00000000000E+00  0.00000000000E+00  0.20547162759E+04  0.20547162759E+04  0.25500000920E-02 0. -1.
       -2   -1    0    0    0  501  0.00000000000E+00  0.00000000000E+00 -0.12426933653E+04  0.12426933653E+04  0.25500000920E-02 0.  1.
    10030    2    1    2    0    0  0.00000000000E+00  0.00000000000E+00  0.81202291062E+03  0.32974096412E+04  0.31958612509E+04 0.  0.
        3    1    3    3  502    0 -0.48042712517E+03  0.82875716876E+03 -0.91358541105E+03  0.13237397708E+04  0.10100000352E+00 0.  1.
       -3    1    3    3    0  502  0.48042712517E+03 -0.82875716876E+03  0.17256083217E+04  0.19736698704E+04  0.10100000352E+00 0. -1.
</event>
<event>
 5   0  0.1270948E-07  0.3201552E+04  0.7818609E-02  0.8188407E-01
        1   -1    0    0  501    0  0.00000000000E+00  0.00000000000E+00  0.20180977601E+04  0.20180977601E+04  0.50400001928E-02 0. -1.
       -1   -1    0    0    0  501  0.00000000000E+00  0.00000000000E+00 -0.12697519926E+04  0.12697519926E+04  0.50400001928E-02 0.  1.
    10030    2    1    2    0    0  0.00000000000E+00  0.00000000000E+00  0.74834576751E+03  0.32878497528E+04  0.32015519063E+04 0.  0.
        4    1    3    3  502    0  0.54745298178E+03  0.52080012863E+03 -0.10750875074E+04  0.13140594746E+04  0.12699999809E+01 0.  1.
       -4    1    3    3    0  502 -0.54745298178E+03 -0.52080012863E+03  0.18234332749E+04  0.19737902782E+04  0.12699999809E+01 0. -1.
</event>
<event>
 5   0  0.1317293E-07  0.3199808E+04  0.7818609E-02  0.8188868E-01
       -1   -1    0    0    0  501  0.00000000000E+00  0.00000000000E+00  0.10189482024E+04  0.10189482024E+04  0.50400001928E-02 0.  1.
        1   -1    0    0  501    0  0.00000000000E+00  0.00000000000E+00 -0.25120924327E+04  0.25120924327E+04  0.50400001928E-02 0. -1.
    10030    2    1    2    0    0  0.00000000000E+00  0.00000000000E+00 -0.14931442303E+04  0.35310406351E+04  0.31998075370E+04 0.  0.
        1    1    3    3  502    0  0.15123152345E+04 -0.39747327362E+03 -0.11201572095E+04  0.19234953979E+04  0.50400001928E-02 0. -1.
       -1    1    3    3    0  502 -0.15123152345E+04  0.39747327362E+03 -0.37298702085E+03  0.16075452372E+04  0.50400001928E-02 0.  1.
</event>
<event>
 5   0  0.1277374E-07  0.3201982E+04  0.7818609E-02  0.8188294E-01
       -1   -1    0    0    0  501  0.00000000000E+00  0.00000000000E+00  0.11264714343E+04  0.11264714344E+04  0.50400001928E-02 0. -1.
        1   -1    0    0  501    0  0.00000000000E+00  0.00000000000E+00 -0.22753985263E+04  0.22753985263E+04  0.50400001928E-02 0.  1.
    10030    2    1    2    0    0  0.00000000000E+00  0.00000000000E+00 -0.11489270919E+04  0.34018699606E+04  0.32019815375E+04 0.  0.
        5    1    3    3  502    0 -0.98550532806E+03  0.74283395554E+02  0.76369226159E+03  0.12489942894E+04  0.46999998093E+01 0. -1.
       -5    1    3    3    0  502  0.98550532806E+03 -0.74283395554E+02 -0.19126193535E+04  0.21528756713E+04  0.46999998093E+01 0.  1.
</event>
<event>
 5   0  0.3830207E-07  0.3198348E+04  0.7818609E-02  0.8189253E-01
        2   -1    0    0  501    0  0.00000000000E+00  0.00000000000E+00  0.13553271992E+04  0.13553271992E+04  0.25500000920E-02 0.  1.
       -2   -1    0    0    0  501  0.00000000000E+00  0.00000000000E+00 -0.18868935267E+04  0.18868935267E+04  0.25500000920E-02 0. -1.
    10030    2    1    2    0    0  0.00000000000E+00  0.00000000000E+00 -0.53156632754E+03  0.32422207259E+04  0.31983483980E+04 0.  0.
        4    1    3    3  502    0  0.79821132138E+03 -0.11373048799E+04  0.53675362521E+03  0.14895334070E+04  0.12699999809E+01 0.  1.
       -4    1    3    3    0  502 -0.79821132138E+03  0.11373048799E+04 -0.10683199527E+04  0.17526873189E+04  0.12699999809E+01 0. -1.
</event>
<event>
 5   0  0.1288096E-07  0.3201421E+04  0.7818609E-02  0.8188442E-01
        1   -1    0    0  501    0  0.00000000000E+00  0.00000000000E+00  0.21515321797E+04  0.21515321797E+04  0.50400001928E-02 0.  1.
       -1   -1    0    0    0  501  0.00000000000E+00  0.00000000000E+00 -0.11909066989E+04  0.11909066989E+04  0.50400001928E-02 0. -1.
    10030    2    1    2    0    0  0.00000000000E+00  0.00000000000E+00  0.96062548078E+03  0.33424388786E+04  0.32014209881E+04 0.  0.
        2    1    3    3  502    0  0.86895116300E+02 -0.67818275096E+02 -0.11869396022E+04  0.11920468527E+04  0.25500000920E-02 0. -1.
       -2    1    3    3    0  502 -0.86895116300E+02  0.67818275096E+02  0.21475650830E+04  0.21503920260E+04  0.25500000920E-02 0.  1.
</event>
<event>
 5   0  0.3858721E-07  0.3198553E+04  0.7818609E-02  0.8189199E-01
       -2   -1    0    0    0  501  0.00000000000E+00  0.00000000000E+00  0.17937400415E+04  0.17937400415E+04  0.25500000920E-02 0. -1.
        2   -1    0    0  501    0  0.00000000000E+00  0.00000000000E+00 -0.14258952043E+04  0.14258952043E+04  0.25500000920E-02 0.  1.
    10030    2    1    2    0    0  0.00000000000E+00  0.00000000000E+00  0.36784483725E+03  0.32196352458E+04  0.31985529997E+04 0.  0.
        2    1    3    3  502    0 -0.14879387100E+04  0.57955709457E+03  0.94810427922E+02  0.15996365362E+04  0.25500000920E-02 0. -1.
       -2    1    3    3    0  502  0.14879387100E+04 -0.57955709457E+03  0.27303440933E+03  0.16199987096E+04  0.25500000920E-02 0.  1.
</event>
<event>
 5   0  0.3750285E-07  0.3202533E+04  0.7818609E-02  0.8188149E-01
        2   -1    0    0  501    0  0.00000000000E+00  0.00000000000E+00  0.11378379529E+04  0.11378379529E+04  0.25500000920E-02 0.  1.
       -2   -1    0    0    0  501  0.00000000000E+00  0.00000000000E+00 -0.22534438553E+04  0.22534438553E+04  0.25500000920E-02 0. -1.
    10030    2    1    2    0    0  0.00000000000E+00  0.00000000000E+00 -0.11156059024E+04  0.33912818082E+04  0.32025327123E+04 0.  0.
        1    1    3    3  502    0  0.11682508323E+04  0.44185757554E+02 -0.17165009724E+04  0.20768095668E+04  0.50400001928E-02 0. -1.
       -1    1    3    3    0  502 -0.11682508323E+04 -0.44185757554E+02  0.60089506999E+03  0.13144722414E+04  0.50400001928E-02 0.  1.
</event>
<event>
 5   0  0.3764056E-07  0.3184107E+04  0.7818609E-02  0.8193027E-01
       -2   -1    0    0    0  501  0.00000000000E+00  0.00000000000E+00  0.26706699977E+04  0.26706699977E+04  0.25500000920E-02 0.  1.
        2   -1    0    0  501    0  0.00000000000E+00  0.00000000000E+00 -0.94906293891E+03  0.94906293891E+03  0.25500000920E-02 0. -1.
    10030    2    1    2    0    0  0.00000000000E+00  0.00000000000E+00  0.17216070588E+04  0.36197329366E+04  0.31841067299E+04 0.  0.
        5    1    3    3  502    0 -0.77731454654E+03  0.84283303492E+03 -0.39486071206E+03  0.12126510219E+04  0.46999998093E+01 0. -1.
       -5    1    3    3    0  502  0.77731454654E+03 -0.84283303492E+03  0.21164677709E+04  0.24070819147E+04  0.46999998093E+01 0.  1.
</event>
<event>
 5   0  0.1288096E-07  0.3206968E+04  0.7818609E-02  0.8186979E-01
        1   -1    0    0  501    0  0.00000000000E+00  0.00000000000E+00  0.13305010025E+04  0.13305010025E+04  0.50400001928E-02 0.  1.
       -1   -1    0    0    0  501  0.00000000000E+00  0.00000000000E+00 -0.19324755391E+04  0.19324755391E+04  0.50400001928E-02 0. -1.
    10030    2    1    2    0    0  0.00000000000E+00  0.00000000000E+00 -0.60197453667E+03  0.32629765416E+04  0.32069678153E+04 0.  0.
        2    1    3    3  502    0  0.26480620186E+03  0.12579196246E+04  0.67422838169E+03  0.14515743236E+04  0.25500000920E-02 0.  1.
       -2    1    3    3    0  502 -0.26480620186E+03 -0.12579196246E+04 -0.12762029184E+04  0.18114022180E+04  0.25500000920E-02 0. -1.
</event>
<event>
 5   0  0.1270948E-07  0.3199616E+04  0.7818609E-02  0.8188919E-01
       -1   -1    0    0    0  501  0.00000000000E+00  0.00000000000E+00  0.10004798750E+04  0.10004798750E+04  0.50400001928E-02 0. -1.
        1   -1    0    0  501    0  0.00000000000E+00  0.00000000000E+00 -0.25581583052E+04  0.25581583052E+04  0.50400001928E-02 0.  1.
    10030    2    1    2    0    0  0.00000000000E+00  0.00000000000E+00 -0.15576784302E+04  0.35586381803E+04  0.31996161655E+04 0.  0.
        4    1    3    3  502    0  0.69999254112E+03  0.31124379145E+03  0.78321780564E+03  0.10955792985E+04  0.12699999809E+01 0. -1.
       -4    1    3    3    0  502 -0.69999254112E+03 -0.31124379145E+03 -0.23408962358E+04  0.24630588818E+04  0.12699999809E+01 0.  1.
</event>
<event>
 5   0  0.3830207E-07  0.3196833E+04  0.7818609E-02  0.8189654E-01
       -2   -1    0    0    0  501  0.00000000000E+00  0.00000000000E+00  0.14930876751E+04  0.14930876751E+04  0.25500000920E-02 0.  1.
        2   -1    0    0  501    0  0.00000000000E+00  0.00000000000E+00 -0.17111755591E+04  0.17111755591E+04  0.25500000920E-02 0. -1.
    10030    2    1    2    0    0  0.00000000000E+00  0.00000000000E+00 -0.21808788406E+03  0.32042632342E+04  0.31968328935E+04 0.  0.
        4    1    3    3  502    0 -0.85600381003E+03  0.54237871121E+03  0.11299587502E+04  0.15178028789E+04  0.12699999809E+01 0.  1.
       -4    1    3    3    0  502  0.85600381003E+03 -0.54237871121E+03 -0.13480466342E+04  0.16864603553E+04  0.12699999809E+01 0. -1.
</event>
<event>
 5   0  0.3942564E-07  0.3198873E+04  0.7818609E-02  0.8189115E-01
       -2   -1    0    0    0  501  0.00000000000E+00  0.00000000000E+00  0.12700365622E+04  0.12700365622E+04  0.25500000920E-02 0.  1.
        2   -1    0    0  501    0  0.00000000000E+00  0.00000000000E+00 -0.20142710653E+04  0.20142710653E+04  0.25500000920E-02 0. -1.
    10030    2    1    2    0    0  0.00000000000E+00  0.00000000000E+00 -0.74423450311E+03  0.32843076275E+04  0.31988734887E+04 0.  0.
        3    1    3    3  502    0 -0.40329734668E+03  0.13787308472E+04  0.34998041609E+03  0.14785241969E+04  0.10100000352E+00 0.  1.
       -3    1    3    3    0  502  0.40329734668E+03 -0.13787308472E+04 -0.10942149192E+04  0.18057834307E+04  0.10100000352E+00 0. -1.
</event>
<event>
 5   0  0.1317293E-07  0.3201700E+04  0.7818609E-02  0.8188368E-01
        1   -1    0    0  501    0  0.00000000000E+00  0.00000000000E+00  0.29161059315E+04  0.29161059315E+04  0.50400001928E-02 0.  1.
       -1   -1    0    0    0  501  0.00000000000E+00  0.00000000000E+00 -0.87881625156E+03  0.87881625158E+03  0.50400001928E-02 0. -1.
    10030    2    1    2    0    0  0.00000000000E+00  0.00000000000E+00  0.20372896800E+04  0.37949221831E+04  0.32017003507E+04 0.  0.
        1    1    3    3  502    0  0.18032094953E+03  0.13691427079E+04  0.58891768642E+02  0.13822212702E+04  0.50400001928E-02 0. -1.
       -1    1    3    3    0  502 -0.18032094953E+03 -0.13691427079E+04  0.19783979113E+04  0.24127009129E+04  0.50400001928E-02 0.  1.
</event>
<event>
 5   0  0.1365455E-07  0.3200094E+04  0.7818609E-02  0.8188792E-01
       -1   -1    0    0    0  501  0.00000000000E+00  0.00000000000E+00  0.14323237509E+04  0.14323237509E+04  0.50400001928E-02 0.  1.
        1   -1    0    0  501    0  0.00000000000E+00  0.00000000000E+00 -0.17874103088E+04  0.17874103088E+04  0.50400001928E-02 0. -1.
    10030    2    1    2    0    0  0.00000000000E+00  0.00000000000E+00 -0.35508655791E+03  0.32197340597E+04  0.32000938973E+04 0.  0.
        3    1    3    3  502    0  0.17213552303E+03 -0.89292162994E+03 -0.15021377636E+04  0.17559491868E+04  0.10100000352E+00 0. -1.
       -3    1    3    3    0  502 -0.17213552303E+03  0.89292162994E+03  0.11470512057E+04  0.14637848729E+04  0.10100000352E+00 0.  1.
</event>
<event>
 5   0  0.1288096E-07  0.3206134E+04  0.7818609E-02  0.8187199E-01
        1   -1    0    0  501    0  0.00000000000E+00  0.00000000000E+00  0.15741087067E+04  0.15741087067E+04  0.50400001928E-02 0. -1.
       -1   -1    0    0    0  501  0.00000000000E+00  0.00000000000E+00 -0.16325577514E+04  0.16325577514E+04  0.50400001928E-02 0.  1.
    10030    2    1    2    0    0  0.00000000000E+00  0.00000000000E+00 -0.58449044676E+02  0.32066664581E+04  0.32061337281E+04 0.  0.
        2    1    3    3  502    0  0.14670566920E+04  0.40135104432E+03 -0.53575252205E+03  0.16125658942E+04  0.25500000920E-02 0.  1.
       -2    1    3    3    0  502 -0.14670566920E+04 -0.40135104432E+03  0.47730347738E+03  0.15941005639E+04  0.25500000920E-02 0. -1.
</event>
<event>
 5   0  0.1288096E-07  0.3206828E+04  0.7818609E-02  0.8187016E-01
       -1   -1    0    0    0  501  0.00000000000E+00  0.00000000000E+00  0.14069292488E+04  0.14069292488E+04  0.50400001928E-02 0.  1.
        1   -1    0    0  501    0  0.00000000000E+00  0.00000000000E+00 -0.18273389521E+04  0.18273389521E+04  0.50400001928E-02 0. -1.
    10030    2    1    2    0    0  0.00000000000E+00  0.00000000000E+00 -0.42040970329E+03  0.32342682009E+04  0.32068281021E+04 0.  0.
        2    1    3    3  502    0  0.12257274267E+04 -0.36893317630E+03 -0.11840849469E+04  0.17437249137E+04  0.25500000920E-02 0. -1.
       -2    1    3    3    0  502 -0.12257274267E+04  0.36893317630E+03  0.76367524364E+03  0.14905432872E+04  0.25500000920E-02 0.  1.
</event>
<event>
 5   0  0.3764056E-07  0.3213005E+04  0.7818609E-02  0.8185391E-01
        2   -1    0    0  501    0  0.00000000000E+00  0.00000000000E+00  0.16838386293E+04  0.16838386293E+04  0.25500000920E-02 0.  1.
       -2   -1    0    0    0  501  0.00000000000E+00  0.00000000000E+00 -0.15327181813E+04  0.15327181813E+04  0.25500000920E-02 0. -1.
    10030    2    1    2    0    0  0.00000000000E+00  0.00000000000E+00  0.15112044799E+03  0.32165568106E+04  0.32130048749E+04 0.  0.
        5    1    3    3  502    0 -0.11156787014E+04 -0.25766952719E+02 -0.10813232246E+04  0.15539256439E+04  0.46999998093E+01 0. -1.
       -5    1    3    3    0  502  0.11156787014E+04  0.25766952719E+02  0.12324436726E+04  0.16626311668E+04  0.46999998093E+01 0.  1.
</event>
<event>
 5   0  0.1277374E-07  0.3200108E+04  0.7818609E-02  0.8188789E-01
        1   -1    0    0  501    0  0.00000000000E+00  0.00000000000E+00  0.17298454338E+04  0.17298454338E+04  0.50400001928E-02 0. -1.
       -1   -1    0    0    0  501  0.00000000000E+00  0.00000000000E+00 -0.14800012203E+04  0.14800012203E+04  0.50400001928E-02 0.  1.
    10030    2    1    2    0    0  0.00000000000E+00  0.00000000000E+00  0.24984421352E+03  0.32098466541E+04  0.32001083437E+04 0.  0.
        5    1    3    3  502    0  0.99965712263E+03  0.96505907432E+03  0.92074557117E+03  0.16668676842E+04  0.46999998093E+01 0. -1.
       -5    1    3    3    0  502 -0.99965712263E+03 -0.96505907432E+03 -0.67090135765E+03  0.15429789699E+04  0.46999998093E+01 0.  1.
</event>
<event>
 5   0  0.1365455E-07  0.3205717E+04  0.7818609E-02  0.8187309E-01
        1   -1    0    0  501    0  0.00000000000E+00  0.00000000000E+00  0.12412780348E+04  0.12412780348E+04  0.50400001928E-02 0. -1.
       -1   -1    0    0    0  501  0.00000000000E+00  0.00000000000E+00 -0.20697661112E+04  0.20697661112E+04  0.50400001928E-02 0.  1.
    10030    2    1    2    0    0  0.00000000000E+00  0.00000000000E+00 -0.82848807642E+03  0.33110441461E+04  0.32057169002E+04 0.  0.
        3    1    3    3  502    0 -0.78382547947E+03 -0.43259596121E+02  0.10291335771E+04  0.12943607320E+04  0.10100000352E+00 0. -1.
       -3    1    3    3    0  502  0.78382547947E+03  0.43259596121E+02 -0.18576216535E+04  0.20166834141E+04  0.10100000352E+00 0.  1.
</event>
<event>
 5   0  0.1277374E-07  0.3189136E+04  0.7818609E-02  0.8191692E-01
        1   -1    0    0  501    0  0.00000000000E+00  0.00000000000E+00  0.25258561032E+04  0.25258561032E+04  0.50400001928E-02 0.  1.
       -1   -1    0    0    0  501  0.00000000000E+00  0.00000000000E+00 -0.10066477608E+04  0.10066477608E+04  0.50400001928E-02 0. -1.
    10030    2    1    2    0    0  0.00000000000E+00  0.00000000000E+00  0.15192083425E+04  0.35325038640E+04  0.31891361780E+04 0.  0.
        5    1    3    3  502    0 -0.36785994830E+02  0.13712068428E+04  0.16602028327E+04  0.21535684226E+04  0.46999998093E+01 0.  1.
       -5    1    3    3    0  502  0.36785994830E+02 -0.13712068428E+04 -0.14099449024E+03  0.13789354414E+04  0.46999998093E+01 0. -1.
</event>
<event>
 5   0  0.1317293E-07  0.3200986E+04  0.7818609E-02  0.8188557E-01
        1   -1    0    0  501    0  0.00000000000E+00  0.00000000000E+00  0.15269296794E+04  0.15269296794E+04  0.50400001928E-02 0. -1.
       -1   -1    0    0    0  501  0.00000000000E+00  0.00000000000E+00 -0.16776008049E+04  0.16776008050E+04  0.50400001928E-02 0.  1.
    10030    2    1    2    0    0  0.00000000000E+00  0.00000000000E+00 -0.15067112552E+03  0.32045304844E+04  0.32009863850E+04 0.  0.
        1    1    3    3  502    0  0.31423645961E+03  0.15376527786E+04  0.23879177281E+03  0.15874955530E+04  0.50400001928E-02 0.  1.
       -1    1    3    3    0  502 -0.31423645961E+03 -0.15376527786E+04 -0.38946289833E+03  0.16170349314E+04  0.50400001928E-02 0. -1.
</event>
<event>
 5   0  0.3858721E-07  0.3200839E+04  0.7818609E-02  0.8188596E-01
        2   -1    0    0  501    0  0.00000000000E+00  0.00000000000E+00  0.23460581734E+04  0.23460581734E+04  0.25500000920E-02 0.  1.
       -2   -1    0    0    0  501  0.00000000000E+00  0.00000000000E+00 -0.10917640301E+04  0.10917640301E+04  0.25500000920E-02 0. -1.
    10030    2    1    2    0    0  0.00000000000E+00  0.00000000000E+00  0.12542941433E+04  0.34378222035E+04  0.32008385941E+04 0.  0.
        2    1    3    3  502    0  0.22445245550E+03  0.32544652036E+03 -0.10384942023E+04  0.11111995998E+04  0.25500000920E-02 0. -1.
       -2    1    3    3    0  502 -0.22445245550E+03 -0.32544652036E+03  0.22927883456E+04  0.23266226037E+04  0.25500000920E-02 0.  1.
</event>
<event>
 5   0  0.3750285E-07  0.3203139E+04  0.7818609E-02  0.8187989E-01
       -2   -1    0    0    0  501  0.00000000000E+00  0.00000000000E+00  0.12395201418E+04  0.12395201418E+04  0.25500000920E-02 0. -1.
        2   -1    0    0  501    0  0.00000000000E+00  0.00000000000E+00 -0.20693688500E+04  0.20693688500E+04  0.25500000920E-02 0.  1.
    10030    2    1    2    0    0  0.00000000000E+00  0.00000000000E+00 -0.82984870817E+03  0.33088889918E+04  0.32031386922E+04 0.  0.
        1    1    3    3  502    0  0.14136973431E+03  0.15930596044E+04 -0.50257894568E+03  0.16764277204E+04  0.50400001928E-02 0. -1.
       -1    1    3    3    0  502 -0.14136973431E+03 -0.15930596044E+04 -0.32726976249E+03  0.16324612714E+04  0.50400001928E-02 0.  1.
</event>
<event>
 5   0  0.1230450E-07  0.3210236E+04  0.7818609E-02  0.8186119E-01
        3   -1    0    0  501    0  0.00000000000E+00  0.00000000000E+00  0.19066608219E+04  0.19066608245E+04  0.10100000352E+00 0.  1.
       -3   -1    0    0    0  501  0.00000000000E+00  0.00000000000E+00 -0.13512647075E+04  0.13512647113E+04  0.10100000352E+00 0. -1.
    10030    2    1    2    0    0  0.00000000000E+00  0.00000000000E+00  0.55539611435E+03  0.32579255358E+04  0.32102358096E+04 0.  0.
        2    1    3    3  502    0 -0.10219660225E+03  0.16015296506E+04  0.31077239865E+03  0.16346011290E+04  0.25500000920E-02 0. -1.
       -2    1    3    3    0  502  0.10219660225E+03 -0.16015296506E+04  0.24462371570E+03  0.16233244068E+04  0.25500000920E-02 0.  1.
</event>
<event>
 5   0  0.1288096E-07  0.3200427E+04  0.7818609E-02  0.8188704E-01
       -1   -1    0    0    0  501  0.00000000000E+00  0.00000000000E+00  0.16759060602E+04  0.16759060602E+04  0.50400001928E-02 0. -1.
        1   -1    0    0  501    0  0.00000000000E+00  0.00000000000E+00 -0.15279399719E+04  0.15279399719E+04  0.50400001928E-02 0.  1.
    10030    2    1    2    0    0  0.00000000000E+00  0.00000000000E+00  0.14796608833E+03  0.32038460320E+04  0.32004273830E+04 0.  0.
        2    1    3    3  502    0 -0.10080678265E+04 -0.10564992585E+04  0.72912265703E+03  0.16321799150E+04  0.25500000920E-02 0. -1.
       -2    1    3    3    0  502  0.10080678265E+04  0.10564992585E+04 -0.58115656871E+03  0.15716661170E+04  0.25500000920E-02 0.  1.
</event>
<event>
 5   0  0.1365455E-07  0.3202444E+04  0.7818609E-02  0.8188172E-01
       -1   -1    0    0    0  501  0.00000000000E+00  0.00000000000E+00  0.15532481686E+04  0.15532481686E+04  0.50400001928E-02 0.  1.
        1   -1    0    0  501    0  0.00000000000E+00  0.00000000000E+00 -0.16506771238E+04  0.16506771238E+04  0.50400001928E-02 0. -1.
    10030    2    1    2    0    0  0.00000000000E+00  0.00000000000E+00 -0.97428955199E+02  0.32039252925E+04  0.32024435793E+04 0.  0.
        3    1    3    3  502    0 -0.68091483346E+03 -0.11114324103E+04  0.88176110337E+03  0.15736675846E+04  0.10100000352E+00 0.  1.
       -3    1    3    3    0  502  0.68091483346E+03  0.11114324103E+04 -0.97919005857E+03  0.16302577079E+04  0.10100000352E+00 0. -1.
</event>
<event>
 5   0  0.3858721E-07  0.3198577E+04  0.7818609E-02  0.8189193E-01
       -2   -1    0    0    0  501  0.00000000000E+00  0.00000000000E+00  0.13070229735E+04  0.13070229735E+04  0.25500000920E-02 0. -1.
        2   -1    0    0  501    0  0.00000000000E+00  0.00000000000E+00 -0.19569081949E+04  0.19569081949E+04  0.25500000920E-02 0.  1.
    10030    2    1    2    0    0  0.00000000000E+00  0.00000000000E+00 -0.64988522140E+03  0.32639311684E+04  0.31985771635E+04 0.  0.
        2    1    3    3  502    0 -0.76694126969E+03  0.41931606696E+03 -0.16915977961E+04  0.19040819255E+04  0.25500000920E-02 0.  1.
       -2    1    3    3    0  502  0.76694126969E+03 -0.41931606696E+03  0.10417125747E+04  0.13598492429E+04  0.25500000920E-02 0. -1.
</event>
<event>
 5   0  0.3750285E-07  0.3199783E+04  0.7818609E-02  0.8188875E-01
       -2   -1    0    0    0  501  0.00000000000E+00  0.00000000000E+00  0.22128939100E+04  0.22128939100E+04  0.25500000920E-02 0.  1.
        2   -1    0    0  501    0  0.00000000000E+00  0.00000000000E+00 -0.11566991505E+04  0.11566991505E+04  0.25500000920E-02 0. -1.
    10030    2    1    2    0    0  0.00000000000E+00  0.00000000000E+00  0.10561947595E+04  0.33695930604E+04  0.31997828087E+04 0.  0.
        1    1    3    3  502    0  0.69003383368E+03 -0.18883920151E+03  0.20350706732E+04  0.21571554373E+04  0.50400001928E-02 0.  1.
       -1    1    3    3    0  502 -0.69003383368E+03  0.18883920151E+03 -0.97887591367E+03  0.12124376232E+04  0.50400001928E-02 0. -1.
</event>
<event>
 5   0  0.1317293E-07  0.3172456E+04  0.7818609E-02  0.8196129E-01
        1   -1    0    0  501    0  0.00000000000E+00  0.00000000000E+00  0.25891984225E+04  0.25891984225E+04  0.50400001928E-02 0.  1.
       -1   -1    0    0    0  501  0.00000000000E+00  0.00000000000E+00 -0.97177567643E+03  0.97177567645E+03  0.50400001928E-02 0. -1.
    10030    2    1    2    0    0  0.00000000000E+00  0.00000000000E+00  0.16174227461E+04  0.35609740990E+04  0.31724564920E+04 0.  0.
        1    1    3    3  502    0 -0.14545238861E+04  0.62122935619E+03  0.94412747183E+03  0.18419941181E+04  0.50400001928E-02 0. -1.
       -1    1    3    3    0  502  0.14545238861E+04 -0.62122935619E+03  0.67329527424E+03  0.17189799808E+04  0.50400001928E-02 0.  1.
</event>
<event>
 5   0  0.3858721E-07  0.3201097E+04  0.7818609E-02  0.8188528E-01
        2   -1    0    0  501    0  0.00000000000E+00  0.00000000000E+00  0.93055573224E+03  0.93055573224E+03  0.25500000920E-02 0.  1.
       -2   -1    0    0    0  501  0.00000000000E+00  0.00000000000E+00 -0.27529299109E+04  0.27529299109E+04  0.25500000920E-02 0. -1.
    10030    2    1    2    0    0  0.00000000000E+00  0.00000000000E+00 -0.18223741787E+04  0.36834856431E+04  0.32010965053E+04 0.  0.
        2    1    3    3  502    0  0.26402601107E+03  0.67136873313E+03 -0.25552354531E+04  0.26551222064E+04  0.25500000920E-02 0. -1.
       -2    1    3    3    0  502 -0.26402601107E+03 -0.67136873313E+03  0.73286127444E+03  0.10283634367E+04  0.25500000920E-02 0.  1.
</event>
<event>
 5   0  0.1270948E-07  0.3200798E+04  0.7818609E-02  0.8188607E-01
       -1   -1    0    0    0  501  0.00000000000E+00  0.00000000000E+00  0.26873358700E+04  0.26873358700E+04  0.50400001928E-02 0.  1.
        1   -1    0    0  501    0  0.00000000000E+00  0.00000000000E+00 -0.95309124024E+03  0.95309124026E+03  0.50400001928E-02 0. -1.
    10030    2    1    2    0    0  0.00000000000E+00  0.00000000000E+00  0.17342446297E+04  0.36404271102E+04  0.32007975739E+04 0.  0.
        4    1    3    3  502    0  0.49822605242E+03  0.23672482894E+02  0.25966742209E+04  0.26441460262E+04  0.12699999809E+01 0.  1.
       -4    1    3    3    0  502 -0.49822605242E+03 -0.23672482894E+02 -0.86242959115E+03  0.99628108400E+03  0.12699999809E+01 0. -1.
</event>
<event>
 5   0  0.1365455E-07  0.3197709E+04  0.7818609E-02  0.8189423E-01
       -1   -1    0    0    0  501  0.00000000000E+00  0.00000000000E+00  0.12839126750E+04  0.12839126750E+04  0.50400001928E-02 0. -1.
        1   -1    0    0  501    0  0.00000000000E+00  0.00000000000E+00 -0.19910509546E+04  0.19910509546E+04  0.50400001928E-02 0.  1.
    10030    2    1    2    0    0  0.00000000000E+00  0.00000000000E+00 -0.70713827954E+03  0.32749636296E+04  0.31977089031E+04 0.  0.
        3    1    3    3  502    0  0.11571304802E+04 -0.10751694867E+04 -0.60733586281E+03  0.16922757558E+04  0.10100000352E+00 0.  1.
       -3    1    3    3    0  502 -0.11571304802E+04  0.10751694867E+04 -0.99802416731E+02  0.15826878738E+04  0.10100000352E+00 0. -1.
</event>
<event>
 5   0  0.3764056E-07  0.3206016E+04  0.7818609E-02  0.8187230E-01
        2   -1    0    0  501    0  0.00000000000E+00  0.00000000000E+00  0.19665995233E+04  0.19665995233E+04  0.25500000920E-02 0. -1.
       -2   -1    0    0    0  501  0.00000000000E+00  0.00000000000E+00 -0.13066387256E+04  0.13066387256E+04  0.25500000920E-02 0.  1.
    10030    2    1    2    0    0  0.00000000000E+00  0.00000000000E+00  0.65996079765E+03  0.32732382489E+04  0.32060162788E+04 0.  0.
        5    1    3    3  502    0  0.37313309292E+03  0.15301181696E+04  0.25185983703E+02  0.15751654966E+04  0.46999998093E+01 0.  1.
       -5    1    3    3    0  502 -0.37313309292E+03 -0.15301181696E+04  0.63477481395E+03  0.16980727523E+04  0.46999998093E+01 0. -1.
</event>
<event>
 5   0  0.3858721E-07  0.3196216E+04  0.7818609E-02  0.8189817E-01
       -2   -1    0    0    0  501  0.00000000000E+00  0.00000000000E+00  0.90566431722E+03  0.90566431722E+03  0.25500000920E-02 0.  1.
        2   -1    0    0  501    0  0.00000000000E+00  0.00000000000E+00 -0.28199727423E+04  0.28199727423E+04  0.25500000920E-02 0. -1.
    10030    2    1    2    0    0  0.00000000000E+00  0.00000000000E+00 -0.19143084251E+04  0.37256370595E+04  0.31962156925E+04 0.  0.
        2    1    3    3  502    0  0.27833678223E+03 -0.67109302224E+03  0.70203583537E+03  0.10102927907E+04  0.25500000920E-02 0.  1.
       -2    1    3    3    0  502 -0.27833678223E+03  0.67109302224E+03 -0.26163442605E+04  0.27153442688E+04  0.25500000920E-02 0. -1.
</event>
<event>
 5   0  0.1230450E-07  0.3202403E+04  0.7818609E-02  0.8188183E-01
       -3   -1    0    0    0  501  0.00000000000E+00  0.00000000000E+00  0.10026080569E+04  0.10026080619E+04  0.10100000352E+00 0.  1.
        3   -1    0    0  501    0  0.00000000000E+00  0.00000000000E+00 -0.25571767789E+04  0.25571767809E+04  0.10100000352E+00 0. -1.
    10030    2    1    2    0    0  0.00000000000E+00  0.00000000000E+00 -0.15545687221E+04  0.35597848429E+04  0.32024028816E+04 0.  0.
        5    1    3    3  502    0  0.12658151777E+04  0.96466249116E+03 -0.58168675600E+03  0.16944743604E+04  0.46999998093E+01 0.  1.
       -5    1    3    3    0  502 -0.12658151777E+04 -0.96466249116E+03 -0.97288196608E+03  0.18653104825E+04  0.46999998093E+01 0. -1.
</event>
<event>
 5   0  0.1277374E-07  0.3195860E+04  0.7818609E-02  0.8189912E-01
       -1   -1    0    0    0  501  0.00000000000E+00  0.00000000000E+00  0.15739711290E+04  0.15739711291E+04  0.50400001928E-02 0.  1.
        1   -1    0    0  501    0  0.00000000000E+00  0.00000000000E+00 -0.16222530751E+04  0.16222530751E+04  0.50400001928E-02 0. -1.
    10030    2    1    2    0    0  0.00000000000E+00  0.00000000000E+00 -0.48281946063E+02  0.31962242042E+04  0.31958595115E+04 0.  0.
        5    1    3    3  502    0  0.59699118469E+03 -0.23939469093E+02 -0.15063309566E+04  0.16205019635E+04  0.46999998093E+01 0. -1.
       -5    1    3    3    0  502 -0.59699118469E+03  0.23939469093E+02  0.14580490105E+04  0.15757222407E+04  0.46999998093E+01 0.  1.
</event>
<event>
 5   0  0.1288096E-07  0.3208744E+04  0.7818609E-02  0.8186512E-01
        1   -1    0    0  501    0  0.00000000000E+00  0.00000000000E+00  0.13902304958E+04  0.13902304958E+04  0.50400001928E-02 0. -1.
       -1   -1    0    0    0  501  0.00000000000E+00  0.00000000000E+00 -0.18514981090E+04  0.18514981090E+04  0.50400001928E-02 0.  1.
    10030    2    1    2    0    0  0.00000000000E+00  0.00000000000E+00 -0.46126761317E+03  0.32417286048E+04  0.32087437629E+04 0.  0.
        2    1    3    3  502    0  0.73672996595E+03  0.97562871213E+03 -0.12802490962E+04  0.17702147257E+04  0.25500000920E-02 0.  1.
       -2    1    3    3    0  502 -0.73672996595E+03 -0.97562871213E+03  0.81898148308E+03  0.14715138791E+04  0.25500000920E-02 0. -1.
</event>
<event>
 5   0  0.1317293E-07  0.3203684E+04  0.7818609E-02  0.8187845E-01
       -1   -1    0    0    0  501  0.00000000000E+00  0.00000000000E+00  0.16635528723E+04  0.16635528723E+04  0.50400001928E-02 0.  1.
        1   -1    0    0  501    0  0.00000000000E+00  0.00000000000E+00 -0.15424205245E+04  0.15424205246E+04  0.50400001928E-02 0. -1.
    10030    2    1    2    0    0  0.00000000000E+00  0.00000000000E+00  0.12113234778E+03  0.32059733969E+04  0.32036841879E+04 0.  0.
        1    1    3    3  502    0 -0.84781474389E+03 -0.23873763801E+03  0.13994731074E+04  0.16535750597E+04  0.50400001928E-02 0.  1.
       -1    1    3    3    0  502  0.84781474389E+03  0.23873763801E+03 -0.12783407596E+04  0.15523983372E+04  0.50400001928E-02 0. -1.
</event>
<event>
 5   0  0.3858721E-07  0.3203343E+04  0.7818609E-02  0.8187935E-01
       -2   -1    0    0    0  501  0.00000000000E+00  0.00000000000E+00  0.10000993177E+04  0.10000993177E+04  0.25500000920E-02 0. -1.
        2   -1    0    0  501    0  0.00000000000E+00  0.00000000000E+00 -0.25650967016E+04  0.25650967016E+04  0.25500000920E-02 0.  1.
    10030    2    1    2    0    0  0.00000000000E+00  0.00000000000E+00 -0.15649973839E+04  0.35651960194E+04  0.32033429171E+04 0.  0.
        2    1    3    3  502    0 -0.22897766098E+03 -0.14317126043E+04 -0.15399009810E+04  0.21150713420E+04  0.25500000920E-02 0.  1.
       -2    1    3    3    0  502  0.22897766098E+03  0.14317126043E+04 -0.25096402880E+02  0.14501246774E+04  0.25500000920E-02 0. -1.
</event>
<event>
 5   0  0.1317293E-07  0.3198150E+04  0.7818609E-02  0.8189306E-01
       -1   -1    0    0    0  501  0.00000000000E+00  0.00000000000E+00  0.11042173706E+04  0.11042173706E+04  0.50400001928E-02 0.  1.
        1   -1    0    0  501    0  0.00000000000E+00  0.00000000000E+00 -0.23157048512E+04  0.23157048512E+04  0.50400001928E-02 0. -1.
    10030    2    1    2    0    0  0.00000000000E+00  0.00000000000E+00 -0.12114874807E+04  0.34199222218E+04  0.31981504166E+04 0.  0.
        1    1    3    3  502    0 -0.31026607780E+03 -0.13601432620E+04 -0.14414663679E+04  0.20060109726E+04  0.50400001928E-02 0. -1.
       -1    1    3    3    0  502  0.31026607780E+03  0.13601432620E+04  0.22997888727E+03  0.14139112492E+04  0.50400001928E-02 0.  1.
</event>
<event>
 5   0  0.3764056E-07  0.3203623E+04  0.7818609E-02  0.8187861E-01
        2   -1    0    0  501    0  0.00000000000E+00  0.00000000000E+00  0.20318427563E+04  0.20318427563E+04  0.25500000920E-02 0.  1.
       -2   -1    0    0    0  501  0.00000000000E+00  0.00000000000E+00 -0.12627943376E+04  0.12627943376E+04  0.25500000920E-02 0. -1.
    10030    2    1    2    0    0  0.00000000000E+00  0.00000000000E+00  0.76904841877E+03  0.32946370939E+04  0.32036226542E+04 0.  0.
        5    1    3    3  502    0  0.43626528644E+03  0.15364920830E+04  0.26008187316E+03  0.16182706794E+04  0.46999998093E+01 0. -1.
       -5    1    3    3    0  502 -0.43626528644E+03 -0.15364920830E+04  0.50896654562E+03  0.16763664145E+04  0.46999998093E+01 0.  1.
</event>
<event>
 5   0  0.1365455E-07  0.3205420E+04  0.7818609E-02  0.8187387E-01
        1   -1    0    0  501    0  0.00000000000E+00  0.00000000000E+00  0.17955584037E+04  0.17955584037E+04  0.50400001928E-02 0. -1.
       -1   -1    0    0    0  501  0.00000000000E+00  0.00000000000E+00 -0.14305742957E+04  0.14305742957E+04  0.50400001928E-02 0.  1.
    10030    2    1    2    0    0  0.00000000000E+00  0.00000000000E+00  0.36498410803E+03  0.32261326995E+04  0.32054202213E+04 0.  0.
        3    1    3    3  502    0 -0.38597536724E+03  0.15169345992E+04 -0.16413447666E+03  0.15738512315E+04  0.10100000352E+00 0. -1.
       -3    1    3    3    0  502  0.38597536724E+03 -0.15169345992E+04  0.52911858469E+03  0.16522814679E+04  0.10100000352E+00 0.  1.
</event>
<event>
 5   0  0.1230450E-07  0.3200925E+04  0.7818609E-02  0.8188573E-01
        3   -1    0    0  501    0  0.00000000000E+00  0.00000000000E+00  0.13125077171E+04  0.13125077210E+04  0.10100000352E+00 0.  1.
       -3   -1    0    0    0  501  0.00000000000E+00  0.00000000000E+00 -0.19515919786E+04  0.19515919812E+04  0.10100000352E+00 0. -1.
    10030    2    1    2    0    0  0.00000000000E+00  0.00000000000E+00 -0.63908426146E+03  0.32640997022E+04  0.32009245809E+04 0.  0.
        3    1    3    3  502    0 -0.55298416273E+03  0.14409476018E+04 -0.75140754006E+03  0.17166055973E+04  0.10100000352E+00 0. -1.
       -3    1    3    3    0  502  0.55298416273E+03 -0.14409476018E+04  0.11232327860E+03  0.15474941048E+04  0.10100000352E+00 0.  1.
</event>
<event>
 5   0  0.1277374E-07  0.3182972E+04  0.7818609E-02  0.8193329E-01
       -1   -1    0    0    0  501  0.00000000000E+00  0.00000000000E+00  0.13166304354E+04  0.13166304354E+04  0.50400001928E-02 0. -1.
        1   -1    0    0  501    0  0.00000000000E+00  0.00000000000E+00 -0.19237200956E+04  0.19237200956E+04  0.50400001928E-02 0.  1.
    10030    2    1    2    0    0  0.00000000000E+00  0.00000000000E+00 -0.60708966020E+03  0.32403505309E+04  0.31829724642E+04 0.  0.
        5    1    3    3  502    0  0.12090137549E+03 -0.25811531739E+03 -0.18975175267E+04  0.19188109635E+04  0.46999998093E+01 0.  1.
       -5    1    3    3    0  502 -0.12090137549E+03  0.25811531739E+03  0.12904278665E+04  0.13215395674E+04  0.46999998093E+01 0. -1.
</event>
<event>
 5   0  0.3858721E-07  0.3195776E+04  0.7818609E-02  0.8189934E-01
        2   -1    0    0  501    0  0.00000000000E+00  0.00000000000E+00  0.15737641478E+04  0.15737641478E+04  0.25500000920E-02 0. -1.
       -2   -1    0    0    0  501  0.00000000000E+00  0.00000000000E+00 -0.16223811659E+04  0.16223811659E+04  0.25500000920E-02 0.  1.
    10030    2    1    2    0    0  0.00000000000E+00  0.00000000000E+00 -0.48617018084E+02  0.31961453137E+04  0.31957755322E+04 0.  0.
        2    1    3    3  502    0  0.81211679506E+03 -0.85771961599E+03 -0.11005504381E+04  0.16144435249E+04  0.25500000920E-02 0.  1.
       -2    1    3    3    0  502 -0.81211679506E+03  0.85771961599E+03  0.10519334200E+04  0.15817017888E+04  0.25500000920E-02 0. -1.
</event>
<event>
 5   0  0.1230450E-07  0.3200769E+04  0.7818609E-02  0.8188614E-01
       -3   -1    0    0    0  501  0.00000000000E+00  0.00000000000E+00  0.23499099226E+04  0.23499099248E+04  0.10100000352E+00 0. -1.
        3   -1    0    0  501    0  0.00000000000E+00  0.00000000000E+00 -0.10899273741E+04  0.10899273788E+04  0.10100000352E+00 0.  1.
    10030    2    1    2    0    0  0.00000000000E+00  0.00000000000E+00  0.12599825485E+04  0.34398373036E+04  0.32007693845E+04 0.  0.
        5    1    3    3  502    0  0.11759649223E+03 -0.54467880055E+03  0.22422800077E+04  0.23104860211E+04  0.46999998093E+01 0. -1.
       -5    1    3    3    0  502 -0.11759649223E+03  0.54467880055E+03 -0.98229745924E+03  0.11293512825E+04  0.46999998093E+01 0.  1.
</event>
<event>
 5   0  0.1317293E-07  0.3190254E+04  0.7818609E-02  0.8191396E-01
        1   -1    0    0  501    0  0.00000000000E+00  0.00000000000E+00  0.12121344457E+04  0.12121344457E+04  0.50400001928E-02 0. -1.
       -1   -1    0    0    0  501  0.00000000000E+00  0.00000000000E+00 -0.20991321728E+04  0.20991321728E+04  0.50400001928E-02 0.  1.
    10030    2    1    2    0    0  0.00000000000E+00  0.00000000000E+00 -0.88699772709E+03  0.33112666185E+04  0.31902541671E+04 0.  0.
        1    1    3    3  502    0  0.14602221641E+04 -0.62159084774E+03 -0.27676143415E+03  0.16109689140E+04  0.50400001928E-02 0. -1.
       -1    1    3    3    0  502 -0.14602221641E+04  0.62159084774E+03 -0.61023629295E+03  0.17002977045E+04  0.50400001928E-02 0.  1.
</event>
<event>
 5   0  0.3858721E-07  0.3208147E+04  0.7818609E-02  0.8186669E-01
       -2   -1    0    0    0  501  0.00000000000E+00  0.00000000000E+00  0.10203617023E+04  0.10203617023E+04  0.25500000920E-02 0.  1.
        2   -1    0    0  501    0  0.00000000000E+00  0.00000000000E+00 -0.25217052756E+04  0.25217052756E+04  0.25500000920E-02 0. -1.
    10030    2    1    2    0    0  0.00000000000E+00  0.00000000000E+00 -0.15013435733E+04  0.35420669779E+04  0.32081468094E+04 0.  0.
        2    1    3    3  502    0 -0.66249675495E+03  0.13869487564E+04 -0.24408718492E+03  0.15563121014E+04  0.25500000920E-02 0.  1.
       -2    1    3    3    0  502  0.66249675495E+03 -0.13869487564E+04 -0.12572563883E+04  0.19857548764E+04  0.25500000920E-02 0. -1.
</event>
<event>
 5   0  0.1288096E-07  0.3201653E+04  0.7818609E-02  0.8188381E-01
       -1   -1    0    0    0  501  0.00000000000E+00  0.00000000000E+00  0.15905703843E+04  0.15905703843E+04  0.50400001928E-02 0.  1.
        1   -1    0    0  501    0  0.00000000000E+00  0.00000000000E+00 -0.16111484808E+04  0.16111484808E+04  0.50400001928E-02 0. -1.
    10030    2    1    2    0    0  0.00000000000E+00  0.00000000000E+00 -0.20578096547E+02  0.32017188651E+04  0.32016527346E+04 0.  0.
        2    1    3    3  502    0  0.59751589630E+02  0.15937671746E+04 -0.14806343999E+03  0.16017449365E+04  0.25500000920E-02 0. -1.
       -2    1    3    3    0  502 -0.59751589630E+02 -0.15937671746E+04  0.12748534345E+03  0.15999739286E+04  0.25500000920E-02 0.  1.
</event>
<event>
 5   0  0.1288096E-07  0.3183391E+04  0.7818609E-02  0.8193217E-01
       -1   -1    0    0    0  501  0.00000000000E+00  0.00000000000E+00  0.16123168871E+04  0.16123168871E+04  0.50400001928E-02 0.  1.
        1   -1    0    0  501    0  0.00000000000E+00  0.00000000000E+00 -0.15713381533E+04  0.15713381533E+04  0.50400001928E-02 0. -1.
    10030    2    1    2    0    0  0.00000000000E+00  0.00000000000E+00  0.40978733807E+02  0.31836550405E+04  0.31833912986E+04 0.  0.
        2    1    3    3  502    0 -0.71981837927E+03  0.11727748357E+04  0.82052797219E+03  0.16021252970E+04  0.25500000920E-02 0.  1.
       -2    1    3    3    0  502  0.71981837927E+03 -0.11727748357E+04 -0.77954923839E+03  0.15815297434E+04  0.25500000920E-02 0. -1.
</event>
<event>
 5   0  0.1270948E-07  0.3211046E+04  0.7818609E-02  0.8185906E-01
        1   -1    0    0  501    0  0.00000000000E+00  0.00000000000E+00  0.18247959878E+04  0.18247959878E+04  0.50400001928E-02 0. -1.
       -1   -1    0    0    0  501  0.00000000000E+00  0.00000000000E+00 -0.14125985482E+04  0.14125985482E+04  0.50400001928E-02 0.  1.
    10030    2    1    2    0    0  0.00000000000E+00  0.00000000000E+00  0.41219743958E+03  0.32373945360E+04  0.32110460371E+04 0.  0.
        4    1    3    3  502    0  0.12507424255E+04  0.95026184214E+03 -0.12881431589E+03  0.15760548609E+04  0.12699999809E+01 0. -1.
       -4    1    3    3    0  502 -0.12507424255E+04 -0.95026184214E+03  0.54101175547E+03  0.16613396751E+04  0.12699999809E+01 0.  1.
</event>
<event>
 5   0  0.1270948E-07  0.3199859E+04  0.7818609E-02  0.8188854E-01
       -1   -1    0    0    0  501  0.00000000000E+00  0.00000000000E+00  0.90164819552E+03  0.90164819553E+03  0.50400001928E-02 0. -1.
        1   -1    0    0  501    0  0.00000000000E+00  0.00000000000E+00 -0.28389944582E+04  0.28389944582E+04  0.50400001928E-02 0.  1.
    10030    2    1    2    0    0  0.00000000000E+00  0.00000000000E+00 -0.19373462627E+04  0.37406426537E+04  0.31998588909E+04 0.  0.
        4    1    3    3  502    0  0.11850162150E+04 -0.59974368586E+02  0.28598410427E+03  0.12205117269E+04  0.12699999809E+01 0. -1.
       -4    1    3    3    0  502 -0.11850162150E+04  0.59974368586E+02 -0.22233303669E+04  0.25201309268E+04  0.12699999809E+01 0.  1.
</event>
<event>
 5   0  0.1277374E-07  0.3197819E+04  0.7818609E-02  0.8189393E-01
        1   -1    0    0  501    0  0.00000000000E+00  0.00000000000E+00  0.11230808082E+04  0.11230808082E+04  0.50400001928E-02 0. -1.
       -1   -1    0    0    0  501  0.00000000000E+00  0.00000000000E+00 -0.22763384234E+04  0.22763384234E+04  0.50400001928E-02 0.  1.
    10030    2    1    2    0    0  0.00000000000E+00  0.00000000000E+00 -0.11532576152E+04  0.33994192317E+04  0.31978192547E+04 0.  0.
        5    1    3    3  502    0 -0.13720850912E+03 -0.58013913916E+03  0.10005136695E+04  0.11646618774E+04  0.46999998093E+01 0. -1.
       -5    1    3    3    0  502  0.13720850912E+03  0.58013913916E+03 -0.21537712847E+04  0.22347573543E+04  0.46999998093E+01 0.  1.
</event>
<event>
 5   0  0.1365455E-07  0.3203374E+04  0.7818609E-02  0.8187927E-01
        1   -1    0    0  501    0  0.00000000000E+00  0.00000000000E+00  0.19066318637E+04  0.19066318637E+04  0.50400001928E-02 0.  1.
       -1   -1    0    0    0  501  0.00000000000E+00  0.00000000000E+00 -0.13455150530E+04  0.13455150530E+04  0.50400001928E-02 0. -1.
    10030    2    1    2    0    0  0.00000000000E+00  0.00000000000E+00  0.56111681075E+03  0.32521469167E+04  0.32033743915E+04 0.  0.
        3    1    3    3  502    0 -0.17309271357E+03  0.13444716780E+04  0.11466811179E+04  0.17755119759E+04  0.10100000352E+00 0.  1.
       -3    1    3    3    0  502  0.17309271357E+03 -0.13444716780E+04 -0.58556430712E+03  0.14766349408E+04  0.10100000352E+00 0. -1.
</event>
<event>
 5   0  0.3764056E-07  0.3202215E+04  0.7818609E-02  0.8188232E-01
        2   -1    0    0  501    0  0.00000000000E+00  0.00000000000E+00  0.15230761234E+04  0.15230761234E+04  0.25500000920E-02 0.  1.
       -2   -1    0    0    0  501  0.00000000000E+00  0.00000000000E+00 -0.16831364695E+04  0.16831364695E+04  0.25500000920E-02 0. -1.
    10030    2    1    2    0    0  0.00000000000E+00  0.00000000000E+00 -0.16006034609E+03  0.32062125928E+04  0.32022148391E+04 0.  0.
        5    1    3    3  502    0 -0.86481037706E+02  0.33004107779E+03 -0.16463094385E+04  0.16812979927E+04  0.46999998093E+01 0. -1.
       -5    1    3    3    0  502  0.86481037706E+02 -0.33004107779E+03  0.14862490924E+04  0.15249146001E+04  0.46999998093E+01 0.  1.
</event>
<event>
 5   0  0.1277374E-07  0.3206597E+04  0.7818609E-02  0.8187077E-01
       -1   -1    0    0    0  501  0.00000000000E+00  0.00000000000E+00  0.17668363373E+04  0.17668363373E+04  0.50400001928E-02 0.  1.
        1   -1    0    0  501    0  0.00000000000E+00  0.00000000000E+00 -0.14548979705E+04  0.14548979705E+04  0.50400001928E-02 0. -1.
    10030    2    1    2    0    0  0.00000000000E+00  0.00000000000E+00  0.31193836681E+03  0.32217343078E+04  0.32065973251E+04 0.  0.
        5    1    3    3  502    0  0.16014569970E+04 -0.21002561524E+02  0.23006615474E+03  0.16180414538E+04  0.46999998093E+01 0.  1.
       -5    1    3    3    0  502 -0.16014569970E+04  0.21002561524E+02  0.81872212064E+02  0.16036928540E+04  0.46999998093E+01 0. -1.
</event>
<event>
 5   0  0.3750285E-07  0.3209282E+04  0.7818609E-02  0.8186370E-01
       -2   -1    0    0    0  501  0.00000000000E+00  0.00000000000E+00  0.12046815216E+04  0.12046815216E+04  0.25500000920E-02 0.  1.
        2   -1    0    0  501    0  0.00000000000E+00  0.00000000000E+00 -0.21373882807E+04  0.21373882807E+04  0.25500000920E-02 0. -1.
    10030    2    1    2    0    0  0.00000000000E+00  0.00000000000E+00 -0.93270675910E+03  0.33420698023E+04  0.32092816432E+04 0.  0.
        1    1    3    3  502    0 -0.15874728711E+04 -0.10878200579E+02 -0.22283222826E+03  0.16030728785E+04  0.50400001928E-02 0.  1.
       -1    1    3    3    0  502  0.15874728711E+04  0.10878200579E+02 -0.70987453083E+03  0.17389969239E+04  0.50400001928E-02 0. -1.
</event>
<event>
 5   0  0.1365455E-07  0.3201232E+04  0.7818609E-02  0.8188492E-01
        1   -1    0    0  501    0  0.00000000000E+00  0.00000000000E+00  0.22834651436E+04  0.22834651436E+04  0.50400001928E-02 0. -1.
       -1   -1    0    0    0  501  0.00000000000E+00  0.00000000000E+00 -0.11219662802E+04  0.11219662802E+04  0.50400001928E-02 0.  1.
    10030    2    1    2    0    0  0.00000000000E+00  0.00000000000E+00  0.11614988634E+04  0.34054314238E+04  0.32012315713E+04 0.  0.
        3    1    3    3  502    0  0.16666977603E+03 -0.20152129365E+03  0.22605851389E+04  0.22756614042E+04  0.10100000352E+00 0. -1.
       -3    1    3    3    0  502 -0.16666977603E+03  0.20152129365E+03 -0.10990862755E+04  0.11297700197E+04  0.10100000352E+00 0.  1.
</event>
<event>
 5   0  0.1270948E-07  0.3228238E+04  0.7818609E-02  0.8181399E-01
       -1   -1    0    0    0  501  0.00000000000E+00  0.00000000000E+00  0.12886703917E+04  0.12886703918E+04  0.50400001928E-02 0. -1.
        1   -1    0    0  501    0  0.00000000000E+00  0.00000000000E+00 -0.20217587601E+04  0.20217587601E+04  0.50400001928E-02 0.  1.
    10030    2    1    2    0    0  0.00000000000E+00  0.00000000000E+00 -0.73308836834E+03  0.33104291518E+04  0.32282383143E+04 0.  0.
        4    1    3    3  502    0  0.22277196993E+03  0.15582163394E+04 -0.73301311742E+03  0.17363684385E+04  0.12699999809E+01 0. -1.
       -4    1    3    3    0  502 -0.22277196993E+03 -0.15582163394E+04 -0.75250917788E-01  0.15740607134E+04  0.12699999809E+01 0.  1.
</event>
<event>
 5   0  0.3750285E-07  0.3210084E+04  0.7818609E-02  0.8186159E-01
        2   -1    0    0  501    0  0.00000000000E+00  0.00000000000E+00  0.14427512328E+04  0.14427512328E+04  0.25500000920E-02 0. -1.
       -2   -1    0    0    0  501  0.00000000000E+00  0.00000000000E+00 -0.17855879887E+04  0.17855879887E+04  0.25500000920E-02 0.  1.
    10030    2    1    2    0    0  0.00000000000E+00  0.00000000000E+00 -0.34283675590E+03  0.32283392216E+04  0.32100836575E+04 0.  0.
        1    1    3    3  502    0 -0.34631003881E+03 -0.68062490021E+03 -0.15911756601E+04  0.17649421744E+04  0.50400001928E-02 0.  1.
       -1    1    3    3    0  502  0.34631003881E+03  0.68062490021E+03  0.12483389042E+04  0.14633970471E+04  0.50400001928E-02 0. -1.
</event>
<event>
 5   0  0.3942564E-07  0.3212588E+04  0.7818609E-02  0.8185501E-01
       -2   -1    0    0    0  501  0.00000000000E+00  0.00000000000E+00  0.12223060690E+04  0.12223060690E+04  0.25500000920E-02 0. -1.
        2   -1    0    0  501    0  0.00000000000E+00  0.00000000000E+00 -0.21109121004E+04  0.21109121004E+04  0.25500000920E-02 0.  1.
    10030    2    1    2    0    0  0.00000000000E+00  0.00000000000E+00 -0.88860603140E+03  0.33332181693E+04  0.32125881599E+04 0.  0.
        3    1    3    3  502    0 -0.34069157335E+03  0.20251604680E+03  0.11707772131E+04  0.12360431992E+04  0.10100000352E+00 0. -1.
       -3    1    3    3    0  502  0.34069157335E+03 -0.20251604680E+03 -0.20593832445E+04  0.20971749701E+04  0.10100000352E+00 0.  1.
</event>
<event>
 5   0  0.3750285E-07  0.3208101E+04  0.7818609E-02  0.8186681E-01
       -2   -1    0    0    0  501  0.00000000000E+00  0.00000000000E+00  0.81830037820E+03  0.81830037820E+03  0.25500000920E-02 0.  1.
        2   -1    0    0  501    0  0.00000000000E+00  0.00000000000E+00 -0.31442957660E+04  0.31442957660E+04  0.25500000920E-02 0. -1.
    10030    2    1    2    0    0  0.00000000000E+00  0.00000000000E+00 -0.23259953878E+04  0.39625961442E+04  0.32081012543E+04 0.  0.
        1    1    3    3  502    0  0.15574571555E+04  0.34320297273E+03 -0.95078548103E+03  0.18567321031E+04  0.50400001928E-02 0.  1.
       -1    1    3    3    0  502 -0.15574571555E+04 -0.34320297273E+03 -0.13752099067E+04  0.21058640410E+04  0.50400001928E-02 0. -1.
</event>
<event>
 5   0  0.3942564E-07  0.3200999E+04  0.7818609E-02  0.8188553E-01
       -2   -1    0    0    0  501  0.00000000000E+00  0.00000000000E+00  0.13003637592E+04  0.13003637592E+04  0.25500000920E-02 0. -1.
        2   -1    0    0  501    0  0.00000000000E+00  0.00000000000E+00 -0.19699093602E+04  0.19699093602E+04  0.25500000920E-02 0.  1.
    10030    2    1    2    0    0  0.00000000000E+00  0.00000000000E+00 -0.66954560093E+03  0.32702731194E+04  0.32009990571E+04 0.  0.
        3    1    3    3  502    0  0.13003798949E+04  0.29673186625E+03  0.56899652101E+03  0.14501016249E+04  0.10100000352E+00 0. -1.
       -3    1    3    3    0  502 -0.13003798949E+04 -0.29673186625E+03 -0.12385421219E+04  0.18201714945E+04  0.10100000352E+00 0.  1.
</event>
<event>
 5   0  0.3858721E-07  0.3200430E+04  0.7818609E-02  0.8188704E-01
        2   -1    0    0  501    0  0.00000000000E+00  0.00000000000E+00  0.20249599742E+04  0.20249599742E+04  0.25500000920E-02 0.  1.
       -2   -1    0    0    0  501  0.00000000000E+00  0.00000000000E+00 -0.12645621261E+04  0.12645621261E+04  0.25500000920E-02 0. -1.
    10030    2    1    2    0    0  0.00000000000E+00  0.00000000000E+00  0.76039784808E+03  0.32895221002E+04  0.32004297775E+04 0.  0.
        2    1    3    3  502    0  0.15102657795E+04  0.45642309940E+03  0.65496612139E+03  0.17082755605E+04  0.25500000920E-02 0.  1.
       -2    1    3    3    0  502 -0.15102657795E+04 -0.45642309940E+03  0.10543172669E+03  0.15812465397E+04  0.25500000920E-02 0. -1.
</event>
<event>
 5   0  0.3750285E-07  0.3190519E+04  0.7818609E-02  0.8191326E-01
       -2   -1    0    0    0  501  0.00000000000E+00  0.00000000000E+00  0.11851807875E+04  0.11851807875E+04  0.25500000920E-02 0. -1.
        2   -1    0    0  501    0  0.00000000000E+00  0.00000000000E+00 -0.21472275421E+04  0.21472275421E+04  0.25500000920E-02 0.  1.
    10030    2    1    2    0    0  0.00000000000E+00  0.00000000000E+00 -0.96204675460E+03  0.33324083297E+04  0.31905189731E+04 0.  0.
        1    1    3    3  502    0 -0.10111018429E+04 -0.33965777011E+03  0.75796829604E+03  0.13085145301E+04  0.50400001928E-02 0. -1.
       -1    1    3    3    0  502  0.10111018429E+04  0.33965777011E+03 -0.17200150506E+04  0.20238937996E+04  0.50400001928E-02 0.  1.
</event>
<event>
 5   0  0.1277374E-07  0.3197627E+04  0.7818609E-02  0.8189444E-01
        1   -1    0    0  501    0  0.00000000000E+00  0.00000000000E+00  0.13387983738E+04  0.13387983738E+04  0.50400001928E-02 0.  1.
       -1   -1    0    0    0  501  0.00000000000E+00  0.00000000000E+00 -0.19093270934E+04  0.19093270934E+04  0.50400001928E-02 0. -1.
    10030    2    1    2    0    0  0.00000000000E+00  0.00000000000E+00 -0.57052871961E+03  0.32481254672E+04  0.31976266247E+04 0.  0.
        5    1    3    3  502    0  0.21755089584E+03 -0.14221380290E+04 -0.99368554233E+03  0.17484959288E+04  0.46999998093E+01 0. -1.
       -5    1    3    3    0  502 -0.21755089584E+03  0.14221380290E+04  0.42315682272E+03  0.14996295384E+04  0.46999998093E+01 0.  1.
</event>
<event>
 5   0  0.1277374E-07  0.3206514E+04  0.7818609E-02  0.8187099E-01
       -1   -1    0    0    0  501  0.00000000000E+00  0.00000000000E+00  0.16012998166E+04  0.16012998166E+04  0.50400001928E-02 0.  1.
        1   -1    0    0  501    0  0.00000000000E+00  0.00000000000E+00 -0.16052162262E+04  0.16052162262E+04  0.50400001928E-02 0. -1.
    10030    2    1    2    0    0  0.00000000000E+00  0.00000000000E+00 -0.39164096313E+01  0.32065160428E+04  0.32065136510E+04 0.  0.
        5    1    3    3  502    0  0.13499617277E+04 -0.45077896461E+03  0.73615616987E+03  0.16023564952E+04  0.46999998093E+01 0.  1.
       -5    1    3    3    0  502 -0.13499617277E+04  0.45077896461E+03 -0.74007257950E+03  0.16041595476E+04  0.46999998093E+01 0. -1.
</event>
<event>
 5   0  0.3858721E-07  0.3196363E+04  0.7818609E-02  0.8189778E-01
       -2   -1    0    0    0  501  0.00000000000E+00  0.00000000000E+00  0.13953169333E+04  0.13953169333E+04  0.25500000920E-02 0.  1.
        2   -1    0    0  501    0  0.00000000000E+00  0.00000000000E+00 -0.18305403077E+04  0.18305403077E+04  0.25500000920E-02 0. -1.
    10030    2    1    2    0    0  0.00000000000E+00  0.00000000000E+00 -0.43522337437E+03  0.32258572410E+04  0.31963628633E+04 0.  0.
        2    1    3    3  502    0  0.39744130072E+02  0.15252935641E+04 -0.69748193508E+03  0.16776713332E+04  0.25500000920E-02 0.  1.
       -2    1    3    3    0  502 -0.39744130072E+02 -0.15252935641E+04  0.26225856070E+03  0.15481859078E+04  0.25500000920E-02 0. -1.
</event>
<event>
 5   0  0.1365455E-07  0.3229356E+04  0.7818609E-02  0.8181107E-01
       -1   -1    0    0    0  501  0.00000000000E+00  0.00000000000E+00  0.15671801926E+04  0.15671801926E+04  0.50400001928E-02 0.  1.
        1   -1    0    0  501    0  0.00000000000E+00  0.00000000000E+00 -0.16636150911E+04  0.16636150911E+04  0.50400001928E-02 0. -1.
    10030    2    1    2    0    0  0.00000000000E+00  0.00000000000E+00 -0.96434898439E+02  0.32307952837E+04  0.32293557369E+04 0.  0.
        3    1    3    3  502    0  0.64303242679E+02 -0.15952472002E+04  0.19321163624E+03  0.16081913080E+04  0.10100000352E+00 0. -1.
       -3    1    3    3    0  502 -0.64303242679E+02  0.15952472002E+04 -0.28964653467E+03  0.16226039757E+04  0.10100000352E+00 0.  1.
</event>
<event>
 5   0  0.1277374E-07  0.3194895E+04  0.7818609E-02  0.8190167E-01
       -1   -1    0    0    0  501  0.00000000000E+00  0.00000000000E+00  0.21677242030E+04  0.21677242030E+04  0.50400001928E-02 0.  1.
        1   -1    0    0  501    0  0.00000000000E+00  0.00000000000E+00 -0.11771967768E+04  0.11771967769E+04  0.50400001928E-02 0. -1.
    10030    2    1    2    0    0  0.00000000000E+00  0.00000000000E+00  0.99052742613E+03  0.33449209798E+04  0.31948946429E+04 0.  0.
        5    1    3    3  502    0  0.13628672281E+04  0.45531605942E+03  0.12259595441E+04  0.18888405674E+04  0.46999998093E+01 0.  1.
       -5    1    3    3    0  502 -0.13628672281E+04 -0.45531605942E+03 -0.23543211796E+03  0.14560804124E+04  0.46999998093E+01 0. -1.
</event>
<event>
 5   0  0.1230450E-07  0.3199031E+04  0.7818609E-02  0.8189073E-01
        4   -1    0    0  501    0  0.00000000000E+00  0.00000000000E+00  0.16708831627E+04  0.16708836453E+04  0.12699999809E+01 0.  1.
       -4   -1    0    0    0  501  0.00000000000E+00  0.00000000000E+00 -0.15311947412E+04  0.15311952678E+04  0.12699999809E+01 0. -1.
    10030    2    1    2    0    0  0.00000000000E+00  0.00000000000E+00  0.13968842154E+03  0.32020789132E+04  0.31990305580E+04 0.  0.
        3    1    3    3  502    0 -0.41148986853E+02  0.15329699448E+04  0.52498512938E+03  0.16208946564E+04  0.10100000352E+00 0.  1.
       -3    1    3    3    0  502  0.41148986853E+02 -0.15329699448E+04 -0.38529670783E+03  0.15811842568E+04  0.10100000352E+00 0. -1.
</event>
<event>
 5   0  0.3942564E-07  0.3197196E+04  0.7818609E-02  0.8189558E-01
        2   -1    0    0  501    0  0.00000000000E+00  0.00000000000E+00  0.18523207917E+04  0.18523207918E+04  0.25500000920E-02 0. -1.
       -2   -1    0    0    0  501  0.00000000000E+00  0.00000000000E+00 -0.13796294245E+04  0.13796294245E+04  0.25500000920E-02 0.  1.
    10030    2    1    2    0    0  0.00000000000E+00  0.00000000000E+00  0.47269136727E+03  0.32319502162E+04  0.31971964393E+04 0.  0.
        3    1    3    3  502    0  0.11136069457E+04  0.42040543612E+03  0.13150227347E+04  0.17737378507E+04  0.10100000352E+00 0. -1.
       -3    1    3    3    0  502 -0.11136069457E+04 -0.42040543612E+03 -0.84233136742E+03  0.14582123655E+04  0.10100000352E+00 0.  1.
</event>
<event>
 5   0  0.1277374E-07  0.3200404E+04  0.7818609E-02  0.8188710E-01
        1   -1    0    0  501    0  0.00000000000E+00  0.00000000000E+00  0.15048556979E+04  0.15048556979E+04  0.50400001928E-02 0.  1.
       -1   -1    0    0    0  501  0.00000000000E+00  0.00000000000E+00 -0.17015893229E+04  0.17015893230E+04  0.50400001928E-02 0. -1.
    10030    2    1    2    0    0  0.00000000000E+00  0.00000000000E+00 -0.19673362506E+03  0.32064450208E+04  0.32004039671E+04 0.  0.
        5    1    3    3  502    0  0.40820597298E+03 -0.12891535917E+04  0.75886216747E+03  0.15506266407E+04  0.46999998093E+01 0.  1.
       -5    1    3    3    0  502 -0.40820597298E+03  0.12891535917E+04 -0.95559579253E+03  0.16558183802E+04  0.46999998093E+01 0. -1.
</event>
<event>
 5   0  0.3858721E-07  0.3202262E+04  0.7818609E-02  0.8188220E-01
       -2   -1    0    0    0  501  0.00000000000E+00  0.00000000000E+00  0.13295241696E+04  0.13295241696E+04  0.25500000920E-02 0.  1.
        2   -1    0    0  501    0  0.00000000000E+00  0.00000000000E+00 -0.19282243901E+04  0.19282243901E+04  0.25500000920E-02 0. -1.
    10030    2    1    2    0    0  0.00000000000E+00  0.00000000000E+00 -0.59870022049E+03  0.32577485597E+04  0.32022622822E+04 0.  0.
        2    1    3    3  502    0 -0.24210539638E+02  0.96995933548E+03 -0.15950806337E+04  0.18670001314E+04  0.25500000920E-02 0. -1.
       -2    1    3    3    0  502  0.24210539638E+02 -0.96995933548E+03  0.99638041324E+03  0.13907484282E+04  0.25500000920E-02 0.  1.
</event>
<event>
 5   0  0.1317293E-07  0.3201888E+04  0.7818609E-02  0.8188319E-01
        1   -1    0    0  501    0  0.00000000000E+00  0.00000000000E+00  0.15374261928E+04  0.15374261928E+04  0.50400001928E-02 0.  1.
       -1   -1    0    0    0  501  0.00000000000E+00  0.00000000000E+00 -0.16670861293E+04  0.16670861293E+04  0.50400001928E-02 0. -1.
    10030    2    1    2    0    0  0.00000000000E+00  0.00000000000E+00 -0.12965993653E+03  0.32045123221E+04  0.32018881185E+04 0.  0.
        1    1    3    3  502    0  0.46334216454E+03  0.41026946749E+03  0.14128674775E+04  0.15424660471E+04  0.50400001928E-02 0.  1.
       -1    1    3    3    0  502 -0.46334216454E+03 -0.41026946749E+03 -0.15425274140E+04  0.16620462751E+04  0.50400001928E-02 0. -1.
</event>
<event>
 5   0  0.3942564E-07  0.3196564E+04  0.7818609E-02  0.8189725E-01
       -2   -1    0    0    0  501  0.00000000000E+00  0.00000000000E+00  0.14780640320E+04  0.14780640320E+04  0.25500000920E-02 0. -1.
        2   -1    0    0  501    0  0.00000000000E+00  0.00000000000E+00 -0.17282779983E+04  0.17282779984E+04  0.25500000920E-02 0.  1.
    10030    2    1    2    0    0  0.00000000000E+00  0.00000000000E+00 -0.25021396636E+03  0.32063420303E+04  0.31965641221E+04 0.  0.
        3    1    3    3  502    0 -0.89664271676E+03 -0.10629484020E+04 -0.91534810932E+03  0.16648392230E+04  0.10100000352E+00 0.  1.
       -3    1    3    3    0  502  0.89664271676E+03  0.10629484020E+04  0.66513414297E+03  0.15415028074E+04  0.10100000352E+00 0. -1.
</event>
<event>
 5   0  0.1288096E-07  0.3203890E+04  0.7818609E-02  0.8187791E-01
        1   -1    0    0  501    0  0.00000000000E+00  0.00000000000E+00  0.20910596982E+04  0.20910596982E+04  0.50400001928E-02 0.  1.
       -1   -1    0    0    0  501  0.00000000000E+00  0.00000000000E+00 -0.12272378410E+04  0.12272378410E+04  0.50400001928E-02 0. -1.
    10030    2    1    2    0    0  0.00000000000E+00  0.00000000000E+00  0.86382185717E+03  0.33182975391E+04  0.32038898791E+04 0.  0.
        2    1    3    3  502    0  0.85848923131E+03 -0.14285409215E+03  0.18248592503E+04  0.20217621856E+04  0.25500000920E-02 0.  1.
       -2    1    3    3    0  502 -0.85848923131E+03  0.14285409215E+03 -0.96103739312E+03  0.12965353535E+04  0.25500000920E-02 0. -1.
</event>
<event>
 5   0  0.1365455E-07  0.3182937E+04  0.7818609E-02  0.8193338E-01
        1   -1    0    0  501    0  0.00000000000E+00  0.00000000000E+00  0.14506857026E+04  0.14506857026E+04  0.50400001928E-02 0.  1.
       -1   -1    0    0    0  501  0.00000000000E+00  0.00000000000E+00 -0.17459133299E+04  0.17459133299E+04  0.50400001928E-02 0. -1.
    10030    2    1    2    0    0  0.00000000000E+00  0.00000000000E+00 -0.29522762730E+03  0.31965990325E+04  0.31829366979E+04 0.  0.
        3    1    3    3  502    0 -0.86771330232E+03 -0.53486864414E+03  0.10798273115E+04  0.14849369934E+04  0.10100000352E+00 0.  1.
       -3    1    3    3    0  502  0.86771330232E+03  0.53486864414E+03 -0.13750549388E+04  0.17116620392E+04  0.10100000352E+00 0. -1.
</event>
<event>
 5   0  0.1277374E-07  0.3207655E+04  0.7818609E-02  0.8186798E-01
        1   -1    0    0  501    0  0.00000000000E+00  0.00000000000E+00  0.14102497067E+04  0.14102497067E+04  0.50400001928E-02 0. -1.
       -1   -1    0    0    0  501  0.00000000000E+00  0.00000000000E+00 -0.18239770588E+04  0.18239770588E+04  0.50400001928E-02 0.  1.
    10030    2    1    2    0    0  0.00000000000E+00  0.00000000000E+00 -0.41372735213E+03  0.32342267656E+04  0.32076552884E+04 0.  0.
        5    1    3    3  502    0  0.14249098591E+04  0.47548309647E+03  0.35974223000E+03  0.15446322681E+04  0.46999998093E+01 0. -1.
       -5    1    3    3    0  502 -0.14249098591E+04 -0.47548309647E+03 -0.77346958213E+03  0.16895944975E+04  0.46999998093E+01 0.  1.
</event>
<event>
 5   0  0.1288096E-07  0.3204148E+04  0.7818609E-02  0.8187723E-01
        1   -1    0    0  501    0  0.00000000000E+00  0.00000000000E+00  0.23198062904E+04  0.23198062904E+04  0.50400001928E-02 0.  1.
       -1   -1    0    0    0  501  0.00000000000E+00  0.00000000000E+00 -0.11064031482E+04  0.11064031482E+04  0.50400001928E-02 0. -1.
    10030    2    1    2    0    0  0.00000000000E+00  0.00000000000E+00  0.12134031423E+04  0.34262094386E+04  0.32041479260E+04 0.  0.
        2    1    3    3  502    0  0.10767537454E+04 -0.87720313168E+03  0.14606447488E+04  0.20155314546E+04  0.25500000920E-02 0.  1.
       -2    1    3    3    0  502 -0.10767537454E+04  0.87720313168E+03 -0.24724160652E+03  0.14106779840E+04  0.25500000920E-02 0. -1.
</event>
<event>
 5   0  0.3830207E-07  0.3199091E+04  0.7818609E-02  0.8189057E-01
        2   -1    0    0  501    0  0.00000000000E+00  0.00000000000E+00  0.11257478827E+04  0.11257478827E+04  0.25500000920E-02 0.  1.
       -2   -1    0    0    0  501  0.00000000000E+00  0.00000000000E+00 -0.22727517432E+04  0.22727517432E+04  0.25500000920E-02 0. -1.
    10030    2    1    2    0    0  0.00000000000E+00  0.00000000000E+00 -0.11470038605E+04  0.33984996259E+04  0.31990907850E+04 0.  0.
        4    1    3    3  502    0  0.52392827415E+03 -0.12871430499E+04 -0.14148976667E+04  0.19832234084E+04  0.12699999809E+01 0. -1.
       -4    1    3    3    0  502 -0.52392827415E+03  0.12871430499E+04  0.26789380620E+03  0.14152762175E+04  0.12699999809E+01 0.  1.
</event>
<event>
 5   0  0.1270948E-07  0.3185240E+04  0.7818609E-02  0.8192726E-01
       -1   -1    0    0    0  501  0.00000000000E+00  0.00000000000E+00  0.96714887296E+03  0.96714887297E+03  0.50400001928E-02 0. -1.
        1   -1    0    0  501    0  0.00000000000E+00  0.00000000000E+00 -0.26225935714E+04  0.26225935714E+04  0.50400001928E-02 0.  1.
    10030    2    1    2    0    0  0.00000000000E+00  0.00000000000E+00 -0.16554446984E+04  0.35897424443E+04  0.31852399701E+04 0.  0.
        4    1    3    3  502    0  0.10952063534E+03 -0.66096382830E+03  0.80060432533E+03  0.10439525135E+04  0.12699999809E+01 0. -1.
       -4    1    3    3    0  502 -0.10952063534E+03  0.66096382830E+03 -0.24560490237E+04  0.25457899308E+04  0.12699999809E+01 0.  1.
</event>
<event>
 5   0  0.1277374E-07  0.3192766E+04  0.7818609E-02  0.8190730E-01
       -1   -1    0    0    0  501  0.00000000000E+00  0.00000000000E+00  0.17422402658E+04  0.17422402658E+04  0.50400001928E-02 0. -1.
        1   -1    0    0  501    0  0.00000000000E+00  0.00000000000E+00 -0.14627366101E+04  0.14627366101E+04  0.50400001928E-02 0.  1.
    10030    2    1    2    0    0  0.00000000000E+00  0.00000000000E+00  0.27950365575E+03  0.32049768759E+04  0.31927659610E+04 0.  0.
        5    1    3    3  502    0 -0.26409486494E+03 -0.83213218305E+03 -0.12018575190E+04  0.14854876821E+04  0.46999998093E+01 0.  1.
       -5    1    3    3    0  502  0.26409486494E+03  0.83213218305E+03  0.14813611747E+04  0.17194891938E+04  0.46999998093E+01 0. -1.
</event>
<event>
 5   0  0.1288096E-07  0.3197334E+04  0.7818609E-02  0.8189522E-01
       -1   -1    0    0    0  501  0.00000000000E+00  0.00000000000E+00  0.10497459980E+04  0.10497459980E+04  0.50400001928E-02 0.  1.
        1   -1    0    0  501    0  0.00000000000E+00  0.00000000000E+00 -0.24346236590E+04  0.24346236590E+04  0.50400001928E-02 0. -1.
    10030    2    1    2    0    0  0.00000000000E+00  0.00000000000E+00 -0.13848776610E+04  0.34843696570E+04  0.31973341663E+04 0.  0.
        2    1    3    3  502    0 -0.11757858332E+04 -0.10706666843E+04 -0.51357993247E+03  0.16710965926E+04  0.25500000920E-02 0.  1.
       -2    1    3    3    0  502  0.11757858332E+04  0.10706666843E+04 -0.87129772858E+03  0.18132730645E+04  0.25500000920E-02 0. -1.
</event>
<event>
 5   0  0.3750285E-07  0.3187901E+04  0.7818609E-02  0.8192020E-01
       -2   -1    0    0    0  501  0.00000000000E+00  0.00000000000E+00  0.17304754234E+04  0.17304754234E+04  0.25500000920E-02 0.  1.
        2   -1    0    0  501    0  0.00000000000E+00  0.00000000000E+00 -0.14681966684E+04  0.14681966684E+04  0.25500000920E-02 0. -1.
    10030    2    1    2    0    0  0.00000000000E+00  0.00000000000E+00  0.26227875500E+03  0.31986720918E+04  0.31879010344E+04 0.  0.
        1    1    3    3  502    0 -0.12496891746E+04 -0.30661000102E+03  0.10750332339E+04  0.16767316958E+04  0.50400001928E-02 0.  1.
       -1    1    3    3    0  502  0.12496891746E+04  0.30661000102E+03 -0.81275447893E+03  0.15219403959E+04  0.50400001928E-02 0. -1.
</event>
<event>
 5   0  0.3942564E-07  0.3203718E+04  0.7818609E-02  0.8187836E-01
        2   -1    0    0  501    0  0.00000000000E+00  0.00000000000E+00  0.29330991557E+04  0.29330991557E+04  0.25500000920E-02 0. -1.
       -2   -1    0    0    0  501  0.00000000000E+00  0.00000000000E+00 -0.87482618340E+03  0.87482618341E+03  0.25500000920E-02 0.  1.
    10030    2    1    2    0    0  0.00000000000E+00  0.00000000000E+00  0.20582729723E+04  0.38079253391E+04  0.32037178028E+04 0.  0.
        3    1    3    3  502    0  0.90792546844E+02  0.15346947042E+04  0.49437299811E+03  0.16149104598E+04  0.10100000352E+00 0. -1.
       -3    1    3    3    0  502 -0.90792546844E+02 -0.15346947042E+04  0.15638999742E+04  0.21930148794E+04  0.10100000352E+00 0.  1.
</event>
<event>
 5   0  0.3942564E-07  0.3187604E+04  0.7818609E-02  0.8192099E-01
        2   -1    0    0  501    0  0.00000000000E+00  0.00000000000E+00  0.16487452024E+04  0.16487452024E+04  0.25500000920E-02 0.  1.
       -2   -1    0    0    0  501  0.00000000000E+00  0.00000000000E+00 -0.15406893048E+04  0.15406893048E+04  0.25500000920E-02 0. -1.
    10030    2    1    2    0    0  0.00000000000E+00  0.00000000000E+00  0.10805589757E+03  0.31894345072E+04  0.31876035511E+04 0.  0.
        3    1    3    3  502    0 -0.26839797299E+03  0.13542025969E+04 -0.74286027319E+03  0.15677192162E+04  0.10100000352E+00 0. -1.
       -3    1    3    3    0  502  0.26839797299E+03 -0.13542025969E+04  0.85091617075E+03  0.16217152910E+04  0.10100000352E+00 0.  1.
</event>
<event>
 5   0  0.1270948E-07  0.3192932E+04  0.7818609E-02  0.8190686E-01
       -1   -1    0    0    0  501  0.00000000000E+00  0.00000000000E+00  0.10736435391E+04  0.10736435391E+04  0.50400001928E-02 0.  1.
        1   -1    0    0  501    0  0.00000000000E+00  0.00000000000E+00 -0.23738818552E+04  0.23738818552E+04  0.50400001928E-02 0. -1.
    10030    2    1    2    0    0  0.00000000000E+00  0.00000000000E+00 -0.13002383161E+04  0.34475253943E+04  0.31929315160E+04 0.  0.
        4    1    3    3  502    0 -0.11788980543E+04 -0.15474142063E+03 -0.18004091455E+04  0.21575959384E+04  0.12699999809E+01 0. -1.
       -4    1    3    3    0  502  0.11788980543E+04  0.15474142063E+03  0.50017082940E+03  0.12899294559E+04  0.12699999809E+01 0.  1.
</event>
<event>
 5   0  0.3750285E-07  0.3199903E+04  0.7818609E-02  0.8188843E-01
        2   -1    0    0  501    0  0.00000000000E+00  0.00000000000E+00  0.16855954289E+04  0.16855954289E+04  0.25500000920E-02 0.  1.
       -2   -1    0    0    0  501  0.00000000000E+00  0.00000000000E+00 -0.15186589782E+04  0.15186589782E+04  0.25500000920E-02 0. -1.
    10030    2    1    2    0    0  0.00000000000E+00  0.00000000000E+00  0.16693645078E+03  0.32042544071E+04  0.31999028934E+04 0.  0.
        1    1    3    3  502    0  0.67457306732E+03  0.31619320768E+03 -0.13343731027E+04  0.15282599730E+04  0.50400001928E-02 0. -1.
       -1    1    3    3    0  502 -0.67457306732E+03 -0.31619320768E+03  0.15013095535E+04  0.16759944341E+04  0.50400001928E-02 0.  1.
</event>
<event>
 5   0  0.1288096E-07  0.3189640E+04  0.7818609E-02  0.8191559E-01
        1   -1    0    0  501    0  0.00000000000E+00  0.00000000000E+00  0.17133916979E+04  0.17133916979E+04  0.50400001928E-02 0. -1.
       -1   -1    0    0    0  501  0.00000000000E+00  0.00000000000E+00 -0.14844536326E+04  0.14844536326E+04  0.50400001928E-02 0.  1.
    10030    2    1    2    0    0  0.00000000000E+00  0.00000000000E+00  0.22893806527E+03  0.31978453305E+04  0.31896398104E+04 0.  0.
        2    1    3    3  502    0  0.58949480486E+03 -0.12032161335E+04  0.98168985316E+03  0.16610081748E+04  0.25500000920E-02 0. -1.
       -2    1    3    3    0  502 -0.58949480486E+03  0.12032161335E+04 -0.75275178789E+03  0.15368371557E+04  0.25500000920E-02 0.  1.
</event>
<event>
 5   0  0.1317293E-07  0.3199383E+04  0.7818609E-02  0.8188980E-01
       -1   -1    0    0    0  501  0.00000000000E+00  0.00000000000E+00  0.22278709001E+04  0.22278709001E+04  0.50400001928E-02 0. -1.
        1   -1    0    0  501    0  0.00000000000E+00  0.00000000000E+00 -0.11486361110E+04  0.11486361110E+04  0.50400001928E-02 0.  1.
    10030    2    1    2    0    0  0.00000000000E+00  0.00000000000E+00  0.10792347890E+04  0.33765070111E+04  0.31993830446E+04 0.  0.
        1    1    3    3  502    0 -0.93376196898E+03  0.20062630454E+03  0.18939599445E+04  0.21211427581E+04  0.50400001928E-02 0. -1.
       -1    1    3    3    0  502  0.93376196898E+03 -0.20062630454E+03 -0.81472515548E+03  0.12553642530E+04  0.50400001928E-02 0.  1.
</event>
<event>
 5   0  0.1277374E-07  0.3199766E+04  0.7818609E-02  0.8188879E-01
       -1   -1    0    0    0  501  0.00000000000E+00  0.00000000000E+00  0.87096547798E+03  0.87096547799E+03  0.50400001928E-02 0.  1.
        1   -1    0    0  501    0  0.00000000000E+00  0.00000000000E+00 -0.29388361723E+04  0.29388361723E+04  0.50400001928E-02 0. -1.
    10030    2    1    2    0    0  0.00000000000E+00  0.00000000000E+00 -0.20678706943E+04  0.38098016503E+04  0.31997655236E+04 0.  0.
        5    1    3    3  502    0  0.13372189680E+04 -0.80372854659E+03 -0.14556821176E+04  0.21338150488E+04  0.46999998093E+01 0.  1.
       -5    1    3    3    0  502 -0.13372189680E+04  0.80372854659E+03 -0.61218857674E+03  0.16759866015E+04  0.46999998093E+01 0. -1.
</event>
<event>
 5   0  0.3858721E-07  0.3199980E+04  0.7818609E-02  0.8188822E-01
        2   -1    0    0  501    0  0.00000000000E+00  0.00000000000E+00  0.15109423927E+04  0.15109423927E+04  0.25500000920E-02 0.  1.
       -2   -1    0    0    0  501  0.00000000000E+00  0.00000000000E+00 -0.16942857492E+04  0.16942857492E+04  0.25500000920E-02 0. -1.
    10030    2    1    2    0    0  0.00000000000E+00  0.00000000000E+00 -0.18334335651E+03  0.32052281419E+04  0.31999801023E+04 0.  0.
        2    1    3    3  502    0  0.10719702365E+04  0.11081684857E+04 -0.51993643484E+03  0.16271113905E+04  0.25500000920E-02 0. -1.
       -2    1    3    3    0  502 -0.10719702365E+04 -0.11081684857E+04  0.33659307833E+03  0.15781167514E+04  0.25500000920E-02 0.  1.
</event>
<event>
 5   0  0.3750285E-07  0.3197044E+04  0.7818609E-02  0.8189598E-01
       -2   -1    0    0    0  501  0.00000000000E+00  0.00000000000E+00  0.11768653884E+04  0.11768653884E+04  0.25500000920E-02 0.  1.
        2   -1    0    0  501    0  0.00000000000E+00  0.00000000000E+00 -0.21712536331E+04  0.21712536331E+04  0.25500000920E-02 0. -1.
    10030    2    1    2    0    0  0.00000000000E+00  0.00000000000E+00 -0.99438824473E+03  0.33481190216E+04  0.31970444165E+04 0.  0.
        1    1    3    3  502    0 -0.12077360486E+04  0.18794157641E+03 -0.15760821778E+04  0.19944882628E+04  0.50400001928E-02 0. -1.
       -1    1    3    3    0  502  0.12077360486E+04 -0.18794157641E+03  0.58169393306E+03  0.13536307588E+04  0.50400001928E-02 0.  1.
</event>
<event>
 5   0  0.3764056E-07  0.3209046E+04  0.7818609E-02  0.8186432E-01
        2   -1    0    0  501    0  0.00000000000E+00  0.00000000000E+00  0.18071359223E+04  0.18071359223E+04  0.25500000920E-02 0. -1.
       -2   -1    0    0    0  501  0.00000000000E+00  0.00000000000E+00 -0.14246267860E+04  0.14246267860E+04  0.25500000920E-02 0.  1.
    10030    2    1    2    0    0  0.00000000000E+00  0.00000000000E+00  0.38250913626E+03  0.32317627083E+04  0.32090461143E+04 0.  0.
        5    1    3    3  502    0 -0.15036025230E+04 -0.46674707428E+03  0.50295936011E+03  0.16527745117E+04  0.46999998093E+01 0.  1.
       -5    1    3    3    0  502  0.15036025230E+04  0.46674707428E+03 -0.12045022385E+03  0.15789881966E+04  0.46999998093E+01 0. -1.
</event>
<event>
 5   0  0.1288096E-07  0.3201451E+04  0.7818609E-02  0.8188434E-01
        1   -1    0    0  501    0  0.00000000000E+00  0.00000000000E+00  0.17045037991E+04  0.17045037991E+04  0.50400001928E-02 0.  1.
       -1   -1    0    0    0  501  0.00000000000E+00  0.00000000000E+00 -0.15032659118E+04  0.15032659118E+04  0.50400001928E-02 0. -1.
    10030    2    1    2    0    0  0.00000000000E+00  0.00000000000E+00  0.20123788730E+03  0.32077697110E+04  0.32014512071E+04 0.  0.
        2    1    3    3  502    0 -0.86113000196E+02  0.17579162127E+03 -0.14912281235E+04  0.15040210967E+04  0.25500000920E-02 0. -1.
       -2    1    3    3    0  502  0.86113000196E+02 -0.17579162127E+03  0.16924660108E+04  0.17037486143E+04  0.25500000920E-02 0.  1.
</event>
<event>
 5   0  0.3830207E-07  0.3195477E+04  0.7818609E-02  0.8190013E-01
       -2   -1    0    0    0  501  0.00000000000E+00  0.00000000000E+00  0.12665672960E+04  0.12665672960E+04  0.25500000920E-02 0.  1.
        2   -1    0    0  501    0  0.00000000000E+00  0.00000000000E+00 -0.20155018075E+04  0.20155018075E+04  0.25500000920E-02 0. -1.
    10030    2    1    2    0    0  0.00000000000E+00  0.00000000000E+00 -0.74893451144E+03  0.32820691035E+04  0.31954772254E+04 0.  0.
        4    1    3    3  502    0 -0.13097090621E+04  0.60481469249E+03 -0.10798291252E+04  0.18019908968E+04  0.12699999809E+01 0. -1.
       -4    1    3    3    0  502  0.13097090621E+04 -0.60481469249E+03  0.33089461374E+03  0.14800782067E+04  0.12699999809E+01 0.  1.
</event>
<event>
 5   0  0.3750285E-07  0.3258035E+04  0.7818609E-02  0.8173656E-01
       -2   -1    0    0    0  501  0.00000000000E+00  0.00000000000E+00  0.13251468661E+04  0.13251468661E+04  0.25500000920E-02 0.  1.
        2   -1    0    0  501    0  0.00000000000E+00  0.00000000000E+00 -0.20025694740E+04  0.20025694740E+04  0.25500000920E-02 0. -1.
    10030    2    1    2    0    0  0.00000000000E+00  0.00000000000E+00 -0.67742260795E+03  0.33277163401E+04  0.32580353974E+04 0.  0.
        1    1    3    3  502    0 -0.70911400624E+03 -0.14799584994E+03  0.11515882101E+04  0.13604781700E+04  0.50400001928E-02 0.  1.
       -1    1    3    3    0  502  0.70911400624E+03  0.14799584994E+03 -0.18290108180E+04  0.19672381701E+04  0.50400001928E-02 0. -1.
</event>
<event>
 5   0  0.1317293E-07  0.3194420E+04  0.7818609E-02  0.8190292E-01
       -1   -1    0    0    0  501  0.00000000000E+00  0.00000000000E+00  0.28642006026E+04  0.28642006027E+04  0.50400001928E-02 0. -1.
        1   -1    0    0  501    0  0.00000000000E+00  0.00000000000E+00 -0.89067770858E+03  0.89067770859E+03  0.50400001928E-02 0.  1.
    10030    2    1    2    0    0  0.00000000000E+00  0.00000000000E+00  0.19735228941E+04  0.37548783112E+04  0.31944199033E+04 0.  0.
        1    1    3    3  502    0  0.21753492036E+02  0.15808455123E+04  0.71992184096E+03  0.17371911827E+04  0.50400001928E-02 0. -1.
       -1    1    3    3    0  502 -0.21753492036E+02 -0.15808455123E+04  0.12536010531E+04  0.20176871285E+04  0.50400001928E-02 0.  1.
</event>
<event>
 5   0  0.1277374E-07  0.3201413E+04  0.7818609E-02  0.8188444E-01
       -1   -1    0    0    0  501  0.00000000000E+00  0.00000000000E+00  0.14144621285E+04  0.14144621285E+04  0.50400001928E-02 0.  1.
        1   -1    0    0  501    0  0.00000000000E+00  0.00000000000E+00 -0.18114736466E+04  0.18114736466E+04  0.50400001928E-02 0. -1.
    10030    2    1    2    0    0  0.00000000000E+00  0.00000000000E+00 -0.39701151806E+03  0.32259357751E+04  0.32014127318E+04 0.  0.
        5    1    3    3  502    0  0.56539714910E+03  0.10966620373E+04  0.82905913277E+03  0.14865068771E+04  0.46999998093E+01 0.  1.
       -5    1    3    3    0  502 -0.56539714910E+03 -0.10966620373E+04 -0.12260706508E+04  0.17394288979E+04  0.46999998093E+01 0. -1.
</event>
<event>
 5   0  0.3764056E-07  0.3198610E+04  0.7818609E-02  0.8189184E-01
        2   -1    0    0  501    0  0.00000000000E+00  0.00000000000E+00  0.16857004336E+04  0.16857004336E+04  0.25500000920E-02 0.  1.
       -2   -1    0    0    0  501  0.00000000000E+00  0.00000000000E+00 -0.15173377784E+04  0.15173377784E+04  0.25500000920E-02 0. -1.
    10030    2    1    2    0    0  0.00000000000E+00  0.00000000000E+00  0.16836265520E+03  0.32030382119E+04  0.31986102925E+04 0.  0.
        5    1    3    3  502    0 -0.14483478496E+04 -0.33693640101E+03  0.67365336138E+03  0.16325037743E+04  0.46999998093E+01 0.  1.
       -5    1    3    3    0  502  0.14483478496E+04  0.33693640101E+03 -0.50529070618E+03  0.15705344376E+04  0.46999998093E+01 0. -1.
</event>
<event>
 5   0  0.3764056E-07  0.3203914E+04  0.7818609E-02  0.8187784E-01
        2   -1    0    0  501    0  0.00000000000E+00  0.00000000000E+00  0.15767189465E+04  0.15767189465E+04  0.25500000920E-02 0. -1.
       -2   -1    0    0    0  501  0.00000000000E+00  0.00000000000E+00 -0.16275991264E+04  0.16275991264E+04  0.25500000920E-02 0.  1.
    10030    2    1    2    0    0  0.00000000000E+00  0.00000000000E+00 -0.50880179856E+02  0.32043180729E+04  0.32039140937E+04 0.  0.
        5    1    3    3  502    0  0.15605150846E+03 -0.14434212303E+04 -0.70259810790E+03  0.16129113778E+04  0.46999998093E+01 0. -1.
       -5    1    3    3    0  502 -0.15605150846E+03  0.14434212303E+04  0.65171792804E+03  0.15914066951E+04  0.46999998093E+01 0.  1.
</event>
<event>
 5   0  0.3764056E-07  0.3198718E+04  0.7818609E-02  0.8189156E-01
        2   -1    0    0  501    0  0.00000000000E+00  0.00000000000E+00  0.32390520024E+04  0.32390520024E+04  0.25500000920E-02 0. -1.
       -2   -1    0    0    0  501  0.00000000000E+00  0.00000000000E+00 -0.78972132021E+03  0.78972132022E+03  0.25500000920E-02 0.  1.
    10030    2    1    2    0    0  0.00000000000E+00  0.00000000000E+00  0.24493306821E+04  0.40287733226E+04  0.31987175077E+04 0.  0.
        5    1    3    3  502    0  0.32591803445E+03 -0.12770405696E+04  0.23657935517E+04  0.27081463035E+04  0.46999998093E+01 0. -1.
       -5    1    3    3    0  502 -0.32591803445E+03  0.12770405696E+04  0.83537130403E+02  0.13206270191E+04  0.46999998093E+01 0.  1.
</event>
<event>
 5   0  0.3830207E-07  0.3209460E+04  0.7818609E-02  0.8186323E-01
       -2   -1    0    0    0  501  0.00000000000E+00  0.00000000000E+00  0.10613932025E+04  0.10613932025E+04  0.25500000920E-02 0.  1.
        2   -1    0    0  501    0  0.00000000000E+00  0.00000000000E+00 -0.24262051169E+04  0.24262051169E+04  0.25500000920E-02 0. -1.
    10030    2    1    2    0    0  0.00000000000E+00  0.00000000000E+00 -0.13648119144E+04  0.34875983194E+04  0.32094595302E+04 0.  0.
        4    1    3    3  502    0  0.13685492046E+04  0.48932533956E+03 -0.14216476309E+04  0.20330887371E+04  0.12699999809E+01 0. -1.
       -4    1    3    3    0  502 -0.13685492046E+04 -0.48932533956E+03  0.56835716516E+02  0.14545095823E+04  0.12699999809E+01 0.  1.
</event>
<event>
 5   0  0.3830207E-07  0.3197602E+04  0.7818609E-02  0.8189451E-01
       -2   -1    0    0    0  501  0.00000000000E+00  0.00000000000E+00  0.15791292782E+04  0.15791292782E+04  0.25500000920E-02 0.  1.
        2   -1    0    0  501    0  0.00000000000E+00  0.00000000000E+00 -0.16187181442E+04  0.16187181442E+04  0.25500000920E-02 0. -1.
    10030    2    1    2    0    0  0.00000000000E+00  0.00000000000E+00 -0.39588865969E+02  0.31978474224E+04  0.31976023609E+04 0.  0.
        4    1    3    3  502    0  0.62032257167E+03 -0.72295063761E+03 -0.13039122644E+04  0.16148208951E+04  0.12699999809E+01 0. -1.
       -4    1    3    3    0  502 -0.62032257167E+03  0.72295063761E+03  0.12643233984E+04  0.15830265272E+04  0.12699999809E+01 0.  1.
</event>
<event>
 5   0  0.1277374E-07  0.3213945E+04  0.7818609E-02  0.8185144E-01
        1   -1    0    0  501    0  0.00000000000E+00  0.00000000000E+00  0.17193381556E+04  0.17193381556E+04  0.50400001928E-02 0.  1.
       -1   -1    0    0    0  501  0.00000000000E+00  0.00000000000E+00 -0.15019502056E+04  0.15019502056E+04  0.50400001928E-02 0. -1.
    10030    2    1    2    0    0  0.00000000000E+00  0.00000000000E+00  0.21738795000E+03  0.32212883612E+04  0.32139448012E+04 0.  0.
        5    1    3    3  502    0 -0.13772785252E+04  0.79346054405E+03 -0.12819842225E+03  0.15946575483E+04  0.46999998093E+01 0. -1.
       -5    1    3    3    0  502  0.13772785252E+04 -0.79346054405E+03  0.34558637225E+03  0.16266308129E+04  0.46999998093E+01 0.  1.
</event>
<event>
 5   0  0.3942564E-07  0.3197039E+04  0.7818609E-02  0.8189600E-01
        2   -1    0    0  501    0  0.00000000000E+00  0.00000000000E+00  0.26156650788E+04  0.26156650788E+04  0.25500000920E-02 0.  1.
       -2   -1    0    0    0  501  0.00000000000E+00  0.00000000000E+00 -0.97690828902E+03  0.97690828903E+03  0.25500000920E-02 0. -1.
    10030    2    1    2    0    0  0.00000000000E+00  0.00000000000E+00  0.16387567898E+04  0.35925733678E+04  0.31970391907E+04 0.  0.
        3    1    3    3  502    0  0.13546982318E+04 -0.40137375490E+03  0.16595089260E+04  0.21795132658E+04  0.10100000352E+00 0.  1.
       -3    1    3    3    0  502 -0.13546982318E+04  0.40137375490E+03 -0.20752136200E+02  0.14130601020E+04  0.10100000352E+00 0. -1.
</event>
<event>
 5   0  0.3858721E-07  0.3208270E+04  0.7818609E-02  0.8186637E-01
        2   -1    0    0  501    0  0.00000000000E+00  0.00000000000E+00  0.25251617903E+04  0.25251617903E+04  0.25500000920E-02 0.  1.
       -2   -1    0    0    0  501  0.00000000000E+00  0.00000000000E+00 -0.10190431927E+04  0.10190431927E+04  0.25500000920E-02 0. -1.
    10030    2    1    2    0    0  0.00000000000E+00  0.00000000000E+00  0.15061185976E+04  0.35442049831E+04  0.32082698970E+04 0.  0.
        2    1    3    3  502    0  0.86043532460E+03 -0.26006462252E+03  0.22208125809E+04  0.23958278475E+04  0.25500000920E-02 0.  1.
       -2    1    3    3    0  502 -0.86043532460E+03  0.26006462252E+03 -0.71469398323E+03  0.11483771355E+04  0.25500000920E-02 0. -1.
</event>
<event>
 5   0  0.1365455E-07  0.3193285E+04  0.7818609E-02  0.8190593E-01
        1   -1    0    0  501    0  0.00000000000E+00  0.00000000000E+00  0.20799251777E+04  0.20799251777E+04  0.50400001928E-02 0. -1.
       -1   -1    0    0    0  501  0.00000000000E+00  0.00000000000E+00 -0.12256535282E+04  0.12256535282E+04  0.50400001928E-02 0.  1.
    10030    2    1    2    0    0  0.00000000000E+00  0.00000000000E+00  0.85427164947E+03  0.33055787059E+04  0.31932852253E+04 0.  0.
        3    1    3    3  502    0 -0.30532828805E+03  0.10710134292E+04  0.16114721523E+04  0.19588613113E+04  0.10100000352E+00 0. -1.
       -3    1    3    3    0  502  0.30532828805E+03 -0.10710134292E+04 -0.75720050287E+03  0.13467173946E+04  0.10100000352E+00 0.  1.
</event>
<event>
 5   0  0.3764056E-07  0.3195976E+04  0.7818609E-02  0.8189881E-01
        2   -1    0    0  501    0  0.00000000000E+00  0.00000000000E+00  0.16377634767E+04  0.16377634767E+04  0.25500000920E-02 0. -1.
       -2   -1    0    0    0  501  0.00000000000E+00  0.00000000000E+00 -0.15591782670E+04  0.15591782670E+04  0.25500000920E-02 0.  1.
    10030    2    1    2    0    0  0.00000000000E+00  0.00000000000E+00  0.78585209691E+02  0.31969417436E+04  0.31959757316E+04 0.  0.
        5    1    3    3  502    0  0.64687674271E+03  0.10222554214E+03  0.14973488885E+04  0.16343118936E+04  0.46999998093E+01 0. -1.
       -5    1    3    3    0  502 -0.64687674271E+03 -0.10222554214E+03 -0.14187636788E+04  0.15626298500E+04  0.46999998093E+01 0.  1.
</event>
<event>
 5   0  0.3858721E-07  0.3199219E+04  0.7818609E-02  0.8189023E-01
       -2   -1    0    0    0  501  0.00000000000E+00  0.00000000000E+00  0.11980204949E+04  0.11980204949E+04  0.25500000920E-02 0. -1.
        2   -1    0    0  501    0  0.00000000000E+00  0.00000000000E+00 -0.21358159938E+04  0.21358159938E+04  0.25500000920E-02 0.  1.
    10030    2    1    2    0    0  0.00000000000E+00  0.00000000000E+00 -0.93779549888E+03  0.33338364888E+04  0.31992194886E+04 0.  0.
        2    1    3    3  502    0  0.24844638320E+03  0.36652572595E+03 -0.20706787431E+04  0.21174931334E+04  0.25500000920E-02 0.  1.
       -2    1    3    3    0  502 -0.24844638320E+03 -0.36652572595E+03  0.11328832442E+04  0.12163433553E+04  0.25500000920E-02 0. -1.
</event>
<event>
 5   0  0.1317293E-07  0.3202545E+04  0.7818609E-02  0.8188145E-01
       -1   -1    0    0    0  501  0.00000000000E+00  0.00000000000E+00  0.18435281502E+04  0.18435281502E+04  0.50400001928E-02 0.  1.
        1   -1    0    0  501    0  0.00000000000E+00  0.00000000000E+00 -0.13908517700E+04  0.13908517700E+04  0.50400001928E-02 0. -1.
    10030    2    1    2    0    0  0.00000000000E+00  0.00000000000E+00  0.45267638021E+03  0.32343799201E+04  0.32025454817E+04 0.  0.
        1    1    3    3  502    0 -0.24856935667E+03  0.93426248515E+03 -0.10628463310E+04  0.14367586574E+04  0.50400001928E-02 0. -1.
       -1    1    3    3    0  502  0.24856935667E+03 -0.93426248515E+03  0.15155227112E+04  0.17976212628E+04  0.50400001928E-02 0.  1.
</event>
<event>
 5   0  0.3764056E-07  0.3128149E+04  0.7818609E-02  0.8208055E-01
        2   -1    0    0  501    0  0.00000000000E+00  0.00000000000E+00  0.15769613782E+04  0.15769613782E+04  0.25500000920E-02 0. -1.
       -2   -1    0    0    0  501  0.00000000000E+00  0.00000000000E+00 -0.15512927517E+04  0.15512927517E+04  0.25500000920E-02 0.  1.
    10030    2    1    2    0    0  0.00000000000E+00  0.00000000000E+00  0.25668626483E+02  0.31282541299E+04  0.31281488173E+04 0.  0.
        5    1    3    3  502    0 -0.16673739002E+03 -0.12778125556E+04 -0.87359294549E+03  0.15568535605E+04  0.46999998093E+01 0. -1.
       -5    1    3    3    0  502  0.16673739002E+03  0.12778125556E+04  0.89926157198E+03  0.15714005694E+04  0.46999998093E+01 0.  1.
</event>
<event>
 5   0  0.1230450E-07  0.3201286E+04  0.7818609E-02  0.8188478E-01
        4   -1    0    0  501    0  0.00000000000E+00  0.00000000000E+00  0.16902015207E+04  0.16902019978E+04  0.12699999809E+01 0. -1.
       -4   -1    0    0    0  501  0.00000000000E+00  0.00000000000E+00 -0.15158286015E+04  0.15158291335E+04  0.12699999809E+01 0.  1.
    10030    2    1    2    0    0  0.00000000000E+00  0.00000000000E+00  0.17437291926E+03  0.32060311313E+04  0.32012856324E+04 0.  0.
        1    1    3    3  502    0  0.14150281687E+04  0.37793808760E+03 -0.55946064153E+03  0.15678450579E+04  0.50400001928E-02 0.  1.
       -1    1    3    3    0  502 -0.14150281687E+04 -0.37793808760E+03  0.73383356079E+03  0.16381860734E+04  0.50400001928E-02 0. -1.
</event>
<event>
 5   0  0.3942564E-07  0.3192845E+04  0.7818609E-02  0.8190709E-01
        2   -1    0    0  501    0  0.00000000000E+00  0.00000000000E+00  0.12788117997E+04  0.12788117997E+04  0.25500000920E-02 0.  1.
       -2   -1    0    0    0  501  0.00000000000E+00  0.00000000000E+00 -0.19929158494E+04  0.19929158494E+04  0.25500000920E-02 0. -1.
    10030    2    1    2    0    0  0.00000000000E+00  0.00000000000E+00 -0.71410404970E+03  0.32717276491E+04  0.31928446902E+04 0.  0.
        3    1    3    3  502    0 -0.12050317505E+04 -0.10429953105E+04 -0.45220942233E+03  0.16566333660E+04  0.10100000352E+00 0.  1.
       -3    1    3    3    0  502  0.12050317505E+04  0.10429953105E+04 -0.26189462737E+03  0.16150942831E+04  0.10100000352E+00 0. -1.
</event>
<event>
 5   0  0.1288096E-07  0.3198478E+04  0.7818609E-02  0.8189219E-01
       -1   -1    0    0    0  501  0.00000000000E+00  0.00000000000E+00  0.12688685231E+04  0.12688685231E+04  0.50400001928E-02 0.  1.
        1   -1    0    0  501    0  0.00000000000E+00  0.00000000000E+00 -0.20156261850E+04  0.20156261850E+04  0.50400001928E-02 0. -1.
    10030    2    1    2    0    0  0.00000000000E+00  0.00000000000E+00 -0.74675766194E+03  0.32844947081E+04  0.31984775256E+04 0.  0.
        2    1    3    3  502    0 -0.11958196435E+04  0.11814693489E+03  0.71028362677E+03  0.13958675254E+04  0.25500000920E-02 0. -1.
       -2    1    3    3    0  502  0.11958196435E+04 -0.11814693489E+03 -0.14570412887E+04  0.18886271827E+04  0.25500000920E-02 0.  1.
</event>
<event>
 5   0  0.1277374E-07  0.3208712E+04  0.7818609E-02  0.8186520E-01
        1   -1    0    0  501    0  0.00000000000E+00  0.00000000000E+00  0.10785821587E+04  0.10785821587E+04  0.50400001928E-02 0.  1.
       -1   -1    0    0    0  501  0.00000000000E+00  0.00000000000E+00 -0.23864268694E+04  0.23864268694E+04  0.50400001928E-02 0. -1.
    10030    2    1    2    0    0  0.00000000000E+00  0.00000000000E+00 -0.13078447107E+04  0.34650090281E+04  0.32087115447E+04 0.  0.
        5    1    3    3  502    0 -0.39350414673E+03  0.97753297429E+03  0.65246778709E+03  0.12394162063E+04  0.46999998093E+01 0.  1.
       -5    1    3    3    0  502  0.39350414673E+03 -0.97753297429E+03 -0.19603124978E+04  0.22255928217E+04  0.46999998093E+01 0. -1.
</event>
<event>
 5   0  0.3858721E-07  0.3193179E+04  0.7818609E-02  0.8190621E-01
       -2   -1    0    0    0  501  0.00000000000E+00  0.00000000000E+00  0.18877600163E+04  0.18877600163E+04  0.25500000920E-02 0. -1.
        2   -1    0    0  501    0  0.00000000000E+00  0.00000000000E+00 -0.13503293869E+04  0.13503293869E+04  0.25500000920E-02 0.  1.
    10030    2    1    2    0    0  0.00000000000E+00  0.00000000000E+00  0.53743062941E+03  0.32380894032E+04  0.31931788709E+04 0.  0.
        2    1    3    3  502    0  0.69767557425E+03  0.17555464434E+03  0.17140782304E+04  0.18589337858E+04  0.25500000920E-02 0. -1.
       -2    1    3    3    0  502 -0.69767557425E+03 -0.17555464434E+03 -0.11766476010E+04  0.13791556174E+04  0.25500000920E-02 0.  1.
</event>
<event>
 5   0  0.3750285E-07  0.3201455E+04  0.7818609E-02  0.8188433E-01
        2   -1    0    0  501    0  0.00000000000E+00  0.00000000000E+00  0.22521519942E+04  0.22521519942E+04  0.25500000920E-02 0. -1.
       -2   -1    0    0    0  501  0.00000000000E+00  0.00000000000E+00 -0.11377242303E+04  0.11377242303E+04  0.25500000920E-02 0.  1.
    10030    2    1    2    0    0  0.00000000000E+00  0.00000000000E+00  0.11144277639E+04  0.33898762244E+04  0.32014546032E+04 0.  0.
        1    1    3    3  502    0  0.10420100263E+04 -0.11217480610E+04  0.62575247632E+02  0.15323247922E+04  0.50400001928E-02 0.  1.
       -1    1    3    3    0  502 -0.10420100263E+04  0.11217480610E+04  0.10518525162E+04  0.18575514322E+04  0.50400001928E-02 0. -1.
</event>
<event>
 5   0  0.1270948E-07  0.3205643E+04  0.7818609E-02  0.8187328E-01
       -1   -1    0    0    0  501  0.00000000000E+00  0.00000000000E+00  0.15064796297E+04  0.15064796297E+04  0.50400001928E-02 0. -1.
        1   -1    0    0  501    0  0.00000000000E+00  0.00000000000E+00 -0.17053249548E+04  0.17053249548E+04  0.50400001928E-02 0.  1.
    10030    2    1    2    0    0  0.00000000000E+00  0.00000000000E+00 -0.19884532510E+03  0.32118045845E+04  0.32056433403E+04 0.  0.
        4    1    3    3  502    0  0.42735565387E+03  0.89891880664E+03 -0.13581604489E+04  0.16838317296E+04  0.12699999809E+01 0.  1.
       -4    1    3    3    0  502 -0.42735565387E+03 -0.89891880664E+03  0.11593151238E+04  0.15279728548E+04  0.12699999809E+01 0. -1.
</event>
<event>
 5   0  0.1365455E-07  0.3205525E+04  0.7818609E-02  0.8187360E-01
       -1   -1    0    0    0  501  0.00000000000E+00  0.00000000000E+00  0.92880870673E+03  0.92880870675E+03  0.50400001928E-02 0.  1.
        1   -1    0    0  501    0  0.00000000000E+00  0.00000000000E+00 -0.27657441200E+04  0.27657441200E+04  0.50400001928E-02 0. -1.
    10030    2    1    2    0    0  0.00000000000E+00  0.00000000000E+00 -0.18369354132E+04  0.36945528267E+04  0.32055247429E+04 0.  0.
        3    1    3    3  502    0  0.79852834769E+03 -0.13338712228E+04 -0.46913676798E+03  0.16238686149E+04  0.10100000352E+00 0. -1.
       -3    1    3    3    0  502 -0.79852834769E+03  0.13338712228E+04 -0.13677986453E+04  0.20706842119E+04  0.10100000352E+00 0.  1.
</event>
<event>
 5   0  0.3858721E-07  0.3205936E+04  0.7818609E-02  0.8187251E-01
       -2   -1    0    0    0  501  0.00000000000E+00  0.00000000000E+00  0.12513175880E+04  0.12513175880E+04  0.25500000920E-02 0.  1.
        2   -1    0    0  501    0  0.00000000000E+00  0.00000000000E+00 -0.20534405372E+04  0.20534405372E+04  0.25500000920E-02 0. -1.
    10030    2    1    2    0    0  0.00000000000E+00  0.00000000000E+00 -0.80212294923E+03  0.33047581251E+04  0.32059359070E+04 0.  0.
        2    1    3    3  502    0  0.62834758730E+03 -0.77752591863E+03 -0.16927383838E+04  0.19658917775E+04  0.25500000920E-02 0. -1.
       -2    1    3    3    0  502 -0.62834758730E+03  0.77752591863E+03  0.89061543459E+03  0.13388663477E+04  0.25500000920E-02 0.  1.
</event>
<event>
 5   0  0.1317293E-07  0.3195446E+04  0.7818609E-02  0.8190021E-01
       -1   -1    0    0    0  501  0.00000000000E+00  0.00000000000E+00  0.11021941658E+04  0.11021941658E+04  0.50400001928E-02 0.  1.
        1   -1    0    0  501    0  0.00000000000E+00  0.00000000000E+00 -0.23160333334E+04  0.23160333334E+04  0.50400001928E-02 0. -1.
    10030    2    1    2    0    0  0.00000000000E+00  0.00000000000E+00 -0.12138391675E+04  0.34182274992E+04  0.31954457767E+04 0.  0.
        1    1    3    3  502    0  0.11171404841E+04 -0.18413785641E+02  0.61479847675E+03  0.12752721653E+04  0.50400001928E-02 0.  1.
       -1    1    3    3    0  502 -0.11171404841E+04  0.18413785641E+02 -0.18286376443E+04  0.21429553338E+04  0.50400001928E-02 0. -1.
</event>
<event>
 5   0  0.1317293E-07  0.3201672E+04  0.7818609E-02  0.8188376E-01
       -1   -1    0    0    0  501  0.00000000000E+00  0.00000000000E+00  0.20614488279E+04  0.20614488279E+04  0.50400001928E-02 0.  1.
        1   -1    0    0  501    0  0.00000000000E+00  0.00000000000E+00 -0.12431427455E+04  0.12431427455E+04  0.50400001928E-02 0. -1.
    10030    2    1    2    0    0  0.00000000000E+00  0.00000000000E+00  0.81830608240E+03  0.33045915733E+04  0.32016715356E+04 0.  0.
        1    1    3    3  502    0  0.43974375056E+03 -0.69617867735E+03 -0.10077976549E+04  0.13014205431E+04  0.50400001928E-02 0. -1.
       -1    1    3    3    0  502 -0.43974375056E+03  0.69617867735E+03  0.18261037373E+04  0.20031710302E+04  0.50400001928E-02 0.  1.
</event>
<event>
 5   0  0.1288096E-07  0.3199682E+04  0.7818609E-02  0.8188901E-01
       -1   -1    0    0    0  501  0.00000000000E+00  0.00000000000E+00  0.92844847603E+03  0.92844847604E+03  0.50400001928E-02 0.  1.
        1   -1    0    0  501    0  0.00000000000E+00  0.00000000000E+00 -0.27567404382E+04  0.27567404382E+04  0.50400001928E-02 0. -1.
    10030    2    1    2    0    0  0.00000000000E+00  0.00000000000E+00 -0.18282919622E+04  0.36851889142E+04  0.31996821459E+04 0.  0.
        2    1    3    3  502    0 -0.95338265277E+03 -0.12353242814E+04 -0.13205748040E+04  0.20442314878E+04  0.25500000920E-02 0. -1.
       -2    1    3    3    0  502  0.95338265277E+03  0.12353242814E+04 -0.50771715818E+03  0.16409574265E+04  0.25500000920E-02 0.  1.
</event>
<event>
 5   0  0.3830207E-07  0.3202584E+04  0.7818609E-02  0.8188135E-01
       -2   -1    0    0    0  501  0.00000000000E+00  0.00000000000E+00  0.17189736604E+04  0.17189736604E+04  0.25500000920E-02 0.  1.
        2   -1    0    0  501    0  0.00000000000E+00  0.00000000000E+00 -0.14916665964E+04  0.14916665964E+04  0.25500000920E-02 0. -1.
    10030    2    1    2    0    0  0.00000000000E+00  0.00000000000E+00  0.22730706402E+03  0.32106402568E+04  0.32025837002E+04 0.  0.
        4    1    3    3  502    0 -0.22598780645E+03  0.14628819781E+04 -0.49865279361E+03  0.15619700356E+04  0.12699999809E+01 0. -1.
       -4    1    3    3    0  502  0.22598780645E+03 -0.14628819781E+04  0.72595985763E+03  0.16486702212E+04  0.12699999809E+01 0.  1.
</event>
<event>
 5   0  0.1288096E-07  0.3198529E+04  0.7818609E-02  0.8189206E-01
        1   -1    0    0  501    0  0.00000000000E+00  0.00000000000E+00  0.19337865322E+04  0.19337865322E+04  0.50400001928E-02 0. -1.
       -1   -1    0    0    0  501  0.00000000000E+00  0.00000000000E+00 -0.13226106658E+04  0.13226106658E+04  0.50400001928E-02 0.  1.
    10030    2    1    2    0    0  0.00000000000E+00  0.00000000000E+00  0.61117586640E+03  0.32563971980E+04  0.31985288449E+04 0.  0.
        2    1    3    3  502    0 -0.44367990538E+03  0.40882891203E+03  0.18134830706E+04  0.19112074155E+04  0.25500000920E-02 0. -1.
       -2    1    3    3    0  502  0.44367990538E+03 -0.40882891203E+03 -0.12023072042E+04  0.13451897825E+04  0.25500000920E-02 0.  1.
</event>
<event>
 5   0  0.3830207E-07  0.3202012E+04  0.7818609E-02  0.8188286E-01
       -2   -1    0    0    0  501  0.00000000000E+00  0.00000000000E+00  0.11921390940E+04  0.11921390940E+04  0.25500000920E-02 0.  1.
        2   -1    0    0  501    0  0.00000000000E+00  0.00000000000E+00 -0.21501020952E+04  0.21501020952E+04  0.25500000920E-02 0. -1.
    10030    2    1    2    0    0  0.00000000000E+00  0.00000000000E+00 -0.95796300121E+03  0.33422411892E+04  0.32020123447E+04 0.  0.
        4    1    3    3  502    0  0.88293992881E+03 -0.18651852332E+03  0.90137321258E+03  0.12754792663E+04  0.12699999809E+01 0.  1.
       -4    1    3    3    0  502 -0.88293992881E+03  0.18651852332E+03 -0.18593362138E+04  0.20667619230E+04  0.12699999809E+01 0. -1.
</event>
<event>
 5   0  0.3750285E-07  0.3205770E+04  0.7818609E-02  0.8187295E-01
        2   -1    0    0  501    0  0.00000000000E+00  0.00000000000E+00  0.19302492612E+04  0.19302492612E+04  0.25500000920E-02 0. -1.
       -2   -1    0    0    0  501  0.00000000000E+00  0.00000000000E+00 -0.13310404087E+04  0.13310404087E+04  0.25500000920E-02 0.  1.
    10030    2    1    2    0    0  0.00000000000E+00  0.00000000000E+00  0.59920885249E+03  0.32612896700E+04  0.32057696522E+04 0.  0.
        1    1    3    3  502    0  0.10089458972E+04 -0.11701863044E+04  0.73352631186E+03  0.17103709132E+04  0.50400001928E-02 0. -1.
       -1    1    3    3    0  502 -0.10089458972E+04  0.11701863044E+04 -0.13431745937E+03  0.15509187568E+04  0.50400001928E-02 0.  1.
</event>
<event>
 5   0  0.3764056E-07  0.3200136E+04  0.7818609E-02  0.8188781E-01
        2   -1    0    0  501    0  0.00000000000E+00  0.00000000000E+00  0.13561221693E+04  0.13561221693E+04  0.25500000920E-02 0.  1.
       -2   -1    0    0    0  501  0.00000000000E+00  0.00000000000E+00 -0.18878959004E+04  0.18878959004E+04  0.25500000920E-02 0. -1.
    10030    2    1    2    0    0  0.00000000000E+00  0.00000000000E+00 -0.53177373115E+03  0.32440180697E+04  0.32001359246E+04 0.  0.
        5    1    3    3  502    0  0.67449373888E+03 -0.67652931443E+03 -0.15670617750E+04  0.18353033574E+04  0.46999998093E+01 0. -1.
       -5    1    3    3    0  502 -0.67449373888E+03  0.67652931443E+03  0.10352880438E+04  0.14087147123E+04  0.46999998093E+01 0.  1.
</event>
<event>
 5   0  0.3942564E-07  0.3201752E+04  0.7818609E-02  0.8188355E-01
        2   -1    0    0  501    0  0.00000000000E+00  0.00000000000E+00  0.16492754789E+04  0.16492754789E+04  0.25500000920E-02 0.  1.
       -2   -1    0    0    0  501  0.00000000000E+00  0.00000000000E+00 -0.15538970341E+04  0.15538970341E+04  0.25500000920E-02 0. -1.
    10030    2    1    2    0    0  0.00000000000E+00  0.00000000000E+00  0.95378444827E+02  0.32031725130E+04  0.32017521922E+04 0.  0.
        3    1    3    3  502    0 -0.10990533982E+04 -0.49700082771E+03  0.11007130644E+04  0.16329413509E+04  0.10100000352E+00 0.  1.
       -3    1    3    3    0  502  0.10990533982E+04  0.49700082771E+03 -0.10053346196E+04  0.15702311621E+04  0.10100000352E+00 0. -1.
</event>
<event>
 5   0  0.3830207E-07  0.3228873E+04  0.7818609E-02  0.8181233E-01
        2   -1    0    0  501    0  0.00000000000E+00  0.00000000000E+00  0.11483684789E+04  0.11483684789E+04  0.25500000920E-02 0. -1.
       -2   -1    0    0    0  501  0.00000000000E+00  0.00000000000E+00 -0.22696586944E+04  0.22696586944E+04  0.25500000920E-02 0.  1.
    10030    2    1    2    0    0  0.00000000000E+00  0.00000000000E+00 -0.11212902155E+04  0.34180271734E+04  0.32288725603E+04 0.  0.
        4    1    3    3  502    0  0.87021620789E+03 -0.12815998067E+04 -0.79451556041E+02  0.15511571409E+04  0.12699999809E+01 0. -1.
       -4    1    3    3    0  502 -0.87021620789E+03  0.12815998067E+04 -0.10418386595E+04  0.18668700325E+04  0.12699999809E+01 0.  1.
</event>
<event>
 5   0  0.1365455E-07  0.3195864E+04  0.7818609E-02  0.8189910E-01
       -1   -1    0    0    0  501  0.00000000000E+00  0.00000000000E+00  0.88866394325E+03  0.88866394326E+03  0.50400001928E-02 0. -1.
        1   -1    0    0  501    0  0.00000000000E+00  0.00000000000E+00 -0.28732874074E+04  0.28732874074E+04  0.50400001928E-02 0.  1.
    10030    2    1    2    0    0  0.00000000000E+00  0.00000000000E+00 -0.19846234641E+04  0.37619513506E+04  0.31958641508E+04 0.  0.
        3    1    3    3  502    0 -0.72933232199E+03 -0.49286609490E+03 -0.25621582949E+04  0.27091507454E+04  0.10100000352E+00 0.  1.
       -3    1    3    3    0  502  0.72933232199E+03  0.49286609490E+03  0.57753483073E+03  0.10528006052E+04  0.10100000352E+00 0. -1.
</event>
<event>
 5   0  0.1288096E-07  0.3208834E+04  0.7818609E-02  0.8186488E-01
       -1   -1    0    0    0  501  0.00000000000E+00  0.00000000000E+00  0.13821479691E+04  0.13821479692E+04  0.50400001928E-02 0. -1.
        1   -1    0    0  501    0  0.00000000000E+00  0.00000000000E+00 -0.18624297192E+04  0.18624297192E+04  0.50400001928E-02 0.  1.
    10030    2    1    2    0    0  0.00000000000E+00  0.00000000000E+00 -0.48028175007E+03  0.32445776884E+04  0.32088337159E+04 0.  0.
        2    1    3    3  502    0  0.11616667909E+04  0.18104171323E+03  0.86376555525E+03  0.14588820273E+04  0.25500000920E-02 0. -1.
       -2    1    3    3    0  502 -0.11616667909E+04 -0.18104171323E+03 -0.13440473053E+04  0.17856956611E+04  0.25500000920E-02 0.  1.
</event>
<event>
 5   0  0.1277374E-07  0.3254690E+04  0.7818609E-02  0.8174521E-01
        1   -1    0    0  501    0  0.00000000000E+00  0.00000000000E+00  0.18080447172E+04  0.18080447172E+04  0.50400001928E-02 0.  1.
       -1   -1    0    0    0  501  0.00000000000E+00  0.00000000000E+00 -0.14647043619E+04  0.14647043619E+04  0.50400001928E-02 0. -1.
    10030    2    1    2    0    0  0.00000000000E+00  0.00000000000E+00  0.34334035528E+03  0.32727490790E+04  0.32546895297E+04 0.  0.
        5    1    3    3  502    0 -0.12246624098E+04 -0.67644146813E+03 -0.66412041810E+03  0.15486927059E+04  0.46999998093E+01 0. -1.
       -5    1    3    3    0  502  0.12246624098E+04  0.67644146813E+03  0.10074607734E+04  0.17240563731E+04  0.46999998093E+01 0.  1.
</event>
<event>
 5   0  0.3830207E-07  0.3193217E+04  0.7818609E-02  0.8190611E-01
        2   -1    0    0  501    0  0.00000000000E+00  0.00000000000E+00  0.17273134861E+04  0.17273134861E+04  0.25500000920E-02 0.  1.
       -2   -1    0    0    0  501  0.00000000000E+00  0.00000000000E+00 -0.14757942694E+04  0.14757942694E+04  0.25500000920E-02 0. -1.
    10030    2    1    2    0    0  0.00000000000E+00  0.00000000000E+00  0.25151921675E+03  0.32031077555E+04  0.31932174021E+04 0.  0.
        4    1    3    3  502    0  0.33306046146E+03 -0.14731545564E+04  0.64509294154E+03  0.16423337463E+04  0.12699999809E+01 0.  1.
       -4    1    3    3    0  502 -0.33306046146E+03  0.14731545564E+04 -0.39357372480E+03  0.15607740092E+04  0.12699999809E+01 0. -1.
</event>
<event>
 5   0  0.1317293E-07  0.3187130E+04  0.7818609E-02  0.8192224E-01
       -1   -1    0    0    0  501  0.00000000000E+00  0.00000000000E+00  0.14347265831E+04  0.14347265831E+04  0.50400001928E-02 0.  1.
        1   -1    0    0  501    0  0.00000000000E+00  0.00000000000E+00 -0.17699885521E+04  0.17699885521E+04  0.50400001928E-02 0. -1.
    10030    2    1    2    0    0  0.00000000000E+00  0.00000000000E+00 -0.33526196898E+03  0.32047151352E+04  0.31871301370E+04 0.  0.
        1    1    3    3  502    0 -0.14439522806E+04  0.16688953723E+03 -0.82438042963E+03  0.16710635533E+04  0.50400001928E-02 0. -1.
       -1    1    3    3    0  502  0.14439522806E+04 -0.16688953723E+03  0.48911846066E+03  0.15336515819E+04  0.50400001928E-02 0.  1.
</event>
<event>
 5   0  0.1277374E-07  0.3188300E+04  0.7818609E-02  0.8191914E-01
        1   -1    0    0  501    0  0.00000000000E+00  0.00000000000E+00  0.21163123088E+04  0.21163123088E+04  0.50400001928E-02 0.  1.
       -1   -1    0    0    0  501  0.00000000000E+00  0.00000000000E+00 -0.12008219978E+04  0.12008219978E+04  0.50400001928E-02 0. -1.
    10030    2    1    2    0    0  0.00000000000E+00  0.00000000000E+00  0.91549031100E+03  0.33171343067E+04  0.31883000955E+04 0.  0.
        5    1    3    3  502    0 -0.13099555728E+04  0.62044381717E+03 -0.23266454351E+03  0.14680221432E+04  0.46999998093E+01 0. -1.
       -5    1    3    3    0  502  0.13099555728E+04 -0.62044381717E+03  0.11481548545E+04  0.18491121635E+04  0.46999998093E+01 0.  1.
</event>
<event>
 5   0  0.1317293E-07  0.3190060E+04  0.7818609E-02  0.8191447E-01
       -1   -1    0    0    0  501  0.00000000000E+00  0.00000000000E+00  0.18536901270E+04  0.18536901270E+04  0.50400001928E-02 0. -1.
        1   -1    0    0  501    0  0.00000000000E+00  0.00000000000E+00 -0.13724626998E+04  0.13724626998E+04  0.50400001928E-02 0.  1.
    10030    2    1    2    0    0  0.00000000000E+00  0.00000000000E+00  0.48122742728E+03  0.32261528268E+04  0.31900599093E+04 0.  0.
        1    1    3    3  502    0 -0.15083241449E+04 -0.13676961412E+03 -0.26542035854E+03  0.15375941013E+04  0.50400001928E-02 0. -1.
       -1    1    3    3    0  502  0.15083241449E+04  0.13676961412E+03  0.74664778582E+03  0.16885587255E+04  0.50400001928E-02 0.  1.
</event>
<event>
 5   0  0.1288096E-07  0.3202732E+04  0.7818609E-02  0.8188096E-01
       -1   -1    0    0    0  501  0.00000000000E+00  0.00000000000E+00  0.16873817341E+04  0.16873817341E+04  0.50400001928E-02 0. -1.
        1   -1    0    0  501    0  0.00000000000E+00  0.00000000000E+00 -0.15197352459E+04  0.15197352460E+04  0.50400001928E-02 0.  1.
    10030    2    1    2    0    0  0.00000000000E+00  0.00000000000E+00  0.16764648811E+03  0.32071169800E+04  0.32027322677E+04 0.  0.
        2    1    3    3  502    0 -0.12101760568E+04 -0.99748445068E+03  0.40810633750E+03  0.16205098273E+04  0.25500000920E-02 0.  1.
       -2    1    3    3    0  502  0.12101760568E+04  0.99748445068E+03 -0.24045984939E+03  0.15866071527E+04  0.25500000920E-02 0. -1.
</event>
<event>
 5   0  0.3764056E-07  0.3190436E+04  0.7818609E-02  0.8191348E-01
       -2   -1    0    0    0  501  0.00000000000E+00  0.00000000000E+00  0.13573978842E+04  0.13573978842E+04  0.25500000920E-02 0.  1.
        2   -1    0    0  501    0  0.00000000000E+00  0.00000000000E+00 -0.18747045421E+04  0.18747045421E+04  0.25500000920E-02 0. -1.
    10030    2    1    2    0    0  0.00000000000E+00  0.00000000000E+00 -0.51730665792E+03  0.32321024262E+04  0.31904356937E+04 0.  0.
        5    1    3    3  502    0  0.14787799716E+04  0.55816700139E+03 -0.40534023133E+02  0.15811406335E+04  0.46999998093E+01 0. -1.
       -5    1    3    3    0  502 -0.14787799716E+04 -0.55816700139E+03 -0.47677263479E+03  0.16509617927E+04  0.46999998093E+01 0.  1.
</event>
<event>
 5   0  0.3830207E-07  0.3203680E+04  0.7818609E-02  0.8187846E-01
       -2   -1    0    0    0  501  0.00000000000E+00  0.00000000000E+00  0.12080928308E+04  0.12080928308E+04  0.25500000920E-02 0.  1.
        2   -1    0    0  501    0  0.00000000000E+00  0.00000000000E+00 -0.21239195364E+04  0.21239195364E+04  0.25500000920E-02 0. -1.
    10030    2    1    2    0    0  0.00000000000E+00  0.00000000000E+00 -0.91582670556E+03  0.33320123672E+04  0.32036803618E+04 0.  0.
        4    1    3    3  502    0  0.72503240749E+02 -0.11665309490E+03 -0.21177834003E+04  0.21222329768E+04  0.12699999809E+01 0. -1.
       -4    1    3    3    0  502 -0.72503240749E+02  0.11665309490E+03  0.12019566947E+04  0.12097793904E+04  0.12699999809E+01 0.  1.
</event>
<event>
 5   0  0.1365455E-07  0.3201675E+04  0.7818609E-02  0.8188375E-01
        1   -1    0    0  501    0  0.00000000000E+00  0.00000000000E+00  0.11798460914E+04  0.11798460914E+04  0.50400001928E-02 0. -1.
       -1   -1    0    0    0  501  0.00000000000E+00  0.00000000000E+00 -0.21720466691E+04  0.21720466691E+04  0.50400001928E-02 0.  1.
    10030    2    1    2    0    0  0.00000000000E+00  0.00000000000E+00 -0.99220057763E+03  0.33518927605E+04  0.32016750447E+04 0.  0.
        3    1    3    3  502    0  0.18064047211E+03  0.15584340603E+04 -0.82936432357E+03  0.17745965434E+04  0.10100000352E+00 0.  1.
       -3    1    3    3    0  502 -0.18064047211E+03 -0.15584340603E+04 -0.16283625406E+03  0.15772962171E+04  0.10100000352E+00 0. -1.
</event>
<event>
 5   0  0.1288096E-07  0.3200146E+04  0.7818609E-02  0.8188779E-01
        1   -1    0    0  501    0  0.00000000000E+00  0.00000000000E+00  0.98486517748E+03  0.98486517749E+03  0.50400001928E-02 0.  1.
       -1   -1    0    0    0  501  0.00000000000E+00  0.00000000000E+00 -0.25995781697E+04  0.25995781697E+04  0.50400001928E-02 0. -1.
    10030    2    1    2    0    0  0.00000000000E+00  0.00000000000E+00 -0.16147129922E+04  0.35844433472E+04  0.32001462563E+04 0.  0.
        2    1    3    3  502    0 -0.20945517456E+02  0.95328205351E+02  0.98152779899E+03  0.98636859319E+03  0.25500000920E-02 0.  1.
       -2    1    3    3    0  502  0.20945517456E+02 -0.95328205351E+02 -0.25962407912E+04  0.25980747540E+04  0.25500000920E-02 0. -1.
</event>
<event>
 5   0  0.3830207E-07  0.3208238E+04  0.7818609E-02  0.8186645E-01
        2   -1    0    0  501    0  0.00000000000E+00  0.00000000000E+00  0.21127663533E+04  0.21127663533E+04  0.25500000920E-02 0.  1.
       -2   -1    0    0    0  501  0.00000000000E+00  0.00000000000E+00 -0.12179278589E+04  0.12179278589E+04  0.25500000920E-02 0. -1.
    10030    2    1    2    0    0  0.00000000000E+00  0.00000000000E+00  0.89483849444E+03  0.33306942122E+04  0.32082375230E+04 0.  0.
        4    1    3    3  502    0  0.96123020638E+03  0.72768986616E+03  0.15459670480E+04  0.19604876376E+04  0.12699999809E+01 0.  1.
       -4    1    3    3    0  502 -0.96123020638E+03 -0.72768986616E+03 -0.65112855352E+03  0.13702065746E+04  0.12699999809E+01 0. -1.
</event>
<event>
 5   0  0.1317293E-07  0.3198094E+04  0.7818609E-02  0.8189321E-01
       -1   -1    0    0    0  501  0.00000000000E+00  0.00000000000E+00  0.23461292946E+04  0.23461292946E+04  0.50400001928E-02 0.  1.
        1   -1    0    0  501    0  0.00000000000E+00  0.00000000000E+00 -0.10898592137E+04  0.10898592137E+04  0.50400001928E-02 0. -1.
    10030    2    1    2    0    0  0.00000000000E+00  0.00000000000E+00  0.12562700809E+04  0.34359885083E+04  0.31980935748E+04 0.  0.
        1    1    3    3  502    0  0.96228161132E+03 -0.89178135924E+03 -0.35402741764E+03  0.13588948836E+04  0.50400001928E-02 0. -1.
       -1    1    3    3    0  502 -0.96228161132E+03  0.89178135924E+03  0.16102974985E+04  0.20770936247E+04  0.50400001928E-02 0.  1.
</event>
<event>
 5   0  0.3750285E-07  0.3205284E+04  0.7818609E-02  0.8187423E-01
       -2   -1    0    0    0  501  0.00000000000E+00  0.00000000000E+00  0.14156287329E+04  0.14156287329E+04  0.25500000920E-02 0.  1.
        2   -1    0    0  501    0  0.00000000000E+00  0.00000000000E+00 -0.18143603463E+04  0.18143603463E+04  0.25500000920E-02 0. -1.
    10030    2    1    2    0    0  0.00000000000E+00  0.00000000000E+00 -0.39873161334E+03  0.32299890792E+04  0.32052835370E+04 0.  0.
        1    1    3    3  502    0  0.31655242535E+03  0.78547796235E+03 -0.15704704618E+04  0.17842529358E+04  0.50400001928E-02 0. -1.
       -1    1    3    3    0  502 -0.31655242535E+03 -0.78547796235E+03  0.11717388485E+04  0.14457361434E+04  0.50400001928E-02 0.  1.
</event>
<event>
 5   0  0.1317293E-07  0.3163223E+04  0.7818609E-02  0.8198598E-01
        1   -1    0    0  501    0  0.00000000000E+00  0.00000000000E+00  0.24646735109E+04  0.24646735109E+04  0.50400001928E-02 0.  1.
       -1   -1    0    0    0  501  0.00000000000E+00  0.00000000000E+00 -0.10149393750E+04  0.10149393750E+04  0.50400001928E-02 0. -1.
    10030    2    1    2    0    0  0.00000000000E+00  0.00000000000E+00  0.14497341359E+04  0.34796128859E+04  0.31632225295E+04 0.  0.
        1    1    3    3  502    0  0.14263468386E+03  0.13714293551E+04  0.15771751239E+04  0.20949091867E+04  0.50400001928E-02 0.  1.
       -1    1    3    3    0  502 -0.14263468386E+03 -0.13714293551E+04 -0.12744098800E+03  0.13847036992E+04  0.50400001928E-02 0. -1.
</event>
<event>
 5   0  0.1317293E-07  0.3193324E+04  0.7818609E-02  0.8190582E-01
       -1   -1    0    0    0  501  0.00000000000E+00  0.00000000000E+00  0.13794071992E+04  0.13794071992E+04  0.50400001928E-02 0.  1.
        1   -1    0    0  501    0  0.00000000000E+00  0.00000000000E+00 -0.18481342527E+04  0.18481342527E+04  0.50400001928E-02 0. -1.
    10030    2    1    2    0    0  0.00000000000E+00  0.00000000000E+00 -0.46872705357E+03  0.32275414519E+04  0.31933240946E+04 0.  0.
        1    1    3    3  502    0 -0.59035388297E+03 -0.87381945162E+03  0.97733679707E+03  0.14377987885E+04  0.50400001928E-02 0.  1.
       -1    1    3    3    0  502  0.59035388297E+03  0.87381945162E+03 -0.14460638506E+04  0.17897426634E+04  0.50400001928E-02 0. -1.
</event>
<event>
 5   0  0.3764056E-07  0.3202891E+04  0.7818609E-02  0.8188054E-01
        2   -1    0    0  501    0  0.00000000000E+00  0.00000000000E+00  0.17413362405E+04  0.17413362405E+04  0.25500000920E-02 0.  1.
       -2   -1    0    0    0  501  0.00000000000E+00  0.00000000000E+00 -0.14727928906E+04  0.14727928906E+04  0.25500000920E-02 0. -1.
    10030    2    1    2    0    0  0.00000000000E+00  0.00000000000E+00  0.26854334997E+03  0.32141291311E+04  0.32028909661E+04 0.  0.
        5    1    3    3  502    0  0.11792135817E+04  0.53457272954E+03 -0.81152820548E+03  0.15280421436E+04  0.46999998093E+01 0.  1.
       -5    1    3    3    0  502 -0.11792135817E+04 -0.53457272954E+03  0.10800715554E+04  0.16860869875E+04  0.46999998093E+01 0. -1.
</event>
<event>
 5   0  0.1277374E-07  0.3195062E+04  0.7818609E-02  0.8190123E-01
        1   -1    0    0  501    0  0.00000000000E+00  0.00000000000E+00  0.14299461453E+04  0.14299461453E+04  0.50400001928E-02 0.  1.
       -1   -1    0    0    0  501  0.00000000000E+00  0.00000000000E+00 -0.17847561456E+04  0.17847561456E+04  0.50400001928E-02 0. -1.
    10030    2    1    2    0    0  0.00000000000E+00  0.00000000000E+00 -0.35481000030E+03  0.32147022910E+04  0.31950619217E+04 0.  0.
        5    1    3    3  502    0  0.22293668914E+03 -0.64029213096E+03  0.12780027976E+04  0.14467162890E+04  0.46999998093E+01 0.  1.
       -5    1    3    3    0  502 -0.22293668914E+03  0.64029213096E+03 -0.16328127978E+04  0.17679860020E+04  0.46999998093E+01 0. -1.
</event>
<event>
 5   0  0.3942564E-07  0.3203454E+04  0.7818609E-02  0.8187906E-01
       -2   -1    0    0    0  501  0.00000000000E+00  0.00000000000E+00  0.15346121911E+04  0.15346121911E+04  0.25500000920E-02 0. -1.
        2   -1    0    0  501    0  0.00000000000E+00  0.00000000000E+00 -0.16717767176E+04  0.16717767176E+04  0.25500000920E-02 0.  1.
    10030    2    1    2    0    0  0.00000000000E+00  0.00000000000E+00 -0.13716452654E+03  0.32063889087E+04  0.32034537185E+04 0.  0.
        3    1    3    3  502    0 -0.86995056300E+03  0.70690815721E+03  0.10765795818E+04  0.15542061417E+04  0.10100000352E+00 0. -1.
       -3    1    3    3    0  502  0.86995056300E+03 -0.70690815721E+03 -0.12137441083E+04  0.16521827670E+04  0.10100000352E+00 0.  1.
</event>
<event>
 5   0  0.3830207E-07  0.3214555E+04  0.7818609E-02  0.8184984E-01
       -2   -1    0    0    0  501  0.00000000000E+00  0.00000000000E+00  0.94940243824E+03  0.94940243824E+03  0.25500000920E-02 0.  1.
        2   -1    0    0  501    0  0.00000000000E+00  0.00000000000E+00 -0.27210179647E+04  0.27210179647E+04  0.25500000920E-02 0. -1.
    10030    2    1    2    0    0  0.00000000000E+00  0.00000000000E+00 -0.17716155264E+04  0.36704204029E+04  0.32145550797E+04 0.  0.
        4    1    3    3  502    0  0.84750641211E+03  0.13589097049E+04 -0.73077003715E+03  0.17603775631E+04  0.12699999809E+01 0. -1.
       -4    1    3    3    0  502 -0.84750641211E+03 -0.13589097049E+04 -0.10408454893E+04  0.19100428398E+04  0.12699999809E+01 0.  1.
</event>
<event>
 5   0  0.3942564E-07  0.3202455E+04  0.7818609E-02  0.8188169E-01
        2   -1    0    0  501    0  0.00000000000E+00  0.00000000000E+00  0.25528020701E+04  0.25528020701E+04  0.25500000920E-02 0.  1.
       -2   -1    0    0    0  501  0.00000000000E+00  0.00000000000E+00 -0.10043590957E+04  0.10043590958E+04  0.25500000920E-02 0. -1.
    10030    2    1    2    0    0  0.00000000000E+00  0.00000000000E+00  0.15484429744E+04  0.35571611659E+04  0.32024552948E+04 0.  0.
        3    1    3    3  502    0  0.85161962320E+03 -0.11999948394E+04  0.14755736840E+04  0.20838813076E+04  0.10100000352E+00 0.  1.
       -3    1    3    3    0  502 -0.85161962320E+03  0.11999948394E+04  0.72869290416E+02  0.14732798583E+04  0.10100000352E+00 0. -1.
</event>
<event>
 5   0  0.3750285E-07  0.3199155E+04  0.7818609E-02  0.8189040E-01
        2   -1    0    0  501    0  0.00000000000E+00  0.00000000000E+00  0.24162446305E+04  0.24162446305E+04  0.25500000920E-02 0.  1.
       -2   -1    0    0    0  501  0.00000000000E+00  0.00000000000E+00 -0.10589356829E+04  0.10589356829E+04  0.25500000920E-02 0. -1.
    10030    2    1    2    0    0  0.00000000000E+00  0.00000000000E+00  0.13573089476E+04  0.34751803134E+04  0.31991546745E+04 0.  0.
        1    1    3    3  502    0  0.69468455297E+03 -0.54029790279E+03 -0.77230897959E+03  0.11708841155E+04  0.50400001928E-02 0. -1.
       -1    1    3    3    0  502 -0.69468455297E+03  0.54029790279E+03  0.21296179272E+04  0.23042961979E+04  0.50400001928E-02 0.  1.
</event>
<event>
 5   0  0.1288096E-07  0.3242387E+04  0.7818609E-02  0.8177712E-01
        1   -1    0    0  501    0  0.00000000000E+00  0.00000000000E+00  0.10618759501E+04  0.10618759501E+04  0.50400001928E-02 0. -1.
       -1   -1    0    0    0  501  0.00000000000E+00  0.00000000000E+00 -0.24751185906E+04  0.24751185906E+04  0.50400001928E-02 0.  1.
    10030    2    1    2    0    0  0.00000000000E+00  0.00000000000E+00 -0.14132426405E+04  0.35369945407E+04  0.32423873334E+04 0.  0.
        2    1    3    3  502    0 -0.15243044984E+04 -0.74475383766E+01 -0.10446076422E+03  0.15278978110E+04  0.25500000920E-02 0. -1.
       -2    1    3    3    0  502  0.15243044984E+04  0.74475383766E+01 -0.13087818763E+04  0.20090967297E+04  0.25500000920E-02 0.  1.
</event>
<event>
 5   0  0.1270948E-07  0.3204115E+04  0.7818609E-02  0.8187731E-01
        1   -1    0    0  501    0  0.00000000000E+00  0.00000000000E+00  0.18172714319E+04  0.18172714319E+04  0.50400001928E-02 0. -1.
       -1   -1    0    0    0  501  0.00000000000E+00  0.00000000000E+00 -0.14123308709E+04  0.14123308709E+04  0.50400001928E-02 0.  1.
    10030    2    1    2    0    0  0.00000000000E+00  0.00000000000E+00  0.40494056103E+03  0.32296023029E+04  0.32041151940E+04 0.  0.
        4    1    3    3  502    0 -0.18331465638E+02 -0.34908858307E+03 -0.13734200857E+04  0.14172096621E+04  0.12699999809E+01 0.  1.
       -4    1    3    3    0  502  0.18331465638E+02  0.34908858307E+03  0.17783606468E+04  0.18123926408E+04  0.12699999809E+01 0. -1.
</event>
<event>
 5   0  0.3764056E-07  0.3226553E+04  0.7818609E-02  0.8181840E-01
       -2   -1    0    0    0  501  0.00000000000E+00  0.00000000000E+00  0.13985424814E+04  0.13985424814E+04  0.25500000920E-02 0.  1.
        2   -1    0    0  501    0  0.00000000000E+00  0.00000000000E+00 -0.18609809009E+04  0.18609809009E+04  0.25500000920E-02 0. -1.
    10030    2    1    2    0    0  0.00000000000E+00  0.00000000000E+00 -0.46243841950E+03  0.32595233823E+04  0.32265528646E+04 0.  0.
        5    1    3    3  502    0 -0.37221166093E+03 -0.91308540688E+02 -0.18143189410E+04  0.18543608278E+04  0.46999998093E+01 0. -1.
       -5    1    3    3    0  502  0.37221166093E+03  0.91308540688E+02  0.13518805215E+04  0.14051625545E+04  0.46999998093E+01 0.  1.
</event>
<event>
 5   0  0.1317293E-07  0.3192965E+04  0.7818609E-02  0.8190678E-01
        1   -1    0    0  501    0  0.00000000000E+00  0.00000000000E+00  0.30366762108E+04  0.30366762108E+04  0.50400001928E-02 0. -1.
       -1   -1    0    0    0  501  0.00000000000E+00  0.00000000000E+00 -0.83932433151E+03  0.83932433152E+03  0.50400001928E-02 0.  1.
    10030    2    1    2    0    0  0.00000000000E+00  0.00000000000E+00  0.21973518793E+04  0.38760005423E+04  0.31929649110E+04 0.  0.
        1    1    3    3  502    0  0.56466378424E+03 -0.31356525999E+03 -0.67364065233E+03  0.93325242566E+03  0.50400001928E-02 0.  1.
       -1    1    3    3    0  502 -0.56466378424E+03  0.31356525999E+03  0.28709925316E+04  0.29427481167E+04  0.50400001928E-02 0. -1.
</event>
<event>
 5   0  0.1270948E-07  0.3207522E+04  0.7818609E-02  0.8186834E-01
        1   -1    0    0  501    0  0.00000000000E+00  0.00000000000E+00  0.15328803597E+04  0.15328803597E+04  0.50400001928E-02 0.  1.
       -1   -1    0    0    0  501  0.00000000000E+00  0.00000000000E+00 -0.16779186712E+04  0.16779186712E+04  0.50400001928E-02 0. -1.
    10030    2    1    2    0    0  0.00000000000E+00  0.00000000000E+00 -0.14503831152E+03  0.32107990309E+04  0.32075215206E+04 0.  0.
        4    1    3    3  502    0  0.43696156017E+02 -0.77159097561E+02  0.15304240842E+04  0.15329913146E+04  0.12699999809E+01 0.  1.
       -4    1    3    3    0  502 -0.43696156017E+02  0.77159097561E+02 -0.16754623957E+04  0.16778077162E+04  0.12699999809E+01 0. -1.
</event>
<event>
 5   0  0.1277374E-07  0.3193193E+04  0.7818609E-02  0.8190617E-01
        1   -1    0    0  501    0  0.00000000000E+00  0.00000000000E+00  0.25861460502E+04  0.25861460502E+04  0.50400001928E-02 0.  1.
       -1   -1    0    0    0  501  0.00000000000E+00  0.00000000000E+00 -0.98568329371E+03  0.98568329372E+03  0.50400001928E-02 0. -1.
    10030    2    1    2    0    0  0.00000000000E+00  0.00000000000E+00  0.16004627565E+04  0.35718293439E+04  0.31931933589E+04 0.  0.
        5    1    3    3  502    0 -0.15089977401E+04 -0.13393532167E+03  0.13640713571E+04  0.20385596893E+04  0.46999998093E+01 0.  1.
       -5    1    3    3    0  502  0.15089977401E+04  0.13393532167E+03  0.23639139941E+03  0.15332696546E+04  0.46999998093E+01 0. -1.
</event>
<event>
 5   0  0.3830207E-07  0.3224472E+04  0.7818609E-02  0.8182384E-01
       -2   -1    0    0    0  501  0.00000000000E+00  0.00000000000E+00  0.13604340150E+04  0.13604340150E+04  0.25500000920E-02 0.  1.
        2   -1    0    0  501    0  0.00000000000E+00  0.00000000000E+00 -0.19106441607E+04  0.19106441607E+04  0.25500000920E-02 0. -1.
    10030    2    1    2    0    0  0.00000000000E+00  0.00000000000E+00 -0.55021014571E+03  0.32710781756E+04  0.32244722400E+04 0.  0.
        4    1    3    3  502    0  0.63298887960E+03  0.65565067411E+02  0.12276328655E+04  0.13827717690E+04  0.12699999809E+01 0.  1.
       -4    1    3    3    0  502 -0.63298887960E+03 -0.65565067411E+02 -0.17778430112E+04  0.18883064066E+04  0.12699999809E+01 0. -1.
</event>
<event>
 5   0  0.1317293E-07  0.3200709E+04  0.7818609E-02  0.8188630E-01
       -1   -1    0    0    0  501  0.00000000000E+00  0.00000000000E+00  0.13899635382E+04  0.13899635382E+04  0.50400001928E-02 0. -1.
        1   -1    0    0  501    0  0.00000000000E+00  0.00000000000E+00 -0.18425907086E+04  0.18425907086E+04  0.50400001928E-02 0.  1.
    10030    2    1    2    0    0  0.00000000000E+00  0.00000000000E+00 -0.45262717043E+03  0.32325542467E+04  0.32007086095E+04 0.  0.
        1    1    3    3  502    0  0.11448512641E+04  0.64566205302E+03 -0.11483980836E+04  0.17453887996E+04  0.50400001928E-02 0.  1.
       -1    1    3    3    0  502 -0.11448512641E+04 -0.64566205302E+03  0.69577091313E+03  0.14871654471E+04  0.50400001928E-02 0. -1.
</event>
<event>
 5   0  0.3858721E-07  0.3198904E+04  0.7818609E-02  0.8189107E-01
       -2   -1    0    0    0  501  0.00000000000E+00  0.00000000000E+00  0.84912392423E+03  0.84912392423E+03  0.25500000920E-02 0.  1.
        2   -1    0    0  501    0  0.00000000000E+00  0.00000000000E+00 -0.30128066934E+04  0.30128066934E+04  0.25500000920E-02 0. -1.
    10030    2    1    2    0    0  0.00000000000E+00  0.00000000000E+00 -0.21636827692E+04  0.38619306176E+04  0.31989037138E+04 0.  0.
        2    1    3    3  502    0 -0.70098869432E+03  0.78398598020E+03 -0.25366992415E+04  0.27460630380E+04  0.25500000920E-02 0. -1.
       -2    1    3    3    0  502  0.70098869432E+03 -0.78398598020E+03  0.37301647232E+03  0.11158675797E+04  0.25500000920E-02 0.  1.
</event>
<event>
 5   0  0.3764056E-07  0.3195970E+04  0.7818609E-02  0.8189882E-01
        2   -1    0    0  501    0  0.00000000000E+00  0.00000000000E+00  0.16904342323E+04  0.16904342323E+04  0.25500000920E-02 0. -1.
       -2   -1    0    0    0  501  0.00000000000E+00  0.00000000000E+00 -0.15105919155E+04  0.15105919155E+04  0.25500000920E-02 0.  1.
    10030    2    1    2    0    0  0.00000000000E+00  0.00000000000E+00  0.17984231671E+03  0.32010261478E+04  0.31959701407E+04 0.  0.
        5    1    3    3  502    0  0.45289432911E+02  0.13997821267E+04 -0.68077198274E+03  0.15572134463E+04  0.46999998093E+01 0. -1.
       -5    1    3    3    0  502 -0.45289432911E+02 -0.13997821267E+04  0.86061429945E+03  0.16438127014E+04  0.46999998093E+01 0.  1.
</event>
<event>
 5   0  0.1365455E-07  0.3171549E+04  0.7818609E-02  0.8196372E-01
        1   -1    0    0  501    0  0.00000000000E+00  0.00000000000E+00  0.12665888709E+04  0.12665888709E+04  0.50400001928E-02 0. -1.
       -1   -1    0    0    0  501  0.00000000000E+00  0.00000000000E+00 -0.19853968189E+04  0.19853968189E+04  0.50400001928E-02 0.  1.
    10030    2    1    2    0    0  0.00000000000E+00  0.00000000000E+00 -0.71880794805E+03  0.32519856898E+04  0.31715494731E+04 0.  0.
        3    1    3    3  502    0 -0.14202597986E+04  0.70090800112E+03 -0.27820215952E+03  0.16080442697E+04  0.10100000352E+00 0. -1.
       -3    1    3    3    0  502  0.14202597986E+04 -0.70090800112E+03 -0.44060578853E+03  0.16439414201E+04  0.10100000352E+00 0.  1.
</event>
<event>
 5   0  0.1277374E-07  0.3214426E+04  0.7818609E-02  0.8185018E-01
        1   -1    0    0  501    0  0.00000000000E+00  0.00000000000E+00  0.10877425644E+04  0.10877425644E+04  0.50400001928E-02 0. -1.
       -1   -1    0    0    0  501  0.00000000000E+00  0.00000000000E+00 -0.23747658331E+04  0.23747658331E+04  0.50400001928E-02 0.  1.
    10030    2    1    2    0    0  0.00000000000E+00  0.00000000000E+00 -0.12870232687E+04  0.34625083975E+04  0.32144261555E+04 0.  0.
        5    1    3    3  502    0  0.92407807420E+03 -0.36324447966E+03 -0.20048721292E+04  0.22372753929E+04  0.46999998093E+01 0.  1.
       -5    1    3    3    0  502 -0.92407807420E+03  0.36324447966E+03  0.71784886049E+03  0.12252330047E+04  0.46999998093E+01 0. -1.
</event>
<event>
 5   0  0.3858721E-07  0.3188946E+04  0.7818609E-02  0.8191742E-01
        2   -1    0    0  501    0  0.00000000000E+00  0.00000000000E+00  0.22137296695E+04  0.22137296695E+04  0.25500000920E-02 0. -1.
       -2   -1    0    0    0  501  0.00000000000E+00  0.00000000000E+00 -0.11484441433E+04  0.11484441433E+04  0.25500000920E-02 0.  1.
    10030    2    1    2    0    0  0.00000000000E+00  0.00000000000E+00  0.10652855262E+04  0.33621738129E+04  0.31889464554E+04 0.  0.
        2    1    3    3  502    0 -0.14471319153E+04  0.26679788163E+03 -0.11469068468E+03  0.14759830091E+04  0.25500000920E-02 0.  1.
       -2    1    3    3    0  502  0.14471319153E+04 -0.26679788163E+03  0.11799762109E+04  0.18861908038E+04  0.25500000920E-02 0. -1.
</event>
<event>
 5   0  0.1270948E-07  0.3197765E+04  0.7818609E-02  0.8189408E-01
        1   -1    0    0  501    0  0.00000000000E+00  0.00000000000E+00  0.12464692708E+04  0.12464692709E+04  0.50400001928E-02 0. -1.
       -1   -1    0    0    0  501  0.00000000000E+00  0.00000000000E+00 -0.20509335646E+04  0.20509335646E+04  0.50400001928E-02 0.  1.
    10030    2    1    2    0    0  0.00000000000E+00  0.00000000000E+00 -0.80446429374E+03  0.32974028355E+04  0.31977652602E+04 0.  0.
        4    1    3    3  502    0 -0.13949297582E+04 -0.45996562186E+03 -0.10536000840E+04  0.18076150457E+04  0.12699999809E+01 0.  1.
       -4    1    3    3    0  502  0.13949297582E+04  0.45996562186E+03  0.24913579023E+03  0.14897877898E+04  0.12699999809E+01 0. -1.
</event>
<event>
 5   0  0.3942564E-07  0.3215479E+04  0.7818609E-02  0.8184741E-01
       -2   -1    0    0    0  501  0.00000000000E+00  0.00000000000E+00  0.12878980970E+04  0.12878980970E+04  0.25500000920E-02 0.  1.
        2   -1    0    0  501    0  0.00000000000E+00  0.00000000000E+00 -0.20070112456E+04  0.20070112456E+04  0.25500000920E-02 0. -1.
    10030    2    1    2    0    0  0.00000000000E+00  0.00000000000E+00 -0.71911314855E+03  0.32949093426E+04  0.32154787911E+04 0.  0.
        3    1    3    3  502    0  0.20226520404E+03 -0.84341177690E+03 -0.17467220220E+04  0.19502031870E+04  0.10100000352E+00 0. -1.
       -3    1    3    3    0  502 -0.20226520404E+03  0.84341177690E+03  0.10276088734E+04  0.13447061557E+04  0.10100000352E+00 0.  1.
</event>
<event>
 5   0  0.3764056E-07  0.3198613E+04  0.7818609E-02  0.8189184E-01
       -2   -1    0    0    0  501  0.00000000000E+00  0.00000000000E+00  0.14404264165E+04  0.14404264165E+04  0.25500000920E-02 0.  1.
        2   -1    0    0  501    0  0.00000000000E+00  0.00000000000E+00 -0.17757112732E+04  0.17757112732E+04  0.25500000920E-02 0. -1.
    10030    2    1    2    0    0  0.00000000000E+00  0.00000000000E+00 -0.33528485665E+03  0.32161376897E+04  0.31986130907E+04 0.  0.
        5    1    3    3  502    0 -0.92729817369E+03  0.12147903906E+04  0.30628032222E+03  0.15586620293E+04  0.46999998093E+01 0.  1.
       -5    1    3    3    0  502  0.92729817369E+03 -0.12147903906E+04 -0.64156517887E+03  0.16574756603E+04  0.46999998093E+01 0. -1.
</event>
<event>
 5   0  0.3750285E-07  0.3205100E+04  0.7818609E-02  0.8187471E-01
        2   -1    0    0  501    0  0.00000000000E+00  0.00000000000E+00  0.26579575193E+04  0.26579575193E+04  0.25500000920E-02 0.  1.
       -2   -1    0    0    0  501  0.00000000000E+00  0.00000000000E+00 -0.96621827475E+03  0.96621827476E+03  0.25500000920E-02 0. -1.
    10030    2    1    2    0    0  0.00000000000E+00  0.00000000000E+00  0.16917392446E+04  0.36241757941E+04  0.32051003908E+04 0.  0.
        1    1    3    3  502    0  0.15361827045E+04 -0.12899133136E+02  0.13617499674E+04  0.20528971389E+04  0.50400001928E-02 0.  1.
       -1    1    3    3    0  502 -0.15361827045E+04  0.12899133136E+02  0.32998927723E+03  0.15712786552E+04  0.50400001928E-02 0. -1.
</event>
<event>
 5   0  0.1270948E-07  0.3197231E+04  0.7818609E-02  0.8189549E-01
        1   -1    0    0  501    0  0.00000000000E+00  0.00000000000E+00  0.21596974580E+04  0.21596974580E+04  0.50400001928E-02 0. -1.
       -1   -1    0    0    0  501  0.00000000000E+00  0.00000000000E+00 -0.11833009033E+04  0.11833009033E+04  0.50400001928E-02 0.  1.
    10030    2    1    2    0    0  0.00000000000E+00  0.00000000000E+00  0.97639655467E+03  0.33429983613E+04  0.31972312728E+04 0.  0.
        4    1    3    3  502    0  0.44776400123E+03 -0.12786652062E+04 -0.39907298404E+03  0.14123519993E+04  0.12699999809E+01 0.  1.
       -4    1    3    3    0  502 -0.44776400123E+03  0.12786652062E+04  0.13754695387E+04  0.19306463620E+04  0.12699999809E+01 0. -1.
</event>
<event>
 5   0  0.3750285E-07  0.3196299E+04  0.7818609E-02  0.8189795E-01
       -2   -1    0    0    0  501  0.00000000000E+00  0.00000000000E+00  0.14773422634E+04  0.14773422634E+04  0.25500000920E-02 0. -1.
        2   -1    0    0  501    0  0.00000000000E+00  0.00000000000E+00 -0.17288359485E+04  0.17288359485E+04  0.25500000920E-02 0.  1.
    10030    2    1    2    0    0  0.00000000000E+00  0.00000000000E+00 -0.25149368504E+03  0.32061782119E+04  0.31962993685E+04 0.  0.
        1    1    3    3  502    0  0.48413856201E+03  0.43845660476E+03 -0.15888323001E+04  0.17178540157E+04  0.50400001928E-02 0.  1.
       -1    1    3    3    0  502 -0.48413856201E+03 -0.43845660476E+03  0.13373386151E+04  0.14883241962E+04  0.50400001928E-02 0. -1.
</event>
<event>
 5   0  0.1317293E-07  0.3187642E+04  0.7818609E-02  0.8192089E-01
       -1   -1    0    0    0  501  0.00000000000E+00  0.00000000000E+00  0.20883440902E+04  0.20883440902E+04  0.50400001928E-02 0.  1.
        1   -1    0    0  501    0  0.00000000000E+00  0.00000000000E+00 -0.12164015528E+04  0.12164015528E+04  0.50400001928E-02 0. -1.
    10030    2    1    2    0    0  0.00000000000E+00  0.00000000000E+00  0.87194253735E+03  0.33047456430E+04  0.31876417579E+04 0.  0.
        1    1    3    3  502    0  0.56084780353E+03  0.30685061772E+03  0.19495919420E+04  0.20517349489E+04  0.50400001928E-02 0.  1.
       -1    1    3    3    0  502 -0.56084780353E+03 -0.30685061772E+03 -0.10776494046E+04  0.12530106941E+04  0.50400001928E-02 0. -1.
</event>
<event>
 5   0  0.3830207E-07  0.3201318E+04  0.7818609E-02  0.8188469E-01
        2   -1    0    0  501    0  0.00000000000E+00  0.00000000000E+00  0.18943982530E+04  0.18943982530E+04  0.25500000920E-02 0. -1.
       -2   -1    0    0    0  501  0.00000000000E+00  0.00000000000E+00 -0.13524661337E+04  0.13524661337E+04  0.25500000920E-02 0.  1.
    10030    2    1    2    0    0  0.00000000000E+00  0.00000000000E+00  0.54193211928E+03  0.32468643867E+04  0.32013181540E+04 0.  0.
        4    1    3    3  502    0 -0.61441774278E+03  0.10290096123E+04 -0.80513723357E+03  0.14438204606E+04  0.12699999809E+01 0.  1.
       -4    1    3    3    0  502  0.61441774278E+03 -0.10290096123E+04  0.13470693528E+04  0.18030439260E+04  0.12699999809E+01 0. -1.
</event>
<event>
 5   0  0.1317293E-07  0.3246670E+04  0.7818609E-02  0.8176599E-01
       -1   -1    0    0    0  501  0.00000000000E+00  0.00000000000E+00  0.11088698355E+04  0.11088698355E+04  0.50400001928E-02 0.  1.
        1   -1    0    0  501    0  0.00000000000E+00  0.00000000000E+00 -0.23764888471E+04  0.23764888471E+04  0.50400001928E-02 0. -1.
    10030    2    1    2    0    0  0.00000000000E+00  0.00000000000E+00 -0.12676190116E+04  0.34853586826E+04  0.32466701693E+04 0.  0.
        1    1    3    3  502    0 -0.30943608067E+03 -0.14512758629E+03 -0.23374267055E+04  0.23622820128E+04  0.50400001928E-02 0. -1.
       -1    1    3    3    0  502  0.30943608067E+03  0.14512758629E+03  0.10698076939E+04  0.11230766698E+04  0.50400001928E-02 0.  1.
</event>
<event>
 5   0  0.3764056E-07  0.3200381E+04  0.7818609E-02  0.8188717E-01
        2   -1    0    0  501    0  0.00000000000E+00  0.00000000000E+00  0.28644970411E+04  0.28644970411E+04  0.25500000920E-02 0. -1.
       -2   -1    0    0    0  501  0.00000000000E+00  0.00000000000E+00 -0.89391224326E+03  0.89391224326E+03  0.25500000920E-02 0.  1.
    10030    2    1    2    0    0  0.00000000000E+00  0.00000000000E+00  0.19705847978E+04  0.37584092843E+04  0.32003805872E+04 0.  0.
        5    1    3    3  502    0 -0.14001537493E+04 -0.74359828449E+03  0.73010687568E+03  0.17454074225E+04  0.46999998093E+01 0.  1.
       -5    1    3    3    0  502  0.14001537493E+04  0.74359828449E+03  0.12404779221E+04  0.20130018618E+04  0.46999998093E+01 0. -1.
</event>
<event>
 5   0  0.3764056E-07  0.3198473E+04  0.7818609E-02  0.8189221E-01
       -2   -1    0    0    0  501  0.00000000000E+00  0.00000000000E+00  0.13438468481E+04  0.13438468482E+04  0.25500000920E-02 0. -1.
        2   -1    0    0  501    0  0.00000000000E+00  0.00000000000E+00 -0.19031608132E+04  0.19031608132E+04  0.25500000920E-02 0.  1.
    10030    2    1    2    0    0  0.00000000000E+00  0.00000000000E+00 -0.55931396510E+03  0.32470076614E+04  0.31984725482E+04 0.  0.
        5    1    3    3  502    0 -0.10817256260E+03 -0.15144536347E+04  0.23022287503E+03  0.15356743721E+04  0.46999998093E+01 0. -1.
       -5    1    3    3    0  502  0.10817256260E+03  0.15144536347E+04 -0.78953684012E+03  0.17113332893E+04  0.46999998093E+01 0.  1.
</event>
<event>
 5   0  0.3858721E-07  0.3203086E+04  0.7818609E-02  0.8188003E-01
       -2   -1    0    0    0  501  0.00000000000E+00  0.00000000000E+00  0.19280852536E+04  0.19280852536E+04  0.25500000920E-02 0.  1.
        2   -1    0    0  501    0  0.00000000000E+00  0.00000000000E+00 -0.13303038779E+04  0.13303038779E+04  0.25500000920E-02 0. -1.
    10030    2    1    2    0    0  0.00000000000E+00  0.00000000000E+00  0.59778137577E+03  0.32583891315E+04  0.32030855685E+04 0.  0.
        2    1    3    3  502    0 -0.73781149751E+03 -0.41346063588E+03  0.16823809565E+04  0.18830085464E+04  0.25500000920E-02 0.  1.
       -2    1    3    3    0  502  0.73781149751E+03  0.41346063588E+03 -0.10845995807E+04  0.13753805851E+04  0.25500000920E-02 0. -1.
</event>
<event>
 5   0  0.3858721E-07  0.3199845E+04  0.7818609E-02  0.8188858E-01
       -2   -1    0    0    0  501  0.00000000000E+00  0.00000000000E+00  0.12795167443E+04  0.12795167443E+04  0.25500000920E-02 0. -1.
        2   -1    0    0  501    0  0.00000000000E+00  0.00000000000E+00 -0.20005620354E+04  0.20005620354E+04  0.25500000920E-02 0.  1.
    10030    2    1    2    0    0  0.00000000000E+00  0.00000000000E+00 -0.72104529114E+03  0.32800787797E+04  0.31998453852E+04 0.  0.
        2    1    3    3  502    0 -0.53711925822E+03  0.81950395260E+03 -0.16570160666E+04  0.19250418362E+04  0.25500000920E-02 0.  1.
       -2    1    3    3    0  502  0.53711925822E+03 -0.81950395260E+03  0.93597077550E+03  0.13550369436E+04  0.25500000920E-02 0. -1.
</event>
<event>
 5   0  0.3750285E-07  0.3200173E+04  0.7818609E-02  0.8188772E-01
        2   -1    0    0  501    0  0.00000000000E+00  0.00000000000E+00  0.15071746654E+04  0.15071746654E+04  0.25500000920E-02 0. -1.
       -2   -1    0    0    0  501  0.00000000000E+00  0.00000000000E+00 -0.16987258737E+04  0.16987258737E+04  0.25500000920E-02 0.  1.
    10030    2    1    2    0    0  0.00000000000E+00  0.00000000000E+00 -0.19155120832E+03  0.32059005392E+04  0.32001728706E+04 0.  0.
        1    1    3    3  502    0 -0.14726861521E+04  0.57342846368E+03 -0.34652720292E+03  0.16179325721E+04  0.50400001928E-02 0.  1.
       -1    1    3    3    0  502  0.14726861521E+04 -0.57342846368E+03  0.15497599460E+03  0.15879679671E+04  0.50400001928E-02 0. -1.
</event>
<event>
 5   0  0.1277374E-07  0.3193576E+04  0.7818609E-02  0.8190516E-01
        1   -1    0    0  501    0  0.00000000000E+00  0.00000000000E+00  0.24454996867E+04  0.24454996867E+04  0.50400001928E-02 0.  1.
       -1   -1    0    0    0  501  0.00000000000E+00  0.00000000000E+00 -0.10426222814E+04  0.10426222814E+04  0.50400001928E-02 0. -1.
    10030    2    1    2    0    0  0.00000000000E+00  0.00000000000E+00  0.14028774053E+04  0.34881219681E+04  0.31935763417E+04 0.  0.
        5    1    3    3  502    0  0.47189657808E+03 -0.10663445684E+04 -0.49001085601E+03  0.12648754278E+04  0.46999998093E+01 0. -1.
       -5    1    3    3    0  502 -0.47189657808E+03  0.10663445684E+04  0.18928882613E+04  0.22232465403E+04  0.46999998093E+01 0.  1.
</event>
<event>
 5   0  0.1365455E-07  0.3201853E+04  0.7818609E-02  0.8188328E-01
        1   -1    0    0  501    0  0.00000000000E+00  0.00000000000E+00  0.86563925377E+03  0.86563925378E+03  0.50400001928E-02 0. -1.
       -1   -1    0    0    0  501  0.00000000000E+00  0.00000000000E+00 -0.29607784952E+04  0.29607784953E+04  0.50400001928E-02 0.  1.
    10030    2    1    2    0    0  0.00000000000E+00  0.00000000000E+00 -0.20951392415E+04  0.38264177490E+04  0.32018532679E+04 0.  0.
        3    1    3    3  502    0  0.65577683877E+03 -0.22174982802E+03 -0.27726675164E+04  0.28577791054E+04  0.10100000352E+00 0.  1.
       -3    1    3    3    0  502 -0.65577683877E+03  0.22174982802E+03  0.67752827491E+03  0.96863864366E+03  0.10100000352E+00 0. -1.
</event>
<event>
 5   0  0.3942564E-07  0.3199423E+04  0.7818609E-02  0.8188970E-01
       -2   -1    0    0    0  501  0.00000000000E+00  0.00000000000E+00  0.10767185326E+04  0.10767185326E+04  0.25500000920E-02 0.  1.
        2   -1    0    0  501    0  0.00000000000E+00  0.00000000000E+00 -0.23767370067E+04  0.23767370067E+04  0.25500000920E-02 0. -1.
    10030    2    1    2    0    0  0.00000000000E+00  0.00000000000E+00 -0.13000184741E+04  0.34534555394E+04  0.31994229369E+04 0.  0.
        3    1    3    3  502    0 -0.96997340273E+03  0.81955225175E+03 -0.17001725864E+04  0.21220511608E+04  0.10100000352E+00 0. -1.
       -3    1    3    3    0  502  0.96997340273E+03 -0.81955225175E+03  0.40015411231E+03  0.13314043785E+04  0.10100000352E+00 0.  1.
</event>
<event>
 5   0  0.1317293E-07  0.3195227E+04  0.7818609E-02  0.8190079E-01
        1   -1    0    0  501    0  0.00000000000E+00  0.00000000000E+00  0.10075233172E+04  0.10075233172E+04  0.50400001928E-02 0. -1.
       -1   -1    0    0    0  501  0.00000000000E+00  0.00000000000E+00 -0.25333100444E+04  0.25333100444E+04  0.50400001928E-02 0.  1.
    10030    2    1    2    0    0  0.00000000000E+00  0.00000000000E+00 -0.15257867272E+04  0.35408333616E+04  0.31952270276E+04 0.  0.
        1    1    3    3  502    0  0.80009804740E+03  0.91436192933E+03  0.38669151706E+03  0.12750470394E+04  0.50400001928E-02 0. -1.
       -1    1    3    3    0  502 -0.80009804740E+03 -0.91436192933E+03 -0.19124782443E+04  0.22657863223E+04  0.50400001928E-02 0.  1.
</event>
<event>
 5   0  0.3858721E-07  0.3228437E+04  0.7818609E-02  0.8181347E-01
        2   -1    0    0  501    0  0.00000000000E+00  0.00000000000E+00  0.25519570020E+04  0.25519570020E+04  0.25500000920E-02 0.  1.
       -2   -1    0    0    0  501  0.00000000000E+00  0.00000000000E+00 -0.10210602285E+04  0.10210602285E+04  0.25500000920E-02 0. -1.
    10030    2    1    2    0    0  0.00000000000E+00  0.00000000000E+00  0.15308967735E+04  0.35730172305E+04  0.32284372688E+04 0.  0.
        2    1    3    3  502    0 -0.14545495566E+04 -0.12794506463E+03  0.37963550573E+01  0.14601707997E+04  0.25500000920E-02 0.  1.
       -2    1    3    3    0  502  0.14545495566E+04  0.12794506463E+03  0.15271004185E+04  0.21128464308E+04  0.25500000920E-02 0. -1.
</event>
<event>
 5   0  0.1270948E-07  0.3206983E+04  0.7818609E-02  0.8186975E-01
        1   -1    0    0  501    0  0.00000000000E+00  0.00000000000E+00  0.24943509340E+04  0.24943509340E+04  0.50400001928E-02 0. -1.
       -1   -1    0    0    0  501  0.00000000000E+00  0.00000000000E+00 -0.10308031533E+04  0.10308031534E+04  0.50400001928E-02 0.  1.
    10030    2    1    2    0    0  0.00000000000E+00  0.00000000000E+00  0.14635477806E+04  0.35251540873E+04  0.32069828863E+04 0.  0.
        4    1    3    3  502    0  0.51356338452E+03  0.12825344663E+04  0.16264954528E+04  0.21340410207E+04  0.12699999809E+01 0. -1.
       -4    1    3    3    0  502 -0.51356338452E+03 -0.12825344663E+04 -0.16294767224E+03  0.13911130666E+04  0.12699999809E+01 0.  1.
</event>
<event>
 5   0  0.1317293E-07  0.3200512E+04  0.7818609E-02  0.8188682E-01
       -1   -1    0    0    0  501  0.00000000000E+00  0.00000000000E+00  0.16310306578E+04  0.16310306578E+04  0.50400001928E-02 0.  1.
        1   -1    0    0  501    0  0.00000000000E+00  0.00000000000E+00 -0.15700620067E+04  0.15700620067E+04  0.50400001928E-02 0. -1.
    10030    2    1    2    0    0  0.00000000000E+00  0.00000000000E+00  0.60968651123E+02  0.32010926645E+04  0.32005120013E+04 0.  0.
        1    1    3    3  502    0  0.12379072864E+04  0.86778712507E+03  0.55531786588E+03  0.16105424168E+04  0.50400001928E-02 0.  1.
       -1    1    3    3    0  502 -0.12379072864E+04 -0.86778712507E+03 -0.49434921476E+03  0.15905502477E+04  0.50400001928E-02 0. -1.
</event>
<event>
 5   0  0.1288096E-07  0.3199097E+04  0.7818609E-02  0.8189056E-01
        1   -1    0    0  501    0  0.00000000000E+00  0.00000000000E+00  0.15306662196E+04  0.15306662196E+04  0.50400001928E-02 0.  1.
       -1   -1    0    0    0  501  0.00000000000E+00  0.00000000000E+00 -0.16715304231E+04  0.16715304231E+04  0.50400001928E-02 0. -1.
    10030    2    1    2    0    0  0.00000000000E+00  0.00000000000E+00 -0.14086420347E+03  0.32021966427E+04  0.31990968436E+04 0.  0.
        2    1    3    3  502    0  0.51385746900E+03  0.15046399457E+04 -0.24542795610E+03  0.16087963657E+04  0.25500000920E-02 0. -1.
       -2    1    3    3    0  502 -0.51385746900E+03 -0.15046399457E+04  0.10456375263E+03  0.15934002770E+04  0.25500000920E-02 0.  1.
</event>
<event>
 5   0  0.1277374E-07  0.3196796E+04  0.7818609E-02  0.8189664E-01
       -1   -1    0    0    0  501  0.00000000000E+00  0.00000000000E+00  0.13435103789E+04  0.13435103789E+04  0.50400001928E-02 0. -1.
        1   -1    0    0  501    0  0.00000000000E+00  0.00000000000E+00 -0.19016423264E+04  0.19016423264E+04  0.50400001928E-02 0.  1.
    10030    2    1    2    0    0  0.00000000000E+00  0.00000000000E+00 -0.55813194754E+03  0.32451527053E+04  0.31967960226E+04 0.  0.
        5    1    3    3  502    0  0.13201786726E+03 -0.79636533190E+03 -0.16795094390E+04  0.18634378189E+04  0.46999998093E+01 0.  1.
       -5    1    3    3    0  502 -0.13201786726E+03  0.79636533190E+03  0.11213774915E+04  0.13817148865E+04  0.46999998093E+01 0. -1.
</event>
<event>
 5   0  0.3830207E-07  0.3204350E+04  0.7818609E-02  0.8187669E-01
       -2   -1    0    0    0  501  0.00000000000E+00  0.00000000000E+00  0.13192587010E+04  0.13192587010E+04  0.25500000920E-02 0. -1.
        2   -1    0    0  501    0  0.00000000000E+00  0.00000000000E+00 -0.19457627315E+04  0.19457627315E+04  0.25500000920E-02 0.  1.
    10030    2    1    2    0    0  0.00000000000E+00  0.00000000000E+00 -0.62650403053E+03  0.32650214325E+04  0.32043498021E+04 0.  0.
        4    1    3    3  502    0 -0.15901434489E+04  0.16403172060E+03 -0.42252151370E+03  0.16534777398E+04  0.12699999809E+01 0. -1.
       -4    1    3    3    0  502  0.15901434489E+04 -0.16403172060E+03 -0.20398251683E+03  0.16115436927E+04  0.12699999809E+01 0.  1.
</event>
<event>
 5   0  0.3830207E-07  0.3199454E+04  0.7818609E-02  0.8188961E-01
        2   -1    0    0  501    0  0.00000000000E+00  0.00000000000E+00  0.22315815205E+04  0.22315815205E+04  0.25500000920E-02 0.  1.
       -2   -1    0    0    0  501  0.00000000000E+00  0.00000000000E+00 -0.11467769694E+04  0.11467769694E+04  0.25500000920E-02 0. -1.
    10030    2    1    2    0    0  0.00000000000E+00  0.00000000000E+00  0.10848045511E+04  0.33783584899E+04  0.31994538865E+04 0.  0.
        4    1    3    3  502    0  0.13780642335E+04  0.80286216773E+03  0.41104350669E+03  0.16469994139E+04  0.12699999809E+01 0.  1.
       -4    1    3    3    0  502 -0.13780642335E+04 -0.80286216773E+03  0.67376104445E+03  0.17313590760E+04  0.12699999809E+01 0. -1.
</event>
<event>
 5   0  0.1288096E-07  0.3208615E+04  0.7818609E-02  0.8186546E-01
       -1   -1    0    0    0  501  0.00000000000E+00  0.00000000000E+00  0.11720319700E+04  0.11720319700E+04  0.50400001928E-02 0. -1.
        1   -1    0    0  501    0  0.00000000000E+00  0.00000000000E+00 -0.21960174169E+04  0.21960174169E+04  0.50400001928E-02 0.  1.
    10030    2    1    2    0    0  0.00000000000E+00  0.00000000000E+00 -0.10239854468E+04  0.33680493869E+04  0.32086150404E+04 0.  0.
        2    1    3    3  502    0  0.10914479543E+04  0.10340418429E+04 -0.10995389457E+04  0.18626559164E+04  0.25500000920E-02 0.  1.
       -2    1    3    3    0  502 -0.10914479543E+04 -0.10340418429E+04  0.75553498851E+02  0.15053934705E+04  0.25500000920E-02 0. -1.
</event>
<event>
 5   0  0.3830207E-07  0.3216533E+04  0.7818609E-02  0.8184464E-01
        2   -1    0    0  501    0  0.00000000000E+00  0.00000000000E+00  0.18066671468E+04  0.18066671468E+04  0.25500000920E-02 0.  1.
       -2   -1    0    0    0  501  0.00000000000E+00  0.00000000000E+00 -0.14316534029E+04  0.14316534029E+04  0.25500000920E-02 0. -1.
    10030    2    1    2    0    0  0.00000000000E+00  0.00000000000E+00  0.37501374388E+03  0.32383205498E+04  0.32165330210E+04 0.  0.
        4    1    3    3  502    0 -0.14593782104E+04  0.58580143387E+03  0.52679327425E+03  0.16584513401E+04  0.12699999809E+01 0.  1.
       -4    1    3    3    0  502  0.14593782104E+04 -0.58580143387E+03 -0.15177953037E+03  0.15798692097E+04  0.12699999809E+01 0. -1.
</event>
<event>
 5   0  0.3750285E-07  0.3197954E+04  0.7818609E-02  0.8189358E-01
        2   -1    0    0  501    0  0.00000000000E+00  0.00000000000E+00  0.15334260828E+04  0.15334260828E+04  0.25500000920E-02 0. -1.
       -2   -1    0    0    0  501  0.00000000000E+00  0.00000000000E+00 -0.16673295862E+04  0.16673295862E+04  0.25500000920E-02 0.  1.
    10030    2    1    2    0    0  0.00000000000E+00  0.00000000000E+00 -0.13390350344E+03  0.32007556690E+04  0.31979535182E+04 0.  0.
        1    1    3    3  502    0  0.30181226934E+03 -0.25574932922E+03  0.14836727901E+04  0.15355075101E+04  0.50400001928E-02 0. -1.
       -1    1    3    3    0  502 -0.30181226934E+03  0.25574932922E+03 -0.16175762935E+04  0.16652481589E+04  0.50400001928E-02 0.  1.
</event>
<event>
 5   0  0.3830207E-07  0.3197891E+04  0.7818609E-02  0.8189374E-01
       -2   -1    0    0    0  501  0.00000000000E+00  0.00000000000E+00  0.18751550261E+04  0.18751550261E+04  0.25500000920E-02 0. -1.
        2   -1    0    0  501    0  0.00000000000E+00  0.00000000000E+00 -0.13634214309E+04  0.13634214309E+04  0.25500000920E-02 0.  1.
    10030    2    1    2    0    0  0.00000000000E+00  0.00000000000E+00  0.51173359525E+03  0.32385764570E+04  0.31978908980E+04 0.  0.
        4    1    3    3  502    0  0.11027033128E+04 -0.94212154199E+03 -0.42580712851E+03  0.15115756413E+04  0.12699999809E+01 0.  1.
       -4    1    3    3    0  502 -0.11027033128E+04  0.94212154199E+03  0.93754072376E+03  0.17270008157E+04  0.12699999809E+01 0. -1.
</event>
<event>
 5   0  0.1277374E-07  0.3204849E+04  0.7818609E-02  0.8187538E-01
        1   -1    0    0  501    0  0.00000000000E+00  0.00000000000E+00  0.17486980076E+04  0.17486980076E+04  0.50400001928E-02 0. -1.
       -1   -1    0    0    0  501  0.00000000000E+00  0.00000000000E+00 -0.14683864945E+04  0.14683864945E+04  0.50400001928E-02 0.  1.
    10030    2    1    2    0    0  0.00000000000E+00  0.00000000000E+00  0.28031151314E+03  0.32170845021E+04  0.32048491617E+04 0.  0.
        5    1    3    3  502    0  0.21438471121E+03 -0.15537970257E+04 -0.18896246475E+03  0.15798654704E+04  0.46999998093E+01 0. -1.
       -5    1    3    3    0  502 -0.21438471121E+03  0.15537970257E+04  0.46927397789E+03  0.16372190317E+04  0.46999998093E+01 0.  1.
</event>
<event>
 5   0  0.3764056E-07  0.3152067E+04  0.7818609E-02  0.8201592E-01
       -2   -1    0    0    0  501  0.00000000000E+00  0.00000000000E+00  0.96041433694E+03  0.96041433694E+03  0.25500000920E-02 0. -1.
        2   -1    0    0  501    0  0.00000000000E+00  0.00000000000E+00 -0.25862609276E+04  0.25862609276E+04  0.25500000920E-02 0.  1.
    10030    2    1    2    0    0  0.00000000000E+00  0.00000000000E+00 -0.16258465907E+04  0.35466752645E+04  0.31520673051E+04 0.  0.
        5    1    3    3  502    0  0.14306730278E+04  0.98455498682E+02 -0.77371399184E+02  0.14361501388E+04  0.46999998093E+01 0. -1.
       -5    1    3    3    0  502 -0.14306730278E+04 -0.98455498682E+02 -0.15484751915E+04  0.21105251257E+04  0.46999998093E+01 0.  1.
</event>
<event>
 5   0  0.1277374E-07  0.3204126E+04  0.7818609E-02  0.8187728E-01
        1   -1    0    0  501    0  0.00000000000E+00  0.00000000000E+00  0.16000832334E+04  0.16000832334E+04  0.50400001928E-02 0.  1.
       -1   -1    0    0    0  501  0.00000000000E+00  0.00000000000E+00 -0.16040455812E+04  0.16040455812E+04  0.50400001928E-02 0. -1.
    10030    2    1    2    0    0  0.00000000000E+00  0.00000000000E+00 -0.39623478107E+01  0.32041288145E+04  0.32041263645E+04 0.  0.
        5    1    3    3  502    0  0.98629668783E+03  0.59634195561E+03 -0.11147171529E+04  0.16034404590E+04  0.46999998093E+01 0. -1.
       -5    1    3    3    0  502 -0.98629668783E+03 -0.59634195561E+03  0.11107548051E+04  0.16006883555E+04  0.46999998093E+01 0.  1.
</event>
<event>
 5   0  0.1365455E-07  0.3198371E+04  0.7818609E-02  0.8189248E-01
        1   -1    0    0  501    0  0.00000000000E+00  0.00000000000E+00  0.28156074300E+04  0.28156074301E+04  0.50400001928E-02 0.  1.
       -1   -1    0    0    0  501  0.00000000000E+00  0.00000000000E+00 -0.90829220189E+03  0.90829220191E+03  0.50400001928E-02 0. -1.
    10030    2    1    2    0    0  0.00000000000E+00  0.00000000000E+00  0.19073152282E+04  0.37238996320E+04  0.31983710056E+04 0.  0.
        3    1    3    3  502    0  0.29332247175E+03 -0.21657040105E+03 -0.85925158439E+03  0.93340993488E+03  0.10100000352E+00 0. -1.
       -3    1    3    3    0  502 -0.29332247175E+03  0.21657040105E+03  0.27665668125E+04  0.27904896971E+04  0.10100000352E+00 0.  1.
</event>
<event>
 5   0  0.3764056E-07  0.3195374E+04  0.7818609E-02  0.8190040E-01
       -2   -1    0    0    0  501  0.00000000000E+00  0.00000000000E+00  0.13791079326E+04  0.13791079326E+04  0.25500000920E-02 0.  1.
        2   -1    0    0  501    0  0.00000000000E+00  0.00000000000E+00 -0.18509096442E+04  0.18509096442E+04  0.25500000920E-02 0. -1.
    10030    2    1    2    0    0  0.00000000000E+00  0.00000000000E+00 -0.47180171163E+03  0.32300175768E+04  0.31953742647E+04 0.  0.
        5    1    3    3  502    0 -0.76574918914E+03  0.13598664717E+04  0.10982096041E+03  0.15645099472E+04  0.46999998093E+01 0.  1.
       -5    1    3    3    0  502  0.76574918914E+03 -0.13598664717E+04 -0.58162267204E+03  0.16655076296E+04  0.46999998093E+01 0. -1.
</event>
<event>
 5   0  0.1317293E-07  0.3197645E+04  0.7818609E-02  0.8189439E-01
       -1   -1    0    0    0  501  0.00000000000E+00  0.00000000000E+00  0.12491788310E+04  0.12491788310E+04  0.50400001928E-02 0. -1.
        1   -1    0    0  501    0  0.00000000000E+00  0.00000000000E+00 -0.20463313250E+04  0.20463313251E+04  0.50400001928E-02 0.  1.
    10030    2    1    2    0    0  0.00000000000E+00  0.00000000000E+00 -0.79715249408E+03  0.32955101560E+04  0.31976452414E+04 0.  0.
        1    1    3    3  502    0 -0.80370616615E+03 -0.36324969253E+02  0.10253647765E+04  0.13033173174E+04  0.50400001928E-02 0. -1.
       -1    1    3    3    0  502  0.80370616615E+03  0.36324969253E+02 -0.18225172706E+04  0.19921928387E+04  0.50400001928E-02 0.  1.
</event>
<event>
 5   0  0.1270948E-07  0.3192196E+04  0.7818609E-02  0.8190881E-01
       -1   -1    0    0    0  501  0.00000000000E+00  0.00000000000E+00  0.15535672240E+04  0.15535672240E+04  0.50400001928E-02 0. -1.
        1   -1    0    0  501    0  0.00000000000E+00  0.00000000000E+00 -0.16397934745E+04  0.16397934745E+04  0.50400001928E-02 0.  1.
    10030    2    1    2    0    0  0.00000000000E+00  0.00000000000E+00 -0.86226250530E+02  0.31933606985E+04  0.31921963574E+04 0.  0.
        4    1    3    3  502    0  0.11166841117E+04  0.84537850670E+03  0.72259375771E+03  0.15760049418E+04  0.12699999809E+01 0. -1.
       -4    1    3    3    0  502 -0.11166841117E+04 -0.84537850670E+03 -0.80882000824E+03  0.16173557567E+04  0.12699999809E+01 0.  1.
</event>
<event>
 5   0  0.1277374E-07  0.3199897E+04  0.7818609E-02  0.8188844E-01
        1   -1    0    0  501    0  0.00000000000E+00  0.00000000000E+00  0.14061582965E+04  0.14061582965E+04  0.50400001928E-02 0.  1.
       -1   -1    0    0    0  501  0.00000000000E+00  0.00000000000E+00 -0.18204461768E+04  0.18204461769E+04  0.50400001928E-02 0. -1.
    10030    2    1    2    0    0  0.00000000000E+00  0.00000000000E+00 -0.41428788033E+03  0.32266044734E+04  0.31998971827E+04 0.  0.
        5    1    3    3  502    0  0.11509363967E+04 -0.12909449530E+02  0.91343332788E+03  0.14694229404E+04  0.46999998093E+01 0.  1.
       -5    1    3    3    0  502 -0.11509363967E+04  0.12909449530E+02 -0.13277212082E+04  0.17571815330E+04  0.46999998093E+01 0. -1.
</event>
<event>
 5   0  0.1317293E-07  0.3199492E+04  0.7818609E-02  0.8188951E-01
        1   -1    0    0  501    0  0.00000000000E+00  0.00000000000E+00  0.12181830087E+04  0.12181830087E+04  0.50400001928E-02 0. -1.
       -1   -1    0    0    0  501  0.00000000000E+00  0.00000000000E+00 -0.21008235102E+04  0.21008235102E+04  0.50400001928E-02 0.  1.
    10030    2    1    2    0    0  0.00000000000E+00  0.00000000000E+00 -0.88264050150E+03  0.33190065189E+04  0.31994921500E+04 0.  0.
        1    1    3    3  502    0  0.89383440898E+03  0.83252537917E+02 -0.18149105812E+04  0.20247892121E+04  0.50400001928E-02 0.  1.
       -1    1    3    3    0  502 -0.89383440898E+03 -0.83252537917E+02  0.93227007968E+03  0.12942173068E+04  0.50400001928E-02 0. -1.
</event>
<event>
 5   0  0.1317293E-07  0.3205046E+04  0.7818609E-02  0.8187486E-01
        1   -1    0    0  501    0  0.00000000000E+00  0.00000000000E+00  0.18483670473E+04  0.18483670473E+04  0.50400001928E-02 0.  1.
       -1   -1    0    0    0  501  0.00000000000E+00  0.00000000000E+00 -0.13893779768E+04  0.13893779768E+04  0.50400001928E-02 0. -1.
    10030    2    1    2    0    0  0.00000000000E+00  0.00000000000E+00  0.45898907050E+03  0.32377450241E+04  0.32050463139E+04 0.  0.
        1    1    3    3  502    0 -0.10604287227E+04  0.37718939068E+03 -0.92288881748E+03  0.14555083929E+04  0.50400001928E-02 0. -1.
       -1    1    3    3    0  502  0.10604287227E+04 -0.37718939068E+03  0.13818778880E+04  0.17822366312E+04  0.50400001928E-02 0.  1.
</event>
<event>
 5   0  0.3830207E-07  0.3198511E+04  0.7818609E-02  0.8189210E-01
       -2   -1    0    0    0  501  0.00000000000E+00  0.00000000000E+00  0.21574079699E+04  0.21574079699E+04  0.25500000920E-02 0.  1.
        2   -1    0    0  501    0  0.00000000000E+00  0.00000000000E+00 -0.11855052014E+04  0.11855052014E+04  0.25500000920E-02 0. -1.
    10030    2    1    2    0    0  0.00000000000E+00  0.00000000000E+00  0.97190276853E+03  0.33429131713E+04  0.31985111348E+04 0.  0.
        4    1    3    3  502    0 -0.51331790012E+03 -0.11814583973E+04 -0.50461252669E+03  0.13834647181E+04  0.12699999809E+01 0. -1.
       -4    1    3    3    0  502  0.51331790012E+03  0.11814583973E+04  0.14765152952E+04  0.19594484533E+04  0.12699999809E+01 0.  1.
</event>
<event>
 5   0  0.1270948E-07  0.3197509E+04  0.7818609E-02  0.8189475E-01
        1   -1    0    0  501    0  0.00000000000E+00  0.00000000000E+00  0.17133456660E+04  0.17133456660E+04  0.50400001928E-02 0. -1.
       -1   -1    0    0    0  501  0.00000000000E+00  0.00000000000E+00 -0.14918272752E+04  0.14918272752E+04  0.50400001928E-02 0.  1.
    10030    2    1    2    0    0  0.00000000000E+00  0.00000000000E+00  0.22151839079E+03  0.32051729411E+04  0.31975089031E+04 0.  0.
        4    1    3    3  502    0  0.15286136769E+03  0.12820220781E+04  0.10559227020E+04  0.16679093417E+04  0.12699999809E+01 0. -1.
       -4    1    3    3    0  502 -0.15286136769E+03 -0.12820220781E+04 -0.83440431124E+03  0.15372635994E+04  0.12699999809E+01 0.  1.
</event>
<event>
 5   0  0.1317293E-07  0.3201271E+04  0.7818609E-02  0.8188482E-01
        1   -1    0    0  501    0  0.00000000000E+00  0.00000000000E+00  0.27046060698E+04  0.27046060698E+04  0.50400001928E-02 0.  1.
       -1   -1    0    0    0  501  0.00000000000E+00  0.00000000000E+00 -0.94728556462E+03  0.94728556463E+03  0.50400001928E-02 0. -1.
    10030    2    1    2    0    0  0.00000000000E+00  0.00000000000E+00  0.17573205052E+04  0.36518916345E+04  0.32012711775E+04 0.  0.
        1    1    3    3  502    0  0.12699694021E+04  0.10717246443E+03  0.19833324205E+04  0.23575232150E+04  0.50400001928E-02 0.  1.
       -1    1    3    3    0  502 -0.12699694021E+04 -0.10717246443E+03 -0.22601191526E+03  0.12943684194E+04  0.50400001928E-02 0. -1.
</event>
<event>
 5   0  0.1365455E-07  0.3209288E+04  0.7818609E-02  0.8186368E-01
        1   -1    0    0  501    0  0.00000000000E+00  0.00000000000E+00  0.19681750275E+04  0.19681750275E+04  0.50400001928E-02 0.  1.
       -1   -1    0    0    0  501  0.00000000000E+00  0.00000000000E+00 -0.13082590898E+04  0.13082590898E+04  0.50400001928E-02 0. -1.
    10030    2    1    2    0    0  0.00000000000E+00  0.00000000000E+00  0.65991593763E+03  0.32764341173E+04  0.32092883137E+04 0.  0.
        3    1    3    3  502    0 -0.11119574131E+04  0.51144669306E+03  0.13893860765E+04  0.18515994946E+04  0.10100000352E+00 0.  1.
       -3    1    3    3    0  502  0.11119574131E+04 -0.51144669306E+03 -0.72947013891E+03  0.14248346227E+04  0.10100000352E+00 0. -1.
</event>
<event>
 5   0  0.1277374E-07  0.3198893E+04  0.7818609E-02  0.8189110E-01
       -1   -1    0    0    0  501  0.00000000000E+00  0.00000000000E+00  0.15383355962E+04  0.15383355962E+04  0.50400001928E-02 0.  1.
        1   -1    0    0  501    0  0.00000000000E+00  0.00000000000E+00 -0.16629852056E+04  0.16629852056E+04  0.50400001928E-02 0. -1.
    10030    2    1    2    0    0  0.00000000000E+00  0.00000000000E+00 -0.12464960941E+03  0.32013208017E+04  0.31988931446E+04 0.  0.
        5    1    3    3  502    0 -0.10301186356E+04 -0.50858857978E+03  0.10513541758E+04  0.15572971585E+04  0.46999998093E+01 0.  1.
       -5    1    3    3    0  502  0.10301186356E+04  0.50858857978E+03 -0.11760037852E+04  0.16440236433E+04  0.46999998093E+01 0. -1.
</event>
<event>
 5   0  0.3830207E-07  0.3208792E+04  0.7818609E-02  0.8186499E-01
       -2   -1    0    0    0  501  0.00000000000E+00  0.00000000000E+00  0.21128563071E+04  0.21128563071E+04  0.25500000920E-02 0.  1.
        2   -1    0    0  501    0  0.00000000000E+00  0.00000000000E+00 -0.12182971361E+04  0.12182971361E+04  0.25500000920E-02 0. -1.
    10030    2    1    2    0    0  0.00000000000E+00  0.00000000000E+00  0.89455917101E+03  0.33311534432E+04  0.32087921640E+04 0.  0.
        4    1    3    3  502    0 -0.74971024404E+03  0.13389117467E+04  0.93347076791E+03  0.17961401401E+04  0.12699999809E+01 0. -1.
       -4    1    3    3    0  502  0.74971024404E+03 -0.13389117467E+04 -0.38911596903E+02  0.15350133031E+04  0.12699999809E+01 0.  1.
</event>
<event>
 5   0  0.1288096E-07  0.3196482E+04  0.7818609E-02  0.8189747E-01
        1   -1    0    0  501    0  0.00000000000E+00  0.00000000000E+00  0.16661871909E+04  0.16661871909E+04  0.50400001928E-02 0.  1.
       -1   -1    0    0    0  501  0.00000000000E+00  0.00000000000E+00 -0.15330657360E+04  0.15330657360E+04  0.50400001928E-02 0. -1.
    10030    2    1    2    0    0  0.00000000000E+00  0.00000000000E+00  0.13312145490E+03  0.31992529270E+04  0.31964821240E+04 0.  0.
        2    1    3    3  502    0  0.63230957596E+03  0.68856567896E+03  0.13640008850E+04  0.16536131677E+04  0.25500000920E-02 0.  1.
       -2    1    3    3    0  502 -0.63230957596E+03 -0.68856567896E+03 -0.12308794301E+04  0.15456397593E+04  0.25500000920E-02 0. -1.
</event>
<event>
 5   0  0.1270948E-07  0.3201409E+04  0.7818609E-02  0.8188445E-01
        1   -1    0    0  501    0  0.00000000000E+00  0.00000000000E+00  0.14468204790E+04  0.14468204790E+04  0.50400001928E-02 0.  1.
       -1   -1    0    0    0  501  0.00000000000E+00  0.00000000000E+00 -0.17709557163E+04  0.17709557163E+04  0.50400001928E-02 0. -1.
    10030    2    1    2    0    0  0.00000000000E+00  0.00000000000E+00 -0.32413523729E+03  0.32177761953E+04  0.32014090634E+04 0.  0.
        4    1    3    3  502    0  0.14027305853E+04  0.52777538811E+02 -0.93529563794E+03  0.16867774325E+04  0.12699999809E+01 0.  1.
       -4    1    3    3    0  502 -0.14027305853E+04 -0.52777538811E+02  0.61116040065E+03  0.15309987628E+04  0.12699999809E+01 0. -1.
</event>
<event>
 5   0  0.3830207E-07  0.3202339E+04  0.7818609E-02  0.8188200E-01
       -2   -1    0    0    0  501  0.00000000000E+00  0.00000000000E+00  0.14518086732E+04  0.14518086732E+04  0.25500000920E-02 0. -1.
        2   -1    0    0  501    0  0.00000000000E+00  0.00000000000E+00 -0.17658965090E+04  0.17658965090E+04  0.25500000920E-02 0.  1.
    10030    2    1    2    0    0  0.00000000000E+00  0.00000000000E+00 -0.31408783580E+03  0.32177051823E+04  0.32023390625E+04 0.  0.
        4    1    3    3  502    0 -0.68957033730E+02 -0.14347724938E+04 -0.86783853215E+03  0.16782349396E+04  0.12699999809E+01 0. -1.
       -4    1    3    3    0  502  0.68957033730E+02  0.14347724938E+04  0.55375069635E+03  0.15394702427E+04  0.12699999809E+01 0.  1.
</event>
<event>
 5   0  0.3764056E-07  0.3198864E+04  0.7818609E-02  0.8189117E-01
       -2   -1    0    0    0  501  0.00000000000E+00  0.00000000000E+00  0.17175516784E+04  0.17175516784E+04  0.25500000920E-02 0.  1.
        2   -1    0    0  501    0  0.00000000000E+00  0.00000000000E+00 -0.14894360165E+04  0.14894360165E+04  0.25500000920E-02 0. -1.
    10030    2    1    2    0    0  0.00000000000E+00  0.00000000000E+00  0.22811566192E+03  0.32069876950E+04  0.31988643798E+04 0.  0.
        5    1    3    3  502    0  0.22174966454E+03  0.69402329423E+03 -0.13133977973E+04  0.15019577593E+04  0.46999998093E+01 0. -1.
       -5    1    3    3    0  502 -0.22174966454E+03 -0.69402329423E+03  0.15415134592E+04  0.17050299357E+04  0.46999998093E+01 0.  1.
</event>
<event>
 5   0  0.1270948E-07  0.3172556E+04  0.7818609E-02  0.8196103E-01
        1   -1    0    0  501    0  0.00000000000E+00  0.00000000000E+00  0.21018934322E+04  0.21018934322E+04  0.50400001928E-02 0. -1.
       -1   -1    0    0    0  501  0.00000000000E+00  0.00000000000E+00 -0.11971483714E+04  0.11971483714E+04  0.50400001928E-02 0.  1.
    10030    2    1    2    0    0  0.00000000000E+00  0.00000000000E+00  0.90474506081E+03  0.32990418036E+04  0.31725562559E+04 0.  0.
        4    1    3    3  502    0  0.58418407144E+03  0.32610317737E+03  0.19479995234E+04  0.20596888279E+04  0.12699999809E+01 0. -1.
       -4    1    3    3    0  502 -0.58418407144E+03 -0.32610317737E+03 -0.10432544626E+04  0.12393529757E+04  0.12699999809E+01 0.  1.
</event>
<event>
 5   0  0.3830207E-07  0.3204756E+04  0.7818609E-02  0.8187562E-01
        2   -1    0    0  501    0  0.00000000000E+00  0.00000000000E+00  0.26365390353E+04  0.26365390353E+04  0.25500000920E-02 0.  1.
       -2   -1    0    0    0  501  0.00000000000E+00  0.00000000000E+00 -0.97385802843E+03  0.97385802843E+03  0.25500000920E-02 0. -1.
    10030    2    1    2    0    0  0.00000000000E+00  0.00000000000E+00  0.16626810068E+04  0.36103970637E+04  0.32047556579E+04 0.  0.
        4    1    3    3  502    0 -0.51738759502E+02  0.13256451742E+04 -0.18107429898E+03  0.13389553920E+04  0.12699999809E+01 0. -1.
       -4    1    3    3    0  502  0.51738759502E+02 -0.13256451742E+04  0.18437553058E+04  0.22714416717E+04  0.12699999809E+01 0.  1.
</event>
<event>
 5   0  0.3942564E-07  0.3208903E+04  0.7818609E-02  0.8186470E-01
       -2   -1    0    0    0  501  0.00000000000E+00  0.00000000000E+00  0.15493698289E+04  0.15493698289E+04  0.25500000920E-02 0.  1.
        2   -1    0    0  501    0  0.00000000000E+00  0.00000000000E+00 -0.16614908987E+04  0.16614908987E+04  0.25500000920E-02 0. -1.
    10030    2    1    2    0    0  0.00000000000E+00  0.00000000000E+00 -0.11212106984E+03  0.32108607276E+04  0.32089025348E+04 0.  0.
        3    1    3    3  502    0 -0.12800901516E+04 -0.96116338334E+03  0.52624409068E+02  0.16016351596E+04  0.10100000352E+00 0. -1.
       -3    1    3    3    0  502  0.12800901516E+04  0.96116338334E+03 -0.16474547891E+03  0.16092255680E+04  0.10100000352E+00 0.  1.
</event>
<event>
 5   0  0.1277374E-07  0.3203244E+04  0.7818609E-02  0.8187961E-01
       -1   -1    0    0    0  501  0.00000000000E+00  0.00000000000E+00  0.10603669810E+04  0.10603669810E+04  0.50400001928E-02 0. -1.
        1   -1    0    0  501    0  0.00000000000E+00  0.00000000000E+00 -0.24191563094E+04  0.24191563095E+04  0.50400001928E-02 0.  1.
    10030    2    1    2    0    0  0.00000000000E+00  0.00000000000E+00 -0.13587893285E+04  0.34795232904E+04  0.32032442757E+04 0.  0.
        5    1    3    3  502    0  0.72346060031E+03 -0.38988131708E+02 -0.22309670020E+04  0.23456664658E+04  0.46999998093E+01 0.  1.
       -5    1    3    3    0  502 -0.72346060031E+03  0.38988131708E+02  0.87217767354E+03  0.11338568247E+04  0.46999998093E+01 0. -1.
</event>
<event>
 5   0  0.3858721E-07  0.3200125E+04  0.7818609E-02  0.8188784E-01
       -2   -1    0    0    0  501  0.00000000000E+00  0.00000000000E+00  0.21020578684E+04  0.21020578684E+04  0.25500000920E-02 0.  1.
        2   -1    0    0  501    0  0.00000000000E+00  0.00000000000E+00 -0.12179491528E+04  0.12179491528E+04  0.25500000920E-02 0. -1.
    10030    2    1    2    0    0  0.00000000000E+00  0.00000000000E+00  0.88410871556E+03  0.33200070212E+04  0.32001247476E+04 0.  0.
        2    1    3    3  502    0  0.82756005315E+03 -0.94742118401E+03  0.14679026314E+04  0.19331840773E+04  0.25500000920E-02 0.  1.
       -2    1    3    3    0  502 -0.82756005315E+03  0.94742118401E+03 -0.58379391588E+03  0.13868229439E+04  0.25500000920E-02 0. -1.
</event>
<event>
 5   0  0.1230450E-07  0.3196896E+04  0.7818609E-02  0.8189638E-01
        3   -1    0    0  501    0  0.00000000000E+00  0.00000000000E+00  0.14316022141E+04  0.14316022177E+04  0.10100000352E+00 0.  1.
       -3   -1    0    0    0  501  0.00000000000E+00  0.00000000000E+00 -0.17847383739E+04  0.17847383768E+04  0.10100000352E+00 0. -1.
    10030    2    1    2    0    0  0.00000000000E+00  0.00000000000E+00 -0.35313615979E+03  0.32163405945E+04  0.31968956305E+04 0.  0.
        4    1    3    3  502    0 -0.23082008203E+03  0.88001408500E+03  0.11457056537E+04  0.14629920567E+04  0.12699999809E+01 0.  1.
       -4    1    3    3    0  502  0.23082008203E+03 -0.88001408500E+03 -0.14988418135E+04  0.17533485378E+04  0.12699999809E+01 0. -1.
</event>
<event>
 5   0  0.3858721E-07  0.3199237E+04  0.7818609E-02  0.8189019E-01
        2   -1    0    0  501    0  0.00000000000E+00  0.00000000000E+00  0.27256468551E+04  0.27256468551E+04  0.25500000920E-02 0. -1.
       -2   -1    0    0    0  501  0.00000000000E+00  0.00000000000E+00 -0.93877854765E+03  0.93877854765E+03  0.25500000920E-02 0.  1.
    10030    2    1    2    0    0  0.00000000000E+00  0.00000000000E+00  0.17868683075E+04  0.36644254028E+04  0.31992366565E+04 0.  0.
        2    1    3    3  502    0 -0.52316841956E+03  0.73198756095E+03 -0.62147876876E+03  0.10935021009E+04  0.25500000920E-02 0.  1.
       -2    1    3    3    0  502  0.52316841956E+03 -0.73198756095E+03  0.24083470762E+04  0.25709233019E+04  0.25500000920E-02 0. -1.
</event>
<event>
 5   0  0.1365455E-07  0.3209769E+04  0.7818609E-02  0.8186242E-01
       -1   -1    0    0    0  501  0.00000000000E+00  0.00000000000E+00  0.11830189769E+04  0.11830189769E+04  0.50400001928E-02 0. -1.
        1   -1    0    0  501    0  0.00000000000E+00  0.00000000000E+00 -0.21771879286E+04  0.21771879286E+04  0.50400001928E-02 0.  1.
    10030    2    1    2    0    0  0.00000000000E+00  0.00000000000E+00 -0.99416895173E+03  0.33602069055E+04  0.32097692352E+04 0.  0.
        3    1    3    3  502    0 -0.31196672327E+02 -0.94836606288E+03 -0.18520752152E+04  0.20809983265E+04  0.10100000352E+00 0.  1.
       -3    1    3    3    0  502  0.31196672327E+02  0.94836606288E+03  0.85790626351E+03  0.12792085791E+04  0.10100000352E+00 0. -1.
</event>
<event>
 5   0  0.3942564E-07  0.3198714E+04  0.7818609E-02  0.8189157E-01
       -2   -1    0    0    0  501  0.00000000000E+00  0.00000000000E+00  0.16397777155E+04  0.16397777155E+04  0.25500000920E-02 0. -1.
        2   -1    0    0  501    0  0.00000000000E+00  0.00000000000E+00 -0.15599329727E+04  0.15599329727E+04  0.25500000920E-02 0.  1.
    10030    2    1    2    0    0  0.00000000000E+00  0.00000000000E+00  0.79844742776E+02  0.31997106882E+04  0.31987143207E+04 0.  0.
        3    1    3    3  502    0 -0.75311607301E+03  0.75403736209E+03 -0.11530039824E+04  0.15700873722E+04  0.10100000352E+00 0. -1.
       -3    1    3    3    0  502  0.75311607301E+03 -0.75403736209E+03  0.12328487251E+04  0.16296233160E+04  0.10100000352E+00 0.  1.
</event>
<event>
 5   0  0.1270948E-07  0.3194357E+04  0.7818609E-02  0.8190309E-01
        1   -1    0    0  501    0  0.00000000000E+00  0.00000000000E+00  0.11462212110E+04  0.11462212110E+04  0.50400001928E-02 0.  1.
       -1   -1    0    0    0  501  0.00000000000E+00  0.00000000000E+00 -0.22255561820E+04  0.22255561820E+04  0.50400001928E-02 0. -1.
    10030    2    1    2    0    0  0.00000000000E+00  0.00000000000E+00 -0.10793349709E+04  0.33717773930E+04  0.31943573389E+04 0.  0.
        4    1    3    3  502    0 -0.13650372537E+04 -0.33135085730E+03  0.26272335120E+03  0.14290364820E+04  0.12699999809E+01 0. -1.
       -4    1    3    3    0  502  0.13650372537E+04  0.33135085730E+03 -0.13420583221E+04  0.19427409111E+04  0.12699999809E+01 0.  1.
</event>
<event>
 5   0  0.1317293E-07  0.3214566E+04  0.7818609E-02  0.8184981E-01
       -1   -1    0    0    0  501  0.00000000000E+00  0.00000000000E+00  0.29324071139E+04  0.29324071139E+04  0.50400001928E-02 0. -1.
        1   -1    0    0  501    0  0.00000000000E+00  0.00000000000E+00 -0.88096853099E+03  0.88096853100E+03  0.50400001928E-02 0.  1.
    10030    2    1    2    0    0  0.00000000000E+00  0.00000000000E+00  0.20514385829E+04  0.38133756449E+04  0.32145658416E+04 0.  0.
        1    1    3    3  502    0  0.21320358861E+03  0.62037842082E+03  0.27663740016E+04  0.28430881576E+04  0.50400001928E-02 0. -1.
       -1    1    3    3    0  502 -0.21320358861E+03 -0.62037842082E+03 -0.71493541865E+03  0.97028748733E+03  0.50400001928E-02 0.  1.
</event>
<event>
 5   0  0.3858721E-07  0.3190346E+04  0.7818609E-02  0.8191371E-01
        2   -1    0    0  501    0  0.00000000000E+00  0.00000000000E+00  0.19125795577E+04  0.19125795577E+04  0.25500000920E-02 0.  1.
       -2   -1    0    0    0  501  0.00000000000E+00  0.00000000000E+00 -0.13304427023E+04  0.13304427023E+04  0.25500000920E-02 0. -1.
    10030    2    1    2    0    0  0.00000000000E+00  0.00000000000E+00  0.58213685536E+03  0.32430222600E+04  0.31903463857E+04 0.  0.
        2    1    3    3  502    0 -0.19059275280E+02 -0.64269714969E+03  0.17750194681E+04  0.18878869125E+04  0.25500000920E-02 0.  1.
       -2    1    3    3    0  502  0.19059275280E+02  0.64269714969E+03 -0.11928826128E+04  0.13551353475E+04  0.25500000920E-02 0. -1.
</event>
<event>
 5   0  0.1277374E-07  0.3196467E+04  0.7818609E-02  0.8189751E-01
       -1   -1    0    0    0  501  0.00000000000E+00  0.00000000000E+00  0.15607298962E+04  0.15607298962E+04  0.50400001928E-02 0. -1.
        1   -1    0    0  501    0  0.00000000000E+00  0.00000000000E+00 -0.16366381132E+04  0.16366381132E+04  0.50400001928E-02 0.  1.
    10030    2    1    2    0    0  0.00000000000E+00  0.00000000000E+00 -0.75908216970E+02  0.31973680094E+04  0.31964668198E+04 0.  0.
        5    1    3    3  502    0  0.27206454933E+03 -0.13790457979E+04 -0.79878771483E+03  0.16167468371E+04  0.46999998093E+01 0.  1.
       -5    1    3    3    0  502 -0.27206454933E+03  0.13790457979E+04  0.72287949786E+03  0.15806211723E+04  0.46999998093E+01 0. -1.
</event>
<event>
 5   0  0.3830207E-07  0.3202508E+04  0.7818609E-02  0.8188155E-01
       -2   -1    0    0    0  501  0.00000000000E+00  0.00000000000E+00  0.10499365786E+04  0.10499365786E+04  0.25500000920E-02 0. -1.
        2   -1    0    0  501    0  0.00000000000E+00  0.00000000000E+00 -0.24420653646E+04  0.24420653646E+04  0.25500000920E-02 0.  1.
    10030    2    1    2    0    0  0.00000000000E+00  0.00000000000E+00 -0.13921287860E+04  0.34920019432E+04  0.32025076135E+04 0.  0.
        4    1    3    3  502    0  0.23106268774E+03  0.72525692306E+03  0.84004975004E+03  0.11336104999E+04  0.12699999809E+01 0. -1.
       -4    1    3    3    0  502 -0.23106268774E+03 -0.72525692306E+03 -0.22321785361E+04  0.23583914433E+04  0.12699999809E+01 0.  1.
</event>
<event>
 5   0  0.3942564E-07  0.3196614E+04  0.7818609E-02  0.8189712E-01
        2   -1    0    0  501    0  0.00000000000E+00  0.00000000000E+00  0.17828541539E+04  0.17828541539E+04  0.25500000920E-02 0.  1.
       -2   -1    0    0    0  501  0.00000000000E+00  0.00000000000E+00 -0.14328627313E+04  0.14328627313E+04  0.25500000920E-02 0. -1.
    10030    2    1    2    0    0  0.00000000000E+00  0.00000000000E+00  0.34999142267E+03  0.32157168852E+04  0.31966140039E+04 0.  0.
        3    1    3    3  502    0 -0.11174436432E+04 -0.38165721540E+03  0.12585783486E+04  0.17257931496E+04  0.10100000352E+00 0.  1.
       -3    1    3    3    0  502  0.11174436432E+04  0.38165721540E+03 -0.90858692588E+03  0.14899237356E+04  0.10100000352E+00 0. -1.
</event>
<event>
 5   0  0.3764056E-07  0.3196891E+04  0.7818609E-02  0.8189639E-01
        2   -1    0    0  501    0  0.00000000000E+00  0.00000000000E+00  0.19680837388E+04  0.19680837388E+04  0.25500000920E-02 0.  1.
       -2   -1    0    0    0  501  0.00000000000E+00  0.00000000000E+00 -0.12982311323E+04  0.12982311323E+04  0.25500000920E-02 0. -1.
    10030    2    1    2    0    0  0.00000000000E+00  0.00000000000E+00  0.66985260645E+03  0.32663148711E+04  0.31968907274E+04 0.  0.
        5    1    3    3  502    0 -0.12151444935E+02 -0.69745066254E+03 -0.11345062713E+04  0.13318076640E+04  0.46999998093E+01 0. -1.
       -5    1    3    3    0  502  0.12151444935E+02  0.69745066254E+03  0.18043588778E+04  0.19345072071E+04  0.46999998093E+01 0.  1.
</event>
<event>
 5   0  0.1270948E-07  0.3199443E+04  0.7818609E-02  0.8188964E-01
       -1   -1    0    0    0  501  0.00000000000E+00  0.00000000000E+00  0.14570994812E+04  0.14570994812E+04  0.50400001928E-02 0. -1.
        1   -1    0    0  501    0  0.00000000000E+00  0.00000000000E+00 -0.17563031609E+04  0.17563031609E+04  0.50400001928E-02 0.  1.
    10030    2    1    2    0    0  0.00000000000E+00  0.00000000000E+00 -0.29920367971E+03  0.32134026421E+04  0.31994427169E+04 0.  0.
        4    1    3    3  502    0  0.40984093295E+03 -0.15401740536E+04 -0.11155892787E+02  0.15938104569E+04  0.12699999809E+01 0. -1.
       -4    1    3    3    0  502 -0.40984093295E+03  0.15401740536E+04 -0.28804778693E+03  0.16195921852E+04  0.12699999809E+01 0.  1.
</event>
<event>
 5   0  0.1365455E-07  0.3184586E+04  0.7818609E-02  0.8192900E-01
        1   -1    0    0  501    0  0.00000000000E+00  0.00000000000E+00  0.16868672645E+04  0.16868672645E+04  0.50400001928E-02 0.  1.
       -1   -1    0    0    0  501  0.00000000000E+00  0.00000000000E+00 -0.15030206142E+04  0.15030206142E+04  0.50400001928E-02 0. -1.
    10030    2    1    2    0    0  0.00000000000E+00  0.00000000000E+00  0.18384665027E+03  0.31898878788E+04  0.31845855442E+04 0.  0.
        3    1    3    3  502    0 -0.16882615248E+03  0.12542815084E+04 -0.87595249612E+03  0.15391611864E+04  0.10100000352E+00 0. -1.
       -3    1    3    3    0  502  0.16882615248E+03 -0.12542815084E+04  0.10597991464E+04  0.16507266924E+04  0.10100000352E+00 0.  1.
</event>
<event>
 5   0  0.1277374E-07  0.3209447E+04  0.7818609E-02  0.8186327E-01
        1   -1    0    0  501    0  0.00000000000E+00  0.00000000000E+00  0.20265873800E+04  0.20265873800E+04  0.50400001928E-02 0.  1.
       -1   -1    0    0    0  501  0.00000000000E+00  0.00000000000E+00 -0.12706767960E+04  0.12706767960E+04  0.50400001928E-02 0. -1.
    10030    2    1    2    0    0  0.00000000000E+00  0.00000000000E+00  0.75591058401E+03  0.32972641759E+04  0.32094470295E+04 0.  0.
        5    1    3    3  502    0 -0.14651678401E+04  0.30955819029E+03 -0.21451507212E+03  0.15128059621E+04  0.46999998093E+01 0. -1.
       -5    1    3    3    0  502  0.14651678401E+04 -0.30955819029E+03  0.97042565612E+03  0.17844582138E+04  0.46999998093E+01 0.  1.
</event>
<event>
 5   0  0.3830207E-07  0.3200593E+04  0.7818609E-02  0.8188661E-01
        2   -1    0    0  501    0  0.00000000000E+00  0.00000000000E+00  0.23724046469E+04  0.23724046469E+04  0.25500000920E-02 0. -1.
       -2   -1    0    0    0  501  0.00000000000E+00  0.00000000000E+00 -0.10794735943E+04  0.10794735943E+04  0.25500000920E-02 0.  1.
    10030    2    1    2    0    0  0.00000000000E+00  0.00000000000E+00  0.12929310526E+04  0.34518782411E+04  0.32005925521E+04 0.  0.
        4    1    3    3  502    0 -0.13874489431E+04 -0.70602402425E+03  0.24659765457E+03  0.15761651273E+04  0.12699999809E+01 0. -1.
       -4    1    3    3    0  502  0.13874489431E+04  0.70602402425E+03  0.10463333981E+04  0.18757131138E+04  0.12699999809E+01 0.  1.
</event>
<event>
 5   0  0.3750285E-07  0.3199944E+04  0.7818609E-02  0.8188832E-01
       -2   -1    0    0    0  501  0.00000000000E+00  0.00000000000E+00  0.94752990232E+03  0.94752990232E+03  0.25500000920E-02 0. -1.
        2   -1    0    0  501    0  0.00000000000E+00  0.00000000000E+00 -0.27016669761E+04  0.27016669761E+04  0.25500000920E-02 0.  1.
    10030    2    1    2    0    0  0.00000000000E+00  0.00000000000E+00 -0.17541370738E+04  0.36491968784E+04  0.31999439032E+04 0.  0.
        1    1    3    3  502    0  0.90346288807E+03  0.15898579976E+03  0.61784342676E+03  0.11060073122E+04  0.50400001928E-02 0. -1.
       -1    1    3    3    0  502 -0.90346288807E+03 -0.15898579976E+03 -0.23719805006E+04  0.25431895662E+04  0.50400001928E-02 0.  1.
</event>
<event>
 5   0  0.3764056E-07  0.3202035E+04  0.7818609E-02  0.8188280E-01
       -2   -1    0    0    0  501  0.00000000000E+00  0.00000000000E+00  0.11683462143E+04  0.11683462143E+04  0.25500000920E-02 0. -1.
        2   -1    0    0  501    0  0.00000000000E+00  0.00000000000E+00 -0.21939184484E+04  0.21939184484E+04  0.25500000920E-02 0.  1.
    10030    2    1    2    0    0  0.00000000000E+00  0.00000000000E+00 -0.10255722341E+04  0.33622646627E+04  0.32020345492E+04 0.  0.
        5    1    3    3  502    0 -0.29952757245E+03 -0.48505542547E+03  0.10581520166E+04  0.12019581160E+04  0.46999998093E+01 0. -1.
       -5    1    3    3    0  502  0.29952757245E+03  0.48505542547E+03 -0.20837242507E+04  0.21603065466E+04  0.46999998093E+01 0.  1.
</event>
<event>
 5   0  0.3830207E-07  0.3202478E+04  0.7818609E-02  0.8188163E-01
       -2   -1    0    0    0  501  0.00000000000E+00  0.00000000000E+00  0.94634495741E+03  0.94634495742E+03  0.25500000920E-02 0.  1.
        2   -1    0    0  501    0  0.00000000000E+00  0.00000000000E+00 -0.27093363227E+04  0.27093363227E+04  0.25500000920E-02 0. -1.
    10030    2    1    2    0    0  0.00000000000E+00  0.00000000000E+00 -0.17629913653E+04  0.36556812801E+04  0.32024782697E+04 0.  0.
        4    1    3    3  502    0 -0.48294956455E+03 -0.77267513064E+03 -0.23845298708E+04  0.25526949401E+04  0.12699999809E+01 0. -1.
       -4    1    3    3    0  502  0.48294956455E+03  0.77267513064E+03  0.62153850557E+03  0.11029863400E+04  0.12699999809E+01 0.  1.
</event>
<event>
 5   0  0.3858721E-07  0.3212513E+04  0.7818609E-02  0.8185520E-01
        2   -1    0    0  501    0  0.00000000000E+00  0.00000000000E+00  0.17008222772E+04  0.17008222772E+04  0.25500000920E-02 0.  1.
       -2   -1    0    0    0  501  0.00000000000E+00  0.00000000000E+00 -0.15169487858E+04  0.15169487858E+04  0.25500000920E-02 0. -1.
    10030    2    1    2    0    0  0.00000000000E+00  0.00000000000E+00  0.18387349132E+03  0.32177710630E+04  0.32125132145E+04 0.  0.
        2    1    3    3  502    0 -0.11965945530E+04 -0.15782876865E+03 -0.96966197867E+03  0.15482224638E+04  0.25500000920E-02 0. -1.
       -2    1    3    3    0  502  0.11965945530E+04  0.15782876865E+03  0.11535354700E+04  0.16695485992E+04  0.25500000920E-02 0.  1.
</event>
<event>
 5   0  0.3764056E-07  0.3200817E+04  0.7818609E-02  0.8188601E-01
        2   -1    0    0  501    0  0.00000000000E+00  0.00000000000E+00  0.13637741368E+04  0.13637741368E+04  0.25500000920E-02 0. -1.
       -2   -1    0    0    0  501  0.00000000000E+00  0.00000000000E+00 -0.18781027650E+04  0.18781027650E+04  0.25500000920E-02 0.  1.
    10030    2    1    2    0    0  0.00000000000E+00  0.00000000000E+00 -0.51432862820E+03  0.32418769019E+04  0.32008173814E+04 0.  0.
        5    1    3    3  502    0  0.99555710447E+03 -0.12340595490E+04 -0.37007673786E+02  0.15860102701E+04  0.46999998093E+01 0.  1.
       -5    1    3    3    0  502 -0.99555710447E+03  0.12340595490E+04 -0.47732095442E+03  0.16558666318E+04  0.46999998093E+01 0. -1.
</event>
<event>
 5   0  0.3764056E-07  0.3199943E+04  0.7818609E-02  0.8188832E-01
       -2   -1    0    0    0  501  0.00000000000E+00  0.00000000000E+00  0.15765804295E+04  0.15765804295E+04  0.25500000920E-02 0. -1.
        2   -1    0    0  501    0  0.00000000000E+00  0.00000000000E+00 -0.16237099252E+04  0.16237099252E+04  0.25500000920E-02 0.  1.
    10030    2    1    2    0    0  0.00000000000E+00  0.00000000000E+00 -0.47129495682E+02  0.32002903547E+04  0.31999433066E+04 0.  0.
        5    1    3    3  502    0 -0.90113050405E+03  0.76960109568E+03  0.10515240092E+04  0.15843127418E+04  0.46999998093E+01 0. -1.
       -5    1    3    3    0  502  0.90113050405E+03 -0.76960109568E+03 -0.10986535049E+04  0.16159776130E+04  0.46999998093E+01 0.  1.
</event>
<event>
 5   0  0.1288096E-07  0.3200728E+04  0.7818609E-02  0.8188625E-01
       -1   -1    0    0    0  501  0.00000000000E+00  0.00000000000E+00  0.15000425458E+04  0.15000425458E+04  0.50400001928E-02 0. -1.
        1   -1    0    0  501    0  0.00000000000E+00  0.00000000000E+00 -0.17073947354E+04  0.17073947354E+04  0.50400001928E-02 0.  1.
    10030    2    1    2    0    0  0.00000000000E+00  0.00000000000E+00 -0.20735218957E+03  0.32074372812E+04  0.32007278833E+04 0.  0.
        2    1    3    3  502    0 -0.13665155824E+04  0.19945467002E+03  0.70673277380E+03  0.15513278879E+04  0.25500000920E-02 0. -1.
       -2    1    3    3    0  502  0.13665155824E+04 -0.19945467002E+03 -0.91408496337E+03  0.16561093933E+04  0.25500000920E-02 0.  1.
</event>
<event>
 5   0  0.1288096E-07  0.3199990E+04  0.7818609E-02  0.8188820E-01
       -1   -1    0    0    0  501  0.00000000000E+00  0.00000000000E+00  0.11918050881E+04  0.11918050881E+04  0.50400001928E-02 0.  1.
        1   -1    0    0  501    0  0.00000000000E+00  0.00000000000E+00 -0.21479890874E+04  0.21479890874E+04  0.50400001928E-02 0. -1.
    10030    2    1    2    0    0  0.00000000000E+00  0.00000000000E+00 -0.95618399926E+03  0.33397941755E+04  0.31999902022E+04 0.  0.
        2    1    3    3  502    0 -0.39941583945E+03  0.63232887044E+03 -0.19543165921E+04  0.20925405982E+04  0.25500000920E-02 0. -1.
       -2    1    3    3    0  502  0.39941583945E+03 -0.63232887044E+03  0.99813259280E+03  0.12472535773E+04  0.25500000920E-02 0.  1.
</event>
<event>
 5   0  0.1288096E-07  0.3203642E+04  0.7818609E-02  0.8187856E-01
        1   -1    0    0  501    0  0.00000000000E+00  0.00000000000E+00  0.20279454625E+04  0.20279454625E+04  0.50400001928E-02 0. -1.
       -1   -1    0    0    0  501  0.00000000000E+00  0.00000000000E+00 -0.12652365057E+04  0.12652365057E+04  0.50400001928E-02 0.  1.
    10030    2    1    2    0    0  0.00000000000E+00  0.00000000000E+00  0.76270895683E+03  0.32931819682E+04  0.32036420716E+04 0.  0.
        2    1    3    3  502    0  0.41163755415E+03 -0.13365866955E+04 -0.42144778956E+03  0.14606600254E+04  0.25500000920E-02 0.  1.
       -2    1    3    3    0  502 -0.41163755415E+03  0.13365866955E+04  0.11841567464E+04  0.18325219427E+04  0.25500000920E-02 0. -1.
</event>
<event>
 5   0  0.1277374E-07  0.3203852E+04  0.7818609E-02  0.8187801E-01
        1   -1    0    0  501    0  0.00000000000E+00  0.00000000000E+00  0.22075789694E+04  0.22075789694E+04  0.50400001928E-02 0. -1.
       -1   -1    0    0    0  501  0.00000000000E+00  0.00000000000E+00 -0.11624351517E+04  0.11624351517E+04  0.50400001928E-02 0.  1.
    10030    2    1    2    0    0  0.00000000000E+00  0.00000000000E+00  0.10451438177E+04  0.33700141210E+04  0.32038523025E+04 0.  0.
        5    1    3    3  502    0  0.32950780826E+03  0.10444329372E+04 -0.70713201102E+03  0.13036384955E+04  0.46999998093E+01 0.  1.
       -5    1    3    3    0  502 -0.32950780826E+03 -0.10444329372E+04  0.17522758287E+04  0.20663756255E+04  0.46999998093E+01 0. -1.
</event>
<event>
 5   0  0.3942564E-07  0.3202735E+04  0.7818609E-02  0.8188095E-01
       -2   -1    0    0    0  501  0.00000000000E+00  0.00000000000E+00  0.11193295752E+04  0.11193295752E+04  0.25500000920E-02 0.  1.
        2   -1    0    0  501    0  0.00000000000E+00  0.00000000000E+00 -0.22909947347E+04  0.22909947347E+04  0.25500000920E-02 0. -1.
    10030    2    1    2    0    0  0.00000000000E+00  0.00000000000E+00 -0.11716651595E+04  0.34103243099E+04  0.32027351831E+04 0.  0.
        3    1    3    3  502    0  0.17905849155E+03 -0.88541846511E+03 -0.19937879309E+04  0.21888851329E+04  0.10100000352E+00 0. -1.
       -3    1    3    3    0  502 -0.17905849155E+03  0.88541846511E+03  0.82212277133E+03  0.12214391770E+04  0.10100000352E+00 0.  1.
</event>
<event>
 5   0  0.1365455E-07  0.3198433E+04  0.7818609E-02  0.8189231E-01
        1   -1    0    0  501    0  0.00000000000E+00  0.00000000000E+00  0.10461315680E+04  0.10461315680E+04  0.50400001928E-02 0.  1.
       -1   -1    0    0    0  501  0.00000000000E+00  0.00000000000E+00 -0.24447156123E+04  0.24447156123E+04  0.50400001928E-02 0. -1.
    10030    2    1    2    0    0  0.00000000000E+00  0.00000000000E+00 -0.13985840443E+04  0.34908471803E+04  0.31984334770E+04 0.  0.
        3    1    3    3  502    0 -0.11860473998E+04  0.18649698460E+03 -0.18522845910E+04  0.22073621760E+04  0.10100000352E+00 0. -1.
       -3    1    3    3    0  502  0.11860473998E+04 -0.18649698460E+03  0.45370054664E+03  0.12834850043E+04  0.10100000352E+00 0.  1.
</event>
<event>
 5   0  0.1288096E-07  0.3201025E+04  0.7818609E-02  0.8188546E-01
        1   -1    0    0  501    0  0.00000000000E+00  0.00000000000E+00  0.10635759232E+04  0.10635759232E+04  0.50400001928E-02 0. -1.
       -1   -1    0    0    0  501  0.00000000000E+00  0.00000000000E+00 -0.24085169288E+04  0.24085169288E+04  0.50400001928E-02 0.  1.
    10030    2    1    2    0    0  0.00000000000E+00  0.00000000000E+00 -0.13449410056E+04  0.34720928520E+04  0.32010252208E+04 0.  0.
        2    1    3    3  502    0  0.10190620484E+04 -0.97180273906E+03  0.15270952880E+03  0.14164067998E+04  0.25500000920E-02 0.  1.
       -2    1    3    3    0  502 -0.10190620484E+04  0.97180273906E+03 -0.14976505344E+04  0.20556860523E+04  0.25500000920E-02 0. -1.
</event>
<event>
 5   0  0.1277374E-07  0.3203916E+04  0.7818609E-02  0.8187784E-01
        1   -1    0    0  501    0  0.00000000000E+00  0.00000000000E+00  0.18184854440E+04  0.18184854440E+04  0.50400001928E-02 0.  1.
       -1   -1    0    0    0  501  0.00000000000E+00  0.00000000000E+00 -0.14112125676E+04  0.14112125677E+04  0.50400001928E-02 0. -1.
    10030    2    1    2    0    0  0.00000000000E+00  0.00000000000E+00  0.40727287632E+03  0.32296980116E+04  0.32039160492E+04 0.  0.
        5    1    3    3  502    0  0.85650812893E+03 -0.94282548581E+03  0.11829069534E+04  0.17383374304E+04  0.46999998093E+01 0.  1.
       -5    1    3    3    0  502 -0.85650812893E+03  0.94282548581E+03 -0.77563407710E+03  0.14913605812E+04  0.46999998093E+01 0. -1.
</event>
<event>
 5   0  0.3858721E-07  0.3200832E+04  0.7818609E-02  0.8188597E-01
        2   -1    0    0  501    0  0.00000000000E+00  0.00000000000E+00  0.17463448925E+04  0.17463448925E+04  0.25500000920E-02 0.  1.
       -2   -1    0    0    0  501  0.00000000000E+00  0.00000000000E+00 -0.14666816324E+04  0.14666816324E+04  0.25500000920E-02 0. -1.
    10030    2    1    2    0    0  0.00000000000E+00  0.00000000000E+00  0.27966326013E+03  0.32130265248E+04  0.32008323777E+04 0.  0.
        2    1    3    3  502    0  0.37764663373E+01  0.15049140503E+04 -0.40680833645E+03  0.15589334762E+04  0.25500000920E-02 0. -1.
       -2    1    3    3    0  502 -0.37764663373E+01 -0.15049140503E+04  0.68647159658E+03  0.16540930486E+04  0.25500000920E-02 0.  1.
</event>
<event>
 5   0  0.3830207E-07  0.3174586E+04  0.7818609E-02  0.8195561E-01
       -2   -1    0    0    0  501  0.00000000000E+00  0.00000000000E+00  0.11447603464E+04  0.11447603464E+04  0.25500000920E-02 0.  1.
        2   -1    0    0  501    0  0.00000000000E+00  0.00000000000E+00 -0.22008970132E+04  0.22008970132E+04  0.25500000920E-02 0. -1.
    10030    2    1    2    0    0  0.00000000000E+00  0.00000000000E+00 -0.10561366669E+04  0.33456573596E+04  0.31745863524E+04 0.  0.
        4    1    3    3  502    0 -0.71885903294E+03  0.12212524785E+04 -0.12816400775E+04  0.19107116022E+04  0.12699999809E+01 0. -1.
       -4    1    3    3    0  502  0.71885903294E+03 -0.12212524785E+04  0.22550341066E+03  0.14349457574E+04  0.12699999809E+01 0.  1.
</event>
<event>
 5   0  0.1365455E-07  0.3199028E+04  0.7818609E-02  0.8189074E-01
        1   -1    0    0  501    0  0.00000000000E+00  0.00000000000E+00  0.21908634483E+04  0.21908634483E+04  0.50400001928E-02 0.  1.
       -1   -1    0    0    0  501  0.00000000000E+00  0.00000000000E+00 -0.11677789736E+04  0.11677789737E+04  0.50400001928E-02 0. -1.
    10030    2    1    2    0    0  0.00000000000E+00  0.00000000000E+00  0.10230844747E+04  0.33586424220E+04  0.31990275204E+04 0.  0.
        3    1    3    3  502    0  0.53813951189E+03  0.11834844407E+04  0.14898136465E+04  0.19773149135E+04  0.10100000352E+00 0.  1.
       -3    1    3    3    0  502 -0.53813951189E+03 -0.11834844407E+04 -0.46672917185E+03  0.13813275085E+04  0.10100000352E+00 0. -1.
</event>
<event>
 5   0  0.3858721E-07  0.3204112E+04  0.7818609E-02  0.8187732E-01
       -2   -1    0    0    0  501  0.00000000000E+00  0.00000000000E+00  0.14396833247E+04  0.14396833247E+04  0.25500000920E-02 0.  1.
        2   -1    0    0  501    0  0.00000000000E+00  0.00000000000E+00 -0.17827420083E+04  0.17827420083E+04  0.25500000920E-02 0. -1.
    10030    2    1    2    0    0  0.00000000000E+00  0.00000000000E+00 -0.34305868355E+03  0.32224253330E+04  0.32041123212E+04 0.  0.
        2    1    3    3  502    0  0.77040492602E+03  0.11443540060E+04  0.64769002253E+03  0.15239987554E+04  0.25500000920E-02 0.  1.
       -2    1    3    3    0  502 -0.77040492602E+03 -0.11443540060E+04 -0.99074870607E+03  0.16984265777E+04  0.25500000920E-02 0. -1.
</event>
<event>
 5   0  0.1277374E-07  0.3203137E+04  0.7818609E-02  0.8187989E-01
       -1   -1    0    0    0  501  0.00000000000E+00  0.00000000000E+00  0.14167281163E+04  0.14167281163E+04  0.50400001928E-02 0. -1.
        1   -1    0    0  501    0  0.00000000000E+00  0.00000000000E+00 -0.18105245116E+04  0.18105245116E+04  0.50400001928E-02 0.  1.
    10030    2    1    2    0    0  0.00000000000E+00  0.00000000000E+00 -0.39379639525E+03  0.32272526279E+04  0.32031365758E+04 0.  0.
        5    1    3    3  502    0 -0.38745135506E+03 -0.15523754218E+04 -0.26821877661E+03  0.16223290064E+04  0.46999998093E+01 0.  1.
       -5    1    3    3    0  502  0.38745135506E+03  0.15523754218E+04 -0.12557761864E+03  0.16049236216E+04  0.46999998093E+01 0. -1.
</event>
<event>
 5   0  0.1270948E-07  0.3194799E+04  0.7818609E-02  0.8190192E-01
       -1   -1    0    0    0  501  0.00000000000E+00  0.00000000000E+00  0.10066697250E+04  0.10066697250E+04  0.50400001928E-02 0. -1.
        1   -1    0    0  501    0  0.00000000000E+00  0.00000000000E+00 -0.25347791741E+04  0.25347791741E+04  0.50400001928E-02 0.  1.
    10030    2    1    2    0    0  0.00000000000E+00  0.00000000000E+00 -0.15281094490E+04  0.35414488991E+04  0.31947991826E+04 0.  0.
        4    1    3    3  502    0 -0.12155005274E+04  0.30147734453E+03  0.33518470349E+03  0.12964106293E+04  0.12699999809E+01 0. -1.
       -4    1    3    3    0  502  0.12155005274E+04 -0.30147734453E+03 -0.18632941525E+04  0.22450382698E+04  0.12699999809E+01 0.  1.
</event>
<event>
 5   0  0.1288096E-07  0.3196709E+04  0.7818609E-02  0.8189687E-01
        1   -1    0    0  501    0  0.00000000000E+00  0.00000000000E+00  0.22969125230E+04  0.22969125230E+04  0.50400001928E-02 0. -1.
       -1   -1    0    0    0  501  0.00000000000E+00  0.00000000000E+00 -0.11122483485E+04  0.11122483485E+04  0.50400001928E-02 0.  1.
    10030    2    1    2    0    0  0.00000000000E+00  0.00000000000E+00  0.11846641745E+04  0.34091608715E+04  0.31967090330E+04 0.  0.
        2    1    3    3  502    0 -0.12744250308E+04  0.53284846941E+03 -0.26525690748E+03  0.14065730971E+04  0.25500000920E-02 0.  1.
       -2    1    3    3    0  502  0.12744250308E+04 -0.53284846941E+03  0.14499210820E+04  0.20025877745E+04  0.25500000920E-02 0. -1.
</event>
<event>
 5   0  0.1277374E-07  0.3200477E+04  0.7818609E-02  0.8188691E-01
        1   -1    0    0  501    0  0.00000000000E+00  0.00000000000E+00  0.24049830503E+04  0.24049830503E+04  0.50400001928E-02 0.  1.
       -1   -1    0    0    0  501  0.00000000000E+00  0.00000000000E+00 -0.10647738877E+04  0.10647738877E+04  0.50400001928E-02 0. -1.
    10030    2    1    2    0    0  0.00000000000E+00  0.00000000000E+00  0.13402091626E+04  0.34697569380E+04  0.32004769346E+04 0.  0.
        5    1    3    3  502    0 -0.25467913153E+03  0.14816876156E+04  0.12643873758E+04  0.19644228609E+04  0.46999998093E+01 0.  1.
       -5    1    3    3    0  502  0.25467913153E+03 -0.14816876156E+04  0.75821786811E+02  0.15053340771E+04  0.46999998093E+01 0. -1.
</event>
<event>
 5   0  0.1317293E-07  0.3201351E+04  0.7818609E-02  0.8188461E-01
        1   -1    0    0  501    0  0.00000000000E+00  0.00000000000E+00  0.13770200994E+04  0.13770200994E+04  0.50400001928E-02 0. -1.
       -1   -1    0    0    0  501  0.00000000000E+00  0.00000000000E+00 -0.18606568022E+04  0.18606568022E+04  0.50400001928E-02 0.  1.
    10030    2    1    2    0    0  0.00000000000E+00  0.00000000000E+00 -0.48363670283E+03  0.32376769016E+04  0.32013508490E+04 0.  0.
        1    1    3    3  502    0  0.59116668178E+03 -0.37670906392E+03  0.12135287695E+04  0.14014420569E+04  0.50400001928E-02 0. -1.
       -1    1    3    3    0  502 -0.59116668178E+03  0.37670906392E+03 -0.16971654723E+04  0.18362348447E+04  0.50400001928E-02 0.  1.
</event>
<event>
 5   0  0.3942564E-07  0.3201769E+04  0.7818609E-02  0.8188350E-01
        2   -1    0    0  501    0  0.00000000000E+00  0.00000000000E+00  0.17148030542E+04  0.17148030542E+04  0.25500000920E-02 0.  1.
       -2   -1    0    0    0  501  0.00000000000E+00  0.00000000000E+00 -0.14945337789E+04  0.14945337789E+04  0.25500000920E-02 0. -1.
    10030    2    1    2    0    0  0.00000000000E+00  0.00000000000E+00  0.22026927529E+03  0.32093368331E+04  0.32017689414E+04 0.  0.
        3    1    3    3  502    0  0.92078840212E+03  0.12131687877E+04  0.60445471435E+03  0.16385955269E+04  0.10100000352E+00 0. -1.
       -3    1    3    3    0  502 -0.92078840212E+03 -0.12131687877E+04 -0.38418543906E+03  0.15707413061E+04  0.10100000352E+00 0.  1.
</event>
<event>
 5   0  0.3942564E-07  0.3203878E+04  0.7818609E-02  0.8187794E-01
        2   -1    0    0  501    0  0.00000000000E+00  0.00000000000E+00  0.15550568623E+04  0.15550568623E+04  0.25500000920E-02 0.  1.
       -2   -1    0    0    0  501  0.00000000000E+00  0.00000000000E+00 -0.16502345906E+04  0.16502345906E+04  0.25500000920E-02 0. -1.
    10030    2    1    2    0    0  0.00000000000E+00  0.00000000000E+00 -0.95177728327E+02  0.32052914529E+04  0.32038780404E+04 0.  0.
        3    1    3    3  502    0  0.77473841591E+03 -0.14021342947E+04 -0.44685735063E+02  0.16025595211E+04  0.10100000352E+00 0.  1.
       -3    1    3    3    0  502 -0.77473841591E+03  0.14021342947E+04 -0.50491993264E+02  0.16027319318E+04  0.10100000352E+00 0. -1.
</event>
<event>
 5   0  0.1277374E-07  0.3205065E+04  0.7818609E-02  0.8187481E-01
       -1   -1    0    0    0  501  0.00000000000E+00  0.00000000000E+00  0.18137507220E+04  0.18137507220E+04  0.50400001928E-02 0.  1.
        1   -1    0    0  501    0  0.00000000000E+00  0.00000000000E+00 -0.14159118391E+04  0.14159118391E+04  0.50400001928E-02 0. -1.
    10030    2    1    2    0    0  0.00000000000E+00  0.00000000000E+00  0.39783888292E+03  0.32296625611E+04  0.32050654411E+04 0.  0.
        5    1    3    3  502    0 -0.97459278978E+03  0.34326995449E+02 -0.10824841725E+04  0.14569843932E+04  0.46999998093E+01 0. -1.
       -5    1    3    3    0  502  0.97459278978E+03 -0.34326995449E+02  0.14803230554E+04  0.17726781679E+04  0.46999998093E+01 0.  1.
</event>
<event>
 5   0  0.1365455E-07  0.3198188E+04  0.7818609E-02  0.8189296E-01
        1   -1    0    0  501    0  0.00000000000E+00  0.00000000000E+00  0.29053867597E+04  0.29053867597E+04  0.50400001928E-02 0. -1.
       -1   -1    0    0    0  501  0.00000000000E+00  0.00000000000E+00 -0.88012459512E+03  0.88012459514E+03  0.50400001928E-02 0.  1.
    10030    2    1    2    0    0  0.00000000000E+00  0.00000000000E+00  0.20252621646E+04  0.37855113548E+04  0.31981884532E+04 0.  0.
        3    1    3    3  502    0  0.97128823370E+03 -0.27278944657E+03 -0.45589059727E+03  0.11070913070E+04  0.10100000352E+00 0.  1.
       -3    1    3    3    0  502 -0.97128823370E+03  0.27278944657E+03  0.24811527618E+04  0.26784200479E+04  0.10100000352E+00 0. -1.
</event>
<event>
 5   0  0.1365455E-07  0.3196519E+04  0.7818609E-02  0.8189737E-01
       -1   -1    0    0    0  501  0.00000000000E+00  0.00000000000E+00  0.12353010804E+04  0.12353010804E+04  0.50400001928E-02 0. -1.
        1   -1    0    0  501    0  0.00000000000E+00  0.00000000000E+00 -0.20678632010E+04  0.20678632011E+04  0.50400001928E-02 0.  1.
    10030    2    1    2    0    0  0.00000000000E+00  0.00000000000E+00 -0.83256212066E+03  0.33031642814E+04  0.31965191358E+04 0.  0.
        3    1    3    3  502    0  0.11349645363E+04 -0.11227843963E+04 -0.49391637747E+03  0.16711501121E+04  0.10100000352E+00 0. -1.
       -3    1    3    3    0  502 -0.11349645363E+04  0.11227843963E+04 -0.33864574320E+03  0.16320141693E+04  0.10100000352E+00 0.  1.
</event>
<event>
 5   0  0.3858721E-07  0.3198603E+04  0.7818609E-02  0.8189186E-01
        2   -1    0    0  501    0  0.00000000000E+00  0.00000000000E+00  0.17381403376E+04  0.17381403376E+04  0.25500000920E-02 0. -1.
       -2   -1    0    0    0  501  0.00000000000E+00  0.00000000000E+00 -0.14715525568E+04  0.14715525568E+04  0.25500000920E-02 0.  1.
    10030    2    1    2    0    0  0.00000000000E+00  0.00000000000E+00  0.26658778084E+03  0.32096928944E+04  0.31986027311E+04 0.  0.
        2    1    3    3  502    0  0.47504760636E+03 -0.12204736208E+04 -0.78778774700E+03  0.15283440783E+04  0.25500000920E-02 0.  1.
       -2    1    3    3    0  502 -0.47504760636E+03  0.12204736208E+04  0.10543755278E+04  0.16813488160E+04  0.25500000920E-02 0. -1.
</event>
<event>
 5   0  0.3858721E-07  0.3200817E+04  0.7818609E-02  0.8188601E-01
        2   -1    0    0  501    0  0.00000000000E+00  0.00000000000E+00  0.24818278433E+04  0.24818278433E+04  0.25500000920E-02 0. -1.
       -2   -1    0    0    0  501  0.00000000000E+00  0.00000000000E+00 -0.10320247488E+04  0.10320247489E+04  0.25500000920E-02 0.  1.
    10030    2    1    2    0    0  0.00000000000E+00  0.00000000000E+00  0.14498030945E+04  0.35138525922E+04  0.32008172436E+04 0.  0.
        2    1    3    3  502    0  0.13298291580E+04 -0.57801767202E+03  0.14684587108E+04  0.20637153398E+04  0.25500000920E-02 0. -1.
       -2    1    3    3    0  502 -0.13298291580E+04  0.57801767202E+03 -0.18655616309E+02  0.14501372523E+04  0.25500000920E-02 0.  1.
</event>
<event>
 5   0  0.1270948E-07  0.3199929E+04  0.7818609E-02  0.8188836E-01
       -1   -1    0    0    0  501  0.00000000000E+00  0.00000000000E+00  0.11293574586E+04  0.11293574586E+04  0.50400001928E-02 0.  1.
        1   -1    0    0  501    0  0.00000000000E+00  0.00000000000E+00 -0.22666748092E+04  0.22666748092E+04  0.50400001928E-02 0. -1.
    10030    2    1    2    0    0  0.00000000000E+00  0.00000000000E+00 -0.11373173507E+04  0.33960322678E+04  0.31999288130E+04 0.  0.
        4    1    3    3  502    0  0.11693134356E+04  0.10094243699E+04 -0.12640376730E+03  0.15499067696E+04  0.12699999809E+01 0.  1.
       -4    1    3    3    0  502 -0.11693134356E+04 -0.10094243699E+04 -0.10109135834E+04  0.18461254982E+04  0.12699999809E+01 0. -1.
</event>
<event>
 5   0  0.3750285E-07  0.3202412E+04  0.7818609E-02  0.8188180E-01
       -2   -1    0    0    0  501  0.00000000000E+00  0.00000000000E+00  0.13623422934E+04  0.13623422934E+04  0.25500000920E-02 0. -1.
        2   -1    0    0  501    0  0.00000000000E+00  0.00000000000E+00 -0.18819503226E+04  0.18819503227E+04  0.25500000920E-02 0.  1.
    10030    2    1    2    0    0  0.00000000000E+00  0.00000000000E+00 -0.51960802920E+03  0.32442926161E+04  0.32024119152E+04 0.  0.
        1    1    3    3  502    0 -0.19619956237E+03 -0.76190988676E+03  0.11530163615E+04  0.13958680717E+04  0.50400001928E-02 0. -1.
       -1    1    3    3    0  502  0.19619956237E+03  0.76190988676E+03 -0.16726243907E+04  0.18484245444E+04  0.50400001928E-02 0.  1.
</event>
<event>
 5   0  0.3764056E-07  0.3203698E+04  0.7818609E-02  0.8187841E-01
       -2   -1    0    0    0  501  0.00000000000E+00  0.00000000000E+00  0.23582466621E+04  0.23582466621E+04  0.25500000920E-02 0. -1.
        2   -1    0    0  501    0  0.00000000000E+00  0.00000000000E+00 -0.10880626166E+04  0.10880626166E+04  0.25500000920E-02 0.  1.
    10030    2    1    2    0    0  0.00000000000E+00  0.00000000000E+00  0.12701840454E+04  0.34463092787E+04  0.32036978845E+04 0.  0.
        5    1    3    3  502    0  0.70401045444E+03  0.89801148896E+03 -0.57425012212E+03  0.12774351831E+04  0.46999998093E+01 0.  1.
       -5    1    3    3    0  502 -0.70401045444E+03 -0.89801148896E+03  0.18444341676E+04  0.21688740956E+04  0.46999998093E+01 0. -1.
</event>
<event>
 5   0  0.3764056E-07  0.3199212E+04  0.7818609E-02  0.8189025E-01
       -2   -1    0    0    0  501  0.00000000000E+00  0.00000000000E+00  0.15947334678E+04  0.15947334678E+04  0.25500000920E-02 0.  1.
        2   -1    0    0  501    0  0.00000000000E+00  0.00000000000E+00 -0.16044938943E+04  0.16044938943E+04  0.25500000920E-02 0. -1.
    10030    2    1    2    0    0  0.00000000000E+00  0.00000000000E+00 -0.97604265075E+01  0.31992273621E+04  0.31992124732E+04 0.  0.
        5    1    3    3  502    0 -0.19323456859E+03 -0.15637333305E+04  0.27101325039E+03  0.15987719660E+04  0.46999998093E+01 0.  1.
       -5    1    3    3    0  502  0.19323456859E+03  0.15637333305E+04 -0.28077367689E+03  0.16004553961E+04  0.46999998093E+01 0. -1.
</event>
<event>
 5   0  0.3858721E-07  0.3192464E+04  0.7818609E-02  0.8190810E-01
        2   -1    0    0  501    0  0.00000000000E+00  0.00000000000E+00  0.12117133020E+04  0.12117133020E+04  0.25500000920E-02 0. -1.
       -2   -1    0    0    0  501  0.00000000000E+00  0.00000000000E+00 -0.21027719683E+04  0.21027719683E+04  0.25500000920E-02 0.  1.
    10030    2    1    2    0    0  0.00000000000E+00  0.00000000000E+00 -0.89105866638E+03  0.33144852703E+04  0.31924641048E+04 0.  0.
        2    1    3    3  502    0  0.12942036634E+04  0.28913047013E+02  0.52405943243E+03  0.13965806011E+04  0.25500000920E-02 0. -1.
       -2    1    3    3    0  502 -0.12942036634E+04 -0.28913047013E+02 -0.14151180988E+04  0.19179046692E+04  0.25500000920E-02 0.  1.
</event>
<event>
 5   0  0.1277374E-07  0.3199157E+04  0.7818609E-02  0.8189040E-01
        1   -1    0    0  501    0  0.00000000000E+00  0.00000000000E+00  0.21485673030E+04  0.21485673030E+04  0.50400001928E-02 0. -1.
       -1   -1    0    0    0  501  0.00000000000E+00  0.00000000000E+00 -0.11908641828E+04  0.11908641829E+04  0.50400001928E-02 0.  1.
    10030    2    1    2    0    0  0.00000000000E+00  0.00000000000E+00  0.95770312013E+03  0.33394314858E+04  0.31991572925E+04 0.  0.
        5    1    3    3  502    0  0.14341448872E+04  0.64555823587E+03  0.17431861207E+03  0.15823798728E+04  0.46999998093E+01 0.  1.
       -5    1    3    3    0  502 -0.14341448872E+04 -0.64555823587E+03  0.78338450806E+03  0.17570516130E+04  0.46999998093E+01 0. -1.
</event>
<event>
 5   0  0.3942564E-07  0.3210010E+04  0.7818609E-02  0.8186179E-01
        2   -1    0    0  501    0  0.00000000000E+00  0.00000000000E+00  0.16553183586E+04  0.16553183586E+04  0.25500000920E-02 0. -1.
       -2   -1    0    0    0  501  0.00000000000E+00  0.00000000000E+00 -0.15562209167E+04  0.15562209167E+04  0.25500000920E-02 0.  1.
    10030    2    1    2    0    0  0.00000000000E+00  0.00000000000E+00  0.99097441891E+02  0.32115392753E+04  0.32100100022E+04 0.  0.
        3    1    3    3  502    0 -0.21317764780E+03 -0.21407831218E+03  0.16266140010E+04  0.16544326374E+04  0.10100000352E+00 0. -1.
       -3    1    3    3    0  502  0.21317764780E+03  0.21407831218E+03 -0.15275165591E+04  0.15571066379E+04  0.10100000352E+00 0.  1.
</event>
<event>
 5   0  0.1365455E-07  0.3200663E+04  0.7818609E-02  0.8188642E-01
       -1   -1    0    0    0  501  0.00000000000E+00  0.00000000000E+00  0.90673100066E+03  0.90673100067E+03  0.50400001928E-02 0.  1.
        1   -1    0    0  501    0  0.00000000000E+00  0.00000000000E+00 -0.28244993882E+04  0.28244993882E+04  0.50400001928E-02 0. -1.
    10030    2    1    2    0    0  0.00000000000E+00  0.00000000000E+00 -0.19177683875E+04  0.37312303889E+04  0.32006631542E+04 0.  0.
        3    1    3    3  502    0  0.47151984060E+03  0.58818171750E+03  0.68677898170E+03  0.10197813848E+04  0.10100000352E+00 0.  1.
       -3    1    3    3    0  502 -0.47151984060E+03 -0.58818171750E+03 -0.26045473692E+04  0.27114490041E+04  0.10100000352E+00 0. -1.
</event>
<event>
 5   0  0.3830207E-07  0.3156532E+04  0.7818609E-02  0.8200392E-01
       -2   -1    0    0    0  501  0.00000000000E+00  0.00000000000E+00  0.10078747413E+04  0.10078747413E+04  0.25500000920E-02 0. -1.
        2   -1    0    0  501    0  0.00000000000E+00  0.00000000000E+00 -0.24714608501E+04  0.24714608501E+04  0.25500000920E-02 0.  1.
    10030    2    1    2    0    0  0.00000000000E+00  0.00000000000E+00 -0.14635861088E+04  0.34793355913E+04  0.31565316186E+04 0.  0.
        4    1    3    3  502    0  0.69389203660E+03 -0.99879667930E+03  0.37697876833E+03  0.12732617837E+04  0.12699999809E+01 0. -1.
       -4    1    3    3    0  502 -0.69389203660E+03  0.99879667930E+03 -0.18405648772E+04  0.22060738077E+04  0.12699999809E+01 0.  1.
</event>
<event>
 5   0  0.1288096E-07  0.3201335E+04  0.7818609E-02  0.8188465E-01
        1   -1    0    0  501    0  0.00000000000E+00  0.00000000000E+00  0.10573290064E+04  0.10573290064E+04  0.50400001928E-02 0.  1.
       -1   -1    0    0    0  501  0.00000000000E+00  0.00000000000E+00 -0.24232160321E+04  0.24232160321E+04  0.50400001928E-02 0. -1.
    10030    2    1    2    0    0  0.00000000000E+00  0.00000000000E+00 -0.13658870257E+04  0.34805450385E+04  0.32013350962E+04 0.  0.
        2    1    3    3  502    0 -0.18845026166E+03 -0.68997946161E+03  0.87392328350E+03  0.11293037962E+04  0.25500000920E-02 0.  1.
       -2    1    3    3    0  502  0.18845026166E+03  0.68997946161E+03 -0.22398103092E+04  0.23512412423E+04  0.25500000920E-02 0. -1.
</event>
<event>
 5   0  0.1317293E-07  0.3199919E+04  0.7818609E-02  0.8188839E-01
        1   -1    0    0  501    0  0.00000000000E+00  0.00000000000E+00  0.29354159013E+04  0.29354159013E+04  0.50400001928E-02 0. -1.
       -1   -1    0    0    0  501  0.00000000000E+00  0.00000000000E+00 -0.87206384434E+03  0.87206384435E+03  0.50400001928E-02 0.  1.
    10030    2    1    2    0    0  0.00000000000E+00  0.00000000000E+00  0.20633520570E+04  0.38074797457E+04  0.31999187963E+04 0.  0.
        1    1    3    3  502    0  0.10594194431E+04  0.11964437758E+04  0.11240178093E+04  0.19537817945E+04  0.50400001928E-02 0. -1.
       -1    1    3    3    0  502 -0.10594194431E+04 -0.11964437758E+04  0.93933424770E+03  0.18536979511E+04  0.50400001928E-02 0.  1.
</event>
<event>
 5   0  0.3764056E-07  0.3200796E+04  0.7818609E-02  0.8188607E-01
       -2   -1    0    0    0  501  0.00000000000E+00  0.00000000000E+00  0.19611976749E+04  0.19611976749E+04  0.25500000920E-02 0. -1.
        2   -1    0    0  501    0  0.00000000000E+00  0.00000000000E+00 -0.13059744229E+04  0.13059744229E+04  0.25500000920E-02 0.  1.
    10030    2    1    2    0    0  0.00000000000E+00  0.00000000000E+00  0.65522325197E+03  0.32671720978E+04  0.32007961520E+04 0.  0.
        5    1    3    3  502    0  0.20277202176E+03 -0.93140938874E+02 -0.12900107433E+04  0.13091758992E+04  0.46999998093E+01 0.  1.
       -5    1    3    3    0  502 -0.20277202176E+03  0.93140938874E+02  0.19452339953E+04  0.19579961986E+04  0.46999998093E+01 0. -1.
</event>
<event>
 5   0  0.1277374E-07  0.3207749E+04  0.7818609E-02  0.8186774E-01
       -1   -1    0    0    0  501  0.00000000000E+00  0.00000000000E+00  0.12280797803E+04  0.12280797803E+04  0.50400001928E-02 0.  1.
        1   -1    0    0  501    0  0.00000000000E+00  0.00000000000E+00 -0.20946634101E+04  0.20946634101E+04  0.50400001928E-02 0. -1.
    10030    2    1    2    0    0  0.00000000000E+00  0.00000000000E+00 -0.86658362976E+03  0.33227431904E+04  0.32077492299E+04 0.  0.
        5    1    3    3  502    0 -0.28670230648E+03  0.92704034946E+03 -0.17560953381E+04  0.20063636132E+04  0.46999998093E+01 0. -1.
       -5    1    3    3    0  502  0.28670230648E+03 -0.92704034946E+03  0.88951170830E+03  0.13163795772E+04  0.46999998093E+01 0.  1.
</event>
<event>
 5   0  0.3942564E-07  0.3206538E+04  0.7818609E-02  0.8187093E-01
       -2   -1    0    0    0  501  0.00000000000E+00  0.00000000000E+00  0.22770988121E+04  0.22770988121E+04  0.25500000920E-02 0.  1.
        2   -1    0    0  501    0  0.00000000000E+00  0.00000000000E+00 -0.11288364139E+04  0.11288364139E+04  0.25500000920E-02 0. -1.
    10030    2    1    2    0    0  0.00000000000E+00  0.00000000000E+00  0.11482623983E+04  0.34059352260E+04  0.32065383560E+04 0.  0.
        3    1    3    3  502    0  0.66826238714E+03 -0.13277723580E+04  0.12122539264E+04  0.19181015732E+04  0.10100000352E+00 0.  1.
       -3    1    3    3    0  502 -0.66826238714E+03  0.13277723580E+04 -0.63991528157E+02  0.14878336528E+04  0.10100000352E+00 0. -1.
</event>
<event>
 5   0  0.3750285E-07  0.3201857E+04  0.7818609E-02  0.8188327E-01
       -2   -1    0    0    0  501  0.00000000000E+00  0.00000000000E+00  0.11912757212E+04  0.11912757212E+04  0.25500000920E-02 0.  1.
        2   -1    0    0  501    0  0.00000000000E+00  0.00000000000E+00 -0.21514513449E+04  0.21514513449E+04  0.25500000920E-02 0. -1.
    10030    2    1    2    0    0  0.00000000000E+00  0.00000000000E+00 -0.96017562364E+03  0.33427270661E+04  0.32018568067E+04 0.  0.
        1    1    3    3  502    0  0.89052513198E+03 -0.76015056332E+03  0.65978603308E+03  0.13439425207E+04  0.50400001928E-02 0.  1.
       -1    1    3    3    0  502 -0.89052513198E+03  0.76015056332E+03 -0.16199616567E+04  0.19987845454E+04  0.50400001928E-02 0. -1.
</event>
<event>
 5   0  0.1288096E-07  0.3196145E+04  0.7818609E-02  0.8189836E-01
       -1   -1    0    0    0  501  0.00000000000E+00  0.00000000000E+00  0.24389697302E+04  0.24389697302E+04  0.50400001928E-02 0. -1.
        1   -1    0    0  501    0  0.00000000000E+00  0.00000000000E+00 -0.10470957939E+04  0.10470957939E+04  0.50400001928E-02 0.  1.
    10030    2    1    2    0    0  0.00000000000E+00  0.00000000000E+00  0.13918739363E+04  0.34860655241E+04  0.31961445186E+04 0.  0.
        2    1    3    3  502    0 -0.63907065647E+03 -0.80954989585E+03 -0.63546728039E+03  0.12114458313E+04  0.25500000920E-02 0.  1.
       -2    1    3    3    0  502  0.63907065647E+03  0.80954989585E+03  0.20273412167E+04  0.22746196928E+04  0.25500000920E-02 0. -1.
</event>
<event>
 5   0  0.1288096E-07  0.3201571E+04  0.7818609E-02  0.8188402E-01
        1   -1    0    0  501    0  0.00000000000E+00  0.00000000000E+00  0.14087991549E+04  0.14087991549E+04  0.50400001928E-02 0. -1.
       -1   -1    0    0    0  501  0.00000000000E+00  0.00000000000E+00 -0.18189350454E+04  0.18189350454E+04  0.50400001928E-02 0.  1.
    10030    2    1    2    0    0  0.00000000000E+00  0.00000000000E+00 -0.41013589058E+03  0.32277342003E+04  0.32015709611E+04 0.  0.
        2    1    3    3  502    0  0.78139955243E+03  0.80941058635E+03  0.94300201210E+03  0.14679862236E+04  0.25500000920E-02 0. -1.
       -2    1    3    3    0  502 -0.78139955243E+03 -0.80941058635E+03 -0.13531379027E+04  0.17597479767E+04  0.25500000920E-02 0.  1.
</event>
<event>
 5   0  0.3942564E-07  0.3201950E+04  0.7818609E-02  0.8188302E-01
       -2   -1    0    0    0  501  0.00000000000E+00  0.00000000000E+00  0.94359821521E+03  0.94359821521E+03  0.25500000920E-02 0. -1.
        2   -1    0    0  501    0  0.00000000000E+00  0.00000000000E+00 -0.27163263853E+04  0.27163263853E+04  0.25500000920E-02 0.  1.
    10030    2    1    2    0    0  0.00000000000E+00  0.00000000000E+00 -0.17727281701E+04  0.36599246005E+04  0.32019498616E+04 0.  0.
        3    1    3    3  502    0 -0.31579719566E+03 -0.34305668819E+03 -0.26369938338E+04  0.26779007170E+04  0.10100000352E+00 0.  1.
       -3    1    3    3    0  502  0.31579719566E+03  0.34305668819E+03  0.86426566375E+03  0.98202388354E+03  0.10100000352E+00 0. -1.
</event>
<event>
 5   0  0.3764056E-07  0.3199151E+04  0.7818609E-02  0.8189042E-01
       -2   -1    0    0    0  501  0.00000000000E+00  0.00000000000E+00  0.78500684216E+03  0.78500684216E+03  0.25500000920E-02 0. -1.
        2   -1    0    0  501    0  0.00000000000E+00  0.00000000000E+00 -0.32593871987E+04  0.32593871987E+04  0.25500000920E-02 0.  1.
    10030    2    1    2    0    0  0.00000000000E+00  0.00000000000E+00 -0.24743803565E+04  0.40443940408E+04  0.31991506699E+04 0.  0.
        5    1    3    3  502    0  0.94368691711E+03  0.87617038277E+03 -0.24367900760E+04  0.27561181945E+04  0.46999998093E+01 0.  1.
       -5    1    3    3    0  502 -0.94368691711E+03 -0.87617038277E+03 -0.37590280477E+02  0.12882758464E+04  0.46999998093E+01 0. -1.
</event>
<event>
 5   0  0.1270948E-07  0.3207049E+04  0.7818609E-02  0.8186958E-01
        1   -1    0    0  501    0  0.00000000000E+00  0.00000000000E+00  0.20728478431E+04  0.20728478431E+04  0.50400001928E-02 0.  1.
       -1   -1    0    0    0  501  0.00000000000E+00  0.00000000000E+00 -0.12404631508E+04  0.12404631508E+04  0.50400001928E-02 0. -1.
    10030    2    1    2    0    0  0.00000000000E+00  0.00000000000E+00  0.83238469232E+03  0.33133109940E+04  0.32070493396E+04 0.  0.
        4    1    3    3  502    0 -0.10274970189E+04 -0.29772023958E+03 -0.81791710242E+03  0.13466170444E+04  0.12699999809E+01 0. -1.
       -4    1    3    3    0  502  0.10274970189E+04  0.29772023958E+03  0.16503017947E+04  0.19666939496E+04  0.12699999809E+01 0.  1.
</event>
<event>
 5   0  0.1270948E-07  0.3197368E+04  0.7818609E-02  0.8189513E-01
       -1   -1    0    0    0  501  0.00000000000E+00  0.00000000000E+00  0.14955865130E+04  0.14955865131E+04  0.50400001928E-02 0.  1.
        1   -1    0    0  501    0  0.00000000000E+00  0.00000000000E+00 -0.17088887062E+04  0.17088887062E+04  0.50400001928E-02 0. -1.
    10030    2    1    2    0    0  0.00000000000E+00  0.00000000000E+00 -0.21330219318E+03  0.32044752193E+04  0.31973682311E+04 0.  0.
        4    1    3    3  502    0 -0.41691141288E+03  0.77412692230E+03 -0.14447973968E+04  0.16913097731E+04  0.12699999809E+01 0. -1.
       -4    1    3    3    0  502  0.41691141288E+03 -0.77412692230E+03  0.12314952036E+04  0.15131654462E+04  0.12699999809E+01 0.  1.
</event>
<event>
 5   0  0.1317293E-07  0.3202492E+04  0.7818609E-02  0.8188159E-01
       -1   -1    0    0    0  501  0.00000000000E+00  0.00000000000E+00  0.17686488759E+04  0.17686488759E+04  0.50400001928E-02 0.  1.
        1   -1    0    0  501    0  0.00000000000E+00  0.00000000000E+00 -0.14496881934E+04  0.14496881934E+04  0.50400001928E-02 0. -1.
    10030    2    1    2    0    0  0.00000000000E+00  0.00000000000E+00  0.31896068251E+03  0.32183370693E+04  0.32024924004E+04 0.  0.
        1    1    3    3  502    0 -0.55656777735E+03 -0.42717274560E+03  0.16059575161E+04  0.17525249753E+04  0.50400001928E-02 0.  1.
       -1    1    3    3    0  502  0.55656777735E+03  0.42717274560E+03 -0.12869968336E+04  0.14658120941E+04  0.50400001928E-02 0. -1.
</event>
<event>
 5   0  0.1317293E-07  0.3191122E+04  0.7818609E-02  0.8191166E-01
        1   -1    0    0  501    0  0.00000000000E+00  0.00000000000E+00  0.16502006983E+04  0.16502006983E+04  0.50400001928E-02 0.  1.
       -1   -1    0    0    0  501  0.00000000000E+00  0.00000000000E+00 -0.15427300584E+04  0.15427300584E+04  0.50400001928E-02 0. -1.
    10030    2    1    2    0    0  0.00000000000E+00  0.00000000000E+00  0.10747063986E+03  0.31929307567E+04  0.31911215706E+04 0.  0.
        1    1    3    3  502    0 -0.80649705862E+03  0.12047311562E+04 -0.61297536957E+03  0.15740246084E+04  0.50400001928E-02 0. -1.
       -1    1    3    3    0  502  0.80649705862E+03 -0.12047311562E+04  0.72044600943E+03  0.16189061482E+04  0.50400001928E-02 0.  1.
</event>
<event>
 5   0  0.1288096E-07  0.3199285E+04  0.7818609E-02  0.8189006E-01
        1   -1    0    0  501    0  0.00000000000E+00  0.00000000000E+00  0.23984825316E+04  0.23984825316E+04  0.50400001928E-02 0. -1.
       -1   -1    0    0    0  501  0.00000000000E+00  0.00000000000E+00 -0.10668646960E+04  0.10668646960E+04  0.50400001928E-02 0.  1.
    10030    2    1    2    0    0  0.00000000000E+00  0.00000000000E+00  0.13316178356E+04  0.34653472276E+04  0.31992851308E+04 0.  0.
        2    1    3    3  502    0  0.17932689044E+03 -0.12834391203E+04  0.16816068953E+04  0.21230110361E+04  0.25500000920E-02 0. -1.
       -2    1    3    3    0  502 -0.17932689044E+03  0.12834391203E+04 -0.34998905977E+03  0.13423361915E+04  0.25500000920E-02 0.  1.
</event>
<event>
 5   0  0.1277374E-07  0.3203247E+04  0.7818609E-02  0.8187960E-01
        1   -1    0    0  501    0  0.00000000000E+00  0.00000000000E+00  0.18752138796E+04  0.18752138796E+04  0.50400001928E-02 0. -1.
       -1   -1    0    0    0  501  0.00000000000E+00  0.00000000000E+00 -0.13679491954E+04  0.13679491954E+04  0.50400001928E-02 0.  1.
    10030    2    1    2    0    0  0.00000000000E+00  0.00000000000E+00  0.50726468425E+03  0.32431630750E+04  0.32032466767E+04 0.  0.
        5    1    3    3  502    0 -0.13969499233E+03 -0.22450589676E+03 -0.13456903504E+04  0.13714307120E+04  0.46999998093E+01 0.  1.
       -5    1    3    3    0  502  0.13969499233E+03  0.22450589676E+03  0.18529550347E+04  0.18717323631E+04  0.46999998093E+01 0. -1.
</event>
<event>
 5   0  0.1288096E-07  0.3208801E+04  0.7818609E-02  0.8186497E-01
        1   -1    0    0  501    0  0.00000000000E+00  0.00000000000E+00  0.19545658730E+04  0.19545658730E+04  0.50400001928E-02 0.  1.
       -1   -1    0    0    0  501  0.00000000000E+00  0.00000000000E+00 -0.13169678632E+04  0.13169678632E+04  0.50400001928E-02 0. -1.
    10030    2    1    2    0    0  0.00000000000E+00  0.00000000000E+00  0.63759800984E+03  0.32715337362E+04  0.32088006739E+04 0.  0.
        2    1    3    3  502    0  0.13602700423E+04  0.72180028443E+03 -0.14030462923E+03  0.15462909259E+04  0.25500000920E-02 0. -1.
       -2    1    3    3    0  502 -0.13602700423E+04 -0.72180028443E+03  0.77790263908E+03  0.17252428103E+04  0.25500000920E-02 0.  1.
</event>
<event>
 5   0  0.3750285E-07  0.3202255E+04  0.7818609E-02  0.8188222E-01
       -2   -1    0    0    0  501  0.00000000000E+00  0.00000000000E+00  0.17190147833E+04  0.17190147833E+04  0.25500000920E-02 0. -1.
        2   -1    0    0  501    0  0.00000000000E+00  0.00000000000E+00 -0.14913251861E+04  0.14913251861E+04  0.25500000920E-02 0.  1.
    10030    2    1    2    0    0  0.00000000000E+00  0.00000000000E+00  0.22768959721E+03  0.32103399694E+04  0.32022554811E+04 0.  0.
        1    1    3    3  502    0 -0.18829959056E+03 -0.15696040713E+04  0.36844730119E+03  0.16232273686E+04  0.50400001928E-02 0. -1.
       -1    1    3    3    0  502  0.18829959056E+03  0.15696040713E+04 -0.14075770398E+03  0.15871126008E+04  0.50400001928E-02 0.  1.
</event>
<event>
 5   0  0.3750285E-07  0.3203974E+04  0.7818609E-02  0.8187769E-01
       -2   -1    0    0    0  501  0.00000000000E+00  0.00000000000E+00  0.10248483288E+04  0.10248483288E+04  0.25500000920E-02 0.  1.
        2   -1    0    0  501    0  0.00000000000E+00  0.00000000000E+00 -0.25041379053E+04  0.25041379053E+04  0.25500000920E-02 0. -1.
    10030    2    1    2    0    0  0.00000000000E+00  0.00000000000E+00 -0.14792895764E+04  0.35289862341E+04  0.32039735001E+04 0.  0.
        1    1    3    3  502    0 -0.37317733820E+03  0.11626636886E+04  0.40251948525E+03  0.12857177430E+04  0.50400001928E-02 0.  1.
       -1    1    3    3    0  502  0.37317733820E+03 -0.11626636886E+04 -0.18818090617E+04  0.22432684911E+04  0.50400001928E-02 0. -1.
</event>
<event>
 5   0  0.3858721E-07  0.3198893E+04  0.7818609E-02  0.8189110E-01
        2   -1    0    0  501    0  0.00000000000E+00  0.00000000000E+00  0.12959507772E+04  0.12959507772E+04  0.25500000920E-02 0.  1.
       -2   -1    0    0    0  501  0.00000000000E+00  0.00000000000E+00 -0.19740170408E+04  0.19740170408E+04  0.25500000920E-02 0. -1.
    10030    2    1    2    0    0  0.00000000000E+00  0.00000000000E+00 -0.67806626364E+03  0.32699678180E+04  0.31988928824E+04 0.  0.
        2    1    3    3  502    0 -0.32062949396E+02 -0.13985107708E+04 -0.11317427400E+04  0.17993615641E+04  0.25500000920E-02 0. -1.
       -2    1    3    3    0  502  0.32062949396E+02  0.13985107708E+04  0.45367647636E+03  0.14706062539E+04  0.25500000920E-02 0.  1.
</event>
<event>
 5   0  0.1270948E-07  0.3195560E+04  0.7818609E-02  0.8189991E-01
       -1   -1    0    0    0  501  0.00000000000E+00  0.00000000000E+00  0.29831768621E+04  0.29831768621E+04  0.50400001928E-02 0.  1.
        1   -1    0    0  501    0  0.00000000000E+00  0.00000000000E+00 -0.85576561874E+03  0.85576561875E+03  0.50400001928E-02 0. -1.
    10030    2    1    2    0    0  0.00000000000E+00  0.00000000000E+00  0.21274112433E+04  0.38389424808E+04  0.31955595399E+04 0.  0.
        4    1    3    3  502    0  0.67323170400E+03  0.86716161443E+03  0.24583370068E+04  0.26923284801E+04  0.12699999809E+01 0.  1.
       -4    1    3    3    0  502 -0.67323170400E+03 -0.86716161443E+03 -0.33092576348E+03  0.11466140007E+04  0.12699999809E+01 0. -1.
</event>
<event>
 5   0  0.1270948E-07  0.3201844E+04  0.7818609E-02  0.8188330E-01
        1   -1    0    0  501    0  0.00000000000E+00  0.00000000000E+00  0.16394046071E+04  0.16394046071E+04  0.50400001928E-02 0.  1.
       -1   -1    0    0    0  501  0.00000000000E+00  0.00000000000E+00 -0.15633424474E+04  0.15633424474E+04  0.50400001928E-02 0. -1.
    10030    2    1    2    0    0  0.00000000000E+00  0.00000000000E+00  0.76062159672E+02  0.32027470545E+04  0.32018437256E+04 0.  0.
        4    1    3    3  502    0 -0.12182135942E+04 -0.74292803303E+03  0.76415789942E+03  0.16186183403E+04  0.12699999809E+01 0.  1.
       -4    1    3    3    0  502  0.12182135942E+04  0.74292803303E+03 -0.68809573974E+03  0.15841287143E+04  0.12699999809E+01 0. -1.
</event>
<event>
 5   0  0.1317293E-07  0.3235396E+04  0.7818609E-02  0.8179531E-01
        1   -1    0    0  501    0  0.00000000000E+00  0.00000000000E+00  0.21372804618E+04  0.21372804618E+04  0.50400001928E-02 0.  1.
       -1   -1    0    0    0  501  0.00000000000E+00  0.00000000000E+00 -0.12244281313E+04  0.12244281313E+04  0.50400001928E-02 0. -1.
    10030    2    1    2    0    0  0.00000000000E+00  0.00000000000E+00  0.91285233051E+03  0.33617085932E+04  0.32353956927E+04 0.  0.
        1    1    3    3  502    0 -0.27681658824E+03 -0.25532027998E+03  0.20911022468E+04  0.21247410373E+04  0.50400001928E-02 0.  1.
       -1    1    3    3    0  502  0.27681658824E+03  0.25532027998E+03 -0.11782499163E+04  0.12369675559E+04  0.50400001928E-02 0. -1.
</event>
<event>
 5   0  0.1288096E-07  0.3198872E+04  0.7818609E-02  0.8189115E-01
        1   -1    0    0  501    0  0.00000000000E+00  0.00000000000E+00  0.18713519949E+04  0.18713519949E+04  0.50400001928E-02 0.  1.
       -1   -1    0    0    0  501  0.00000000000E+00  0.00000000000E+00 -0.13670303527E+04  0.13670303528E+04  0.50400001928E-02 0. -1.
    10030    2    1    2    0    0  0.00000000000E+00  0.00000000000E+00  0.50432164219E+03  0.32383823477E+04  0.31988716622E+04 0.  0.
        2    1    3    3  502    0  0.98552277558E+02 -0.82966888740E+03 -0.11285514498E+04  0.14041692879E+04  0.25500000920E-02 0. -1.
       -2    1    3    3    0  502 -0.98552277558E+02  0.82966888740E+03  0.16328730920E+04  0.18342130598E+04  0.25500000920E-02 0.  1.
</event>
<event>
 5   0  0.1288096E-07  0.3205159E+04  0.7818609E-02  0.8187456E-01
        1   -1    0    0  501    0  0.00000000000E+00  0.00000000000E+00  0.29430079473E+04  0.29430079473E+04  0.50400001928E-02 0.  1.
       -1   -1    0    0    0  501  0.00000000000E+00  0.00000000000E+00 -0.87266535162E+03  0.87266535164E+03  0.50400001928E-02 0. -1.
    10030    2    1    2    0    0  0.00000000000E+00  0.00000000000E+00  0.20703425957E+04  0.38156732989E+04  0.32051590071E+04 0.  0.
        2    1    3    3  502    0 -0.13313222237E+03  0.40412338207E+03 -0.80419375919E+03  0.90981728874E+03  0.25500000920E-02 0. -1.
       -2    1    3    3    0  502  0.13313222237E+03 -0.40412338207E+03  0.28745363548E+04  0.29058560102E+04  0.25500000920E-02 0.  1.
</event>
<event>
 5   0  0.3942564E-07  0.3170342E+04  0.7818609E-02  0.8196694E-01
       -2   -1    0    0    0  501  0.00000000000E+00  0.00000000000E+00  0.14693690789E+04  0.14693690790E+04  0.25500000920E-02 0. -1.
        2   -1    0    0  501    0  0.00000000000E+00  0.00000000000E+00 -0.17100991556E+04  0.17100991556E+04  0.25500000920E-02 0.  1.
    10030    2    1    2    0    0  0.00000000000E+00  0.00000000000E+00 -0.24073007666E+03  0.31794682346E+04  0.31703418246E+04 0.  0.
        3    1    3    3  502    0 -0.41053278038E+03  0.69833662231E+03 -0.14868422117E+04  0.16931954921E+04  0.10100000352E+00 0.  1.
       -3    1    3    3    0  502  0.41053278038E+03 -0.69833662231E+03  0.12461121350E+04  0.14862727425E+04  0.10100000352E+00 0. -1.
</event>
<event>
 5   0  0.3750285E-07  0.3202002E+04  0.7818609E-02  0.8188289E-01
        2   -1    0    0  501    0  0.00000000000E+00  0.00000000000E+00  0.18452658893E+04  0.18452658893E+04  0.25500000920E-02 0. -1.
       -2   -1    0    0    0  501  0.00000000000E+00  0.00000000000E+00 -0.13890706285E+04  0.13890706285E+04  0.25500000920E-02 0.  1.
    10030    2    1    2    0    0  0.00000000000E+00  0.00000000000E+00  0.45619526077E+03  0.32343365178E+04  0.32020022789E+04 0.  0.
        1    1    3    3  502    0  0.12344369107E+04  0.74422088389E+03  0.93191603113E+03  0.17164401241E+04  0.50400001928E-02 0. -1.
       -1    1    3    3    0  502 -0.12344369107E+04 -0.74422088389E+03 -0.47572077036E+03  0.15178963937E+04  0.50400001928E-02 0.  1.
</event>
<event>
 5   0  0.3942564E-07  0.3217146E+04  0.7818609E-02  0.8184304E-01
        2   -1    0    0  501    0  0.00000000000E+00  0.00000000000E+00  0.13493047197E+04  0.13493047197E+04  0.25500000920E-02 0.  1.
       -2   -1    0    0    0  501  0.00000000000E+00  0.00000000000E+00 -0.19176596289E+04  0.19176596289E+04  0.25500000920E-02 0. -1.
    10030    2    1    2    0    0  0.00000000000E+00  0.00000000000E+00 -0.56835490920E+03  0.32669643486E+04  0.32171460571E+04 0.  0.
        3    1    3    3  502    0 -0.13044244516E+04 -0.93377103666E+03 -0.16378492704E+03  0.16125374450E+04  0.10100000352E+00 0.  1.
       -3    1    3    3    0  502  0.13044244516E+04  0.93377103666E+03 -0.40456998216E+03  0.16544269037E+04  0.10100000352E+00 0. -1.
</event>
<event>
 5   0  0.1317293E-07  0.3240545E+04  0.7818609E-02  0.8178191E-01
       -1   -1    0    0    0  501  0.00000000000E+00  0.00000000000E+00  0.12382154192E+04  0.12382154192E+04  0.50400001928E-02 0. -1.
        1   -1    0    0  501    0  0.00000000000E+00  0.00000000000E+00 -0.21202145778E+04  0.21202145778E+04  0.50400001928E-02 0.  1.
    10030    2    1    2    0    0  0.00000000000E+00  0.00000000000E+00 -0.88199915861E+03  0.33584299970E+04  0.32405446347E+04 0.  0.
        1    1    3    3  502    0 -0.90807482344E+03  0.11769745282E+04  0.22697290542E+03  0.15037904192E+04  0.50400001928E-02 0. -1.
       -1    1    3    3    0  502  0.90807482344E+03 -0.11769745282E+04 -0.11089720640E+04  0.18546395779E+04  0.50400001928E-02 0.  1.
</event>
<event>
 5   0  0.3858721E-07  0.3203860E+04  0.7818609E-02  0.8187798E-01
       -2   -1    0    0    0  501  0.00000000000E+00  0.00000000000E+00  0.15523810331E+04  0.15523810331E+04  0.25500000920E-02 0. -1.
        2   -1    0    0  501    0  0.00000000000E+00  0.00000000000E+00 -0.16530609211E+04  0.16530609211E+04  0.25500000920E-02 0.  1.
    10030    2    1    2    0    0  0.00000000000E+00  0.00000000000E+00 -0.10067988803E+03  0.32054419542E+04  0.32038604342E+04 0.  0.
        2    1    3    3  502    0  0.58333315536E+03 -0.94259880060E+03 -0.12073754006E+04  0.16390623621E+04  0.25500000920E-02 0.  1.
       -2    1    3    3    0  502 -0.58333315536E+03  0.94259880060E+03  0.11066955125E+04  0.15663795921E+04  0.25500000920E-02 0. -1.
</event>
<event>
 5   0  0.3858721E-07  0.3160508E+04  0.7818609E-02  0.8199326E-01
       -2   -1    0    0    0  501  0.00000000000E+00  0.00000000000E+00  0.18023493971E+04  0.18023493971E+04  0.25500000920E-02 0. -1.
        2   -1    0    0  501    0  0.00000000000E+00  0.00000000000E+00 -0.13855261105E+04  0.13855261105E+04  0.25500000920E-02 0.  1.
    10030    2    1    2    0    0  0.00000000000E+00  0.00000000000E+00  0.41682328658E+03  0.31878755075E+04  0.31605076490E+04 0.  0.
        2    1    3    3  502    0  0.31726882623E+03  0.89491271882E+03 -0.10657266656E+04  0.14273407470E+04  0.25500000920E-02 0.  1.
       -2    1    3    3    0  502 -0.31726882623E+03 -0.89491271882E+03  0.14825499521E+04  0.17605347605E+04  0.25500000920E-02 0. -1.
</event>
<event>
 5   0  0.1317293E-07  0.3196956E+04  0.7818609E-02  0.8189621E-01
        1   -1    0    0  501    0  0.00000000000E+00  0.00000000000E+00  0.19278137437E+04  0.19278137437E+04  0.50400001928E-02 0.  1.
       -1   -1    0    0    0  501  0.00000000000E+00  0.00000000000E+00 -0.13254041380E+04  0.13254041380E+04  0.50400001928E-02 0. -1.
    10030    2    1    2    0    0  0.00000000000E+00  0.00000000000E+00  0.60240960569E+03  0.32532178817E+04  0.31969562482E+04 0.  0.
        1    1    3    3  502    0  0.22847323451E+03  0.10257997375E+04 -0.92442793465E+03  0.13996542883E+04  0.50400001928E-02 0. -1.
       -1    1    3    3    0  502 -0.22847323451E+03 -0.10257997375E+04  0.15268375403E+04  0.18535635934E+04  0.50400001928E-02 0.  1.
</event>
<event>
 5   0  0.1270948E-07  0.3200745E+04  0.7818609E-02  0.8188621E-01
        1   -1    0    0  501    0  0.00000000000E+00  0.00000000000E+00  0.16136347409E+04  0.16136347409E+04  0.50400001928E-02 0. -1.
       -1   -1    0    0    0  501  0.00000000000E+00  0.00000000000E+00 -0.15872189646E+04  0.15872189646E+04  0.50400001928E-02 0.  1.
    10030    2    1    2    0    0  0.00000000000E+00  0.00000000000E+00  0.26415776298E+02  0.32008537055E+04  0.32007447025E+04 0.  0.
        4    1    3    3  502    0  0.43607518531E+03  0.12548982499E+03  0.15479525606E+04  0.16130926837E+04  0.12699999809E+01 0. -1.
       -4    1    3    3    0  502 -0.43607518531E+03 -0.12548982499E+03 -0.15215367843E+04  0.15877610218E+04  0.12699999809E+01 0.  1.
</event>
<event>
 5   0  0.1277374E-07  0.3197042E+04  0.7818609E-02  0.8189599E-01
       -1   -1    0    0    0  501  0.00000000000E+00  0.00000000000E+00  0.28309709885E+04  0.28309709885E+04  0.50400001928E-02 0.  1.
        1   -1    0    0  501    0  0.00000000000E+00  0.00000000000E+00 -0.90261241982E+03  0.90261241983E+03  0.50400001928E-02 0. -1.
    10030    2    1    2    0    0  0.00000000000E+00  0.00000000000E+00  0.19283585687E+04  0.37335834084E+04  0.31970421170E+04 0.  0.
        5    1    3    3  502    0 -0.27609419265E+03  0.78870066189E+03  0.25555817680E+04  0.26887352045E+04  0.46999998093E+01 0.  1.
       -5    1    3    3    0  502  0.27609419265E+03 -0.78870066189E+03 -0.62722319929E+03  0.10448482038E+04  0.46999998093E+01 0. -1.
</event>
<event>
 5   0  0.3830207E-07  0.3188826E+04  0.7818609E-02  0.8191775E-01
        2   -1    0    0  501    0  0.00000000000E+00  0.00000000000E+00  0.15138819621E+04  0.15138819621E+04  0.25500000920E-02 0. -1.
       -2   -1    0    0    0  501  0.00000000000E+00  0.00000000000E+00 -0.16792274693E+04  0.16792274693E+04  0.25500000920E-02 0.  1.
    10030    2    1    2    0    0  0.00000000000E+00  0.00000000000E+00 -0.16534550716E+03  0.31931094314E+04  0.31888255995E+04 0.  0.
        4    1    3    3  502    0  0.14751166935E+04  0.31075339634E+03  0.43726811668E+03  0.15696311515E+04  0.12699999809E+01 0. -1.
       -4    1    3    3    0  502 -0.14751166935E+04 -0.31075339634E+03 -0.60261362384E+03  0.16234782799E+04  0.12699999809E+01 0.  1.
</event>
<event>
 5   0  0.1277374E-07  0.3200787E+04  0.7818609E-02  0.8188609E-01
       -1   -1    0    0    0  501  0.00000000000E+00  0.00000000000E+00  0.29623250516E+04  0.29623250516E+04  0.50400001928E-02 0.  1.
        1   -1    0    0  501    0  0.00000000000E+00  0.00000000000E+00 -0.86461141110E+03  0.86461141112E+03  0.50400001928E-02 0. -1.
    10030    2    1    2    0    0  0.00000000000E+00  0.00000000000E+00  0.20977136404E+04  0.38269364627E+04  0.32007874300E+04 0.  0.
        5    1    3    3  502    0  0.81288529912E+03 -0.13672607344E+04  0.83816392531E+03  0.17979781092E+04  0.46999998093E+01 0.  1.
       -5    1    3    3    0  502 -0.81288529912E+03  0.13672607344E+04  0.12595497151E+04  0.20289583535E+04  0.46999998093E+01 0. -1.
</event>
<event>
 5   0  0.3750285E-07  0.3197374E+04  0.7818609E-02  0.8189511E-01
        2   -1    0    0  501    0  0.00000000000E+00  0.00000000000E+00  0.20840158685E+04  0.20840158685E+04  0.25500000920E-02 0.  1.
       -2   -1    0    0    0  501  0.00000000000E+00  0.00000000000E+00 -0.12263824715E+04  0.12263824715E+04  0.25500000920E-02 0. -1.
    10030    2    1    2    0    0  0.00000000000E+00  0.00000000000E+00  0.85763339701E+03  0.33103983399E+04  0.31973742548E+04 0.  0.
        1    1    3    3  502    0 -0.12129725436E+04 -0.46237615503E+03 -0.53728458237E+03  0.14049088308E+04  0.50400001928E-02 0. -1.
       -1    1    3    3    0  502  0.12129725436E+04  0.46237615503E+03  0.13949179794E+04  0.19054895092E+04  0.50400001928E-02 0.  1.
</event>
<event>
 5   0  0.1277374E-07  0.3213160E+04  0.7818609E-02  0.8185350E-01
        1   -1    0    0  501    0  0.00000000000E+00  0.00000000000E+00  0.13148285225E+04  0.13148285225E+04  0.50400001928E-02 0.  1.
       -1   -1    0    0    0  501  0.00000000000E+00  0.00000000000E+00 -0.19630696184E+04  0.19630696184E+04  0.50400001928E-02 0. -1.
    10030    2    1    2    0    0  0.00000000000E+00  0.00000000000E+00 -0.64824109594E+03  0.32778981409E+04  0.32131603918E+04 0.  0.
        5    1    3    3  502    0 -0.55234729658E+03 -0.13856393788E+04  0.28455278286E+03  0.15185770973E+04  0.46999998093E+01 0. -1.
       -5    1    3    3    0  502  0.55234729658E+03  0.13856393788E+04 -0.93279387881E+03  0.17593210436E+04  0.46999998093E+01 0.  1.
</event>
<event>
 5   0  0.1365455E-07  0.3199211E+04  0.7818609E-02  0.8189026E-01
        1   -1    0    0  501    0  0.00000000000E+00  0.00000000000E+00  0.13855396401E+04  0.13855396401E+04  0.50400001928E-02 0. -1.
       -1   -1    0    0    0  501  0.00000000000E+00  0.00000000000E+00 -0.18467441591E+04  0.18467441591E+04  0.50400001928E-02 0.  1.
    10030    2    1    2    0    0  0.00000000000E+00  0.00000000000E+00 -0.46120451899E+03  0.32322837993E+04  0.31992106762E+04 0.  0.
        3    1    3    3  502    0  0.62159198523E+03  0.96085558298E+03 -0.13597954118E+04  0.17772629574E+04  0.10100000352E+00 0.  1.
       -3    1    3    3    0  502 -0.62159198523E+03 -0.96085558298E+03  0.89859089283E+03  0.14550208419E+04  0.10100000352E+00 0. -1.
</event>
<event>
 5   0  0.1365455E-07  0.3200990E+04  0.7818609E-02  0.8188556E-01
        1   -1    0    0  501    0  0.00000000000E+00  0.00000000000E+00  0.12849310146E+04  0.12849310146E+04  0.50400001928E-02 0.  1.
       -1   -1    0    0    0  501  0.00000000000E+00  0.00000000000E+00 -0.19935583616E+04  0.19935583616E+04  0.50400001928E-02 0. -1.
    10030    2    1    2    0    0  0.00000000000E+00  0.00000000000E+00 -0.70862734701E+03  0.32784893762E+04  0.32009904519E+04 0.  0.
        3    1    3    3  502    0  0.12256225799E+04  0.44897308410E+03 -0.13029438984E+04  0.18442858648E+04  0.10100000352E+00 0. -1.
       -3    1    3    3    0  502 -0.12256225799E+04 -0.44897308410E+03  0.59431655138E+03  0.14342035114E+04  0.10100000352E+00 0.  1.
</event>
<event>
 5   0  0.1277374E-07  0.3198717E+04  0.7818609E-02  0.8189156E-01
        1   -1    0    0  501    0  0.00000000000E+00  0.00000000000E+00  0.14944444361E+04  0.14944444361E+04  0.50400001928E-02 0. -1.
       -1   -1    0    0    0  501  0.00000000000E+00  0.00000000000E+00 -0.17116380847E+04  0.17116380847E+04  0.50400001928E-02 0.  1.
    10030    2    1    2    0    0  0.00000000000E+00  0.00000000000E+00 -0.21719364860E+03  0.32060825209E+04  0.31987172507E+04 0.  0.
        5    1    3    3  502    0  0.45559151992E+03 -0.15015579388E+04 -0.41864069346E+03  0.16240449491E+04  0.46999998093E+01 0.  1.
       -5    1    3    3    0  502 -0.45559151992E+03  0.15015579388E+04  0.20144704485E+03  0.15820375718E+04  0.46999998093E+01 0. -1.
</event>
<event>
 5   0  0.3830207E-07  0.3198279E+04  0.7818609E-02  0.8189272E-01
        2   -1    0    0  501    0  0.00000000000E+00  0.00000000000E+00  0.30805690950E+04  0.30805690950E+04  0.25500000920E-02 0. -1.
       -2   -1    0    0    0  501  0.00000000000E+00  0.00000000000E+00 -0.83012191189E+03  0.83012191190E+03  0.25500000920E-02 0.  1.
    10030    2    1    2    0    0  0.00000000000E+00  0.00000000000E+00  0.22504471831E+04  0.39106910069E+04  0.31982794793E+04 0.  0.
        4    1    3    3  502    0  0.66508931489E+03  0.21831953774E+03  0.28832785362E+04  0.29670362228E+04  0.12699999809E+01 0. -1.
       -4    1    3    3    0  502 -0.66508931489E+03 -0.21831953774E+03 -0.63283135303E+03  0.94365478413E+03  0.12699999809E+01 0.  1.
</event>
<event>
 5   0  0.3942564E-07  0.3199402E+04  0.7818609E-02  0.8188975E-01
       -2   -1    0    0    0  501  0.00000000000E+00  0.00000000000E+00  0.97389700546E+03  0.97389700546E+03  0.25500000920E-02 0. -1.
        2   -1    0    0  501    0  0.00000000000E+00  0.00000000000E+00 -0.26276321579E+04  0.26276321579E+04  0.25500000920E-02 0.  1.
    10030    2    1    2    0    0  0.00000000000E+00  0.00000000000E+00 -0.16537351525E+04  0.36015291634E+04  0.31994018754E+04 0.  0.
        3    1    3    3  502    0  0.95231692075E+03 -0.11410305674E+04 -0.16072561625E+03  0.14948882925E+04  0.10100000352E+00 0. -1.
       -3    1    3    3    0  502 -0.95231692075E+03  0.11410305674E+04 -0.14930095362E+04  0.21066408708E+04  0.10100000352E+00 0.  1.
</event>
<event>
 5   0  0.3858721E-07  0.3199822E+04  0.7818609E-02  0.8188864E-01
       -2   -1    0    0    0  501  0.00000000000E+00  0.00000000000E+00  0.25843747485E+04  0.25843747485E+04  0.25500000920E-02 0.  1.
        2   -1    0    0  501    0  0.00000000000E+00  0.00000000000E+00 -0.99045813361E+03  0.99045813361E+03  0.25500000920E-02 0. -1.
    10030    2    1    2    0    0  0.00000000000E+00  0.00000000000E+00  0.15939166149E+04  0.35748328821E+04  0.31998218638E+04 0.  0.
        2    1    3    3  502    0 -0.42025281235E+03 -0.15186054730E+04  0.11068471785E+04  0.19255871015E+04  0.25500000920E-02 0. -1.
       -2    1    3    3    0  502  0.42025281235E+03  0.15186054730E+04  0.48706943636E+03  0.16492457806E+04  0.25500000920E-02 0.  1.
</event>
<event>
 5   0  0.3750285E-07  0.3200131E+04  0.7818609E-02  0.8188783E-01
        2   -1    0    0  501    0  0.00000000000E+00  0.00000000000E+00  0.19386832631E+04  0.19386832631E+04  0.25500000920E-02 0. -1.
       -2   -1    0    0    0  501  0.00000000000E+00  0.00000000000E+00 -0.13205920936E+04  0.13205920936E+04  0.25500000920E-02 0.  1.
    10030    2    1    2    0    0  0.00000000000E+00  0.00000000000E+00  0.61809116948E+03  0.32592753567E+04  0.32001311156E+04 0.  0.
        1    1    3    3  502    0  0.11142743945E+04 -0.10767337171E+04  0.71547836399E+03  0.17067138638E+04  0.50400001928E-02 0. -1.
       -1    1    3    3    0  502 -0.11142743945E+04  0.10767337171E+04 -0.97387194509E+02  0.15525614929E+04  0.50400001928E-02 0.  1.
</event>
<event>
 5   0  0.3764056E-07  0.3201840E+04  0.7818609E-02  0.8188331E-01
       -2   -1    0    0    0  501  0.00000000000E+00  0.00000000000E+00  0.10719618125E+04  0.10719618125E+04  0.25500000920E-02 0.  1.
        2   -1    0    0  501    0  0.00000000000E+00  0.00000000000E+00 -0.23908920611E+04  0.23908920611E+04  0.25500000920E-02 0. -1.
    10030    2    1    2    0    0  0.00000000000E+00  0.00000000000E+00 -0.13189302486E+04  0.34628538736E+04  0.32018400880E+04 0.  0.
        5    1    3    3  502    0 -0.67160447559E+02  0.16377974418E+03  0.10613376220E+04  0.10760083495E+04  0.46999998093E+01 0.  1.
       -5    1    3    3    0  502  0.67160447559E+02 -0.16377974418E+03 -0.23802678706E+04  0.23868455242E+04  0.46999998093E+01 0. -1.
</event>
<event>
 5   0  0.3942564E-07  0.3200279E+04  0.7818609E-02  0.8188743E-01
       -2   -1    0    0    0  501  0.00000000000E+00  0.00000000000E+00  0.14253001383E+04  0.14253001383E+04  0.25500000920E-02 0. -1.
        2   -1    0    0  501    0  0.00000000000E+00  0.00000000000E+00 -0.17964263866E+04  0.17964263866E+04  0.25500000920E-02 0.  1.
    10030    2    1    2    0    0  0.00000000000E+00  0.00000000000E+00 -0.37112624828E+03  0.32217265249E+04  0.32002792237E+04 0.  0.
        3    1    3    3  502    0 -0.12731874223E+04  0.95444542044E+03 -0.15688382411E+02  0.15912945700E+04  0.10100000352E+00 0.  1.
       -3    1    3    3    0  502  0.12731874223E+04 -0.95444542044E+03 -0.35543786587E+03  0.16304319549E+04  0.10100000352E+00 0. -1.
</event>
<event>
 5   0  0.1317293E-07  0.3213470E+04  0.7818609E-02  0.8185269E-01
       -1   -1    0    0    0  501  0.00000000000E+00  0.00000000000E+00  0.14879394808E+04  0.14879394809E+04  0.50400001928E-02 0. -1.
        1   -1    0    0  501    0  0.00000000000E+00  0.00000000000E+00 -0.17350146551E+04  0.17350146551E+04  0.50400001928E-02 0.  1.
    10030    2    1    2    0    0  0.00000000000E+00  0.00000000000E+00 -0.24707517429E+03  0.32229541360E+04  0.32134696546E+04 0.  0.
        1    1    3    3  502    0  0.51931832425E+03 -0.52182061613E+03 -0.15559013713E+04  0.17212836357E+04  0.50400001928E-02 0.  1.
       -1    1    3    3    0  502 -0.51931832425E+03  0.52182061613E+03  0.13088261970E+04  0.15016705003E+04  0.50400001928E-02 0. -1.
</event>
<event>
 5   0  0.1365455E-07  0.3181304E+04  0.7818609E-02  0.8193772E-01
       -1   -1    0    0    0  501  0.00000000000E+00  0.00000000000E+00  0.14371335165E+04  0.14371335165E+04  0.50400001928E-02 0. -1.
        1   -1    0    0  501    0  0.00000000000E+00  0.00000000000E+00 -0.17605701528E+04  0.17605701528E+04  0.50400001928E-02 0.  1.
    10030    2    1    2    0    0  0.00000000000E+00  0.00000000000E+00 -0.32343663633E+03  0.31977036693E+04  0.31813043707E+04 0.  0.
        3    1    3    3  502    0  0.11211223584E+04 -0.11204634518E+04 -0.29590056888E+03  0.16124239040E+04  0.10100000352E+00 0. -1.
       -3    1    3    3    0  502 -0.11211223584E+04  0.11204634518E+04 -0.27536067447E+02  0.15852797653E+04  0.10100000352E+00 0.  1.
</event>
<event>
 5   0  0.1277374E-07  0.3197575E+04  0.7818609E-02  0.8189458E-01
        1   -1    0    0  501    0  0.00000000000E+00  0.00000000000E+00  0.18880586399E+04  0.18880586399E+04  0.50400001928E-02 0.  1.
       -1   -1    0    0    0  501  0.00000000000E+00  0.00000000000E+00 -0.13538360835E+04  0.13538360835E+04  0.50400001928E-02 0. -1.
    10030    2    1    2    0    0  0.00000000000E+00  0.00000000000E+00  0.53422255634E+03  0.32418947234E+04  0.31975752779E+04 0.  0.
        5    1    3    3  502    0 -0.38828574298E+03 -0.13066495941E+04 -0.57993298238E+03  0.14813653614E+04  0.46999998093E+01 0. -1.
       -5    1    3    3    0  502  0.38828574298E+03  0.13066495941E+04  0.11141555387E+04  0.17605293620E+04  0.46999998093E+01 0.  1.
</event>
<event>
 5   0  0.1365455E-07  0.3193415E+04  0.7818609E-02  0.8190558E-01
       -1   -1    0    0    0  501  0.00000000000E+00  0.00000000000E+00  0.98919686701E+03  0.98919686703E+03  0.50400001928E-02 0. -1.
        1   -1    0    0  501    0  0.00000000000E+00  0.00000000000E+00 -0.25773175986E+04  0.25773175986E+04  0.50400001928E-02 0.  1.
    10030    2    1    2    0    0  0.00000000000E+00  0.00000000000E+00 -0.15881207316E+04  0.35665144656E+04  0.31934147829E+04 0.  0.
        3    1    3    3  502    0 -0.13975977942E+04 -0.60048085991E+03 -0.13361767669E+04  0.20246543459E+04  0.10100000352E+00 0.  1.
       -3    1    3    3    0  502  0.13975977942E+04  0.60048085991E+03 -0.25194396465E+03  0.15418601198E+04  0.10100000352E+00 0. -1.
</event>
<event>
 5   0  0.3858721E-07  0.3199402E+04  0.7818609E-02  0.8188975E-01
       -2   -1    0    0    0  501  0.00000000000E+00  0.00000000000E+00  0.12471789505E+04  0.12471789505E+04  0.25500000920E-02 0. -1.
        2   -1    0    0  501    0  0.00000000000E+00  0.00000000000E+00 -0.20518654937E+04  0.20518654937E+04  0.25500000920E-02 0.  1.
    10030    2    1    2    0    0  0.00000000000E+00  0.00000000000E+00 -0.80468654327E+03  0.32990444442E+04  0.31994021023E+04 0.  0.
        2    1    3    3  502    0 -0.53327521040E+03  0.53096454609E+03  0.10532646286E+04  0.12944775692E+04  0.25500000920E-02 0. -1.
       -2    1    3    3    0  502  0.53327521040E+03 -0.53096454609E+03 -0.18579511719E+04  0.20045668750E+04  0.25500000920E-02 0.  1.
</event>
<event>
 5   0  0.3942564E-07  0.3205679E+04  0.7818609E-02  0.8187319E-01
       -2   -1    0    0    0  501  0.00000000000E+00  0.00000000000E+00  0.97897270981E+03  0.97897270981E+03  0.25500000920E-02 0. -1.
        2   -1    0    0  501    0  0.00000000000E+00  0.00000000000E+00 -0.26242758861E+04  0.26242758861E+04  0.25500000920E-02 0.  1.
    10030    2    1    2    0    0  0.00000000000E+00  0.00000000000E+00 -0.16453031762E+04  0.36032485959E+04  0.32056790079E+04 0.  0.
        3    1    3    3  502    0  0.27826624714E+02  0.72135151838E+03  0.78590451949E+03  0.10671308533E+04  0.10100000352E+00 0. -1.
       -3    1    3    3    0  502 -0.27826624714E+02 -0.72135151838E+03 -0.24312076957E+04  0.25361177426E+04  0.10100000352E+00 0.  1.
</event>
<event>
 5   0  0.1365455E-07  0.3202843E+04  0.7818609E-02  0.8188067E-01
       -1   -1    0    0    0  501  0.00000000000E+00  0.00000000000E+00  0.16978625529E+04  0.16978625529E+04  0.50400001928E-02 0.  1.
        1   -1    0    0  501    0  0.00000000000E+00  0.00000000000E+00 -0.15104581710E+04  0.15104581710E+04  0.50400001928E-02 0. -1.
    10030    2    1    2    0    0  0.00000000000E+00  0.00000000000E+00  0.18740438197E+03  0.32083207239E+04  0.32028427163E+04 0.  0.
        3    1    3    3  502    0 -0.13147971660E+04  0.77922921086E+03  0.57270475599E+03  0.16321398526E+04  0.10100000352E+00 0. -1.
       -3    1    3    3    0  502  0.13147971660E+04 -0.77922921086E+03 -0.38530037402E+03  0.15761808713E+04  0.10100000352E+00 0.  1.
</event>
<event>
 5   0  0.1288096E-07  0.3201127E+04  0.7818609E-02  0.8188520E-01
       -1   -1    0    0    0  501  0.00000000000E+00  0.00000000000E+00  0.29722816876E+04  0.29722816876E+04  0.50400001928E-02 0. -1.
        1   -1    0    0  501    0  0.00000000000E+00  0.00000000000E+00 -0.86189796924E+03  0.86189796926E+03  0.50400001928E-02 0.  1.
    10030    2    1    2    0    0  0.00000000000E+00  0.00000000000E+00  0.21103837184E+04  0.38341796569E+04  0.32011270207E+04 0.  0.
        2    1    3    3  502    0  0.52904358138E+03  0.19782308234E+03  0.28489468712E+04  0.29043965566E+04  0.25500000920E-02 0. -1.
       -2    1    3    3    0  502 -0.52904358138E+03 -0.19782308234E+03 -0.73856315282E+03  0.92978310031E+03  0.25500000920E-02 0.  1.
</event>
<event>
 5   0  0.3858721E-07  0.3196680E+04  0.7818609E-02  0.8189695E-01
       -2   -1    0    0    0  501  0.00000000000E+00  0.00000000000E+00  0.26829523329E+04  0.26829523329E+04  0.25500000920E-02 0.  1.
        2   -1    0    0  501    0  0.00000000000E+00  0.00000000000E+00 -0.95219370276E+03  0.95219370277E+03  0.25500000920E-02 0. -1.
    10030    2    1    2    0    0  0.00000000000E+00  0.00000000000E+00  0.17307586301E+04  0.36351460356E+04  0.31966797251E+04 0.  0.
        2    1    3    3  502    0 -0.52872713929E+03 -0.10386238133E+03 -0.84579623204E+03  0.10028514587E+04  0.25500000920E-02 0. -1.
       -2    1    3    3    0  502  0.52872713929E+03  0.10386238133E+03  0.25765548621E+04  0.26322945769E+04  0.25500000920E-02 0.  1.
</event>
<event>
 5   0  0.1270948E-07  0.3197040E+04  0.7818609E-02  0.8189599E-01
       -1   -1    0    0    0  501  0.00000000000E+00  0.00000000000E+00  0.99245637258E+03  0.99245637259E+03  0.50400001928E-02 0.  1.
        1   -1    0    0  501    0  0.00000000000E+00  0.00000000000E+00 -0.25746888258E+04  0.25746888258E+04  0.50400001928E-02 0. -1.
    10030    2    1    2    0    0  0.00000000000E+00  0.00000000000E+00 -0.15822324532E+04  0.35671451984E+04  0.31970400889E+04 0.  0.
        4    1    3    3  502    0  0.66250880049E+03 -0.90947200046E+03  0.47575979185E+03  0.12216407912E+04  0.12699999809E+01 0.  1.
       -4    1    3    3    0  502 -0.66250880049E+03  0.90947200046E+03 -0.20579922451E+04  0.23455044071E+04  0.12699999809E+01 0. -1.
</event>
<event>
 5   0  0.3750285E-07  0.3201014E+04  0.7818609E-02  0.8188549E-01
       -2   -1    0    0    0  501  0.00000000000E+00  0.00000000000E+00  0.14537410889E+04  0.14537410889E+04  0.25500000920E-02 0.  1.
        2   -1    0    0  501    0  0.00000000000E+00  0.00000000000E+00 -0.17620903254E+04  0.17620903254E+04  0.25500000920E-02 0. -1.
    10030    2    1    2    0    0  0.00000000000E+00  0.00000000000E+00 -0.30834923655E+03  0.32158314143E+04  0.32010142820E+04 0.  0.
        1    1    3    3  502    0  0.13526918615E+04 -0.67305497229E+03  0.37632731155E+03  0.15570486548E+04  0.50400001928E-02 0.  1.
       -1    1    3    3    0  502 -0.13526918615E+04  0.67305497229E+03 -0.68467654810E+03  0.16587827596E+04  0.50400001928E-02 0. -1.
</event>
<event>
 5   0  0.1270948E-07  0.3204489E+04  0.7818609E-02  0.8187633E-01
       -1   -1    0    0    0  501  0.00000000000E+00  0.00000000000E+00  0.11717189204E+04  0.11717189204E+04  0.50400001928E-02 0.  1.
        1   -1    0    0  501    0  0.00000000000E+00  0.00000000000E+00 -0.21909579462E+04  0.21909579462E+04  0.50400001928E-02 0. -1.
    10030    2    1    2    0    0  0.00000000000E+00  0.00000000000E+00 -0.10192390258E+04  0.33626768666E+04  0.32044886515E+04 0.  0.
        4    1    3    3  502    0 -0.16009703894E+04  0.51827733644E+02 -0.47045466338E+03  0.16694674315E+04  0.12699999809E+01 0. -1.
       -4    1    3    3    0  502  0.16009703894E+04 -0.51827733644E+02 -0.54878436238E+03  0.16932094351E+04  0.12699999809E+01 0.  1.
</event>
<event>
 5   0  0.1365455E-07  0.3199570E+04  0.7818609E-02  0.8188931E-01
       -1   -1    0    0    0  501  0.00000000000E+00  0.00000000000E+00  0.11898682269E+04  0.11898682269E+04  0.50400001928E-02 0. -1.
        1   -1    0    0  501    0  0.00000000000E+00  0.00000000000E+00 -0.21509203207E+04  0.21509203207E+04  0.50400001928E-02 0.  1.
    10030    2    1    2    0    0  0.00000000000E+00  0.00000000000E+00 -0.96105209383E+03  0.33407885476E+04  0.31995698137E+04 0.  0.
        3    1    3    3  502    0 -0.56578396066E+02  0.64207227090E+03  0.10482891191E+04  0.12305966047E+04  0.10100000352E+00 0. -1.
       -3    1    3    3    0  502  0.56578396066E+02 -0.64207227090E+03 -0.20093412129E+04  0.21101919430E+04  0.10100000352E+00 0.  1.
</event>
<event>
 5   0  0.1288096E-07  0.3206511E+04  0.7818609E-02  0.8187100E-01
        1   -1    0    0  501    0  0.00000000000E+00  0.00000000000E+00  0.19354435371E+04  0.19354435371E+04  0.50400001928E-02 0.  1.
       -1   -1    0    0    0  501  0.00000000000E+00  0.00000000000E+00 -0.13280823266E+04  0.13280823266E+04  0.50400001928E-02 0. -1.
    10030    2    1    2    0    0  0.00000000000E+00  0.00000000000E+00  0.60736121049E+03  0.32635258638E+04  0.32065110983E+04 0.  0.
        2    1    3    3  502    0 -0.61255436303E+03 -0.99088353128E+03 -0.81742961986E+03  0.14231177757E+04  0.25500000920E-02 0. -1.
       -2    1    3    3    0  502  0.61255436303E+03  0.99088353128E+03  0.14247908303E+04  0.18404080880E+04  0.25500000920E-02 0.  1.
</event>
<event>
 5   0  0.3750285E-07  0.3166370E+04  0.7818609E-02  0.8197756E-01
        2   -1    0    0  501    0  0.00000000000E+00  0.00000000000E+00  0.14275764273E+04  0.14275764273E+04  0.25500000920E-02 0. -1.
       -2   -1    0    0    0  501  0.00000000000E+00  0.00000000000E+00 -0.17557547835E+04  0.17557547835E+04  0.25500000920E-02 0.  1.
    10030    2    1    2    0    0  0.00000000000E+00  0.00000000000E+00 -0.32817835623E+03  0.31833312108E+04  0.31663696190E+04 0.  0.
        1    1    3    3  502    0 -0.76251887860E+03 -0.13128626169E+04  0.28712549065E+03  0.15451486461E+04  0.50400001928E-02 0. -1.
       -1    1    3    3    0  502  0.76251887860E+03  0.13128626169E+04 -0.61530384688E+03  0.16381825647E+04  0.50400001928E-02 0.  1.
</event>
<event>
 5   0  0.3764056E-07  0.3194688E+04  0.7818609E-02  0.8190221E-01
       -2   -1    0    0    0  501  0.00000000000E+00  0.00000000000E+00  0.17295078298E+04  0.17295078298E+04  0.25500000920E-02 0. -1.
        2   -1    0    0  501    0  0.00000000000E+00  0.00000000000E+00 -0.14752800000E+04  0.14752800000E+04  0.25500000920E-02 0.  1.
    10030    2    1    2    0    0  0.00000000000E+00  0.00000000000E+00  0.25422782980E+03  0.32047878298E+04  0.31946882859E+04 0.  0.
        5    1    3    3  502    0 -0.14214244484E+04  0.23583103531E+03  0.81880256697E+03  0.16572638514E+04  0.46999998093E+01 0. -1.
       -5    1    3    3    0  502  0.14214244484E+04 -0.23583103531E+03 -0.56457473717E+03  0.15475239783E+04  0.46999998093E+01 0.  1.
</event>
<event>
 5   0  0.1277374E-07  0.3202260E+04  0.7818609E-02  0.8188221E-01
        1   -1    0    0  501    0  0.00000000000E+00  0.00000000000E+00  0.13343875307E+04  0.13343875307E+04  0.50400001928E-02 0.  1.
       -1   -1    0    0    0  501  0.00000000000E+00  0.00000000000E+00 -0.19211940002E+04  0.19211940002E+04  0.50400001928E-02 0. -1.
    10030    2    1    2    0    0  0.00000000000E+00  0.00000000000E+00 -0.58680646953E+03  0.32555815309E+04  0.32022600256E+04 0.  0.
        5    1    3    3  502    0  0.95643733247E+03 -0.78221341727E+03 -0.13286742062E+04  0.18143945098E+04  0.46999998093E+01 0. -1.
       -5    1    3    3    0  502 -0.95643733247E+03  0.78221341727E+03  0.74186773663E+03  0.14411870211E+04  0.46999998093E+01 0.  1.
</event>
<event>
 5   0  0.3830207E-07  0.3198693E+04  0.7818609E-02  0.8189163E-01
       -2   -1    0    0    0  501  0.00000000000E+00  0.00000000000E+00  0.18263125963E+04  0.18263125963E+04  0.25500000920E-02 0. -1.
        2   -1    0    0  501    0  0.00000000000E+00  0.00000000000E+00 -0.14005864462E+04  0.14005864462E+04  0.25500000920E-02 0.  1.
    10030    2    1    2    0    0  0.00000000000E+00  0.00000000000E+00  0.42572615013E+03  0.32268990425E+04  0.31986926510E+04 0.  0.
        4    1    3    3  502    0  0.92263369805E+02 -0.15050597704E+04  0.75065833106E+03  0.16844010759E+04  0.12699999809E+01 0. -1.
       -4    1    3    3    0  502 -0.92263369805E+02  0.15050597704E+04 -0.32493218093E+03  0.15424979666E+04  0.12699999809E+01 0.  1.
</event>
<event>
 5   0  0.1317293E-07  0.3200376E+04  0.7818609E-02  0.8188718E-01
        1   -1    0    0  501    0  0.00000000000E+00  0.00000000000E+00  0.15349094217E+04  0.15349094217E+04  0.50400001928E-02 0. -1.
       -1   -1    0    0    0  501  0.00000000000E+00  0.00000000000E+00 -0.16682424076E+04  0.16682424076E+04  0.50400001928E-02 0.  1.
    10030    2    1    2    0    0  0.00000000000E+00  0.00000000000E+00 -0.13333298586E+03  0.32031518293E+04  0.32003755962E+04 0.  0.
        1    1    3    3  502    0 -0.87620925353E+03 -0.10890649168E+04 -0.84631330563E+03  0.16340291492E+04  0.50400001928E-02 0.  1.
       -1    1    3    3    0  502  0.87620925353E+03  0.10890649168E+04  0.71298031978E+03  0.15691226802E+04  0.50400001928E-02 0. -1.
</event>
<event>
 5   0  0.1277374E-07  0.3189692E+04  0.7818609E-02  0.8191545E-01
       -1   -1    0    0    0  501  0.00000000000E+00  0.00000000000E+00  0.11111851537E+04  0.11111851537E+04  0.50400001928E-02 0. -1.
        1   -1    0    0  501    0  0.00000000000E+00  0.00000000000E+00 -0.22890275142E+04  0.22890275142E+04  0.50400001928E-02 0.  1.
    10030    2    1    2    0    0  0.00000000000E+00  0.00000000000E+00 -0.11778423605E+04  0.34002126679E+04  0.31896917658E+04 0.  0.
        5    1    3    3  502    0  0.12464713313E+03 -0.15215305506E+04 -0.97034851550E+02  0.15297156522E+04  0.46999998093E+01 0.  1.
       -5    1    3    3    0  502 -0.12464713313E+03  0.15215305506E+04 -0.10808075089E+04  0.18704970157E+04  0.46999998093E+01 0. -1.
</event>
<event>
 5   0  0.1288096E-07  0.3202968E+04  0.7818609E-02  0.8188034E-01
        1   -1    0    0  501    0  0.00000000000E+00  0.00000000000E+00  0.17832636575E+04  0.17832636575E+04  0.50400001928E-02 0. -1.
       -1   -1    0    0    0  501  0.00000000000E+00  0.00000000000E+00 -0.14382341781E+04  0.14382341781E+04  0.50400001928E-02 0.  1.
    10030    2    1    2    0    0  0.00000000000E+00  0.00000000000E+00  0.34502947944E+03  0.32214978357E+04  0.32029678368E+04 0.  0.
        2    1    3    3  502    0 -0.51228068875E+03  0.75076263243E+03 -0.11537017833E+04  0.14687082213E+04  0.25500000920E-02 0.  1.
       -2    1    3    3    0  502  0.51228068875E+03 -0.75076263243E+03  0.14987312628E+04  0.17527896144E+04  0.25500000920E-02 0. -1.
</event>
<event>
 5   0  0.1288096E-07  0.3199005E+04  0.7818609E-02  0.8189080E-01
       -1   -1    0    0    0  501  0.00000000000E+00  0.00000000000E+00  0.15113318658E+04  0.15113318658E+04  0.50400001928E-02 0. -1.
        1   -1    0    0  501    0  0.00000000000E+00  0.00000000000E+00 -0.16928169366E+04  0.16928169366E+04  0.50400001928E-02 0.  1.
    10030    2    1    2    0    0  0.00000000000E+00  0.00000000000E+00 -0.18148507080E+03  0.32041488024E+04  0.31990049573E+04 0.  0.
        2    1    3    3  502    0 -0.11151931200E+04  0.86235683398E+03  0.66617967472E+03  0.15592018352E+04  0.25500000920E-02 0. -1.
       -2    1    3    3    0  502  0.11151931200E+04 -0.86235683398E+03 -0.84766474551E+03  0.16449469672E+04  0.25500000920E-02 0.  1.
</event>
<event>
 5   0  0.1277374E-07  0.3210489E+04  0.7818609E-02  0.8186053E-01
        1   -1    0    0  501    0  0.00000000000E+00  0.00000000000E+00  0.16798949789E+04  0.16798949789E+04  0.50400001928E-02 0. -1.
       -1   -1    0    0    0  501  0.00000000000E+00  0.00000000000E+00 -0.15339111887E+04  0.15339111887E+04  0.50400001928E-02 0.  1.
    10030    2    1    2    0    0  0.00000000000E+00  0.00000000000E+00  0.14598379022E+03  0.32138061676E+04  0.32104888749E+04 0.  0.
        5    1    3    3  502    0  0.12669001691E+04  0.18270065717E+03 -0.89670508086E+03  0.15628556109E+04  0.46999998093E+01 0. -1.
       -5    1    3    3    0  502 -0.12669001691E+04 -0.18270065717E+03  0.10426888711E+04  0.16509505566E+04  0.46999998093E+01 0.  1.
</event>
<event>
 5   0  0.1277374E-07  0.3199705E+04  0.7818609E-02  0.8188895E-01
        1   -1    0    0  501    0  0.00000000000E+00  0.00000000000E+00  0.18246259307E+04  0.18246259307E+04  0.50400001928E-02 0. -1.
       -1   -1    0    0    0  501  0.00000000000E+00  0.00000000000E+00 -0.14027684112E+04  0.14027684112E+04  0.50400001928E-02 0.  1.
    10030    2    1    2    0    0  0.00000000000E+00  0.00000000000E+00  0.42185751954E+03  0.32273943419E+04  0.31997047476E+04 0.  0.
        5    1    3    3  502    0 -0.14384471401E+04  0.59565981245E+03  0.58230618556E+03  0.16622404672E+04  0.46999998093E+01 0.  1.
       -5    1    3    3    0  502  0.14384471401E+04 -0.59565981245E+03 -0.16044866602E+03  0.15651538747E+04  0.46999998093E+01 0. -1.
</event>
<event>
 5   0  0.1288096E-07  0.3210072E+04  0.7818609E-02  0.8186162E-01
       -1   -1    0    0    0  501  0.00000000000E+00  0.00000000000E+00  0.10083971679E+04  0.10083971679E+04  0.50400001928E-02 0. -1.
        1   -1    0    0  501    0  0.00000000000E+00  0.00000000000E+00 -0.25546891224E+04  0.25546891224E+04  0.50400001928E-02 0.  1.
    10030    2    1    2    0    0  0.00000000000E+00  0.00000000000E+00 -0.15462919545E+04  0.35630862903E+04  0.32100724452E+04 0.  0.
        2    1    3    3  502    0 -0.39501732394E+03 -0.14999531086E+04 -0.12311259344E+04  0.19802952003E+04  0.25500000920E-02 0.  1.
       -2    1    3    3    0  502  0.39501732394E+03  0.14999531086E+04 -0.31516602016E+03  0.15827910900E+04  0.25500000920E-02 0. -1.
</event>
<event>
 5   0  0.1288096E-07  0.3212660E+04  0.7818609E-02  0.8185482E-01
        1   -1    0    0  501    0  0.00000000000E+00  0.00000000000E+00  0.94125521607E+03  0.94125521608E+03  0.50400001928E-02 0. -1.
       -1   -1    0    0    0  501  0.00000000000E+00  0.00000000000E+00 -0.27413357165E+04  0.27413357165E+04  0.50400001928E-02 0.  1.
    10030    2    1    2    0    0  0.00000000000E+00  0.00000000000E+00 -0.18000805004E+04  0.36825909326E+04  0.32126602946E+04 0.  0.
        2    1    3    3  502    0 -0.53806658920E+03 -0.90979950905E+02 -0.26318269629E+04  0.26878069441E+04  0.25500000920E-02 0.  1.
       -2    1    3    3    0  502  0.53806658920E+03  0.90979950905E+02  0.83174646250E+03  0.99478398849E+03  0.25500000920E-02 0. -1.
</event>
<event>
 5   0  0.1288096E-07  0.3193230E+04  0.7818609E-02  0.8190607E-01
       -1   -1    0    0    0  501  0.00000000000E+00  0.00000000000E+00  0.16101920461E+04  0.16101920461E+04  0.50400001928E-02 0. -1.
        1   -1    0    0  501    0  0.00000000000E+00  0.00000000000E+00 -0.15831522225E+04  0.15831522225E+04  0.50400001928E-02 0.  1.
    10030    2    1    2    0    0  0.00000000000E+00  0.00000000000E+00  0.27039823591E+02  0.31933442686E+04  0.31932297859E+04 0.  0.
        2    1    3    3  502    0 -0.14088143041E+03  0.13681327967E+04 -0.79740014493E+03  0.15898056227E+04  0.25500000920E-02 0.  1.
       -2    1    3    3    0  502  0.14088143041E+03 -0.13681327967E+04  0.82443996852E+03  0.16035386458E+04  0.25500000920E-02 0. -1.
</event>
<event>
 5   0  0.3750285E-07  0.3195035E+04  0.7818609E-02  0.8190130E-01
        2   -1    0    0  501    0  0.00000000000E+00  0.00000000000E+00  0.12828218853E+04  0.12828218853E+04  0.25500000920E-02 0.  1.
       -2   -1    0    0    0  501  0.00000000000E+00  0.00000000000E+00 -0.19894130337E+04  0.19894130337E+04  0.25500000920E-02 0. -1.
    10030    2    1    2    0    0  0.00000000000E+00  0.00000000000E+00 -0.70659114835E+03  0.32722349190E+04  0.31950352602E+04 0.  0.
        1    1    3    3  502    0  0.38828551388E+03 -0.12153441045E+04  0.63130520840E+03  0.14235073582E+04  0.50400001928E-02 0.  1.
       -1    1    3    3    0  502 -0.38828551388E+03  0.12153441045E+04 -0.13378963567E+04  0.18487275608E+04  0.50400001928E-02 0. -1.
</event>
<event>
 5   0  0.1277374E-07  0.3197935E+04  0.7818609E-02  0.8189363E-01
       -1   -1    0    0    0  501  0.00000000000E+00  0.00000000000E+00  0.15717883686E+04  0.15717883686E+04  0.50400001928E-02 0. -1.
        1   -1    0    0  501    0  0.00000000000E+00  0.00000000000E+00 -0.16266161613E+04  0.16266161613E+04  0.50400001928E-02 0.  1.
    10030    2    1    2    0    0  0.00000000000E+00  0.00000000000E+00 -0.54827792716E+02  0.31984045299E+04  0.31979345600E+04 0.  0.
        5    1    3    3  502    0  0.37444776640E+03  0.42747077826E+03  0.14673732006E+04  0.15735782776E+04  0.46999998093E+01 0. -1.
       -5    1    3    3    0  502 -0.37444776640E+03 -0.42747077826E+03 -0.15222009933E+04  0.16248262523E+04  0.46999998093E+01 0.  1.
</event>
<event>
 5   0  0.1288096E-07  0.3140338E+04  0.7818609E-02  0.8204754E-01
        1   -1    0    0  501    0  0.00000000000E+00  0.00000000000E+00  0.22196416154E+04  0.22196416154E+04  0.50400001928E-02 0. -1.
       -1   -1    0    0    0  501  0.00000000000E+00  0.00000000000E+00 -0.11107340188E+04  0.11107340188E+04  0.50400001928E-02 0.  1.
    10030    2    1    2    0    0  0.00000000000E+00  0.00000000000E+00  0.11089075966E+04  0.33303756342E+04  0.31403384861E+04 0.  0.
        2    1    3    3  502    0  0.41391343005E+03  0.12613037543E+04  0.14437825937E+04  0.19613056024E+04  0.25500000920E-02 0.  1.
       -2    1    3    3    0  502 -0.41391343005E+03 -0.12613037543E+04 -0.33487499709E+03  0.13690700318E+04  0.25500000920E-02 0. -1.
</event>
<event>
 5   0  0.1317293E-07  0.3200208E+04  0.7818609E-02  0.8188762E-01
       -1   -1    0    0    0  501  0.00000000000E+00  0.00000000000E+00  0.19626721439E+04  0.19626721439E+04  0.50400001928E-02 0. -1.
        1   -1    0    0  501    0  0.00000000000E+00  0.00000000000E+00 -0.13045136891E+04  0.13045136891E+04  0.50400001928E-02 0.  1.
    10030    2    1    2    0    0  0.00000000000E+00  0.00000000000E+00  0.65815845478E+03  0.32671858330E+04  0.32002079176E+04 0.  0.
        1    1    3    3  502    0 -0.11754347481E+04 -0.39763414053E+03 -0.70229829578E+03  0.14258270067E+04  0.50400001928E-02 0.  1.
       -1    1    3    3    0  502  0.11754347481E+04  0.39763414053E+03  0.13604567506E+04  0.18413588263E+04  0.50400001928E-02 0. -1.
</event>
<event>
 5   0  0.3764056E-07  0.3196681E+04  0.7818609E-02  0.8189694E-01
       -2   -1    0    0    0  501  0.00000000000E+00  0.00000000000E+00  0.22577245205E+04  0.22577245205E+04  0.25500000920E-02 0.  1.
        2   -1    0    0  501    0  0.00000000000E+00  0.00000000000E+00 -0.11315340405E+04  0.11315340405E+04  0.25500000920E-02 0. -1.
    10030    2    1    2    0    0  0.00000000000E+00  0.00000000000E+00  0.11261904800E+04  0.33892585611E+04  0.31966808719E+04 0.  0.
        5    1    3    3  502    0  0.14957355926E+04  0.55399949176E+03  0.45429932705E+03  0.16584783292E+04  0.46999998093E+01 0.  1.
       -5    1    3    3    0  502 -0.14957355926E+04 -0.55399949176E+03  0.67189115293E+03  0.17307802319E+04  0.46999998093E+01 0. -1.
</event>
<event>
 5   0  0.3764056E-07  0.3200508E+04  0.7818609E-02  0.8188683E-01
        2   -1    0    0  501    0  0.00000000000E+00  0.00000000000E+00  0.11675420072E+04  0.11675420072E+04  0.25500000920E-02 0.  1.
       -2   -1    0    0    0  501  0.00000000000E+00  0.00000000000E+00 -0.21933365733E+04  0.21933365733E+04  0.25500000920E-02 0. -1.
    10030    2    1    2    0    0  0.00000000000E+00  0.00000000000E+00 -0.10257945662E+04  0.33608785805E+04  0.32005078255E+04 0.  0.
        5    1    3    3  502    0 -0.14874235725E+04 -0.53250276973E+03 -0.24557847688E+03  0.15988492618E+04  0.46999998093E+01 0.  1.
       -5    1    3    3    0  502  0.14874235725E+04  0.53250276973E+03 -0.78021608929E+03  0.17620293187E+04  0.46999998093E+01 0. -1.
</event>
<event>
 5   0  0.3830207E-07  0.3198786E+04  0.7818609E-02  0.8189138E-01
       -2   -1    0    0    0  501  0.00000000000E+00  0.00000000000E+00  0.14442917560E+04  0.14442917560E+04  0.25500000920E-02 0. -1.
        2   -1    0    0  501    0  0.00000000000E+00  0.00000000000E+00 -0.17711508447E+04  0.17711508447E+04  0.25500000920E-02 0.  1.
    10030    2    1    2    0    0  0.00000000000E+00  0.00000000000E+00 -0.32685908870E+03  0.32154426008E+04  0.31987863722E+04 0.  0.
        4    1    3    3  502    0 -0.78738690073E+03 -0.69463441747E+03  0.10493192616E+04  0.14844418584E+04  0.12699999809E+01 0. -1.
       -4    1    3    3    0  502  0.78738690073E+03  0.69463441747E+03 -0.13761783503E+04  0.17310007424E+04  0.12699999809E+01 0.  1.
</event>
<event>
 5   0  0.1277374E-07  0.3203155E+04  0.7818609E-02  0.8187984E-01
        1   -1    0    0  501    0  0.00000000000E+00  0.00000000000E+00  0.12666377816E+04  0.12666377817E+04  0.50400001928E-02 0. -1.
       -1   -1    0    0    0  501  0.00000000000E+00  0.00000000000E+00 -0.20250863355E+04  0.20250863355E+04  0.50400001928E-02 0.  1.
    10030    2    1    2    0    0  0.00000000000E+00  0.00000000000E+00 -0.75844855387E+03  0.32917241172E+04  0.32031552343E+04 0.  0.
        5    1    3    3  502    0 -0.96009608768E+03 -0.90988966666E+03  0.54870775776E+03  0.14320565619E+04  0.46999998093E+01 0. -1.
       -5    1    3    3    0  502  0.96009608768E+03  0.90988966666E+03 -0.13071563116E+04  0.18596675553E+04  0.46999998093E+01 0.  1.
</event>
<event>
 5   0  0.3858721E-07  0.3197434E+04  0.7818609E-02  0.8189495E-01
        2   -1    0    0  501    0  0.00000000000E+00  0.00000000000E+00  0.19198208170E+04  0.19198208170E+04  0.25500000920E-02 0. -1.
       -2   -1    0    0    0  501  0.00000000000E+00  0.00000000000E+00 -0.13313199793E+04  0.13313199793E+04  0.25500000920E-02 0.  1.
    10030    2    1    2    0    0  0.00000000000E+00  0.00000000000E+00  0.58850083770E+03  0.32511407964E+04  0.31974338526E+04 0.  0.
        2    1    3    3  502    0 -0.55822721055E+03  0.16135258549E+03 -0.12201433755E+04  0.13514444614E+04  0.25500000920E-02 0.  1.
       -2    1    3    3    0  502  0.55822721055E+03 -0.16135258549E+03  0.18086442132E+04  0.18996963350E+04  0.25500000920E-02 0. -1.
</event>
<event>
 5   0  0.1288096E-07  0.3204618E+04  0.7818609E-02  0.8187599E-01
        1   -1    0    0  501    0  0.00000000000E+00  0.00000000000E+00  0.16968773172E+04  0.16968773172E+04  0.50400001928E-02 0.  1.
       -1   -1    0    0    0  501  0.00000000000E+00  0.00000000000E+00 -0.15130107777E+04  0.15130107777E+04  0.50400001928E-02 0. -1.
    10030    2    1    2    0    0  0.00000000000E+00  0.00000000000E+00  0.18386653950E+03  0.32098880950E+04  0.32046177117E+04 0.  0.
        2    1    3    3  502    0  0.30318152484E+03 -0.15231154413E+04 -0.30316949169E+03  0.15823120506E+04  0.25500000920E-02 0. -1.
       -2    1    3    3    0  502 -0.30318152484E+03  0.15231154413E+04  0.48703603119E+03  0.16275760444E+04  0.25500000920E-02 0.  1.
</event>
<event>
 5   0  0.3858721E-07  0.3202938E+04  0.7818609E-02  0.8188042E-01
        2   -1    0    0  501    0  0.00000000000E+00  0.00000000000E+00  0.14800337085E+04  0.14800337085E+04  0.25500000920E-02 0.  1.
       -2   -1    0    0    0  501  0.00000000000E+00  0.00000000000E+00 -0.17328682955E+04  0.17328682955E+04  0.25500000920E-02 0. -1.
    10030    2    1    2    0    0  0.00000000000E+00  0.00000000000E+00 -0.25283458707E+03  0.32129020040E+04  0.32029383321E+04 0.  0.
        2    1    3    3  502    0  0.14979131484E+04 -0.14089427202E+03 -0.67685782505E+03  0.16497671082E+04  0.25500000920E-02 0. -1.
       -2    1    3    3    0  502 -0.14979131484E+04  0.14089427202E+03  0.42402323798E+03  0.15631348958E+04  0.25500000920E-02 0.  1.
</event>
<event>
 5   0  0.1277374E-07  0.3206922E+04  0.7818609E-02  0.8186991E-01
        1   -1    0    0  501    0  0.00000000000E+00  0.00000000000E+00  0.23542640806E+04  0.23542640806E+04  0.50400001928E-02 0. -1.
       -1   -1    0    0    0  501  0.00000000000E+00  0.00000000000E+00 -0.10920983367E+04  0.10920983368E+04  0.50400001928E-02 0.  1.
    10030    2    1    2    0    0  0.00000000000E+00  0.00000000000E+00  0.12621657439E+04  0.34463624174E+04  0.32069224417E+04 0.  0.
        5    1    3    3  502    0  0.13705723056E+03  0.86498150454E+03  0.20745315958E+04  0.22518172927E+04  0.46999998093E+01 0. -1.
       -5    1    3    3    0  502 -0.13705723056E+03 -0.86498150454E+03 -0.81236585190E+03  0.11945451247E+04  0.46999998093E+01 0.  1.
</event>
<event>
 5   0  0.3830207E-07  0.3203000E+04  0.7818609E-02  0.8188025E-01
       -2   -1    0    0    0  501  0.00000000000E+00  0.00000000000E+00  0.13774312928E+04  0.13774312928E+04  0.25500000920E-02 0.  1.
        2   -1    0    0  501    0  0.00000000000E+00  0.00000000000E+00 -0.18620180221E+04  0.18620180222E+04  0.25500000920E-02 0. -1.
    10030    2    1    2    0    0  0.00000000000E+00  0.00000000000E+00 -0.48458672933E+03  0.32394493150E+04  0.32029997762E+04 0.  0.
        4    1    3    3  502    0  0.11676849410E+04  0.93868210467E+03 -0.81458427726E+03  0.17053332146E+04  0.12699999809E+01 0.  1.
       -4    1    3    3    0  502 -0.11676849410E+04 -0.93868210467E+03  0.32999754794E+03  0.15341161004E+04  0.12699999809E+01 0. -1.
</event>
<event>
 5   0  0.1317293E-07  0.3198051E+04  0.7818609E-02  0.8189332E-01
        1   -1    0    0  501    0  0.00000000000E+00  0.00000000000E+00  0.30058546186E+04  0.30058546186E+04  0.50400001928E-02 0. -1.
       -1   -1    0    0    0  501  0.00000000000E+00  0.00000000000E+00 -0.85063395519E+03  0.85063395521E+03  0.50400001928E-02 0.  1.
    10030    2    1    2    0    0  0.00000000000E+00  0.00000000000E+00  0.21552206634E+04  0.38564885739E+04  0.31980506582E+04 0.  0.
        1    1    3    3  502    0  0.16287830826E+03  0.17036450506E+03 -0.82957142636E+03  0.86240486973E+03  0.50400001928E-02 0.  1.
       -1    1    3    3    0  502 -0.16287830826E+03 -0.17036450506E+03  0.29847920898E+04  0.29940837041E+04  0.50400001928E-02 0. -1.
</event>
<event>
 5   0  0.1277374E-07  0.3201108E+04  0.7818609E-02  0.8188525E-01
       -1   -1    0    0    0  501  0.00000000000E+00  0.00000000000E+00  0.12719036473E+04  0.12719036473E+04  0.50400001928E-02 0. -1.
        1   -1    0    0  501    0  0.00000000000E+00  0.00000000000E+00 -0.20141254865E+04  0.20141254865E+04  0.50400001928E-02 0.  1.
    10030    2    1    2    0    0  0.00000000000E+00  0.00000000000E+00 -0.74222183915E+03  0.32860291338E+04  0.32011082784E+04 0.  0.
        5    1    3    3  502    0 -0.79482975237E+02 -0.11092185679E+04 -0.15527644108E+04  0.19099169563E+04  0.46999998093E+01 0.  1.
       -5    1    3    3    0  502  0.79482975237E+02  0.11092185679E+04  0.81054257160E+03  0.13761121775E+04  0.46999998093E+01 0. -1.
</event>
<event>
 5   0  0.1317293E-07  0.3220311E+04  0.7818609E-02  0.8183474E-01
       -1   -1    0    0    0  501  0.00000000000E+00  0.00000000000E+00  0.15400293080E+04  0.15400293080E+04  0.50400001928E-02 0.  1.
        1   -1    0    0  501    0  0.00000000000E+00  0.00000000000E+00 -0.16834749663E+04  0.16834749663E+04  0.50400001928E-02 0. -1.
    10030    2    1    2    0    0  0.00000000000E+00  0.00000000000E+00 -0.14344565822E+03  0.32235042743E+04  0.32203110330E+04 0.  0.
        1    1    3    3  502    0 -0.85372331786E+03  0.12365074510E+04 -0.65092134533E+03  0.16375264205E+04  0.50400001928E-02 0. -1.
       -1    1    3    3    0  502  0.85372331786E+03 -0.12365074510E+04  0.50747568711E+03  0.15859778538E+04  0.50400001928E-02 0.  1.
</event>
<event>
 5   0  0.3858721E-07  0.3188816E+04  0.7818609E-02  0.8191777E-01
       -2   -1    0    0    0  501  0.00000000000E+00  0.00000000000E+00  0.16607055774E+04  0.16607055774E+04  0.25500000920E-02 0. -1.
        2   -1    0    0  501    0  0.00000000000E+00  0.00000000000E+00 -0.15307572585E+04  0.15307572585E+04  0.25500000920E-02 0.  1.
    10030    2    1    2    0    0  0.00000000000E+00  0.00000000000E+00  0.12994831888E+03  0.31914628359E+04  0.31888161545E+04 0.  0.
        2    1    3    3  502    0 -0.89407461373E+03  0.57665794447E+03 -0.11235439279E+04  0.15473379585E+04  0.25500000920E-02 0.  1.
       -2    1    3    3    0  502  0.89407461373E+03 -0.57665794447E+03  0.12534922468E+04  0.16441248774E+04  0.25500000920E-02 0. -1.
</event>
<event>
 5   0  0.3942564E-07  0.3196952E+04  0.7818609E-02  0.8189623E-01
        2   -1    0    0  501    0  0.00000000000E+00  0.00000000000E+00  0.13107451183E+04  0.13107451183E+04  0.25500000920E-02 0. -1.
       -2   -1    0    0    0  501  0.00000000000E+00  0.00000000000E+00 -0.19493683079E+04  0.19493683079E+04  0.25500000920E-02 0.  1.
    10030    2    1    2    0    0  0.00000000000E+00  0.00000000000E+00 -0.63862318963E+03  0.32601134262E+04  0.31969516689E+04 0.  0.
        3    1    3    3  502    0  0.11678247012E+04  0.86083966977E+03 -0.10035870813E+04  0.17640993480E+04  0.10100000352E+00 0.  1.
       -3    1    3    3    0  502 -0.11678247012E+04 -0.86083966977E+03  0.36496389164E+03  0.14960140782E+04  0.10100000352E+00 0. -1.
</event>
<event>
 5   0  0.1277374E-07  0.3190992E+04  0.7818609E-02  0.8191200E-01
        1   -1    0    0  501    0  0.00000000000E+00  0.00000000000E+00  0.19313413368E+04  0.19313413368E+04  0.50400001928E-02 0.  1.
       -1   -1    0    0    0  501  0.00000000000E+00  0.00000000000E+00 -0.13180515331E+04  0.13180515331E+04  0.50400001928E-02 0. -1.
    10030    2    1    2    0    0  0.00000000000E+00  0.00000000000E+00  0.61328980373E+03  0.32493928699E+04  0.31909919523E+04 0.  0.
        5    1    3    3  502    0 -0.28236267342E+03 -0.60054700170E+03  0.17841302701E+04  0.19035567476E+04  0.46999998093E+01 0.  1.
       -5    1    3    3    0  502  0.28236267342E+03  0.60054700170E+03 -0.11708404664E+04  0.13458361224E+04  0.46999998093E+01 0. -1.
</event>
<event>
 5   0  0.3764056E-07  0.3202013E+04  0.7818609E-02  0.8188286E-01
       -2   -1    0    0    0  501  0.00000000000E+00  0.00000000000E+00  0.14593467705E+04  0.14593467705E+04  0.25500000920E-02 0. -1.
        2   -1    0    0  501    0  0.00000000000E+00  0.00000000000E+00 -0.17564176209E+04  0.17564176209E+04  0.25500000920E-02 0.  1.
    10030    2    1    2    0    0  0.00000000000E+00  0.00000000000E+00 -0.29707085033E+03  0.32157643914E+04  0.32020133558E+04 0.  0.
        5    1    3    3  502    0 -0.20667064525E+03 -0.25708645293E+03 -0.17219139978E+04  0.17532301919E+04  0.46999998093E+01 0.  1.
       -5    1    3    3    0  502  0.20667064525E+03  0.25708645293E+03  0.14248431475E+04  0.14625341995E+04  0.46999998093E+01 0. -1.
</event>
<event>
 5   0  0.3764056E-07  0.3193883E+04  0.7818609E-02  0.8190434E-01
       -2   -1    0    0    0  501  0.00000000000E+00  0.00000000000E+00  0.15920902780E+04  0.15920902780E+04  0.25500000920E-02 0.  1.
        2   -1    0    0  501    0  0.00000000000E+00  0.00000000000E+00 -0.16018076732E+04  0.16018076732E+04  0.25500000920E-02 0. -1.
    10030    2    1    2    0    0  0.00000000000E+00  0.00000000000E+00 -0.97173952598E+01  0.31938979512E+04  0.31938831686E+04 0.  0.
        5    1    3    3  502    0 -0.44888651831E+03  0.89268389070E+03  0.12408664179E+04  0.15931588722E+04  0.46999998093E+01 0.  1.
       -5    1    3    3    0  502  0.44888651831E+03 -0.89268389070E+03 -0.12505838132E+04  0.16007390790E+04  0.46999998093E+01 0. -1.
</event>
<event>
 5   0  0.3764056E-07  0.3194923E+04  0.7818609E-02  0.8190159E-01
        2   -1    0    0  501    0  0.00000000000E+00  0.00000000000E+00  0.19431610682E+04  0.19431610682E+04  0.25500000920E-02 0. -1.
       -2   -1    0    0    0  501  0.00000000000E+00  0.00000000000E+00 -0.13132637541E+04  0.13132637541E+04  0.25500000920E-02 0.  1.
    10030    2    1    2    0    0  0.00000000000E+00  0.00000000000E+00  0.62989731410E+03  0.32564248223E+04  0.31949228468E+04 0.  0.
        5    1    3    3  502    0  0.84911546697E+03 -0.63700277352E+03 -0.90180322271E+03  0.13928534568E+04  0.46999998093E+01 0.  1.
       -5    1    3    3    0  502 -0.84911546697E+03  0.63700277352E+03  0.15317005368E+04  0.18635713655E+04  0.46999998093E+01 0. -1.
</event>
<event>
 5   0  0.1317293E-07  0.3200322E+04  0.7818609E-02  0.8188732E-01
        1   -1    0    0  501    0  0.00000000000E+00  0.00000000000E+00  0.70425736340E+03  0.70425736342E+03  0.50400001928E-02 0.  1.
       -1   -1    0    0    0  501  0.00000000000E+00  0.00000000000E+00 -0.36357653717E+04  0.36357653717E+04  0.50400001928E-02 0. -1.
    10030    2    1    2    0    0  0.00000000000E+00  0.00000000000E+00 -0.29315080083E+04  0.43400227351E+04  0.32003215680E+04 0.  0.
        1    1    3    3  502    0  0.22721621452E+02  0.29378623980E+03  0.66714769020E+03  0.72932343123E+03  0.50400001928E-02 0.  1.
       -1    1    3    3    0  502 -0.22721621452E+02 -0.29378623980E+03 -0.35986556985E+04  0.36106993039E+04  0.50400001928E-02 0. -1.
</event>
<event>
 5   0  0.3830207E-07  0.3202857E+04  0.7818609E-02  0.8188063E-01
        2   -1    0    0  501    0  0.00000000000E+00  0.00000000000E+00  0.15464081037E+04  0.15464081037E+04  0.25500000920E-02 0. -1.
       -2   -1    0    0    0  501  0.00000000000E+00  0.00000000000E+00 -0.16584069186E+04  0.16584069186E+04  0.25500000920E-02 0.  1.
    10030    2    1    2    0    0  0.00000000000E+00  0.00000000000E+00 -0.11199881496E+03  0.32048150223E+04  0.32028574106E+04 0.  0.
        4    1    3    3  502    0  0.11606999488E+04  0.91619996370E+03  0.55913282534E+03  0.15809104573E+04  0.12699999809E+01 0. -1.
       -4    1    3    3    0  502 -0.11606999488E+04 -0.91619996370E+03 -0.67113164030E+03  0.16239045650E+04  0.12699999809E+01 0.  1.
</event>
<event>
 5   0  0.1317293E-07  0.3194148E+04  0.7818609E-02  0.8190364E-01
        1   -1    0    0  501    0  0.00000000000E+00  0.00000000000E+00  0.26499738419E+04  0.26499738419E+04  0.50400001928E-02 0.  1.
       -1   -1    0    0    0  501  0.00000000000E+00  0.00000000000E+00 -0.96251737876E+03  0.96251737877E+03  0.50400001928E-02 0. -1.
    10030    2    1    2    0    0  0.00000000000E+00  0.00000000000E+00  0.16874564631E+04  0.36124912206E+04  0.31941483222E+04 0.  0.
        1    1    3    3  502    0 -0.15468504531E+03  0.23275941347E+03  0.26221039229E+04  0.26369553259E+04  0.50400001928E-02 0.  1.
       -1    1    3    3    0  502  0.15468504531E+03 -0.23275941347E+03 -0.93464745984E+03  0.97553589479E+03  0.50400001928E-02 0. -1.
</event>
<event>
 5   0  0.1365455E-07  0.3200250E+04  0.7818609E-02  0.8188751E-01
       -1   -1    0    0    0  501  0.00000000000E+00  0.00000000000E+00  0.14026104707E+04  0.14026104707E+04  0.50400001928E-02 0. -1.
        1   -1    0    0  501    0  0.00000000000E+00  0.00000000000E+00 -0.18254530187E+04  0.18254530187E+04  0.50400001928E-02 0.  1.
    10030    2    1    2    0    0  0.00000000000E+00  0.00000000000E+00 -0.42284254797E+03  0.32280634894E+04  0.32002496889E+04 0.  0.
        3    1    3    3  502    0 -0.12696586917E+04 -0.25781163544E+03 -0.11586781049E+04  0.17381124802E+04  0.10100000352E+00 0.  1.
       -3    1    3    3    0  502  0.12696586917E+04  0.25781163544E+03  0.73583555697E+03  0.14899510092E+04  0.10100000352E+00 0. -1.
</event>
<event>
 5   0  0.1288096E-07  0.3194693E+04  0.7818609E-02  0.8190220E-01
       -1   -1    0    0    0  501  0.00000000000E+00  0.00000000000E+00  0.12395664176E+04  0.12395664176E+04  0.50400001928E-02 0. -1.
        1   -1    0    0  501    0  0.00000000000E+00  0.00000000000E+00 -0.20583935555E+04  0.20583935555E+04  0.50400001928E-02 0.  1.
    10030    2    1    2    0    0  0.00000000000E+00  0.00000000000E+00 -0.81882713796E+03  0.32979599731E+04  0.31946928025E+04 0.  0.
        2    1    3    3  502    0  0.15369200615E+03  0.50807820593E+03  0.11458549052E+04  0.12628333857E+04  0.25500000920E-02 0. -1.
       -2    1    3    3    0  502 -0.15369200615E+03 -0.50807820593E+03 -0.19646820432E+04  0.20351265875E+04  0.25500000920E-02 0.  1.
</event>
<event>
 5   0  0.3830207E-07  0.3198235E+04  0.7818609E-02  0.8189283E-01
        2   -1    0    0  501    0  0.00000000000E+00  0.00000000000E+00  0.18221005810E+04  0.18221005810E+04  0.25500000920E-02 0.  1.
       -2   -1    0    0    0  501  0.00000000000E+00  0.00000000000E+00 -0.14034227119E+04  0.14034227119E+04  0.25500000920E-02 0. -1.
    10030    2    1    2    0    0  0.00000000000E+00  0.00000000000E+00  0.41867786911E+03  0.32255232929E+04  0.31982353502E+04 0.  0.
        4    1    3    3  502    0 -0.31885036329E+03  0.31292202574E+03  0.17578841887E+04  0.18137651948E+04  0.12699999809E+01 0.  1.
       -4    1    3    3    0  502  0.31885036329E+03 -0.31292202574E+03 -0.13392063195E+04  0.14117580981E+04  0.12699999809E+01 0. -1.
</event>
<event>
 5   0  0.1270948E-07  0.3191589E+04  0.7818609E-02  0.8191042E-01
       -1   -1    0    0    0  501  0.00000000000E+00  0.00000000000E+00  0.15902250005E+04  0.15902250005E+04  0.50400001928E-02 0.  1.
        1   -1    0    0  501    0  0.00000000000E+00  0.00000000000E+00 -0.16013835939E+04  0.16013835940E+04  0.50400001928E-02 0. -1.
    10030    2    1    2    0    0  0.00000000000E+00  0.00000000000E+00 -0.11158593488E+02  0.31916085944E+04  0.31915890879E+04 0.  0.
        4    1    3    3  502    0 -0.45422799074E+03  0.94826467066E+03 -0.12060155821E+04  0.16000012970E+04  0.12699999809E+01 0. -1.
       -4    1    3    3    0  502  0.45422799074E+03 -0.94826467066E+03  0.11948569886E+04  0.15916072974E+04  0.12699999809E+01 0.  1.
</event>
<event>
 5   0  0.1365455E-07  0.3199813E+04  0.7818609E-02  0.8188867E-01
       -1   -1    0    0    0  501  0.00000000000E+00  0.00000000000E+00  0.19671359748E+04  0.19671359748E+04  0.50400001928E-02 0. -1.
        1   -1    0    0  501    0  0.00000000000E+00  0.00000000000E+00 -0.13012319448E+04  0.13012319448E+04  0.50400001928E-02 0.  1.
    10030    2    1    2    0    0  0.00000000000E+00  0.00000000000E+00  0.66590402997E+03  0.32683679196E+04  0.31998126009E+04 0.  0.
        3    1    3    3  502    0 -0.47757920006E+03  0.47748178847E+03  0.18144157051E+04  0.19360204316E+04  0.10100000352E+00 0. -1.
       -3    1    3    3    0  502  0.47757920006E+03 -0.47748178847E+03 -0.11485116751E+04  0.13323474880E+04  0.10100000352E+00 0.  1.
</event>
<event>
 5   0  0.3750285E-07  0.3196273E+04  0.7818609E-02  0.8189802E-01
        2   -1    0    0  501    0  0.00000000000E+00  0.00000000000E+00  0.25706787474E+04  0.25706787474E+04  0.25500000920E-02 0. -1.
       -2   -1    0    0    0  501  0.00000000000E+00  0.00000000000E+00 -0.99352737731E+03  0.99352737731E+03  0.25500000920E-02 0.  1.
    10030    2    1    2    0    0  0.00000000000E+00  0.00000000000E+00  0.15771513701E+04  0.35642061248E+04  0.31962726504E+04 0.  0.
        1    1    3    3  502    0  0.69923276135E+03  0.14368437276E+04  0.81573875059E+03  0.17941226439E+04  0.50400001928E-02 0.  1.
       -1    1    3    3    0  502 -0.69923276135E+03 -0.14368437276E+04  0.76141261954E+03  0.17700834809E+04  0.50400001928E-02 0. -1.
</event>
<event>
 5   0  0.3764056E-07  0.3191788E+04  0.7818609E-02  0.8190989E-01
        2   -1    0    0  501    0  0.00000000000E+00  0.00000000000E+00  0.17358128812E+04  0.17358128812E+04  0.25500000920E-02 0. -1.
       -2   -1    0    0    0  501  0.00000000000E+00  0.00000000000E+00 -0.14672532408E+04  0.14672532408E+04  0.25500000920E-02 0.  1.
    10030    2    1    2    0    0  0.00000000000E+00  0.00000000000E+00  0.26855964044E+03  0.32030661220E+04  0.31917876342E+04 0.  0.
        5    1    3    3  502    0 -0.16226490723E+03  0.13283873731E+04  0.10067840818E+04  0.16746877890E+04  0.46999998093E+01 0. -1.
       -5    1    3    3    0  502  0.16226490723E+03 -0.13283873731E+04 -0.73822444134E+03  0.15283783331E+04  0.46999998093E+01 0.  1.
</event>
<event>
 5   0  0.1270948E-07  0.3202231E+04  0.7818609E-02  0.8188228E-01
        1   -1    0    0  501    0  0.00000000000E+00  0.00000000000E+00  0.15174100749E+04  0.15174100749E+04  0.50400001928E-02 0.  1.
       -1   -1    0    0    0  501  0.00000000000E+00  0.00000000000E+00 -0.16894380060E+04  0.16894380060E+04  0.50400001928E-02 0. -1.
    10030    2    1    2    0    0  0.00000000000E+00  0.00000000000E+00 -0.17202793115E+03  0.32068480809E+04  0.32022306295E+04 0.  0.
        4    1    3    3  502    0  0.20481078985E+03  0.68445017783E+03 -0.15209615158E+04  0.16804002651E+04  0.12699999809E+01 0. -1.
       -4    1    3    3    0  502 -0.20481078985E+03 -0.68445017783E+03  0.13489335846E+04  0.15264478158E+04  0.12699999809E+01 0.  1.
</event>
<event>
 5   0  0.3830207E-07  0.3206651E+04  0.7818609E-02  0.8187063E-01
        2   -1    0    0  501    0  0.00000000000E+00  0.00000000000E+00  0.17585675315E+04  0.17585675315E+04  0.25500000920E-02 0.  1.
       -2   -1    0    0    0  501  0.00000000000E+00  0.00000000000E+00 -0.14617875646E+04  0.14617875646E+04  0.25500000920E-02 0. -1.
    10030    2    1    2    0    0  0.00000000000E+00  0.00000000000E+00  0.29677996693E+03  0.32203550960E+04  0.32066506819E+04 0.  0.
        4    1    3    3  502    0 -0.75895088282E+03  0.13885204547E+04 -0.11088977171E+03  0.15862829666E+04  0.12699999809E+01 0.  1.
       -4    1    3    3    0  502  0.75895088282E+03 -0.13885204547E+04  0.40766973864E+03  0.16340721295E+04  0.12699999809E+01 0. -1.
</event>
<event>
 5   0  0.3858721E-07  0.3200729E+04  0.7818609E-02  0.8188625E-01
        2   -1    0    0  501    0  0.00000000000E+00  0.00000000000E+00  0.12560475891E+04  0.12560475891E+04  0.25500000920E-02 0.  1.
       -2   -1    0    0    0  501  0.00000000000E+00  0.00000000000E+00 -0.20390686271E+04  0.20390686271E+04  0.25500000920E-02 0. -1.
    10030    2    1    2    0    0  0.00000000000E+00  0.00000000000E+00 -0.78302103801E+03  0.32951162162E+04  0.32007294376E+04 0.  0.
        2    1    3    3  502    0  0.13103978532E+04  0.32002063989E+02 -0.13367366206E+04  0.18721729243E+04  0.25500000920E-02 0. -1.
       -2    1    3    3    0  502 -0.13103978532E+04 -0.32002063989E+02  0.55371558257E+03  0.14229432919E+04  0.25500000920E-02 0.  1.
</event>
<event>
 5   0  0.1317293E-07  0.3205390E+04  0.7818609E-02  0.8187395E-01
        1   -1    0    0  501    0  0.00000000000E+00  0.00000000000E+00  0.13653551876E+04  0.13653551877E+04  0.50400001928E-02 0. -1.
       -1   -1    0    0    0  501  0.00000000000E+00  0.00000000000E+00 -0.18812919909E+04  0.18812919909E+04  0.50400001928E-02 0.  1.
    10030    2    1    2    0    0  0.00000000000E+00  0.00000000000E+00 -0.51593680322E+03  0.32466471785E+04  0.32053903221E+04 0.  0.
        1    1    3    3  502    0 -0.50350368949E+02  0.15989229753E+04 -0.35690853288E+03  0.16390465343E+04  0.50400001928E-02 0.  1.
       -1    1    3    3    0  502  0.50350368949E+02 -0.15989229753E+04 -0.15902827034E+03  0.16076006443E+04  0.50400001928E-02 0. -1.
</event>
<event>
 5   0  0.3858721E-07  0.3204414E+04  0.7818609E-02  0.8187652E-01
        2   -1    0    0  501    0  0.00000000000E+00  0.00000000000E+00  0.24898199326E+04  0.24898199326E+04  0.25500000920E-02 0. -1.
       -2   -1    0    0    0  501  0.00000000000E+00  0.00000000000E+00 -0.10310255561E+04  0.10310255561E+04  0.25500000920E-02 0.  1.
    10030    2    1    2    0    0  0.00000000000E+00  0.00000000000E+00  0.14587943765E+04  0.35208454887E+04  0.32044144429E+04 0.  0.
        2    1    3    3  502    0  0.44785390867E+03  0.59439009483E+03 -0.82958530041E+03  0.11144884383E+04  0.25500000920E-02 0.  1.
       -2    1    3    3    0  502 -0.44785390867E+03 -0.59439009483E+03  0.22883796769E+04  0.24063570504E+04  0.25500000920E-02 0. -1.
</event>
<event>
 5   0  0.1288096E-07  0.3148503E+04  0.7818609E-02  0.8202551E-01
       -1   -1    0    0    0  501  0.00000000000E+00  0.00000000000E+00  0.22302117841E+04  0.22302117841E+04  0.50400001928E-02 0.  1.
        1   -1    0    0  501    0  0.00000000000E+00  0.00000000000E+00 -0.11112253726E+04  0.11112253726E+04  0.50400001928E-02 0. -1.
    10030    2    1    2    0    0  0.00000000000E+00  0.00000000000E+00  0.11189864116E+04  0.33414371567E+04  0.31485030861E+04 0.  0.
        2    1    3    3  502    0 -0.71268052143E+03  0.70062107165E+03  0.18503687866E+04  0.21030092863E+04  0.25500000920E-02 0.  1.
       -2    1    3    3    0  502  0.71268052143E+03 -0.70062107165E+03 -0.73138237506E+03  0.12384278704E+04  0.25500000920E-02 0. -1.
</event>
<event>
 5   0  0.1270948E-07  0.3194232E+04  0.7818609E-02  0.8190342E-01
       -1   -1    0    0    0  501  0.00000000000E+00  0.00000000000E+00  0.15279470840E+04  0.15279470840E+04  0.50400001928E-02 0.  1.
        1   -1    0    0  501    0  0.00000000000E+00  0.00000000000E+00 -0.16694156348E+04  0.16694156348E+04  0.50400001928E-02 0. -1.
    10030    2    1    2    0    0  0.00000000000E+00  0.00000000000E+00 -0.14146855072E+03  0.31973627188E+04  0.31942315202E+04 0.  0.
        4    1    3    3  502    0  0.85258238892E+03 -0.64919475376E+03 -0.12561360772E+04  0.16511299208E+04  0.12699999809E+01 0. -1.
       -4    1    3    3    0  502 -0.85258238892E+03  0.64919475376E+03  0.11146675264E+04  0.15462327980E+04  0.12699999809E+01 0.  1.
</event>
<event>
 5   0  0.3750285E-07  0.3202889E+04  0.7818609E-02  0.8188055E-01
       -2   -1    0    0    0  501  0.00000000000E+00  0.00000000000E+00  0.95568389972E+03  0.95568389972E+03  0.25500000920E-02 0. -1.
        2   -1    0    0  501    0  0.00000000000E+00  0.00000000000E+00 -0.26835488864E+04  0.26835488864E+04  0.25500000920E-02 0.  1.
    10030    2    1    2    0    0  0.00000000000E+00  0.00000000000E+00 -0.17278649867E+04  0.36392327861E+04  0.32028889864E+04 0.  0.
        1    1    3    3  502    0 -0.10944123898E+04  0.68727357092E+03  0.21072007666E+03  0.13093839738E+04  0.50400001928E-02 0. -1.
       -1    1    3    3    0  502  0.10944123898E+04 -0.68727357092E+03 -0.19385850633E+04  0.23298488123E+04  0.50400001928E-02 0.  1.
</event>
<event>
 5   0  0.3858721E-07  0.3201173E+04  0.7818609E-02  0.8188508E-01
       -2   -1    0    0    0  501  0.00000000000E+00  0.00000000000E+00  0.16005531891E+04  0.16005531891E+04  0.25500000920E-02 0.  1.
        2   -1    0    0  501    0  0.00000000000E+00  0.00000000000E+00 -0.16006195181E+04  0.16006195181E+04  0.25500000920E-02 0. -1.
    10030    2    1    2    0    0  0.00000000000E+00  0.00000000000E+00 -0.66329065846E-01  0.32011727072E+04  0.32011727065E+04 0.  0.
        2    1    3    3  502    0 -0.85484864051E+03 -0.85488958096E+03  0.10489064338E+04  0.16005646193E+04  0.25500000920E-02 0. -1.
       -2    1    3    3    0  502  0.85484864051E+03  0.85488958096E+03 -0.10489727628E+04  0.16006080879E+04  0.25500000920E-02 0.  1.
</event>
<event>
 5   0  0.1317293E-07  0.3207735E+04  0.7818609E-02  0.8186777E-01
        1   -1    0    0  501    0  0.00000000000E+00  0.00000000000E+00  0.75337030334E+03  0.75337030335E+03  0.50400001928E-02 0. -1.
       -1   -1    0    0    0  501  0.00000000000E+00  0.00000000000E+00 -0.34145105433E+04  0.34145105433E+04  0.50400001928E-02 0.  1.
    10030    2    1    2    0    0  0.00000000000E+00  0.00000000000E+00 -0.26611402399E+04  0.41678808466E+04  0.32077349291E+04 0.  0.
        1    1    3    3  502    0 -0.18336457132E+03 -0.12539883913E+04 -0.26077987047E+04  0.28994350374E+04  0.50400001928E-02 0.  1.
       -1    1    3    3    0  502  0.18336457132E+03  0.12539883913E+04 -0.53341535246E+02  0.12684458093E+04  0.50400001928E-02 0. -1.
</event>
<event>
 5   0  0.1288096E-07  0.3196779E+04  0.7818609E-02  0.8189668E-01
        1   -1    0    0  501    0  0.00000000000E+00  0.00000000000E+00  0.15218925610E+04  0.15218925610E+04  0.50400001928E-02 0.  1.
       -1   -1    0    0    0  501  0.00000000000E+00  0.00000000000E+00 -0.16787315302E+04  0.16787315302E+04  0.50400001928E-02 0. -1.
    10030    2    1    2    0    0  0.00000000000E+00  0.00000000000E+00 -0.15683896918E+03  0.32006240913E+04  0.31967790214E+04 0.  0.
        2    1    3    3  502    0  0.74324623817E+02 -0.12242432108E+04  0.94777842987E+03  0.15500256582E+04  0.25500000920E-02 0.  1.
       -2    1    3    3    0  502 -0.74324623817E+02  0.12242432108E+04 -0.11046173990E+04  0.16505984331E+04  0.25500000920E-02 0. -1.
</event>
<event>
 5   0  0.3750285E-07  0.3192499E+04  0.7818609E-02  0.8190801E-01
       -2   -1    0    0    0  501  0.00000000000E+00  0.00000000000E+00  0.10424178615E+04  0.10424178615E+04  0.25500000920E-02 0. -1.
        2   -1    0    0  501    0  0.00000000000E+00  0.00000000000E+00 -0.24443291905E+04  0.24443291905E+04  0.25500000920E-02 0.  1.
    10030    2    1    2    0    0  0.00000000000E+00  0.00000000000E+00 -0.14019113290E+04  0.34867470521E+04  0.31924989633E+04 0.  0.
        1    1    3    3  502    0  0.13970989327E+03 -0.10747116714E+04 -0.19809326819E+04  0.22580120286E+04  0.50400001928E-02 0. -1.
       -1    1    3    3    0  502 -0.13970989327E+03  0.10747116714E+04  0.57902135285E+03  0.12287350235E+04  0.50400001928E-02 0.  1.
</event>
<event>
 5   0  0.1288096E-07  0.3205439E+04  0.7818609E-02  0.8187382E-01
        1   -1    0    0  501    0  0.00000000000E+00  0.00000000000E+00  0.19221130706E+04  0.19221130706E+04  0.50400001928E-02 0.  1.
       -1   -1    0    0    0  501  0.00000000000E+00  0.00000000000E+00 -0.13363989938E+04  0.13363989938E+04  0.50400001928E-02 0. -1.
    10030    2    1    2    0    0  0.00000000000E+00  0.00000000000E+00  0.58571407677E+03  0.32585120644E+04  0.32054391109E+04 0.  0.
        2    1    3    3  502    0 -0.75882380516E+03  0.12873483583E+04 -0.29607147718E+03  0.15233967581E+04  0.25500000920E-02 0. -1.
       -2    1    3    3    0  502  0.75882380516E+03 -0.12873483583E+04  0.88178555395E+03  0.17351153063E+04  0.25500000920E-02 0.  1.
</event>
<event>
 5   0  0.1365455E-07  0.3179081E+04  0.7818609E-02  0.8194364E-01
       -1   -1    0    0    0  501  0.00000000000E+00  0.00000000000E+00  0.10495008807E+04  0.10495008807E+04  0.50400001928E-02 0.  1.
        1   -1    0    0  501    0  0.00000000000E+00  0.00000000000E+00 -0.24074670506E+04  0.24074670506E+04  0.50400001928E-02 0. -1.
    10030    2    1    2    0    0  0.00000000000E+00  0.00000000000E+00 -0.13579661699E+04  0.34569679313E+04  0.31790808671E+04 0.  0.
        3    1    3    3  502    0 -0.14618108572E+04  0.58586411693E+02 -0.31105433479E+01  0.14629877086E+04  0.10100000352E+00 0.  1.
       -3    1    3    3    0  502  0.14618108572E+04 -0.58586411693E+02 -0.13548556266E+04  0.19939802228E+04  0.10100000352E+00 0. -1.
</event>
<event>
 5   0  0.3830207E-07  0.3203943E+04  0.7818609E-02  0.8187777E-01
        2   -1    0    0  501    0  0.00000000000E+00  0.00000000000E+00  0.11909412399E+04  0.11909412399E+04  0.25500000920E-02 0.  1.
       -2   -1    0    0    0  501  0.00000000000E+00  0.00000000000E+00 -0.21548608848E+04  0.21548608848E+04  0.25500000920E-02 0. -1.
    10030    2    1    2    0    0  0.00000000000E+00  0.00000000000E+00 -0.96391964490E+03  0.33458021247E+04  0.32039430045E+04 0.  0.
        4    1    3    3  502    0  0.31456502038E+03 -0.57720444332E+03 -0.20075311433E+04  0.21124154482E+04  0.12699999809E+01 0. -1.
       -4    1    3    3    0  502 -0.31456502038E+03  0.57720444332E+03  0.10436114984E+04  0.12333866766E+04  0.12699999809E+01 0.  1.
</event>
<event>
 5   0  0.3830207E-07  0.3185634E+04  0.7818609E-02  0.8192622E-01
       -2   -1    0    0    0  501  0.00000000000E+00  0.00000000000E+00  0.92260096479E+03  0.92260096480E+03  0.25500000920E-02 0.  1.
        2   -1    0    0  501    0  0.00000000000E+00  0.00000000000E+00 -0.27499059275E+04  0.27499059275E+04  0.25500000920E-02 0. -1.
    10030    2    1    2    0    0  0.00000000000E+00  0.00000000000E+00 -0.18273049627E+04  0.36725068923E+04  0.31856339161E+04 0.  0.
        4    1    3    3  502    0  0.26781213546E+03  0.10913291003E+04  0.38774421840E+03  0.11887260983E+04  0.12699999809E+01 0.  1.
       -4    1    3    3    0  502 -0.26781213546E+03 -0.10913291003E+04 -0.22150491811E+04  0.24837807940E+04  0.12699999809E+01 0. -1.
</event>
<event>
 5   0  0.3830207E-07  0.3202518E+04  0.7818609E-02  0.8188152E-01
       -2   -1    0    0    0  501  0.00000000000E+00  0.00000000000E+00  0.88824859141E+03  0.88824859142E+03  0.25500000920E-02 0. -1.
        2   -1    0    0  501    0  0.00000000000E+00  0.00000000000E+00 -0.28866143126E+04  0.28866143126E+04  0.25500000920E-02 0.  1.
    10030    2    1    2    0    0  0.00000000000E+00  0.00000000000E+00 -0.19983657212E+04  0.37748629041E+04  0.32025184447E+04 0.  0.
        4    1    3    3  502    0 -0.12874182061E+04 -0.45634162468E+02 -0.21202049189E+04  0.24808866611E+04  0.12699999809E+01 0.  1.
       -4    1    3    3    0  502  0.12874182061E+04  0.45634162468E+02  0.12183919768E+03  0.12939762429E+04  0.12699999809E+01 0. -1.
</event>
<event>
 5   0  0.3942564E-07  0.3202637E+04  0.7818609E-02  0.8188121E-01
        2   -1    0    0  501    0  0.00000000000E+00  0.00000000000E+00  0.12547019328E+04  0.12547019328E+04  0.25500000920E-02 0. -1.
       -2   -1    0    0    0  501  0.00000000000E+00  0.00000000000E+00 -0.20436892528E+04  0.20436892528E+04  0.25500000920E-02 0.  1.
    10030    2    1    2    0    0  0.00000000000E+00  0.00000000000E+00 -0.78898732002E+03  0.32983911857E+04  0.32026369483E+04 0.  0.
        3    1    3    3  502    0 -0.11456173943E+04  0.89853545268E+03 -0.10810704757E+04  0.18134272959E+04  0.10100000352E+00 0.  1.
       -3    1    3    3    0  502  0.11456173943E+04 -0.89853545268E+03  0.29208315572E+03  0.14849638898E+04  0.10100000352E+00 0. -1.
</event>
<event>
 5   0  0.1317293E-07  0.3202277E+04  0.7818609E-02  0.8188216E-01
       -1   -1    0    0    0  501  0.00000000000E+00  0.00000000000E+00  0.20990580216E+04  0.20990580216E+04  0.50400001928E-02 0. -1.
        1   -1    0    0  501    0  0.00000000000E+00  0.00000000000E+00 -0.12213306973E+04  0.12213306973E+04  0.50400001928E-02 0.  1.
    10030    2    1    2    0    0  0.00000000000E+00  0.00000000000E+00  0.87772732425E+03  0.33203887189E+04  0.32022766884E+04 0.  0.
        1    1    3    3  502    0  0.63082718234E+02 -0.11987460471E+04 -0.65977939303E+03  0.13697738362E+04  0.50400001928E-02 0.  1.
       -1    1    3    3    0  502 -0.63082718234E+02  0.11987460471E+04  0.15375067173E+04  0.19506148827E+04  0.50400001928E-02 0. -1.
</event>
<event>
 5   0  0.3858721E-07  0.3224748E+04  0.7818609E-02  0.8182312E-01
        2   -1    0    0  501    0  0.00000000000E+00  0.00000000000E+00  0.16316538343E+04  0.16316538343E+04  0.25500000920E-02 0. -1.
       -2   -1    0    0    0  501  0.00000000000E+00  0.00000000000E+00 -0.15933224515E+04  0.15933224515E+04  0.25500000920E-02 0.  1.
    10030    2    1    2    0    0  0.00000000000E+00  0.00000000000E+00  0.38331382795E+02  0.32249762858E+04  0.32247484784E+04 0.  0.
        2    1    3    3  502    0  0.16103737832E+04  0.32853026476E+02  0.92435076619E+02  0.16133590072E+04  0.25500000920E-02 0. -1.
       -2    1    3    3    0  502 -0.16103737832E+04 -0.32853026476E+02 -0.54103693824E+02  0.16116172785E+04  0.25500000920E-02 0.  1.
</event>
<event>
 5   0  0.3750285E-07  0.3202840E+04  0.7818609E-02  0.8188068E-01
       -2   -1    0    0    0  501  0.00000000000E+00  0.00000000000E+00  0.12830417884E+04  0.12830417884E+04  0.25500000920E-02 0. -1.
        2   -1    0    0  501    0  0.00000000000E+00  0.00000000000E+00 -0.19988018023E+04  0.19988018023E+04  0.25500000920E-02 0.  1.
    10030    2    1    2    0    0  0.00000000000E+00  0.00000000000E+00 -0.71576001386E+03  0.32818435907E+04  0.32028401390E+04 0.  0.
        1    1    3    3  502    0  0.14925366117E+04  0.49517116811E+03 -0.47613682431E+02  0.15732536623E+04  0.50400001928E-02 0. -1.
       -1    1    3    3    0  502 -0.14925366117E+04 -0.49517116811E+03 -0.66814633143E+03  0.17085899284E+04  0.50400001928E-02 0.  1.
</event>
<event>
 5   0  0.1288096E-07  0.3203995E+04  0.7818609E-02  0.8187763E-01
       -1   -1    0    0    0  501  0.00000000000E+00  0.00000000000E+00  0.10352168010E+04  0.10352168011E+04  0.50400001928E-02 0. -1.
        1   -1    0    0  501    0  0.00000000000E+00  0.00000000000E+00 -0.24790904569E+04  0.24790904569E+04  0.50400001928E-02 0.  1.
    10030    2    1    2    0    0  0.00000000000E+00  0.00000000000E+00 -0.14438736558E+04  0.35143072579E+04  0.32039950638E+04 0.  0.
        2    1    3    3  502    0 -0.88740216726E+03 -0.10449940901E+04 -0.16310017793E+04  0.21306482720E+04  0.25500000920E-02 0.  1.
       -2    1    3    3    0  502  0.88740216726E+03  0.10449940901E+04  0.18712812344E+03  0.13836589860E+04  0.25500000920E-02 0. -1.
</event>
<event>
 5   0  0.1288096E-07  0.3222503E+04  0.7818609E-02  0.8182899E-01
        1   -1    0    0  501    0  0.00000000000E+00  0.00000000000E+00  0.26659961277E+04  0.26659961277E+04  0.50400001928E-02 0. -1.
       -1   -1    0    0    0  501  0.00000000000E+00  0.00000000000E+00 -0.97379408188E+03  0.97379408189E+03  0.50400001928E-02 0.  1.
    10030    2    1    2    0    0  0.00000000000E+00  0.00000000000E+00  0.16922020458E+04  0.36397902096E+04  0.32225029102E+04 0.  0.
        2    1    3    3  502    0 -0.10677432165E+04  0.31808093669E+03 -0.46861961747E+03  0.12086585144E+04  0.25500000920E-02 0.  1.
       -2    1    3    3    0  502  0.10677432165E+04 -0.31808093669E+03  0.21608216633E+04  0.24311316952E+04  0.25500000920E-02 0. -1.
</event>
<event>
 5   0  0.3750285E-07  0.3207276E+04  0.7818609E-02  0.8186898E-01
       -2   -1    0    0    0  501  0.00000000000E+00  0.00000000000E+00  0.17560350733E+04  0.17560350733E+04  0.25500000920E-02 0.  1.
        2   -1    0    0  501    0  0.00000000000E+00  0.00000000000E+00 -0.14644663374E+04  0.14644663374E+04  0.25500000920E-02 0. -1.
    10030    2    1    2    0    0  0.00000000000E+00  0.00000000000E+00  0.29156873586E+03  0.32205014107E+04  0.32072756365E+04 0.  0.
        1    1    3    3  502    0 -0.14629871992E+04  0.39503601659E+03 -0.38104024953E+03  0.15625545338E+04  0.50400001928E-02 0. -1.
       -1    1    3    3    0  502  0.14629871992E+04 -0.39503601659E+03  0.67260898539E+03  0.16579468769E+04  0.50400001928E-02 0.  1.
</event>
<event>
 5   0  0.3830207E-07  0.3193528E+04  0.7818609E-02  0.8190529E-01
        2   -1    0    0  501    0  0.00000000000E+00  0.00000000000E+00  0.16867604071E+04  0.16867604071E+04  0.25500000920E-02 0. -1.
       -2   -1    0    0    0  501  0.00000000000E+00  0.00000000000E+00 -0.15115688922E+04  0.15115688922E+04  0.25500000920E-02 0.  1.
    10030    2    1    2    0    0  0.00000000000E+00  0.00000000000E+00  0.17519151494E+03  0.31983292993E+04  0.31935275543E+04 0.  0.
        4    1    3    3  502    0 -0.94570796569E+02  0.84463867943E+03 -0.12662114428E+04  0.15250085787E+04  0.12699999809E+01 0.  1.
       -4    1    3    3    0  502  0.94570796569E+02 -0.84463867943E+03  0.14414029578E+04  0.16733207206E+04  0.12699999809E+01 0. -1.
</event>
<event>
 5   0  0.3830207E-07  0.3199583E+04  0.7818609E-02  0.8188927E-01
        2   -1    0    0  501    0  0.00000000000E+00  0.00000000000E+00  0.23701368023E+04  0.23701368023E+04  0.25500000920E-02 0. -1.
       -2   -1    0    0    0  501  0.00000000000E+00  0.00000000000E+00 -0.10798247765E+04  0.10798247765E+04  0.25500000920E-02 0.  1.
    10030    2    1    2    0    0  0.00000000000E+00  0.00000000000E+00  0.12903120258E+04  0.34499615788E+04  0.31995827495E+04 0.  0.
        4    1    3    3  502    0 -0.10971367381E+03  0.11640762721E+04 -0.53217651954E+03  0.12846494146E+04  0.12699999809E+01 0. -1.
       -4    1    3    3    0  502  0.10971367381E+03 -0.11640762721E+04  0.18224885454E+04  0.21653121642E+04  0.12699999809E+01 0.  1.
</event>
<event>
 5   0  0.1365455E-07  0.3195669E+04  0.7818609E-02  0.8189962E-01
       -1   -1    0    0    0  501  0.00000000000E+00  0.00000000000E+00  0.12736835580E+04  0.12736835580E+04  0.50400001928E-02 0.  1.
        1   -1    0    0  501    0  0.00000000000E+00  0.00000000000E+00 -0.20044816650E+04  0.20044816650E+04  0.50400001928E-02 0. -1.
    10030    2    1    2    0    0  0.00000000000E+00  0.00000000000E+00 -0.73079810702E+03  0.32781652230E+04  0.31956691562E+04 0.  0.
        3    1    3    3  502    0 -0.57888867213E+03 -0.82122585351E+03  0.90907079708E+03  0.13549663175E+04  0.10100000352E+00 0.  1.
       -3    1    3    3    0  502  0.57888867213E+03  0.82122585351E+03 -0.16398689041E+04  0.19231989055E+04  0.10100000352E+00 0. -1.
</event>
<event>
 5   0  0.1277374E-07  0.3206660E+04  0.7818609E-02  0.8187060E-01
       -1   -1    0    0    0  501  0.00000000000E+00  0.00000000000E+00  0.14995476708E+04  0.14995476708E+04  0.50400001928E-02 0. -1.
        1   -1    0    0  501    0  0.00000000000E+00  0.00000000000E+00 -0.17142954284E+04  0.17142954284E+04  0.50400001928E-02 0.  1.
    10030    2    1    2    0    0  0.00000000000E+00  0.00000000000E+00 -0.21474775762E+03  0.32138430992E+04  0.32066603916E+04 0.  0.
        5    1    3    3  502    0 -0.21917136238E+03 -0.22809135123E+03  0.14679559792E+04  0.15016586155E+04  0.46999998093E+01 0. -1.
       -5    1    3    3    0  502  0.21917136238E+03  0.22809135123E+03 -0.16827037368E+04  0.17121844837E+04  0.46999998093E+01 0.  1.
</event>
<event>
 5   0  0.3858721E-07  0.3200724E+04  0.7818609E-02  0.8188626E-01
        2   -1    0    0  501    0  0.00000000000E+00  0.00000000000E+00  0.16021066486E+04  0.16021066486E+04  0.25500000920E-02 0.  1.
       -2   -1    0    0    0  501  0.00000000000E+00  0.00000000000E+00 -0.15986189495E+04  0.15986189495E+04  0.25500000920E-02 0. -1.
    10030    2    1    2    0    0  0.00000000000E+00  0.00000000000E+00  0.34876990859E+01  0.32007255982E+04  0.32007236980E+04 0.  0.
        2    1    3    3  502    0 -0.12642439851E+03  0.29520313979E+03  0.15695553637E+04  0.16020711788E+04  0.25500000920E-02 0.  1.
       -2    1    3    3    0  502  0.12642439851E+03 -0.29520313979E+03 -0.15660676646E+04  0.15986544193E+04  0.25500000920E-02 0. -1.
</event>
<event>
 5   0  0.1288096E-07  0.3209178E+04  0.7818609E-02  0.8186398E-01
       -1   -1    0    0    0  501  0.00000000000E+00  0.00000000000E+00  0.91647197312E+03  0.91647197313E+03  0.50400001928E-02 0.  1.
        1   -1    0    0  501    0  0.00000000000E+00  0.00000000000E+00 -0.28093661468E+04  0.28093661468E+04  0.50400001928E-02 0. -1.
    10030    2    1    2    0    0  0.00000000000E+00  0.00000000000E+00 -0.18928941737E+04  0.37258381199E+04  0.32091776740E+04 0.  0.
        2    1    3    3  502    0 -0.12112140312E+02  0.17935325713E+03  0.90474461276E+03  0.92243000228E+03  0.25500000920E-02 0.  1.
       -2    1    3    3    0  502  0.12112140312E+02 -0.17935325713E+03 -0.27976387864E+04  0.28034081176E+04  0.25500000920E-02 0. -1.
</event>
<event>
 5   0  0.1288096E-07  0.3207017E+04  0.7818609E-02  0.8186967E-01
       -1   -1    0    0    0  501  0.00000000000E+00  0.00000000000E+00  0.16232509551E+04  0.16232509551E+04  0.50400001928E-02 0.  1.
        1   -1    0    0  501    0  0.00000000000E+00  0.00000000000E+00 -0.15840056850E+04  0.15840056850E+04  0.50400001928E-02 0. -1.
    10030    2    1    2    0    0  0.00000000000E+00  0.00000000000E+00  0.39245270148E+02  0.32072566401E+04  0.32070165207E+04 0.  0.
        2    1    3    3  502    0  0.83543924886E+02  0.82246157026E+03  0.13937037182E+04  0.16204421237E+04  0.25500000920E-02 0.  1.
       -2    1    3    3    0  502 -0.83543924886E+02 -0.82246157026E+03 -0.13544584481E+04  0.15868145164E+04  0.25500000920E-02 0. -1.
</event>
<event>
 5   0  0.1317293E-07  0.3202421E+04  0.7818609E-02  0.8188178E-01
        1   -1    0    0  501    0  0.00000000000E+00  0.00000000000E+00  0.14931564784E+04  0.14931564784E+04  0.50400001928E-02 0.  1.
       -1   -1    0    0    0  501  0.00000000000E+00  0.00000000000E+00 -0.17170836513E+04  0.17170836513E+04  0.50400001928E-02 0. -1.
    10030    2    1    2    0    0  0.00000000000E+00  0.00000000000E+00 -0.22392717289E+03  0.32102401297E+04  0.32024206956E+04 0.  0.
        1    1    3    3  502    0  0.11698665759E+04  0.14665998055E+03  0.97409198647E+03  0.15293633164E+04  0.50400001928E-02 0.  1.
       -1    1    3    3    0  502 -0.11698665759E+04 -0.14665998055E+03 -0.11980191594E+04  0.16808768133E+04  0.50400001928E-02 0. -1.
</event>
<event>
 5   0  0.3858721E-07  0.3183658E+04  0.7818609E-02  0.8193146E-01
       -2   -1    0    0    0  501  0.00000000000E+00  0.00000000000E+00  0.12030394808E+04  0.12030394808E+04  0.25500000920E-02 0.  1.
        2   -1    0    0  501    0  0.00000000000E+00  0.00000000000E+00 -0.21062650641E+04  0.21062650641E+04  0.25500000920E-02 0. -1.
    10030    2    1    2    0    0  0.00000000000E+00  0.00000000000E+00 -0.90322558336E+03  0.33093045449E+04  0.31836582914E+04 0.  0.
        2    1    3    3  502    0 -0.14389868734E+04 -0.15098315795E+03 -0.11414618968E+04  0.18429363521E+04  0.25500000920E-02 0. -1.
       -2    1    3    3    0  502  0.14389868734E+04  0.15098315795E+03  0.23823631345E+03  0.14663681928E+04  0.25500000920E-02 0.  1.
</event>
<event>
 5   0  0.3830207E-07  0.3198320E+04  0.7818609E-02  0.8189261E-01
        2   -1    0    0  501    0  0.00000000000E+00  0.00000000000E+00  0.21401231646E+04  0.21401231646E+04  0.25500000920E-02 0. -1.
       -2   -1    0    0    0  501  0.00000000000E+00  0.00000000000E+00 -0.11949370609E+04  0.11949370609E+04  0.25500000920E-02 0.  1.
    10030    2    1    2    0    0  0.00000000000E+00  0.00000000000E+00  0.94518610367E+03  0.33350602255E+04  0.31983198616E+04 0.  0.
        4    1    3    3  502    0 -0.17025972564E+03 -0.15502308631E+04  0.10376649118E+03  0.15630013438E+04  0.12699999809E+01 0.  1.
       -4    1    3    3    0  502  0.17025972564E+03  0.15502308631E+04  0.84141961248E+03  0.17720588817E+04  0.12699999809E+01 0. -1.
</event>
<event>
 5   0  0.1317293E-07  0.3197858E+04  0.7818609E-02  0.8189383E-01
        1   -1    0    0  501    0  0.00000000000E+00  0.00000000000E+00  0.13358919919E+04  0.13358919919E+04  0.50400001928E-02 0.  1.
       -1   -1    0    0    0  501  0.00000000000E+00  0.00000000000E+00 -0.19137578617E+04  0.19137578617E+04  0.50400001928E-02 0. -1.
    10030    2    1    2    0    0  0.00000000000E+00  0.00000000000E+00 -0.57786586976E+03  0.32496498536E+04  0.31978579092E+04 0.  0.
        1    1    3    3  502    0 -0.55897854501E+03  0.96235714625E+03  0.87769594705E+03  0.14173702643E+04  0.50400001928E-02 0.  1.
       -1    1    3    3    0  502  0.55897854501E+03 -0.96235714625E+03 -0.14555618168E+04  0.18322795893E+04  0.50400001928E-02 0. -1.
</event>
<event>
 5   0  0.3750285E-07  0.3200567E+04  0.7818609E-02  0.8188668E-01
        2   -1    0    0  501    0  0.00000000000E+00  0.00000000000E+00  0.16822232336E+04  0.16822232336E+04  0.25500000920E-02 0.  1.
       -2   -1    0    0    0  501  0.00000000000E+00  0.00000000000E+00 -0.15223347519E+04  0.15223347519E+04  0.25500000920E-02 0. -1.
    10030    2    1    2    0    0  0.00000000000E+00  0.00000000000E+00  0.15988848171E+03  0.32045579856E+04  0.32005667555E+04 0.  0.
        1    1    3    3  502    0  0.76941471288E+03  0.11261072950E+04  0.91812033424E+03  0.16440990203E+04  0.50400001928E-02 0.  1.
       -1    1    3    3    0  502 -0.76941471288E+03 -0.11261072950E+04 -0.75823185253E+03  0.15604589653E+04  0.50400001928E-02 0. -1.
</event>
<event>
 5   0  0.1288096E-07  0.3199465E+04  0.7818609E-02  0.8188959E-01
        1   -1    0    0  501    0  0.00000000000E+00  0.00000000000E+00  0.16998241910E+04  0.16998241910E+04  0.50400001928E-02 0.  1.
       -1   -1    0    0    0  501  0.00000000000E+00  0.00000000000E+00 -0.15055341548E+04  0.15055341548E+04  0.50400001928E-02 0. -1.
    10030    2    1    2    0    0  0.00000000000E+00  0.00000000000E+00  0.19429003626E+03  0.32053583458E+04  0.31994645657E+04 0.  0.
        2    1    3    3  502    0  0.17299409061E+03 -0.13234530348E+04 -0.78634595942E+03  0.15491271280E+04  0.25500000920E-02 0. -1.
       -2    1    3    3    0  502 -0.17299409061E+03  0.13234530348E+04  0.98063599568E+03  0.16562312178E+04  0.25500000920E-02 0.  1.
</event>
<event>
 5   0  0.1317293E-07  0.3199573E+04  0.7818609E-02  0.8188930E-01
       -1   -1    0    0    0  501  0.00000000000E+00  0.00000000000E+00  0.33984633197E+04  0.33984633197E+04  0.50400001928E-02 0.  1.
        1   -1    0    0  501    0  0.00000000000E+00  0.00000000000E+00 -0.75308069836E+03  0.75308069838E+03  0.50400001928E-02 0. -1.
    10030    2    1    2    0    0  0.00000000000E+00  0.00000000000E+00  0.26453826214E+04  0.41515440181E+04  0.31995731779E+04 0.  0.
        1    1    3    3  502    0  0.14910361540E+03  0.95888712779E+03 -0.32758228081E+03  0.10242102141E+04  0.50400001928E-02 0. -1.
       -1    1    3    3    0  502 -0.14910361540E+03 -0.95888712779E+03  0.29729649022E+04  0.31273338040E+04  0.50400001928E-02 0.  1.
</event>
<event>
 5   0  0.1365455E-07  0.3200544E+04  0.7818609E-02  0.8188673E-01
       -1   -1    0    0    0  501  0.00000000000E+00  0.00000000000E+00  0.13580691296E+04  0.13580691296E+04  0.50400001928E-02 0.  1.
        1   -1    0    0  501    0  0.00000000000E+00  0.00000000000E+00 -0.18856704653E+04  0.18856704654E+04  0.50400001928E-02 0. -1.
    10030    2    1    2    0    0  0.00000000000E+00  0.00000000000E+00 -0.52760133577E+03  0.32437395949E+04  0.32005442334E+04 0.  0.
        3    1    3    3  502    0  0.55502079445E+03  0.11369098320E+04  0.72935264070E+03  0.14603312408E+04  0.10100000352E+00 0.  1.
       -3    1    3    3    0  502 -0.55502079445E+03 -0.11369098320E+04 -0.12569539765E+04  0.17834083541E+04  0.10100000352E+00 0. -1.
</event>
<event>
 5   0  0.1317293E-07  0.3192967E+04  0.7818609E-02  0.8190677E-01
       -1   -1    0    0    0  501  0.00000000000E+00  0.00000000000E+00  0.19365360510E+04  0.19365360510E+04  0.50400001928E-02 0.  1.
        1   -1    0    0  501    0  0.00000000000E+00  0.00000000000E+00 -0.13161432992E+04  0.13161432992E+04  0.50400001928E-02 0. -1.
    10030    2    1    2    0    0  0.00000000000E+00  0.00000000000E+00  0.62039275174E+03  0.32526793502E+04  0.31929666125E+04 0.  0.
        1    1    3    3  502    0 -0.20441647882E+03 -0.11979179063E+03 -0.12981335944E+04  0.13195783413E+04  0.50400001928E-02 0. -1.
       -1    1    3    3    0  502  0.20441647882E+03  0.11979179063E+03  0.19185263461E+04  0.19331010089E+04  0.50400001928E-02 0.  1.
</event>
<event>
 5   0  0.1317293E-07  0.3198914E+04  0.7818609E-02  0.8189104E-01
       -1   -1    0    0    0  501  0.00000000000E+00  0.00000000000E+00  0.92497899856E+03  0.92497899857E+03  0.50400001928E-02 0.  1.
        1   -1    0    0  501    0  0.00000000000E+00  0.00000000000E+00 -0.27657523981E+04  0.27657523981E+04  0.50400001928E-02 0. -1.
    10030    2    1    2    0    0  0.00000000000E+00  0.00000000000E+00 -0.18407733995E+04  0.36907313966E+04  0.31989141179E+04 0.  0.
        1    1    3    3  502    0 -0.13879821333E+04 -0.46719799002E+03 -0.16622856174E+04  0.22153920280E+04  0.50400001928E-02 0. -1.
       -1    1    3    3    0  502  0.13879821333E+04  0.46719799002E+03 -0.17848778212E+03  0.14753393686E+04  0.50400001928E-02 0.  1.
</event>
<event>
 5   0  0.1288096E-07  0.3197907E+04  0.7818609E-02  0.8189370E-01
        1   -1    0    0  501    0  0.00000000000E+00  0.00000000000E+00  0.23138553753E+04  0.23138553753E+04  0.50400001928E-02 0.  1.
       -1   -1    0    0    0  501  0.00000000000E+00  0.00000000000E+00 -0.11049317811E+04  0.11049317811E+04  0.50400001928E-02 0. -1.
    10030    2    1    2    0    0  0.00000000000E+00  0.00000000000E+00  0.12089235942E+04  0.34187871563E+04  0.31979070286E+04 0.  0.
        2    1    3    3  502    0  0.35645207046E+02  0.14599895853E+04 -0.91512085741E+02  0.14632889775E+04  0.25500000920E-02 0. -1.
       -2    1    3    3    0  502 -0.35645207046E+02 -0.14599895853E+04  0.13004356799E+04  0.19554981788E+04  0.25500000920E-02 0.  1.
</event>
<event>
 5   0  0.1317293E-07  0.3203519E+04  0.7818609E-02  0.8187888E-01
        1   -1    0    0  501    0  0.00000000000E+00  0.00000000000E+00  0.20221894102E+04  0.20221894102E+04  0.50400001928E-02 0. -1.
       -1   -1    0    0    0  501  0.00000000000E+00  0.00000000000E+00 -0.12687404234E+04  0.12687404234E+04  0.50400001928E-02 0.  1.
    10030    2    1    2    0    0  0.00000000000E+00  0.00000000000E+00  0.75344898683E+03  0.32909298336E+04  0.32035189705E+04 0.  0.
        1    1    3    3  502    0 -0.87459509254E+03  0.78267161833E+03 -0.74303692216E+03  0.13890987387E+04  0.50400001928E-02 0.  1.
       -1    1    3    3    0  502  0.87459509254E+03 -0.78267161833E+03  0.14964859090E+04  0.19018310950E+04  0.50400001928E-02 0. -1.
</event>
<event>
 5   0  0.3858721E-07  0.3199307E+04  0.7818609E-02  0.8189000E-01
        2   -1    0    0  501    0  0.00000000000E+00  0.00000000000E+00  0.16438515051E+04  0.16438515051E+04  0.25500000920E-02 0.  1.
       -2   -1    0    0    0  501  0.00000000000E+00  0.00000000000E+00 -0.15566437253E+04  0.15566437253E+04  0.25500000920E-02 0. -1.
    10030    2    1    2    0    0  0.00000000000E+00  0.00000000000E+00  0.87207779800E+02  0.32004952304E+04  0.31993068816E+04 0.  0.
        2    1    3    3  502    0 -0.11251499371E+04  0.50858852416E+02 -0.10927503123E+04  0.15692839924E+04  0.25500000920E-02 0. -1.
       -2    1    3    3    0  502  0.11251499371E+04 -0.50858852416E+02  0.11799580921E+04  0.16312112380E+04  0.25500000920E-02 0.  1.
</event>
<event>
 5   0  0.1288096E-07  0.3169338E+04  0.7818609E-02  0.8196962E-01
       -1   -1    0    0    0  501  0.00000000000E+00  0.00000000000E+00  0.20380776883E+04  0.20380776884E+04  0.50400001928E-02 0. -1.
        1   -1    0    0  501    0  0.00000000000E+00  0.00000000000E+00 -0.12321295245E+04  0.12321295246E+04  0.50400001928E-02 0.  1.
    10030    2    1    2    0    0  0.00000000000E+00  0.00000000000E+00  0.80594816380E+03  0.32702072129E+04  0.31693379076E+04 0.  0.
        2    1    3    3  502    0  0.45284851319E+03 -0.15120492825E+04  0.25774330476E+03  0.15993112329E+04  0.25500000920E-02 0.  1.
       -2    1    3    3    0  502 -0.45284851319E+03  0.15120492825E+04  0.54820485904E+03  0.16708959800E+04  0.25500000920E-02 0. -1.
</event>
<event>
 5   0  0.1277374E-07  0.3199623E+04  0.7818609E-02  0.8188917E-01
        1   -1    0    0  501    0  0.00000000000E+00  0.00000000000E+00  0.23316032167E+04  0.23316032167E+04  0.50400001928E-02 0. -1.
       -1   -1    0    0    0  501  0.00000000000E+00  0.00000000000E+00 -0.10976984999E+04  0.10976984999E+04  0.50400001928E-02 0.  1.
    10030    2    1    2    0    0  0.00000000000E+00  0.00000000000E+00  0.12339047167E+04  0.34293017166E+04  0.31996233237E+04 0.  0.
        5    1    3    3  502    0  0.14949640916E+03 -0.18800014319E+02  0.23239741129E+04  0.23288581718E+04  0.46999998093E+01 0. -1.
       -5    1    3    3    0  502 -0.14949640916E+03  0.18800014319E+02 -0.10900693962E+04  0.11004435448E+04  0.46999998093E+01 0.  1.
</event>
<event>
 5   0  0.3750285E-07  0.3201771E+04  0.7818609E-02  0.8188350E-01
        2   -1    0    0  501    0  0.00000000000E+00  0.00000000000E+00  0.10928784821E+04  0.10928784821E+04  0.25500000920E-02 0.  1.
       -2   -1    0    0    0  501  0.00000000000E+00  0.00000000000E+00 -0.23450312263E+04  0.23450312263E+04  0.25500000920E-02 0. -1.
    10030    2    1    2    0    0  0.00000000000E+00  0.00000000000E+00 -0.12521527442E+04  0.34379097085E+04  0.32017708645E+04 0.  0.
        1    1    3    3  502    0  0.13832657761E+04  0.70779968475E+03 -0.21239646496E+03  0.15682846869E+04  0.50400001928E-02 0.  1.
       -1    1    3    3    0  502 -0.13832657761E+04 -0.70779968475E+03 -0.10397562793E+04  0.18696250215E+04  0.50400001928E-02 0. -1.
</event>
<event>
 5   0  0.3750285E-07  0.3213479E+04  0.7818609E-02  0.8185266E-01
       -2   -1    0    0    0  501  0.00000000000E+00  0.00000000000E+00  0.11845894655E+04  0.11845894655E+04  0.25500000920E-02 0. -1.
        2   -1    0    0  501    0  0.00000000000E+00  0.00000000000E+00 -0.21793302042E+04  0.21793302042E+04  0.25500000920E-02 0.  1.
    10030    2    1    2    0    0  0.00000000000E+00  0.00000000000E+00 -0.99474073870E+03  0.33639196697E+04  0.32134788636E+04 0.  0.
        1    1    3    3  502    0  0.31089048115E+03 -0.15681020232E+04 -0.66621219539E+03  0.17318878531E+04  0.50400001928E-02 0.  1.
       -1    1    3    3    0  502 -0.31089048115E+03  0.15681020232E+04 -0.32852854331E+03  0.16320318166E+04  0.50400001928E-02 0. -1.
</event>
<event>
 5   0  0.3858721E-07  0.3191553E+04  0.7818609E-02  0.8191052E-01
        2   -1    0    0  501    0  0.00000000000E+00  0.00000000000E+00  0.11239300141E+04  0.11239300141E+04  0.25500000920E-02 0. -1.
       -2   -1    0    0    0  501  0.00000000000E+00  0.00000000000E+00 -0.22657126931E+04  0.22657126931E+04  0.25500000920E-02 0.  1.
    10030    2    1    2    0    0  0.00000000000E+00  0.00000000000E+00 -0.11417826791E+04  0.33896427072E+04  0.31915529130E+04 0.  0.
        2    1    3    3  502    0  0.14612249684E+04 -0.50611245595E+03 -0.98926249378E+03  0.18357473976E+04  0.25500000920E-02 0.  1.
       -2    1    3    3    0  502 -0.14612249684E+04  0.50611245595E+03 -0.15252018529E+03  0.15538953096E+04  0.25500000920E-02 0. -1.
</event>
<event>
 5   0  0.3764056E-07  0.3183529E+04  0.7818609E-02  0.8193181E-01
       -2   -1    0    0    0  501  0.00000000000E+00  0.00000000000E+00  0.18632945337E+04  0.18632945337E+04  0.25500000920E-02 0.  1.
        2   -1    0    0  501    0  0.00000000000E+00  0.00000000000E+00 -0.13598032415E+04  0.13598032415E+04  0.25500000920E-02 0. -1.
    10030    2    1    2    0    0  0.00000000000E+00  0.00000000000E+00  0.50349129215E+03  0.32230977752E+04  0.31835288262E+04 0.  0.
        5    1    3    3  502    0  0.82306845418E+03 -0.52490359890E+03  0.15246420085E+04  0.18103924471E+04  0.46999998093E+01 0.  1.
       -5    1    3    3    0  502 -0.82306845418E+03  0.52490359890E+03 -0.10211507164E+04  0.14127053281E+04  0.46999998093E+01 0. -1.
</event>
<event>
 5   0  0.1270948E-07  0.3221379E+04  0.7818609E-02  0.8183194E-01
       -1   -1    0    0    0  501  0.00000000000E+00  0.00000000000E+00  0.16816273796E+04  0.16816273796E+04  0.50400001928E-02 0.  1.
        1   -1    0    0  501    0  0.00000000000E+00  0.00000000000E+00 -0.15427438620E+04  0.15427438620E+04  0.50400001928E-02 0. -1.
    10030    2    1    2    0    0  0.00000000000E+00  0.00000000000E+00  0.13888351755E+03  0.32243712416E+04  0.32213787843E+04 0.  0.
        4    1    3    3  502    0 -0.15926282252E+04 -0.24052866400E+03  0.69384733043E+02  0.16121831645E+04  0.12699999809E+01 0. -1.
       -4    1    3    3    0  502  0.15926282252E+04  0.24052866400E+03  0.69498784503E+02  0.16121880771E+04  0.12699999809E+01 0.  1.
</event>
<event>
 5   0  0.3750285E-07  0.3201116E+04  0.7818609E-02  0.8188522E-01
        2   -1    0    0  501    0  0.00000000000E+00  0.00000000000E+00  0.24760540615E+04  0.24760540615E+04  0.25500000920E-02 0.  1.
       -2   -1    0    0    0  501  0.00000000000E+00  0.00000000000E+00 -0.10346245984E+04  0.10346245984E+04  0.25500000920E-02 0. -1.
    10030    2    1    2    0    0  0.00000000000E+00  0.00000000000E+00  0.14414294631E+04  0.35106786600E+04  0.32011163297E+04 0.  0.
        1    1    3    3  502    0  0.95276884374E+03 -0.99720590698E+03  0.16114105272E+04  0.21210450202E+04  0.50400001928E-02 0.  1.
       -1    1    3    3    0  502 -0.95276884374E+03  0.99720590698E+03 -0.16998106411E+03  0.13896336397E+04  0.50400001928E-02 0. -1.
</event>
<event>
 5   0  0.1317293E-07  0.3201850E+04  0.7818609E-02  0.8188329E-01
       -1   -1    0    0    0  501  0.00000000000E+00  0.00000000000E+00  0.99669603977E+03  0.99669603978E+03  0.50400001928E-02 0.  1.
        1   -1    0    0  501    0  0.00000000000E+00  0.00000000000E+00 -0.25714563731E+04  0.25714563731E+04  0.50400001928E-02 0. -1.
    10030    2    1    2    0    0  0.00000000000E+00  0.00000000000E+00 -0.15747603333E+04  0.35681524129E+04  0.32018497051E+04 0.  0.
        1    1    3    3  502    0 -0.14404405776E+04  0.12120156911E+03 -0.20624009788E+02  0.14456777746E+04  0.50400001928E-02 0.  1.
       -1    1    3    3    0  502  0.14404405776E+04 -0.12120156911E+03 -0.15541363235E+04  0.21224746383E+04  0.50400001928E-02 0. -1.
</event>
<event>
 5   0  0.1288096E-07  0.3206586E+04  0.7818609E-02  0.8187080E-01
        1   -1    0    0  501    0  0.00000000000E+00  0.00000000000E+00  0.27100209757E+04  0.27100209757E+04  0.50400001928E-02 0. -1.
       -1   -1    0    0    0  501  0.00000000000E+00  0.00000000000E+00 -0.94853465266E+03  0.94853465267E+03  0.50400001928E-02 0.  1.
    10030    2    1    2    0    0  0.00000000000E+00  0.00000000000E+00  0.17614863230E+04  0.36585556283E+04  0.32065862252E+04 0.  0.
        2    1    3    3  502    0 -0.97998023559E+03  0.95130583278E+03  0.18388729800E+04  0.22905889824E+04  0.25500000920E-02 0. -1.
       -2    1    3    3    0  502  0.97998023559E+03 -0.95130583278E+03 -0.77386657047E+02  0.13679666459E+04  0.25500000920E-02 0.  1.
</event>
<event>
 5   0  0.1317293E-07  0.3194572E+04  0.7818609E-02  0.8190252E-01
        1   -1    0    0  501    0  0.00000000000E+00  0.00000000000E+00  0.20993533840E+04  0.20993533840E+04  0.50400001928E-02 0.  1.
       -1   -1    0    0    0  501  0.00000000000E+00  0.00000000000E+00 -0.12152896900E+04  0.12152896900E+04  0.50400001928E-02 0. -1.
    10030    2    1    2    0    0  0.00000000000E+00  0.00000000000E+00  0.88406369405E+03  0.33146430740E+04  0.31945719733E+04 0.  0.
        1    1    3    3  502    0  0.26703894035E+03  0.15746379596E+04  0.41818940057E+03  0.16509624085E+04  0.50400001928E-02 0. -1.
       -1    1    3    3    0  502 -0.26703894035E+03 -0.15746379596E+04  0.46587429348E+03  0.16636806655E+04  0.50400001928E-02 0.  1.
</event>
<event>
 5   0  0.1277374E-07  0.3199943E+04  0.7818609E-02  0.8188832E-01
        1   -1    0    0  501    0  0.00000000000E+00  0.00000000000E+00  0.17748342878E+04  0.17748342878E+04  0.50400001928E-02 0. -1.
       -1   -1    0    0    0  501  0.00000000000E+00  0.00000000000E+00 -0.14423370099E+04  0.14423370099E+04  0.50400001928E-02 0.  1.
    10030    2    1    2    0    0  0.00000000000E+00  0.00000000000E+00  0.33249727785E+03  0.32171712977E+04  0.31999432369E+04 0.  0.
        5    1    3    3  502    0  0.15063668612E+04 -0.48401876443E+03 -0.72668742168E+02  0.15838933426E+04  0.46999998093E+01 0.  1.
       -5    1    3    3    0  502 -0.15063668612E+04  0.48401876443E+03  0.40516602002E+03  0.16332779551E+04  0.46999998093E+01 0. -1.
</event>
<event>
 5   0  0.1288096E-07  0.3195842E+04  0.7818609E-02  0.8189916E-01
        1   -1    0    0  501    0  0.00000000000E+00  0.00000000000E+00  0.19601617725E+04  0.19601617725E+04  0.50400001928E-02 0. -1.
       -1   -1    0    0    0  501  0.00000000000E+00  0.00000000000E+00 -0.13026225004E+04  0.13026225005E+04  0.50400001928E-02 0.  1.
    10030    2    1    2    0    0  0.00000000000E+00  0.00000000000E+00  0.65753927204E+03  0.32627842730E+04  0.31958415664E+04 0.  0.
        2    1    3    3  502    0  0.12600787993E+04 -0.38471724222E+03  0.12518912594E+04  0.18174261091E+04  0.25500000920E-02 0. -1.
       -2    1    3    3    0  502 -0.12600787993E+04  0.38471724222E+03 -0.59435198736E+03  0.14453581638E+04  0.25500000920E-02 0.  1.
</event>
<event>
 5   0  0.3750285E-07  0.3187813E+04  0.7818609E-02  0.8192043E-01
        2   -1    0    0  501    0  0.00000000000E+00  0.00000000000E+00  0.16952019771E+04  0.16952019771E+04  0.25500000920E-02 0.  1.
       -2   -1    0    0    0  501  0.00000000000E+00  0.00000000000E+00 -0.14986635020E+04  0.14986635020E+04  0.25500000920E-02 0. -1.
    10030    2    1    2    0    0  0.00000000000E+00  0.00000000000E+00  0.19653847505E+03  0.31938654791E+04  0.31878126241E+04 0.  0.
        1    1    3    3  502    0 -0.19153823898E+03 -0.14489984636E+04 -0.53874763632E+03  0.15577331158E+04  0.50400001928E-02 0. -1.
       -1    1    3    3    0  502  0.19153823898E+03  0.14489984636E+04  0.73528611137E+03  0.16361323633E+04  0.50400001928E-02 0.  1.
</event>
<event>
 5   0  0.3942564E-07  0.3202127E+04  0.7818609E-02  0.8188256E-01
        2   -1    0    0  501    0  0.00000000000E+00  0.00000000000E+00  0.16202744887E+04  0.16202744887E+04  0.25500000920E-02 0.  1.
       -2   -1    0    0    0  501  0.00000000000E+00  0.00000000000E+00 -0.15820802503E+04  0.15820802503E+04  0.25500000920E-02 0. -1.
    10030    2    1    2    0    0  0.00000000000E+00  0.00000000000E+00  0.38194238386E+02  0.32023547390E+04  0.32021269610E+04 0.  0.
        3    1    3    3  502    0 -0.10412553585E+04 -0.11550814556E+04  0.39988445376E+03  0.16057189907E+04  0.10100000352E+00 0.  1.
       -3    1    3    3    0  502  0.10412553585E+04  0.11550814556E+04 -0.36169021537E+03  0.15966357483E+04  0.10100000352E+00 0. -1.
</event>
<event>
 5   0  0.1317293E-07  0.3200931E+04  0.7818609E-02  0.8188571E-01
       -1   -1    0    0    0  501  0.00000000000E+00  0.00000000000E+00  0.15930705259E+04  0.15930705259E+04  0.50400001928E-02 0. -1.
        1   -1    0    0  501    0  0.00000000000E+00  0.00000000000E+00 -0.16078943452E+04  0.16078943452E+04  0.50400001928E-02 0.  1.
    10030    2    1    2    0    0  0.00000000000E+00  0.00000000000E+00 -0.14823819337E+02  0.32009648712E+04  0.32009305461E+04 0.  0.
        1    1    3    3  502    0 -0.55955226967E+03 -0.13070726424E+04  0.72740986155E+03  0.15970794413E+04  0.50400001928E-02 0. -1.
       -1    1    3    3    0  502  0.55955226967E+03  0.13070726424E+04 -0.74223368088E+03  0.16038854299E+04  0.50400001928E-02 0.  1.
</event>
<event>
 5   0  0.1288096E-07  0.3191755E+04  0.7818609E-02  0.8190998E-01
        1   -1    0    0  501    0  0.00000000000E+00  0.00000000000E+00  0.18720662173E+04  0.18720662173E+04  0.50400001928E-02 0.  1.
       -1   -1    0    0    0  501  0.00000000000E+00  0.00000000000E+00 -0.13604352582E+04  0.13604352582E+04  0.50400001928E-02 0. -1.
    10030    2    1    2    0    0  0.00000000000E+00  0.00000000000E+00  0.51163095909E+03  0.32325014755E+04  0.31917549328E+04 0.  0.
        2    1    3    3  502    0  0.18369451216E+03 -0.16848624853E+03  0.18522297968E+04  0.18689265662E+04  0.25500000920E-02 0.  1.
       -2    1    3    3    0  502 -0.18369451216E+03  0.16848624853E+03 -0.13405988377E+04  0.13635749093E+04  0.25500000920E-02 0. -1.
</event>
<event>
 5   0  0.1317293E-07  0.3198576E+04  0.7818609E-02  0.8189193E-01
        1   -1    0    0  501    0  0.00000000000E+00  0.00000000000E+00  0.18940908889E+04  0.18940908889E+04  0.50400001928E-02 0.  1.
       -1   -1    0    0    0  501  0.00000000000E+00  0.00000000000E+00 -0.13503695614E+04  0.13503695614E+04  0.50400001928E-02 0. -1.
    10030    2    1    2    0    0  0.00000000000E+00  0.00000000000E+00  0.54372132748E+03  0.32444604504E+04  0.31985763602E+04 0.  0.
        1    1    3    3  502    0 -0.66635603704E+03 -0.32933243238E+03 -0.11645152862E+04  0.13815158598E+04  0.50400001928E-02 0. -1.
       -1    1    3    3    0  502  0.66635603704E+03  0.32933243238E+03  0.17082366137E+04  0.18629445906E+04  0.50400001928E-02 0.  1.
</event>
<event>
 5   0  0.1270948E-07  0.3206993E+04  0.7818609E-02  0.8186973E-01
        1   -1    0    0  501    0  0.00000000000E+00  0.00000000000E+00  0.15016349228E+04  0.15016349229E+04  0.50400001928E-02 0.  1.
       -1   -1    0    0    0  501  0.00000000000E+00  0.00000000000E+00 -0.17122676329E+04  0.17122676329E+04  0.50400001928E-02 0. -1.
    10030    2    1    2    0    0  0.00000000000E+00  0.00000000000E+00 -0.21063271001E+03  0.32139025557E+04  0.32069929060E+04 0.  0.
        4    1    3    3  502    0 -0.14729915005E+04 -0.51581003860E+03 -0.47412462545E+03  0.16311222302E+04  0.12699999809E+01 0.  1.
       -4    1    3    3    0  502  0.14729915005E+04  0.51581003860E+03  0.26349191544E+03  0.15827803255E+04  0.12699999809E+01 0. -1.
</event>
<event>
 5   0  0.1365455E-07  0.3203651E+04  0.7818609E-02  0.8187854E-01
       -1   -1    0    0    0  501  0.00000000000E+00  0.00000000000E+00  0.27935851251E+04  0.27935851251E+04  0.50400001928E-02 0.  1.
        1   -1    0    0  501    0  0.00000000000E+00  0.00000000000E+00 -0.91847726909E+03  0.91847726911E+03  0.50400001928E-02 0. -1.
    10030    2    1    2    0    0  0.00000000000E+00  0.00000000000E+00  0.18751078560E+04  0.37120623942E+04  0.32036506905E+04 0.  0.
        3    1    3    3  502    0  0.62276311987E+03  0.50191101126E+03 -0.67053128906E+03  0.10437244782E+04  0.10100000352E+00 0. -1.
       -3    1    3    3    0  502 -0.62276311987E+03 -0.50191101126E+03  0.25456391450E+04  0.26683379159E+04  0.10100000352E+00 0.  1.
</event>
<event>
 5   0  0.3750285E-07  0.3181121E+04  0.7818609E-02  0.8193821E-01
        2   -1    0    0  501    0  0.00000000000E+00  0.00000000000E+00  0.27366458862E+04  0.27366458862E+04  0.25500000920E-02 0. -1.
       -2   -1    0    0    0  501  0.00000000000E+00  0.00000000000E+00 -0.92444670645E+03  0.92444670645E+03  0.25500000920E-02 0.  1.
    10030    2    1    2    0    0  0.00000000000E+00  0.00000000000E+00  0.18121991798E+04  0.36610925927E+04  0.31811213597E+04 0.  0.
        1    1    3    3  502    0  0.10428362817E+04 -0.13644180528E+03  0.22793469637E+04  0.25102881224E+04  0.50400001928E-02 0. -1.
       -1    1    3    3    0  502 -0.10428362817E+04  0.13644180528E+03 -0.46714778392E+03  0.11508044702E+04  0.50400001928E-02 0.  1.
</event>
<event>
 5   0  0.1277374E-07  0.3186055E+04  0.7818609E-02  0.8192510E-01
       -1   -1    0    0    0  501  0.00000000000E+00  0.00000000000E+00  0.13115117114E+04  0.13115117114E+04  0.50400001928E-02 0.  1.
        1   -1    0    0  501    0  0.00000000000E+00  0.00000000000E+00 -0.19349707528E+04  0.19349707528E+04  0.50400001928E-02 0. -1.
    10030    2    1    2    0    0  0.00000000000E+00  0.00000000000E+00 -0.62345904141E+03  0.32464824642E+04  0.31860551179E+04 0.  0.
        5    1    3    3  502    0 -0.13116438559E+04 -0.87685022379E+03 -0.87467135145E+02  0.15801735694E+04  0.46999998093E+01 0.  1.
       -5    1    3    3    0  502  0.13116438559E+04  0.87685022379E+03 -0.53599190627E+03  0.16663088949E+04  0.46999998093E+01 0. -1.
</event>
<event>
 5   0  0.3858721E-07  0.3199203E+04  0.7818609E-02  0.8189028E-01
        2   -1    0    0  501    0  0.00000000000E+00  0.00000000000E+00  0.10220136357E+04  0.10220136357E+04  0.25500000920E-02 0.  1.
       -2   -1    0    0    0  501  0.00000000000E+00  0.00000000000E+00 -0.25036106842E+04  0.25036106843E+04  0.25500000920E-02 0. -1.
    10030    2    1    2    0    0  0.00000000000E+00  0.00000000000E+00 -0.14815970486E+04  0.35256243199E+04  0.31992025617E+04 0.  0.
        2    1    3    3  502    0 -0.33482675458E+03  0.99407098715E+01  0.98292801227E+03  0.10384388526E+04  0.25500000920E-02 0.  1.
       -2    1    3    3    0  502  0.33482675458E+03 -0.99407098715E+01 -0.24645250608E+04  0.24871854673E+04  0.25500000920E-02 0. -1.
</event>
<event>
 5   0  0.1270948E-07  0.3204547E+04  0.7818609E-02  0.8187617E-01
       -1   -1    0    0    0  501  0.00000000000E+00  0.00000000000E+00  0.12034013118E+04  0.12034013118E+04  0.50400001928E-02 0.  1.
        1   -1    0    0  501    0  0.00000000000E+00  0.00000000000E+00 -0.21333538948E+04  0.21333538948E+04  0.50400001928E-02 0. -1.
    10030    2    1    2    0    0  0.00000000000E+00  0.00000000000E+00 -0.92995258304E+03  0.33367552066E+04  0.32045473163E+04 0.  0.
        4    1    3    3  502    0  0.11208120269E+04  0.11356543642E+04 -0.61711673498E+03  0.17107790951E+04  0.12699999809E+01 0.  1.
       -4    1    3    3    0  502 -0.11208120269E+04 -0.11356543642E+04 -0.31283584806E+03  0.16259761116E+04  0.12699999809E+01 0. -1.
</event>
<event>
 5   0  0.3942564E-07  0.3195529E+04  0.7818609E-02  0.8189999E-01
       -2   -1    0    0    0  501  0.00000000000E+00  0.00000000000E+00  0.13218154259E+04  0.13218154259E+04  0.25500000920E-02 0.  1.
        2   -1    0    0  501    0  0.00000000000E+00  0.00000000000E+00 -0.19313217783E+04  0.19313217783E+04  0.25500000920E-02 0. -1.
    10030    2    1    2    0    0  0.00000000000E+00  0.00000000000E+00 -0.60950635241E+03  0.32531372042E+04  0.31955287005E+04 0.  0.
        3    1    3    3  502    0 -0.13117860579E+04  0.14463452850E+03 -0.12216279064E+04  0.17983538473E+04  0.10100000352E+00 0. -1.
       -3    1    3    3    0  502  0.13117860579E+04 -0.14463452850E+03  0.61212155395E+03  0.14547833569E+04  0.10100000352E+00 0.  1.
</event>
<event>
 5   0  0.1317293E-07  0.3202333E+04  0.7818609E-02  0.8188201E-01
        1   -1    0    0  501    0  0.00000000000E+00  0.00000000000E+00  0.13154189705E+04  0.13154189705E+04  0.50400001928E-02 0.  1.
       -1   -1    0    0    0  501  0.00000000000E+00  0.00000000000E+00 -0.19489872914E+04  0.19489872915E+04  0.50400001928E-02 0. -1.
    10030    2    1    2    0    0  0.00000000000E+00  0.00000000000E+00 -0.63356832092E+03  0.32644062620E+04  0.32023334345E+04 0.  0.
        1    1    3    3  502    0 -0.27336378863E+03  0.12090753570E+04 -0.13499101653E+04  0.18327161357E+04  0.50400001928E-02 0. -1.
       -1    1    3    3    0  502  0.27336378863E+03 -0.12090753570E+04  0.71634184435E+03  0.14316901263E+04  0.50400001928E-02 0.  1.
</event>
<event>
 5   0  0.3942564E-07  0.3187774E+04  0.7818609E-02  0.8192053E-01
        2   -1    0    0  501    0  0.00000000000E+00  0.00000000000E+00  0.14335445442E+04  0.14335445442E+04  0.25500000920E-02 0.  1.
       -2   -1    0    0    0  501  0.00000000000E+00  0.00000000000E+00 -0.17721639673E+04  0.17721639673E+04  0.25500000920E-02 0. -1.
    10030    2    1    2    0    0  0.00000000000E+00  0.00000000000E+00 -0.33861942313E+03  0.32057085115E+04  0.31877741368E+04 0.  0.
        3    1    3    3  502    0 -0.61173482980E+02  0.31842970128E+03 -0.17386457905E+04  0.17686234378E+04  0.10100000352E+00 0. -1.
       -3    1    3    3    0  502  0.61173482980E+02 -0.31842970128E+03  0.14000263674E+04  0.14370850737E+04  0.10100000352E+00 0.  1.
</event>
<event>
 5   0  0.1277374E-07  0.3201249E+04  0.7818609E-02  0.8188487E-01
       -1   -1    0    0    0  501  0.00000000000E+00  0.00000000000E+00  0.13267362837E+04  0.13267362837E+04  0.50400001928E-02 0.  1.
        1   -1    0    0  501    0  0.00000000000E+00  0.00000000000E+00 -0.19310532325E+04  0.19310532325E+04  0.50400001928E-02 0. -1.
    10030    2    1    2    0    0  0.00000000000E+00  0.00000000000E+00 -0.60431694883E+03  0.32577895162E+04  0.32012487497E+04 0.  0.
        5    1    3    3  502    0 -0.81571293415E+03 -0.13059975261E+04  0.14254841633E+03  0.15464020403E+04  0.46999998093E+01 0.  1.
       -5    1    3    3    0  502  0.81571293415E+03  0.13059975261E+04 -0.74686536516E+03  0.17113874760E+04  0.46999998093E+01 0. -1.
</event>
<event>
 5   0  0.1277374E-07  0.3201046E+04  0.7818609E-02  0.8188541E-01
        1   -1    0    0  501    0  0.00000000000E+00  0.00000000000E+00  0.21066629296E+04  0.21066629296E+04  0.50400001928E-02 0. -1.
       -1   -1    0    0    0  501  0.00000000000E+00  0.00000000000E+00 -0.12159868406E+04  0.12159868406E+04  0.50400001928E-02 0.  1.
    10030    2    1    2    0    0  0.00000000000E+00  0.00000000000E+00  0.89067608897E+03  0.33226497702E+04  0.32010463289E+04 0.  0.
        5    1    3    3  502    0  0.13813165938E+04 -0.68683795807E+03  0.88800144273E+03  0.17799861138E+04  0.46999998093E+01 0. -1.
       -5    1    3    3    0  502 -0.13813165938E+04  0.68683795807E+03  0.26746462399E+01  0.15426636564E+04  0.46999998093E+01 0.  1.
</event>
<event>
 5   0  0.1365455E-07  0.3193328E+04  0.7818609E-02  0.8190582E-01
        1   -1    0    0  501    0  0.00000000000E+00  0.00000000000E+00  0.18759093044E+04  0.18759093044E+04  0.50400001928E-02 0. -1.
       -1   -1    0    0    0  501  0.00000000000E+00  0.00000000000E+00 -0.13589865223E+04  0.13589865223E+04  0.50400001928E-02 0.  1.
    10030    2    1    2    0    0  0.00000000000E+00  0.00000000000E+00  0.51692278206E+03  0.32348958267E+04  0.31933277074E+04 0.  0.
        3    1    3    3  502    0  0.10392462820E+04  0.64542463818E+03  0.12978435038E+04  0.17835368145E+04  0.10100000352E+00 0. -1.
       -3    1    3    3    0  502 -0.10392462820E+04 -0.64542463818E+03 -0.78092072178E+03  0.14513590121E+04  0.10100000352E+00 0.  1.
</event>
<event>
 5   0  0.3764056E-07  0.3195573E+04  0.7818609E-02  0.8189987E-01
       -2   -1    0    0    0  501  0.00000000000E+00  0.00000000000E+00  0.16609061922E+04  0.16609061922E+04  0.25500000920E-02 0. -1.
        2   -1    0    0  501    0  0.00000000000E+00  0.00000000000E+00 -0.15370651477E+04  0.15370651478E+04  0.25500000920E-02 0.  1.
    10030    2    1    2    0    0  0.00000000000E+00  0.00000000000E+00  0.12384104441E+03  0.31979713399E+04  0.31955725757E+04 0.  0.
        5    1    3    3  502    0  0.19704968990E+03 -0.18694254740E+03 -0.15137844474E+04  0.15379666900E+04  0.46999998093E+01 0.  1.
       -5    1    3    3    0  502 -0.19704968990E+03  0.18694254740E+03  0.16376254918E+04  0.16600046499E+04  0.46999998093E+01 0. -1.
</event>
<event>
 5   0  0.3750285E-07  0.3201899E+04  0.7818609E-02  0.8188316E-01
       -2   -1    0    0    0  501  0.00000000000E+00  0.00000000000E+00  0.11455398342E+04  0.11455398342E+04  0.25500000920E-02 0. -1.
        2   -1    0    0  501    0  0.00000000000E+00  0.00000000000E+00 -0.22374074672E+04  0.22374074672E+04  0.25500000920E-02 0.  1.
    10030    2    1    2    0    0  0.00000000000E+00  0.00000000000E+00 -0.10918676330E+04  0.33829473014E+04  0.32018990484E+04 0.  0.
        1    1    3    3  502    0 -0.74413699345E+03  0.62834313945E+03  0.79653598673E+03  0.12581830328E+04  0.50400001928E-02 0. -1.
       -1    1    3    3    0  502  0.74413699345E+03 -0.62834313945E+03 -0.18884036197E+04  0.21247642686E+04  0.50400001928E-02 0.  1.
</event>
<event>
 5   0  0.3750285E-07  0.3196520E+04  0.7818609E-02  0.8189737E-01
        2   -1    0    0  501    0  0.00000000000E+00  0.00000000000E+00  0.21817016275E+04  0.21817016275E+04  0.25500000920E-02 0.  1.
       -2   -1    0    0    0  501  0.00000000000E+00  0.00000000000E+00 -0.11708455737E+04  0.11708455737E+04  0.25500000920E-02 0. -1.
    10030    2    1    2    0    0  0.00000000000E+00  0.00000000000E+00  0.10108560538E+04  0.33525472012E+04  0.31965204167E+04 0.  0.
        1    1    3    3  502    0  0.27030657498E+03 -0.79605931750E+03 -0.92020714475E+03  0.12464177754E+04  0.50400001928E-02 0. -1.
       -1    1    3    3    0  502 -0.27030657498E+03  0.79605931750E+03  0.19310631986E+04  0.21061294258E+04  0.50400001928E-02 0.  1.
</event>
<event>
 5   0  0.1288096E-07  0.3202743E+04  0.7818609E-02  0.8188093E-01
       -1   -1    0    0    0  501  0.00000000000E+00  0.00000000000E+00  0.14360620644E+04  0.14360620644E+04  0.50400001928E-02 0.  1.
        1   -1    0    0  501    0  0.00000000000E+00  0.00000000000E+00 -0.17857101490E+04  0.17857101490E+04  0.50400001928E-02 0. -1.
    10030    2    1    2    0    0  0.00000000000E+00  0.00000000000E+00 -0.34964808457E+03  0.32217722134E+04  0.32027429513E+04 0.  0.
        2    1    3    3  502    0  0.10077620271E+04 -0.87685924008E+03  0.71355629569E+03  0.15144731815E+04  0.25500000920E-02 0.  1.
       -2    1    3    3    0  502 -0.10077620271E+04  0.87685924008E+03 -0.10632043803E+04  0.17072990319E+04  0.25500000920E-02 0. -1.
</event>
<event>
 5   0  0.1288096E-07  0.3202537E+04  0.7818609E-02  0.8188147E-01
        1   -1    0    0  501    0  0.00000000000E+00  0.00000000000E+00  0.18402118045E+04  0.18402118045E+04  0.50400001928E-02 0. -1.
       -1   -1    0    0    0  501  0.00000000000E+00  0.00000000000E+00 -0.13933511192E+04  0.13933511192E+04  0.50400001928E-02 0.  1.
    10030    2    1    2    0    0  0.00000000000E+00  0.00000000000E+00  0.44686068531E+03  0.32335629237E+04  0.32025372300E+04 0.  0.
        2    1    3    3  502    0  0.14294387786E+04 -0.60138796798E+03  0.62616604163E+03  0.16724373296E+04  0.25500000920E-02 0. -1.
       -2    1    3    3    0  502 -0.14294387786E+04  0.60138796798E+03 -0.17930535632E+03  0.15611255941E+04  0.25500000920E-02 0.  1.
</event>
<event>
 5   0  0.3858721E-07  0.3195021E+04  0.7818609E-02  0.8190133E-01
        2   -1    0    0  501    0  0.00000000000E+00  0.00000000000E+00  0.14193371474E+04  0.14193371474E+04  0.25500000920E-02 0.  1.
       -2   -1    0    0    0  501  0.00000000000E+00  0.00000000000E+00 -0.17980508985E+04  0.17980508985E+04  0.25500000920E-02 0. -1.
    10030    2    1    2    0    0  0.00000000000E+00  0.00000000000E+00 -0.37871375111E+03  0.32173880460E+04  0.31950213979E+04 0.  0.
        2    1    3    3  502    0 -0.14262887926E+04  0.64663245239E+03  0.12845857448E+03  0.15712844598E+04  0.25500000920E-02 0.  1.
       -2    1    3    3    0  502  0.14262887926E+04 -0.64663245239E+03 -0.50717232559E+03  0.16461035861E+04  0.25500000920E-02 0. -1.
</event>
<event>
 5   0  0.1277374E-07  0.3212611E+04  0.7818609E-02  0.8185494E-01
       -1   -1    0    0    0  501  0.00000000000E+00  0.00000000000E+00  0.11442667230E+04  0.11442667230E+04  0.50400001928E-02 0. -1.
        1   -1    0    0  501    0  0.00000000000E+00  0.00000000000E+00 -0.22549094115E+04  0.22549094115E+04  0.50400001928E-02 0.  1.
    10030    2    1    2    0    0  0.00000000000E+00  0.00000000000E+00 -0.11106426885E+04  0.33991761344E+04  0.32126112761E+04 0.  0.
        5    1    3    3  502    0 -0.11468292464E+04 -0.21661234508E+02 -0.17451282448E+04  0.20883441312E+04  0.46999998093E+01 0.  1.
       -5    1    3    3    0  502  0.11468292464E+04  0.21661234508E+02  0.63448555633E+03  0.13108320032E+04  0.46999998093E+01 0. -1.
</event>
<event>
 5   0  0.1270948E-07  0.3206071E+04  0.7818609E-02  0.8187216E-01
       -1   -1    0    0    0  501  0.00000000000E+00  0.00000000000E+00  0.12647167998E+04  0.12647167998E+04  0.50400001928E-02 0. -1.
        1   -1    0    0  501    0  0.00000000000E+00  0.00000000000E+00 -0.20318563079E+04  0.20318563079E+04  0.50400001928E-02 0.  1.
    10030    2    1    2    0    0  0.00000000000E+00  0.00000000000E+00 -0.76713950808E+03  0.32965731077E+04  0.32060709958E+04 0.  0.
        4    1    3    3  502    0 -0.10001288168E+04 -0.12405272499E+04 -0.20383353590E+03  0.16064604668E+04  0.12699999809E+01 0. -1.
       -4    1    3    3    0  502  0.10001288168E+04  0.12405272499E+04 -0.56330597218E+03  0.16901126410E+04  0.12699999809E+01 0.  1.
</event>
<event>
 5   0  0.1365455E-07  0.3194994E+04  0.7818609E-02  0.8190141E-01
        1   -1    0    0  501    0  0.00000000000E+00  0.00000000000E+00  0.15151764731E+04  0.15151764731E+04  0.50400001928E-02 0. -1.
       -1   -1    0    0    0  501  0.00000000000E+00  0.00000000000E+00 -0.16842897279E+04  0.16842897279E+04  0.50400001928E-02 0.  1.
    10030    2    1    2    0    0  0.00000000000E+00  0.00000000000E+00 -0.16911325483E+03  0.31994662010E+04  0.31949936899E+04 0.  0.
        3    1    3    3  502    0 -0.14706803728E+04  0.59983838950E+03  0.86824134655E+02  0.15906744774E+04  0.10100000352E+00 0. -1.
       -3    1    3    3    0  502  0.14706803728E+04 -0.59983838950E+03 -0.25593738949E+03  0.16087917236E+04  0.10100000352E+00 0.  1.
</event>
<event>
 5   0  0.1277374E-07  0.3164626E+04  0.7818609E-02  0.8198222E-01
       -1   -1    0    0    0  501  0.00000000000E+00  0.00000000000E+00  0.15101124317E+04  0.15101124317E+04  0.50400001928E-02 0.  1.
        1   -1    0    0  501    0  0.00000000000E+00  0.00000000000E+00 -0.16579654415E+04  0.16579654415E+04  0.50400001928E-02 0. -1.
    10030    2    1    2    0    0  0.00000000000E+00  0.00000000000E+00 -0.14785300987E+03  0.31680778732E+04  0.31646258702E+04 0.  0.
        5    1    3    3  502    0  0.10067368039E+04  0.12938135010E+02 -0.12959159254E+04  0.16410687260E+04  0.46999998093E+01 0. -1.
       -5    1    3    3    0  502 -0.10067368039E+04 -0.12938135010E+02  0.11480629156E+04  0.15270091472E+04  0.46999998093E+01 0.  1.
</event>
<event>
 5   0  0.3858721E-07  0.3211451E+04  0.7818609E-02  0.8185800E-01
        2   -1    0    0  501    0  0.00000000000E+00  0.00000000000E+00  0.26525123536E+04  0.26525123536E+04  0.25500000920E-02 0.  1.
       -2   -1    0    0    0  501  0.00000000000E+00  0.00000000000E+00 -0.97204239293E+03  0.97204239293E+03  0.25500000920E-02 0. -1.
    10030    2    1    2    0    0  0.00000000000E+00  0.00000000000E+00  0.16804699607E+04  0.36245547466E+04  0.32114510462E+04 0.  0.
        2    1    3    3  502    0  0.17578360018E+03  0.62502974048E+03 -0.81728026039E+03  0.10437955138E+04  0.25500000920E-02 0. -1.
       -2    1    3    3    0  502 -0.17578360018E+03 -0.62502974048E+03  0.24977502211E+04  0.25807592328E+04  0.25500000920E-02 0.  1.
</event>
<event>
 5   0  0.3858721E-07  0.3200508E+04  0.7818609E-02  0.8188683E-01
        2   -1    0    0  501    0  0.00000000000E+00  0.00000000000E+00  0.14276668003E+04  0.14276668003E+04  0.25500000920E-02 0.  1.
       -2   -1    0    0    0  501  0.00000000000E+00  0.00000000000E+00 -0.17937044447E+04  0.17937044447E+04  0.25500000920E-02 0. -1.
    10030    2    1    2    0    0  0.00000000000E+00  0.00000000000E+00 -0.36603764443E+03  0.32213712451E+04  0.32005076381E+04 0.  0.
        2    1    3    3  502    0 -0.77458479346E+03  0.87077977433E+03 -0.12867865261E+04  0.17361044270E+04  0.25500000920E-02 0. -1.
       -2    1    3    3    0  502  0.77458479346E+03 -0.87077977433E+03  0.92074888170E+03  0.14852668180E+04  0.25500000920E-02 0.  1.
</event>
<event>
 5   0  0.1270948E-07  0.3199213E+04  0.7818609E-02  0.8189025E-01
       -1   -1    0    0    0  501  0.00000000000E+00  0.00000000000E+00  0.18127752979E+04  0.18127752979E+04  0.50400001928E-02 0.  1.
        1   -1    0    0  501    0  0.00000000000E+00  0.00000000000E+00 -0.14115049605E+04  0.14115049605E+04  0.50400001928E-02 0. -1.
    10030    2    1    2    0    0  0.00000000000E+00  0.00000000000E+00  0.40127033737E+03  0.32242802584E+04  0.31992132316E+04 0.  0.
        4    1    3    3  502    0 -0.68707627474E+03 -0.93250528025E+03 -0.91123145516E+03  0.14737653418E+04  0.12699999809E+01 0. -1.
       -4    1    3    3    0  502  0.68707627474E+03  0.93250528025E+03  0.13125017925E+04  0.17505149166E+04  0.12699999809E+01 0.  1.
</event>
<event>
 5   0  0.1317293E-07  0.3188482E+04  0.7818609E-02  0.8191866E-01
        1   -1    0    0  501    0  0.00000000000E+00  0.00000000000E+00  0.14271646552E+04  0.14271646552E+04  0.50400001928E-02 0.  1.
       -1   -1    0    0    0  501  0.00000000000E+00  0.00000000000E+00 -0.17808763937E+04  0.17808763937E+04  0.50400001928E-02 0. -1.
    10030    2    1    2    0    0  0.00000000000E+00  0.00000000000E+00 -0.35371173858E+03  0.32080410489E+04  0.31884816727E+04 0.  0.
        1    1    3    3  502    0 -0.58827697199E+03  0.11868598677E+04 -0.10693700610E+04  0.17024272286E+04  0.50400001928E-02 0. -1.
       -1    1    3    3    0  502  0.58827697199E+03 -0.11868598677E+04  0.71565832246E+03  0.15056138203E+04  0.50400001928E-02 0.  1.
</event>
<event>
 5   0  0.1317293E-07  0.3201989E+04  0.7818609E-02  0.8188292E-01
       -1   -1    0    0    0  501  0.00000000000E+00  0.00000000000E+00  0.17436017929E+04  0.17436017929E+04  0.50400001928E-02 0. -1.
        1   -1    0    0  501    0  0.00000000000E+00  0.00000000000E+00 -0.14700507614E+04  0.14700507614E+04  0.50400001928E-02 0.  1.
    10030    2    1    2    0    0  0.00000000000E+00  0.00000000000E+00  0.27355103142E+03  0.32136525543E+04  0.32019888465E+04 0.  0.
        1    1    3    3  502    0  0.10852204363E+04  0.10080798090E+04  0.74665244970E+03  0.16587399366E+04  0.50400001928E-02 0. -1.
       -1    1    3    3    0  502 -0.10852204363E+04 -0.10080798090E+04 -0.47310141827E+03  0.15549126177E+04  0.50400001928E-02 0.  1.
</event>
<event>
 5   0  0.1277374E-07  0.3199539E+04  0.7818609E-02  0.8188939E-01
       -1   -1    0    0    0  501  0.00000000000E+00  0.00000000000E+00  0.11788566058E+04  0.11788566059E+04  0.50400001928E-02 0.  1.
        1   -1    0    0  501    0  0.00000000000E+00  0.00000000000E+00 -0.21709701799E+04  0.21709701800E+04  0.50400001928E-02 0. -1.
    10030    2    1    2    0    0  0.00000000000E+00  0.00000000000E+00 -0.99211357410E+03  0.33498267858E+04  0.31995390529E+04 0.  0.
        5    1    3    3  502    0  0.42688748984E+03 -0.57882071575E+03  0.10000412389E+04  0.12318161062E+04  0.46999998093E+01 0.  1.
       -5    1    3    3    0  502 -0.42688748984E+03  0.57882071575E+03 -0.19921548130E+04  0.21180106796E+04  0.46999998093E+01 0. -1.
</event>
<event>
 5   0  0.3750285E-07  0.3197068E+04  0.7818609E-02  0.8189592E-01
       -2   -1    0    0    0  501  0.00000000000E+00  0.00000000000E+00  0.23676867295E+04  0.23676867295E+04  0.25500000920E-02 0.  1.
        2   -1    0    0  501    0  0.00000000000E+00  0.00000000000E+00 -0.10792434103E+04  0.10792434103E+04  0.25500000920E-02 0. -1.
    10030    2    1    2    0    0  0.00000000000E+00  0.00000000000E+00  0.12884433192E+04  0.34469301398E+04  0.31970675942E+04 0.  0.
        1    1    3    3  502    0  0.12090749022E+04  0.64130109524E+03  0.15347146398E+04  0.20563263942E+04  0.50400001928E-02 0.  1.
       -1    1    3    3    0  502 -0.12090749022E+04 -0.64130109524E+03 -0.24627132063E+03  0.13906037456E+04  0.50400001928E-02 0. -1.
</event>
<event>
 5   0  0.3942564E-07  0.3175293E+04  0.7818609E-02  0.8195373E-01
       -2   -1    0    0    0  501  0.00000000000E+00  0.00000000000E+00  0.99735171536E+03  0.99735171537E+03  0.25500000920E-02 0. -1.
        2   -1    0    0  501    0  0.00000000000E+00  0.00000000000E+00 -0.25273138820E+04  0.25273138820E+04  0.25500000920E-02 0.  1.
    10030    2    1    2    0    0  0.00000000000E+00  0.00000000000E+00 -0.15299621666E+04  0.35246655973E+04  0.31752926388E+04 0.  0.
        3    1    3    3  502    0  0.14140066866E+04  0.33382188238E+03 -0.54416361037E+02  0.14538958386E+04  0.10100000352E+00 0. -1.
       -3    1    3    3    0  502 -0.14140066866E+04 -0.33382188238E+03 -0.14755458056E+04  0.20707697587E+04  0.10100000352E+00 0.  1.
</event>
<event>
 5   0  0.3750285E-07  0.3200664E+04  0.7818609E-02  0.8188642E-01
       -2   -1    0    0    0  501  0.00000000000E+00  0.00000000000E+00  0.13267376210E+04  0.13267376210E+04  0.25500000920E-02 0. -1.
        2   -1    0    0  501    0  0.00000000000E+00  0.00000000000E+00 -0.19303462663E+04  0.19303462663E+04  0.25500000920E-02 0.  1.
    10030    2    1    2    0    0  0.00000000000E+00  0.00000000000E+00 -0.60360864530E+03  0.32570838872E+04  0.32006643141E+04 0.  0.
        1    1    3    3  502    0  0.15796573338E+04 -0.25627396289E+03 -0.29332822999E+03  0.16269711389E+04  0.50400001928E-02 0.  1.
       -1    1    3    3    0  502 -0.15796573338E+04  0.25627396289E+03 -0.31028041530E+03  0.16301127484E+04  0.50400001928E-02 0. -1.
</event>
<event>
 5   0  0.3942564E-07  0.3221038E+04  0.7818609E-02  0.8183283E-01
        2   -1    0    0  501    0  0.00000000000E+00  0.00000000000E+00  0.19451237079E+04  0.19451237079E+04  0.25500000920E-02 0.  1.
       -2   -1    0    0    0  501  0.00000000000E+00  0.00000000000E+00 -0.13334734429E+04  0.13334734429E+04  0.25500000920E-02 0. -1.
    10030    2    1    2    0    0  0.00000000000E+00  0.00000000000E+00  0.61165026493E+03  0.32785971508E+04  0.32210376016E+04 0.  0.
        3    1    3    3  502    0  0.23557281212E+03  0.48950662739E+03  0.18490513235E+04  0.19272005851E+04  0.10100000352E+00 0.  1.
       -3    1    3    3    0  502 -0.23557281212E+03 -0.48950662739E+03 -0.12374010585E+04  0.13513965657E+04  0.10100000352E+00 0. -1.
</event>
<event>
 5   0  0.3764056E-07  0.3175963E+04  0.7818609E-02  0.8195194E-01
       -2   -1    0    0    0  501  0.00000000000E+00  0.00000000000E+00  0.11030353824E+04  0.11030353824E+04  0.25500000920E-02 0. -1.
        2   -1    0    0  501    0  0.00000000000E+00  0.00000000000E+00 -0.22861333036E+04  0.22861333036E+04  0.25500000920E-02 0.  1.
    10030    2    1    2    0    0  0.00000000000E+00  0.00000000000E+00 -0.11830979212E+04  0.33891686859E+04  0.31759634272E+04 0.  0.
        5    1    3    3  502    0 -0.10747724329E+04  0.59682597306E+02  0.65428512707E+03  0.12596860373E+04  0.46999998093E+01 0. -1.
       -5    1    3    3    0  502  0.10747724329E+04 -0.59682597306E+02 -0.18373830483E+04  0.21294826487E+04  0.46999998093E+01 0.  1.
</event>
<event>
 5   0  0.1288096E-07  0.3196719E+04  0.7818609E-02  0.8189684E-01
       -1   -1    0    0    0  501  0.00000000000E+00  0.00000000000E+00  0.13715417896E+04  0.13715417896E+04  0.50400001928E-02 0.  1.
        1   -1    0    0  501    0  0.00000000000E+00  0.00000000000E+00 -0.18626870851E+04  0.18626870851E+04  0.50400001928E-02 0. -1.
    10030    2    1    2    0    0  0.00000000000E+00  0.00000000000E+00 -0.49114529558E+03  0.32342288747E+04  0.31967190544E+04 0.  0.
        2    1    3    3  502    0  0.13079860011E+04 -0.77952426218E+03  0.24620465305E+03  0.15424338513E+04  0.25500000920E-02 0. -1.
       -2    1    3    3    0  502 -0.13079860011E+04  0.77952426218E+03 -0.73734994863E+03  0.16917950234E+04  0.25500000920E-02 0.  1.
</event>
<event>
 5   0  0.1365455E-07  0.3201983E+04  0.7818609E-02  0.8188294E-01
       -1   -1    0    0    0  501  0.00000000000E+00  0.00000000000E+00  0.14431950507E+04  0.14431950507E+04  0.50400001928E-02 0.  1.
        1   -1    0    0  501    0  0.00000000000E+00  0.00000000000E+00 -0.17760410401E+04  0.17760410401E+04  0.50400001928E-02 0. -1.
    10030    2    1    2    0    0  0.00000000000E+00  0.00000000000E+00 -0.33284598940E+03  0.32192360908E+04  0.32019829099E+04 0.  0.
        3    1    3    3  502    0 -0.24900501295E+03 -0.67626524736E+03  0.12709079703E+04  0.14610083027E+04  0.10100000352E+00 0.  1.
       -3    1    3    3    0  502  0.24900501295E+03  0.67626524736E+03 -0.16037539597E+04  0.17582277881E+04  0.10100000352E+00 0. -1.
</event>
<event>
 5   0  0.3750285E-07  0.3204505E+04  0.7818609E-02  0.8187628E-01
        2   -1    0    0  501    0  0.00000000000E+00  0.00000000000E+00  0.23253465621E+04  0.23253465621E+04  0.25500000920E-02 0.  1.
       -2   -1    0    0    0  501  0.00000000000E+00  0.00000000000E+00 -0.11040133276E+04  0.11040133276E+04  0.25500000920E-02 0. -1.
    10030    2    1    2    0    0  0.00000000000E+00  0.00000000000E+00  0.12213332345E+04  0.34293598897E+04  0.32045053259E+04 0.  0.
        1    1    3    3  502    0 -0.17566191200E+03 -0.19769115677E+03 -0.10804954331E+04  0.11123889975E+04  0.50400001928E-02 0. -1.
       -1    1    3    3    0  502  0.17566191200E+03  0.19769115677E+03  0.23018286675E+04  0.23169708922E+04  0.50400001928E-02 0.  1.
</event>
<event>
 5   0  0.1365455E-07  0.3185807E+04  0.7818609E-02  0.8192576E-01
       -1   -1    0    0    0  501  0.00000000000E+00  0.00000000000E+00  0.15483994432E+04  0.15483994432E+04  0.50400001928E-02 0. -1.
        1   -1    0    0  501    0  0.00000000000E+00  0.00000000000E+00 -0.16386868968E+04  0.16386868968E+04  0.50400001928E-02 0.  1.
    10030    2    1    2    0    0  0.00000000000E+00  0.00000000000E+00 -0.90287453608E+02  0.31870863401E+04  0.31858071999E+04 0.  0.
        3    1    3    3  502    0 -0.11381166952E+04 -0.11142773947E+04 -0.24686940132E+02  0.15929636466E+04  0.10100000352E+00 0.  1.
       -3    1    3    3    0  502  0.11381166952E+04  0.11142773947E+04 -0.65600513476E+02  0.15941226935E+04  0.10100000352E+00 0. -1.
</event>
<event>
 5   0  0.1288096E-07  0.3199194E+04  0.7818609E-02  0.8189030E-01
       -1   -1    0    0    0  501  0.00000000000E+00  0.00000000000E+00  0.13828510400E+04  0.13828510400E+04  0.50400001928E-02 0.  1.
        1   -1    0    0  501    0  0.00000000000E+00  0.00000000000E+00 -0.18503152906E+04  0.18503152906E+04  0.50400001928E-02 0. -1.
    10030    2    1    2    0    0  0.00000000000E+00  0.00000000000E+00 -0.46746425059E+03  0.32331663306E+04  0.31991939135E+04 0.  0.
        2    1    3    3  502    0 -0.54151406280E+03 -0.15045081357E+04 -0.27810985012E+03  0.16229994761E+04  0.25500000920E-02 0. -1.
       -2    1    3    3    0  502  0.54151406280E+03  0.15045081357E+04 -0.18935440047E+03  0.16101668546E+04  0.25500000920E-02 0.  1.
</event>
<event>
 5   0  0.1270948E-07  0.3199497E+04  0.7818609E-02  0.8188950E-01
       -1   -1    0    0    0  501  0.00000000000E+00  0.00000000000E+00  0.17324283220E+04  0.17324283220E+04  0.50400001928E-02 0.  1.
        1   -1    0    0  501    0  0.00000000000E+00  0.00000000000E+00 -0.14772298681E+04  0.14772298682E+04  0.50400001928E-02 0. -1.
    10030    2    1    2    0    0  0.00000000000E+00  0.00000000000E+00  0.25519845384E+03  0.32096581902E+04  0.31994967490E+04 0.  0.
        4    1    3    3  502    0 -0.36119388204E+03  0.36058009411E+03 -0.13933671148E+04  0.14838977573E+04  0.12699999809E+01 0. -1.
       -4    1    3    3    0  502  0.36119388204E+03 -0.36058009411E+03  0.16485655686E+04  0.17257604329E+04  0.12699999809E+01 0.  1.
</event>
<event>
 5   0  0.3830207E-07  0.3197651E+04  0.7818609E-02  0.8189438E-01
        2   -1    0    0  501    0  0.00000000000E+00  0.00000000000E+00  0.28067168834E+04  0.28067168834E+04  0.25500000920E-02 0.  1.
       -2   -1    0    0    0  501  0.00000000000E+00  0.00000000000E+00 -0.91075930298E+03  0.91075930298E+03  0.25500000920E-02 0. -1.
    10030    2    1    2    0    0  0.00000000000E+00  0.00000000000E+00  0.18959575805E+04  0.37174761864E+04  0.31976513334E+04 0.  0.
        4    1    3    3  502    0 -0.13247292298E+04  0.88512382731E+03  0.79248093134E+03  0.17794323144E+04  0.12699999809E+01 0. -1.
       -4    1    3    3    0  502  0.13247292298E+04 -0.88512382731E+03  0.11034766491E+04  0.19380438721E+04  0.12699999809E+01 0.  1.
</event>
<event>
 5   0  0.1277374E-07  0.3202342E+04  0.7818609E-02  0.8188199E-01
       -1   -1    0    0    0  501  0.00000000000E+00  0.00000000000E+00  0.94971775277E+03  0.94971775278E+03  0.50400001928E-02 0.  1.
        1   -1    0    0  501    0  0.00000000000E+00  0.00000000000E+00 -0.26994842553E+04  0.26994842553E+04  0.50400001928E-02 0. -1.
    10030    2    1    2    0    0  0.00000000000E+00  0.00000000000E+00 -0.17497665026E+04  0.36492020081E+04  0.32023417186E+04 0.  0.
        5    1    3    3  502    0 -0.12341130715E+04  0.10115205942E+04 -0.72406265511E+03  0.17522835970E+04  0.46999998093E+01 0.  1.
       -5    1    3    3    0  502  0.12341130715E+04 -0.10115205942E+04 -0.10257038475E+04  0.18969184111E+04  0.46999998093E+01 0. -1.
</event>
<event>
 5   0  0.1277374E-07  0.3178806E+04  0.7818609E-02  0.8194437E-01
        1   -1    0    0  501    0  0.00000000000E+00  0.00000000000E+00  0.18352217039E+04  0.18352217039E+04  0.50400001928E-02 0.  1.
       -1   -1    0    0    0  501  0.00000000000E+00  0.00000000000E+00 -0.13765105824E+04  0.13765105824E+04  0.50400001928E-02 0. -1.
    10030    2    1    2    0    0  0.00000000000E+00  0.00000000000E+00  0.45871112158E+03  0.32117322863E+04  0.31788061259E+04 0.  0.
        5    1    3    3  502    0 -0.33334424093E+03 -0.12905054355E+04 -0.64544025342E+03  0.14809246682E+04  0.46999998093E+01 0. -1.
       -5    1    3    3    0  502  0.33334424093E+03  0.12905054355E+04  0.11041513750E+04  0.17308076181E+04  0.46999998093E+01 0.  1.
</event>
<event>
 5   0  0.1277374E-07  0.3200597E+04  0.7818609E-02  0.8188660E-01
       -1   -1    0    0    0  501  0.00000000000E+00  0.00000000000E+00  0.10844303273E+04  0.10844303273E+04  0.50400001928E-02 0. -1.
        1   -1    0    0  501    0  0.00000000000E+00  0.00000000000E+00 -0.23615673613E+04  0.23615673613E+04  0.50400001928E-02 0.  1.
    10030    2    1    2    0    0  0.00000000000E+00  0.00000000000E+00 -0.12771370340E+04  0.34459976886E+04  0.32005969859E+04 0.  0.
        5    1    3    3  502    0 -0.12238571011E+04 -0.63655879996E+03  0.23473234562E+03  0.13993407997E+04  0.46999998093E+01 0. -1.
       -5    1    3    3    0  502  0.12238571011E+04  0.63655879996E+03 -0.15118693796E+04  0.20466568889E+04  0.46999998093E+01 0.  1.
</event>
<event>
 5   0  0.3764056E-07  0.3196387E+04  0.7818609E-02  0.8189772E-01
       -2   -1    0    0    0  501  0.00000000000E+00  0.00000000000E+00  0.96053256286E+03  0.96053256286E+03  0.25500000920E-02 0. -1.
        2   -1    0    0  501    0  0.00000000000E+00  0.00000000000E+00 -0.26591730416E+04  0.26591730416E+04  0.25500000920E-02 0.  1.
    10030    2    1    2    0    0  0.00000000000E+00  0.00000000000E+00 -0.16986404787E+04  0.36197056045E+04  0.31963868957E+04 0.  0.
        5    1    3    3  502    0  0.11440482400E+04 -0.38037620351E+03  0.33874977388E+03  0.12523202190E+04  0.46999998093E+01 0. -1.
       -5    1    3    3    0  502 -0.11440482400E+04  0.38037620351E+03 -0.20373902526E+04  0.23673853854E+04  0.46999998093E+01 0.  1.
</event>
<event>
 5   0  0.3750285E-07  0.3199745E+04  0.7818609E-02  0.8188884E-01
        2   -1    0    0  501    0  0.00000000000E+00  0.00000000000E+00  0.12623218683E+04  0.12623218683E+04  0.25500000920E-02 0.  1.
       -2   -1    0    0    0  501  0.00000000000E+00  0.00000000000E+00 -0.20276859455E+04  0.20276859455E+04  0.25500000920E-02 0. -1.
    10030    2    1    2    0    0  0.00000000000E+00  0.00000000000E+00 -0.76536407723E+03  0.32900078138E+04  0.31997451843E+04 0.  0.
        1    1    3    3  502    0 -0.14933546432E+03  0.35754063033E+03  0.12133478819E+04  0.12737148291E+04  0.50400001928E-02 0.  1.
       -1    1    3    3    0  502  0.14933546432E+03 -0.35754063033E+03 -0.19787119591E+04  0.20162929848E+04  0.50400001928E-02 0. -1.
</event>
<event>
 5   0  0.1288096E-07  0.3202096E+04  0.7818609E-02  0.8188264E-01
        1   -1    0    0  501    0  0.00000000000E+00  0.00000000000E+00  0.20515349926E+04  0.20515349926E+04  0.50400001928E-02 0.  1.
       -1   -1    0    0    0  501  0.00000000000E+00  0.00000000000E+00 -0.12494817042E+04  0.12494817042E+04  0.50400001928E-02 0. -1.
    10030    2    1    2    0    0  0.00000000000E+00  0.00000000000E+00  0.80205328847E+03  0.33010166968E+04  0.32020964625E+04 0.  0.
        2    1    3    3  502    0 -0.66302358695E+03  0.14327559092E+04  0.67564998990E+03  0.17172340204E+04  0.25500000920E-02 0.  1.
       -2    1    3    3    0  502  0.66302358695E+03 -0.14327559092E+04  0.12640329857E+03  0.15837826764E+04  0.25500000920E-02 0. -1.
</event>
<event>
 5   0  0.1288096E-07  0.3199986E+04  0.7818609E-02  0.8188821E-01
       -1   -1    0    0    0  501  0.00000000000E+00  0.00000000000E+00  0.18308959928E+04  0.18308959928E+04  0.50400001928E-02 0. -1.
        1   -1    0    0  501    0  0.00000000000E+00  0.00000000000E+00 -0.13982100699E+04  0.13982100699E+04  0.50400001928E-02 0.  1.
    10030    2    1    2    0    0  0.00000000000E+00  0.00000000000E+00  0.43268592298E+03  0.32291060627E+04  0.31999857588E+04 0.  0.
        2    1    3    3  502    0  0.13708340611E+04  0.36739349821E+03  0.96185778818E+03  0.17144487191E+04  0.25500000920E-02 0. -1.
       -2    1    3    3    0  502 -0.13708340611E+04 -0.36739349821E+03 -0.52917186520E+03  0.15146573436E+04  0.25500000920E-02 0.  1.
</event>
<event>
 5   0  0.3750285E-07  0.3192138E+04  0.7818609E-02  0.8190897E-01
       -2   -1    0    0    0  501  0.00000000000E+00  0.00000000000E+00  0.12695589134E+04  0.12695589134E+04  0.25500000920E-02 0. -1.
        2   -1    0    0  501    0  0.00000000000E+00  0.00000000000E+00 -0.20065516439E+04  0.20065516439E+04  0.25500000920E-02 0.  1.
    10030    2    1    2    0    0  0.00000000000E+00  0.00000000000E+00 -0.73699273043E+03  0.32761105573E+04  0.31921375439E+04 0.  0.
        1    1    3    3  502    0  0.44430922112E+03 -0.15327701578E+04 -0.39446990362E+03  0.16438982771E+04  0.50400001928E-02 0.  1.
       -1    1    3    3    0  502 -0.44430922112E+03  0.15327701578E+04 -0.34252282681E+03  0.16322122802E+04  0.50400001928E-02 0. -1.
</event>
<event>
 5   0  0.3750285E-07  0.3201344E+04  0.7818609E-02  0.8188462E-01
       -2   -1    0    0    0  501  0.00000000000E+00  0.00000000000E+00  0.14046981524E+04  0.14046981524E+04  0.25500000920E-02 0. -1.
        2   -1    0    0  501    0  0.00000000000E+00  0.00000000000E+00 -0.18239872877E+04  0.18239872877E+04  0.25500000920E-02 0.  1.
    10030    2    1    2    0    0  0.00000000000E+00  0.00000000000E+00 -0.41928913531E+03  0.32286854402E+04  0.32013444508E+04 0.  0.
        1    1    3    3  502    0  0.13351056676E+03 -0.15573607365E+03 -0.18106760499E+04  0.18222586407E+04  0.50400001928E-02 0.  1.
       -1    1    3    3    0  502 -0.13351056676E+03  0.15573607365E+03  0.13913869146E+04  0.14064267994E+04  0.50400001928E-02 0. -1.
</event>
<event>
 5   0  0.3942564E-07  0.3198684E+04  0.7818609E-02  0.8189165E-01
        2   -1    0    0  501    0  0.00000000000E+00  0.00000000000E+00  0.22135874628E+04  0.22135874628E+04  0.25500000920E-02 0.  1.
       -2   -1    0    0    0  501  0.00000000000E+00  0.00000000000E+00 -0.11555425086E+04  0.11555425086E+04  0.25500000920E-02 0. -1.
    10030    2    1    2    0    0  0.00000000000E+00  0.00000000000E+00  0.10580449542E+04  0.33691299714E+04  0.31986837354E+04 0.  0.
        3    1    3    3  502    0  0.32470778746E+03  0.13441120116E+04 -0.31743068552E+03  0.14187439858E+04  0.10100000352E+00 0. -1.
       -3    1    3    3    0  502 -0.32470778746E+03 -0.13441120116E+04  0.13754756397E+04  0.19503859855E+04  0.10100000352E+00 0.  1.
</event>
<event>
 5   0  0.1270948E-07  0.3193553E+04  0.7818609E-02  0.8190522E-01
        1   -1    0    0  501    0  0.00000000000E+00  0.00000000000E+00  0.16931127439E+04  0.16931127439E+04  0.50400001928E-02 0. -1.
       -1   -1    0    0    0  501  0.00000000000E+00  0.00000000000E+00 -0.15059217341E+04  0.15059217341E+04  0.50400001928E-02 0.  1.
    10030    2    1    2    0    0  0.00000000000E+00  0.00000000000E+00  0.18719100988E+03  0.31990344780E+04  0.31935530553E+04 0.  0.
        4    1    3    3  502    0 -0.50364908500E+03  0.10643744369E+03  0.16077130713E+04  0.16881155952E+04  0.12699999809E+01 0. -1.
       -4    1    3    3    0  502  0.50364908500E+03 -0.10643744369E+03 -0.14205220615E+04  0.15109188828E+04  0.12699999809E+01 0.  1.
</event>
<event>
 5   0  0.1270948E-07  0.3201578E+04  0.7818609E-02  0.8188401E-01
       -1   -1    0    0    0  501  0.00000000000E+00  0.00000000000E+00  0.12516072244E+04  0.12516072244E+04  0.50400001928E-02 0.  1.
        1   -1    0    0  501    0  0.00000000000E+00  0.00000000000E+00 -0.20473879511E+04  0.20473879511E+04  0.50400001928E-02 0. -1.
    10030    2    1    2    0    0  0.00000000000E+00  0.00000000000E+00 -0.79578072669E+03  0.32989951754E+04  0.32015780800E+04 0.  0.
        4    1    3    3  502    0 -0.11406821486E+04 -0.10030864323E+03 -0.15505455445E+04  0.19275400609E+04  0.12699999809E+01 0. -1.
       -4    1    3    3    0  502  0.11406821486E+04  0.10030864323E+03  0.75476481783E+03  0.13714551145E+04  0.12699999809E+01 0.  1.
</event>
<event>
 5   0  0.1317293E-07  0.3200763E+04  0.7818609E-02  0.8188616E-01
       -1   -1    0    0    0  501  0.00000000000E+00  0.00000000000E+00  0.12178742898E+04  0.12178742898E+04  0.50400001928E-02 0.  1.
        1   -1    0    0  501    0  0.00000000000E+00  0.00000000000E+00 -0.21030252409E+04  0.21030252409E+04  0.50400001928E-02 0. -1.
    10030    2    1    2    0    0  0.00000000000E+00  0.00000000000E+00 -0.88515095111E+03  0.33208995307E+04  0.32007626415E+04 0.  0.
        1    1    3    3  502    0  0.10075024741E+04 -0.65962557664E+03  0.65105272750E+03  0.13689546343E+04  0.50400001928E-02 0.  1.
       -1    1    3    3    0  502 -0.10075024741E+04  0.65962557664E+03 -0.15362036786E+04  0.19519448965E+04  0.50400001928E-02 0. -1.
</event>
<event>
 5   0  0.3764056E-07  0.3198838E+04  0.7818609E-02  0.8189124E-01
        2   -1    0    0  501    0  0.00000000000E+00  0.00000000000E+00  0.17885922643E+04  0.17885922643E+04  0.25500000920E-02 0. -1.
       -2   -1    0    0    0  501  0.00000000000E+00  0.00000000000E+00 -0.14302537833E+04  0.14302537833E+04  0.25500000920E-02 0.  1.
    10030    2    1    2    0    0  0.00000000000E+00  0.00000000000E+00  0.35833848096E+03  0.32188460476E+04  0.31988378219E+04 0.  0.
        5    1    3    3  502    0  0.15013784388E+03 -0.11576723341E+04  0.12793386149E+04  0.17318995314E+04  0.46999998093E+01 0. -1.
       -5    1    3    3    0  502 -0.15013784388E+03  0.11576723341E+04 -0.92100013394E+03  0.14869465162E+04  0.46999998093E+01 0.  1.
</event>
<event>
 5   0  0.1365455E-07  0.3198414E+04  0.7818609E-02  0.8189236E-01
       -1   -1    0    0    0  501  0.00000000000E+00  0.00000000000E+00  0.12387886085E+04  0.12387886085E+04  0.50400001928E-02 0.  1.
        1   -1    0    0  501    0  0.00000000000E+00  0.00000000000E+00 -0.20644868813E+04  0.20644868813E+04  0.50400001928E-02 0. -1.
    10030    2    1    2    0    0  0.00000000000E+00  0.00000000000E+00 -0.82569827283E+03  0.33032754898E+04  0.31984138763E+04 0.  0.
        3    1    3    3  502    0  0.11186438340E+04 -0.52956566482E+03 -0.14588008400E+04  0.19130874841E+04  0.10100000352E+00 0. -1.
       -3    1    3    3    0  502 -0.11186438340E+04  0.52956566482E+03  0.63310256717E+03  0.13901880058E+04  0.10100000352E+00 0.  1.
</event>
<event>
 5   0  0.3764056E-07  0.3200729E+04  0.7818609E-02  0.8188625E-01
        2   -1    0    0  501    0  0.00000000000E+00  0.00000000000E+00  0.20670287978E+04  0.20670287978E+04  0.25500000920E-02 0.  1.
       -2   -1    0    0    0  501  0.00000000000E+00  0.00000000000E+00 -0.12390568776E+04  0.12390568776E+04  0.25500000920E-02 0. -1.
    10030    2    1    2    0    0  0.00000000000E+00  0.00000000000E+00  0.82797192014E+03  0.33060856754E+04  0.32007288221E+04 0.  0.
        5    1    3    3  502    0  0.15130280710E+04  0.20132570116E+03  0.91081577455E+03  0.17774682688E+04  0.46999998093E+01 0.  1.
       -5    1    3    3    0  502 -0.15130280710E+04 -0.20132570116E+03 -0.82843854410E+02  0.15286174066E+04  0.46999998093E+01 0. -1.
</event>
<event>
 5   0  0.3750285E-07  0.3159943E+04  0.7818609E-02  0.8199477E-01
       -2   -1    0    0    0  501  0.00000000000E+00  0.00000000000E+00  0.19224336197E+04  0.19224336197E+04  0.25500000920E-02 0. -1.
        2   -1    0    0  501    0  0.00000000000E+00  0.00000000000E+00 -0.12985159006E+04  0.12985159006E+04  0.25500000920E-02 0.  1.
    10030    2    1    2    0    0  0.00000000000E+00  0.00000000000E+00  0.62391771916E+03  0.32209495203E+04  0.31599434317E+04 0.  0.
        1    1    3    3  502    0  0.86669607377E+03 -0.50621283565E+03  0.15557199117E+04  0.18513989205E+04  0.50400001928E-02 0. -1.
       -1    1    3    3    0  502 -0.86669607377E+03  0.50621283565E+03 -0.93180219252E+03  0.13695505998E+04  0.50400001928E-02 0.  1.
</event>
<event>
 5   0  0.3830207E-07  0.3201791E+04  0.7818609E-02  0.8188344E-01
       -2   -1    0    0    0  501  0.00000000000E+00  0.00000000000E+00  0.13808821127E+04  0.13808821127E+04  0.25500000920E-02 0. -1.
        2   -1    0    0  501    0  0.00000000000E+00  0.00000000000E+00 -0.18559636725E+04  0.18559636725E+04  0.25500000920E-02 0.  1.
    10030    2    1    2    0    0  0.00000000000E+00  0.00000000000E+00 -0.47508155975E+03  0.32368457852E+04  0.32017913968E+04 0.  0.
        4    1    3    3  502    0  0.88393967867E+03  0.12977073768E+04  0.78081822479E+02  0.15720980170E+04  0.12699999809E+01 0. -1.
       -4    1    3    3    0  502 -0.88393967867E+03 -0.12977073768E+04 -0.55316338223E+03  0.16647477682E+04  0.12699999809E+01 0.  1.
</event>
<event>
 5   0  0.3764056E-07  0.3200977E+04  0.7818609E-02  0.8188559E-01
       -2   -1    0    0    0  501  0.00000000000E+00  0.00000000000E+00  0.18325597114E+04  0.18325597115E+04  0.25500000920E-02 0. -1.
        2   -1    0    0  501    0  0.00000000000E+00  0.00000000000E+00 -0.13978064390E+04  0.13978064390E+04  0.25500000920E-02 0.  1.
    10030    2    1    2    0    0  0.00000000000E+00  0.00000000000E+00  0.43475327246E+03  0.32303661504E+04  0.32009772036E+04 0.  0.
        5    1    3    3  502    0 -0.57378283898E+03 -0.11756768509E+04  0.11478498797E+04  0.17404092164E+04  0.46999998093E+01 0. -1.
       -5    1    3    3    0  502  0.57378283898E+03  0.11756768509E+04 -0.71309660725E+03  0.14899569341E+04  0.46999998093E+01 0.  1.
</event>
<event>
 5   0  0.1270948E-07  0.3207234E+04  0.7818609E-02  0.8186909E-01
        1   -1    0    0  501    0  0.00000000000E+00  0.00000000000E+00  0.23009865169E+04  0.23009865169E+04  0.50400001928E-02 0. -1.
       -1   -1    0    0    0  501  0.00000000000E+00  0.00000000000E+00 -0.11176020635E+04  0.11176020635E+04  0.50400001928E-02 0.  1.
    10030    2    1    2    0    0  0.00000000000E+00  0.00000000000E+00  0.11833844534E+04  0.34185885805E+04  0.32072338733E+04 0.  0.
        4    1    3    3  502    0  0.10612582383E+04  0.84945322118E+03 -0.31510304866E+03  0.13953964912E+04  0.12699999809E+01 0.  1.
       -4    1    3    3    0  502 -0.10612582383E+04 -0.84945322118E+03  0.14984875021E+04  0.20231920893E+04  0.12699999809E+01 0. -1.
</event>
<event>
 5   0  0.3750285E-07  0.3198047E+04  0.7818609E-02  0.8189333E-01
        2   -1    0    0  501    0  0.00000000000E+00  0.00000000000E+00  0.19217525850E+04  0.19217525850E+04  0.25500000920E-02 0.  1.
       -2   -1    0    0    0  501  0.00000000000E+00  0.00000000000E+00 -0.13304914778E+04  0.13304914778E+04  0.25500000920E-02 0. -1.
    10030    2    1    2    0    0  0.00000000000E+00  0.00000000000E+00  0.59126110720E+03  0.32522440627E+04  0.31980465517E+04 0.  0.
        1    1    3    3  502    0 -0.16874491945E+03  0.22193298170E+03 -0.13055836357E+04  0.13350197475E+04  0.50400001928E-02 0. -1.
       -1    1    3    3    0  502  0.16874491945E+03 -0.22193298170E+03  0.18968447429E+04  0.19172243153E+04  0.50400001928E-02 0.  1.
</event>
<event>
 5   0  0.1270948E-07  0.3198140E+04  0.7818609E-02  0.8189309E-01
       -1   -1    0    0    0  501  0.00000000000E+00  0.00000000000E+00  0.11741482927E+04  0.11741482927E+04  0.50400001928E-02 0. -1.
        1   -1    0    0  501    0  0.00000000000E+00  0.00000000000E+00 -0.21777702764E+04  0.21777702764E+04  0.50400001928E-02 0.  1.
    10030    2    1    2    0    0  0.00000000000E+00  0.00000000000E+00 -0.10036219837E+04  0.33519185691E+04  0.31981402420E+04 0.  0.
        4    1    3    3  502    0 -0.24672716568E+03 -0.13618102930E+04  0.33771781458E+03  0.14245899422E+04  0.12699999809E+01 0. -1.
       -4    1    3    3    0  502  0.24672716568E+03  0.13618102930E+04 -0.13413397983E+04  0.19273286268E+04  0.12699999809E+01 0.  1.
</event>
<event>
 5   0  0.1288096E-07  0.3201908E+04  0.7818609E-02  0.8188314E-01
       -1   -1    0    0    0  501  0.00000000000E+00  0.00000000000E+00  0.13932760266E+04  0.13932760266E+04  0.50400001928E-02 0.  1.
        1   -1    0    0  501    0  0.00000000000E+00  0.00000000000E+00 -0.18395876075E+04  0.18395876075E+04  0.50400001928E-02 0. -1.
    10030    2    1    2    0    0  0.00000000000E+00  0.00000000000E+00 -0.44631158085E+03  0.32328636341E+04  0.32019077516E+04 0.  0.
        2    1    3    3  502    0  0.12190712968E+04 -0.48152844292E+03 -0.11513085848E+04  0.17445675468E+04  0.25500000920E-02 0. -1.
       -2    1    3    3    0  502 -0.12190712968E+04  0.48152844292E+03  0.70499700392E+03  0.14882960873E+04  0.25500000920E-02 0.  1.
</event>
<event>
 5   0  0.1288096E-07  0.3123128E+04  0.7818609E-02  0.8209419E-01
        1   -1    0    0  501    0  0.00000000000E+00  0.00000000000E+00  0.15328759291E+04  0.15328759291E+04  0.50400001928E-02 0.  1.
       -1   -1    0    0    0  501  0.00000000000E+00  0.00000000000E+00 -0.15907887399E+04  0.15907887399E+04  0.50400001928E-02 0. -1.
    10030    2    1    2    0    0  0.00000000000E+00  0.00000000000E+00 -0.57912810807E+02  0.31236646689E+04  0.31231277704E+04 0.  0.
        2    1    3    3  502    0  0.85462832209E+03 -0.12859044514E+04  0.20462590325E+03  0.15575017134E+04  0.25500000920E-02 0. -1.
       -2    1    3    3    0  502 -0.85462832209E+03  0.12859044514E+04 -0.26253871406E+03  0.15661629555E+04  0.25500000920E-02 0.  1.
</event>
<event>
 5   0  0.1317293E-07  0.3200714E+04  0.7818609E-02  0.8188629E-01
       -1   -1    0    0    0  501  0.00000000000E+00  0.00000000000E+00  0.16755848541E+04  0.16755848541E+04  0.50400001928E-02 0.  1.
        1   -1    0    0  501    0  0.00000000000E+00  0.00000000000E+00 -0.15285068048E+04  0.15285068048E+04  0.50400001928E-02 0. -1.
    10030    2    1    2    0    0  0.00000000000E+00  0.00000000000E+00  0.14707804930E+03  0.32040916590E+04  0.32007142026E+04 0.  0.
        1    1    3    3  502    0  0.12050432274E+04  0.14525052134E+03 -0.97059370139E+03  0.15541167997E+04  0.50400001928E-02 0.  1.
       -1    1    3    3    0  502 -0.12050432274E+04 -0.14525052134E+03  0.11176717507E+04  0.16499748593E+04  0.50400001928E-02 0. -1.
</event>
<event>
 5   0  0.1270948E-07  0.3204735E+04  0.7818609E-02  0.8187568E-01
        1   -1    0    0  501    0  0.00000000000E+00  0.00000000000E+00  0.83799896573E+03  0.83799896575E+03  0.50400001928E-02 0. -1.
       -1   -1    0    0    0  501  0.00000000000E+00  0.00000000000E+00 -0.30639439904E+04  0.30639439904E+04  0.50400001928E-02 0.  1.
    10030    2    1    2    0    0  0.00000000000E+00  0.00000000000E+00 -0.22259450246E+04  0.39019429561E+04  0.32047351810E+04 0.  0.
        4    1    3    3  502    0 -0.14891011090E+04 -0.41781349637E+03 -0.16231704762E+04  0.22420245847E+04  0.12699999809E+01 0.  1.
       -4    1    3    3    0  502  0.14891011090E+04  0.41781349637E+03 -0.60277454839E+03  0.16599183714E+04  0.12699999809E+01 0. -1.
</event>
<event>
 5   0  0.3830207E-07  0.3196439E+04  0.7818609E-02  0.8189758E-01
       -2   -1    0    0    0  501  0.00000000000E+00  0.00000000000E+00  0.16880456005E+04  0.16880456005E+04  0.25500000920E-02 0. -1.
        2   -1    0    0  501    0  0.00000000000E+00  0.00000000000E+00 -0.15131729158E+04  0.15131729158E+04  0.25500000920E-02 0.  1.
    10030    2    1    2    0    0  0.00000000000E+00  0.00000000000E+00  0.17487268466E+03  0.32012185163E+04  0.31964385702E+04 0.  0.
        4    1    3    3  502    0  0.14564794081E+04  0.52237165519E+02  0.74434578163E+03  0.16364941928E+04  0.12699999809E+01 0. -1.
       -4    1    3    3    0  502 -0.14564794081E+04 -0.52237165519E+02 -0.56947309696E+03  0.15647243235E+04  0.12699999809E+01 0.  1.
</event>
<event>
 5   0  0.3830207E-07  0.3195381E+04  0.7818609E-02  0.8190038E-01
        2   -1    0    0  501    0  0.00000000000E+00  0.00000000000E+00  0.19171778840E+04  0.19171778840E+04  0.25500000920E-02 0.  1.
       -2   -1    0    0    0  501  0.00000000000E+00  0.00000000000E+00 -0.13314436853E+04  0.13314436853E+04  0.25500000920E-02 0. -1.
    10030    2    1    2    0    0  0.00000000000E+00  0.00000000000E+00  0.58573419875E+03  0.32486215693E+04  0.31953806580E+04 0.  0.
        4    1    3    3  502    0  0.90909141278E+03  0.40522937392E+03  0.15634726350E+04  0.18534039860E+04  0.12699999809E+01 0.  1.
       -4    1    3    3    0  502 -0.90909141278E+03 -0.40522937392E+03 -0.97773843620E+03  0.13952175833E+04  0.12699999809E+01 0. -1.
</event>
<event>
 5   0  0.1277374E-07  0.3154374E+04  0.7818609E-02  0.8200972E-01
       -1   -1    0    0    0  501  0.00000000000E+00  0.00000000000E+00  0.85876948609E+03  0.85876948611E+03  0.50400001928E-02 0.  1.
        1   -1    0    0  501    0  0.00000000000E+00  0.00000000000E+00 -0.28966086324E+04  0.28966086325E+04  0.50400001928E-02 0. -1.
    10030    2    1    2    0    0  0.00000000000E+00  0.00000000000E+00 -0.20378391464E+04  0.37553781186E+04  0.31543741736E+04 0.  0.
        5    1    3    3  502    0 -0.87065167103E+03 -0.11465820717E+03 -0.25786125318E+04  0.27240494701E+04  0.46999998093E+01 0. -1.
       -5    1    3    3    0  502  0.87065167103E+03  0.11465820717E+03  0.54077338540E+03  0.10313286484E+04  0.46999998093E+01 0.  1.
</event>
<event>
 5   0  0.3858721E-07  0.3203229E+04  0.7818609E-02  0.8187965E-01
       -2   -1    0    0    0  501  0.00000000000E+00  0.00000000000E+00  0.11522839033E+04  0.11522839033E+04  0.25500000920E-02 0.  1.
        2   -1    0    0  501    0  0.00000000000E+00  0.00000000000E+00 -0.22261601105E+04  0.22261601105E+04  0.25500000920E-02 0. -1.
    10030    2    1    2    0    0  0.00000000000E+00  0.00000000000E+00 -0.10738762072E+04  0.33784440138E+04  0.32032286597E+04 0.  0.
        2    1    3    3  502    0 -0.80241641016E+03 -0.58848112823E+03  0.78669365521E+03  0.12684908517E+04  0.25500000920E-02 0.  1.
       -2    1    3    3    0  502  0.80241641016E+03  0.58848112823E+03 -0.18605698624E+04  0.21099531622E+04  0.25500000920E-02 0. -1.
</event>
<event>
 5   0  0.1277374E-07  0.3183456E+04  0.7818609E-02  0.8193200E-01
        1   -1    0    0  501    0  0.00000000000E+00  0.00000000000E+00  0.16178059543E+04  0.16178059543E+04  0.50400001928E-02 0. -1.
       -1   -1    0    0    0  501  0.00000000000E+00  0.00000000000E+00 -0.15660705778E+04  0.15660705778E+04  0.50400001928E-02 0.  1.
    10030    2    1    2    0    0  0.00000000000E+00  0.00000000000E+00  0.51735376550E+02  0.31838765321E+04  0.31834561757E+04 0.  0.
        5    1    3    3  502    0  0.86277134707E+03 -0.12343192156E+04  0.54135585901E+03  0.16003145251E+04  0.46999998093E+01 0. -1.
       -5    1    3    3    0  502 -0.86277134707E+03  0.12343192156E+04 -0.48962048246E+03  0.15835620070E+04  0.46999998093E+01 0.  1.
</event>
<event>
 5   0  0.3750285E-07  0.3194570E+04  0.7818609E-02  0.8190253E-01
        2   -1    0    0  501    0  0.00000000000E+00  0.00000000000E+00  0.16274040586E+04  0.16274040586E+04  0.25500000920E-02 0. -1.
       -2   -1    0    0    0  501  0.00000000000E+00  0.00000000000E+00 -0.15677236942E+04  0.15677236942E+04  0.25500000920E-02 0.  1.
    10030    2    1    2    0    0  0.00000000000E+00  0.00000000000E+00  0.59680364416E+02  0.31951277528E+04  0.31945703327E+04 0.  0.
        1    1    3    3  502    0 -0.48389254658E+03  0.51134899465E+03 -0.14041777983E+04  0.15707784949E+04  0.50400001928E-02 0.  1.
       -1    1    3    3    0  502  0.48389254658E+03 -0.51134899465E+03  0.14638581627E+04  0.16243492578E+04  0.50400001928E-02 0. -1.
</event>
<event>
 5   0  0.3830207E-07  0.3181862E+04  0.7818609E-02  0.8193624E-01
       -2   -1    0    0    0  501  0.00000000000E+00  0.00000000000E+00  0.30549338666E+04  0.30549338666E+04  0.25500000920E-02 0.  1.
        2   -1    0    0  501    0  0.00000000000E+00  0.00000000000E+00 -0.82851582553E+03  0.82851582554E+03  0.25500000920E-02 0. -1.
    10030    2    1    2    0    0  0.00000000000E+00  0.00000000000E+00  0.22264180411E+04  0.38834496921E+04  0.31818617534E+04 0.  0.
        4    1    3    3  502    0  0.12785267273E+04 -0.88082534932E+03  0.15370139546E+04  0.21846961798E+04  0.12699999809E+01 0.  1.
       -4    1    3    3    0  502 -0.12785267273E+04  0.88082534932E+03  0.68940408651E+03  0.16987535124E+04  0.12699999809E+01 0. -1.
</event>
<event>
 5   0  0.1277374E-07  0.3198811E+04  0.7818609E-02  0.8189131E-01
        1   -1    0    0  501    0  0.00000000000E+00  0.00000000000E+00  0.22744946350E+04  0.22744946351E+04  0.50400001928E-02 0.  1.
       -1   -1    0    0    0  501  0.00000000000E+00  0.00000000000E+00 -0.11246882131E+04  0.11246882131E+04  0.50400001928E-02 0. -1.
    10030    2    1    2    0    0  0.00000000000E+00  0.00000000000E+00  0.11498064219E+04  0.33991828482E+04  0.31988105957E+04 0.  0.
        5    1    3    3  502    0 -0.35234776060E+02 -0.13370725755E+04  0.15068028020E+04  0.20148154595E+04  0.46999998093E+01 0. -1.
       -5    1    3    3    0  502  0.35234776060E+02  0.13370725755E+04 -0.35699638006E+03  0.13843673887E+04  0.46999998093E+01 0.  1.
</event>
<event>
 5   0  0.3830207E-07  0.3201630E+04  0.7818609E-02  0.8188387E-01
        2   -1    0    0  501    0  0.00000000000E+00  0.00000000000E+00  0.12237480141E+04  0.12237480141E+04  0.25500000920E-02 0.  1.
       -2   -1    0    0    0  501  0.00000000000E+00  0.00000000000E+00 -0.20940658794E+04  0.20940658794E+04  0.25500000920E-02 0. -1.
    10030    2    1    2    0    0  0.00000000000E+00  0.00000000000E+00 -0.87031786528E+03  0.33178138934E+04  0.32016301855E+04 0.  0.
        4    1    3    3  502    0 -0.37653084057E+03 -0.12327549028E+04  0.54857744197E+03  0.14008565048E+04  0.12699999809E+01 0.  1.
       -4    1    3    3    0  502  0.37653084057E+03  0.12327549028E+04 -0.14188953073E+04  0.19169573887E+04  0.12699999809E+01 0. -1.
</event>
<event>
 5   0  0.3764056E-07  0.3202139E+04  0.7818609E-02  0.8188252E-01
        2   -1    0    0  501    0  0.00000000000E+00  0.00000000000E+00  0.18725350532E+04  0.18725350532E+04  0.25500000920E-02 0.  1.
       -2   -1    0    0    0  501  0.00000000000E+00  0.00000000000E+00 -0.13689590053E+04  0.13689590053E+04  0.25500000920E-02 0. -1.
    10030    2    1    2    0    0  0.00000000000E+00  0.00000000000E+00  0.50357604788E+03  0.32414940586E+04  0.32021391125E+04 0.  0.
        5    1    3    3  502    0  0.95912746911E+03 -0.10963006603E+03 -0.10411952327E+04  0.14198781131E+04  0.46999998093E+01 0. -1.
       -5    1    3    3    0  502 -0.95912746911E+03  0.10963006603E+03  0.15447712806E+04  0.18216159455E+04  0.46999998093E+01 0.  1.
</event>
<event>
 5   0  0.3750285E-07  0.3195887E+04  0.7818609E-02  0.8189904E-01
       -2   -1    0    0    0  501  0.00000000000E+00  0.00000000000E+00  0.13806967722E+04  0.13806967722E+04  0.25500000920E-02 0. -1.
        2   -1    0    0  501    0  0.00000000000E+00  0.00000000000E+00 -0.18493728147E+04  0.18493728147E+04  0.25500000920E-02 0.  1.
    10030    2    1    2    0    0  0.00000000000E+00  0.00000000000E+00 -0.46867604247E+03  0.32300695870E+04  0.31958867789E+04 0.  0.
        1    1    3    3  502    0  0.93007863746E+03  0.12956251140E+03 -0.15410666994E+04  0.18046382707E+04  0.50400001928E-02 0.  1.
       -1    1    3    3    0  502 -0.93007863746E+03 -0.12956251140E+03  0.10723906569E+04  0.14254313162E+04  0.50400001928E-02 0. -1.
</event>
<event>
 5   0  0.1270948E-07  0.3197153E+04  0.7818609E-02  0.8189569E-01
        1   -1    0    0  501    0  0.00000000000E+00  0.00000000000E+00  0.23250486339E+04  0.23250486339E+04  0.50400001928E-02 0.  1.
       -1   -1    0    0    0  501  0.00000000000E+00  0.00000000000E+00 -0.10990940007E+04  0.10990940007E+04  0.50400001928E-02 0. -1.
    10030    2    1    2    0    0  0.00000000000E+00  0.00000000000E+00  0.12259546332E+04  0.34241426347E+04  0.31971531118E+04 0.  0.
        4    1    3    3  502    0  0.41673196495E+03  0.16098788518E+02 -0.10398047485E+04  0.11203214849E+04  0.12699999809E+01 0. -1.
       -4    1    3    3    0  502 -0.41673196495E+03 -0.16098788518E+02  0.22657593817E+04  0.23038211498E+04  0.12699999809E+01 0.  1.
</event>
<event>
 5   0  0.3750285E-07  0.3210833E+04  0.7818609E-02  0.8185962E-01
        2   -1    0    0  501    0  0.00000000000E+00  0.00000000000E+00  0.20463455195E+04  0.20463455195E+04  0.25500000920E-02 0. -1.
       -2   -1    0    0    0  501  0.00000000000E+00  0.00000000000E+00 -0.12594952938E+04  0.12594952938E+04  0.25500000920E-02 0.  1.
    10030    2    1    2    0    0  0.00000000000E+00  0.00000000000E+00  0.78685022576E+03  0.33058408133E+04  0.32108332571E+04 0.  0.
        1    1    3    3  502    0  0.76138089364E+03  0.11482864951E+04  0.12418843640E+04  0.18548691365E+04  0.50400001928E-02 0. -1.
       -1    1    3    3    0  502 -0.76138089364E+03 -0.11482864951E+04 -0.45503413819E+03  0.14509716768E+04  0.50400001928E-02 0.  1.
</event>
<event>
 5   0  0.1288096E-07  0.3170805E+04  0.7818609E-02  0.8196570E-01
        1   -1    0    0  501    0  0.00000000000E+00  0.00000000000E+00  0.15974727630E+04  0.15974727630E+04  0.50400001928E-02 0. -1.
       -1   -1    0    0    0  501  0.00000000000E+00  0.00000000000E+00 -0.15734231164E+04  0.15734231164E+04  0.50400001928E-02 0.  1.
    10030    2    1    2    0    0  0.00000000000E+00  0.00000000000E+00  0.24049646625E+02  0.31708958794E+04  0.31708046759E+04 0.  0.
        2    1    3    3  502    0  0.28137467699E+03 -0.13250417001E+04  0.83581629892E+03  0.15916959827E+04  0.25500000920E-02 0. -1.
       -2    1    3    3    0  502 -0.28137467699E+03  0.13250417001E+04 -0.81176665230E+03  0.15791998967E+04  0.25500000920E-02 0.  1.
</event>
<event>
 5   0  0.3942564E-07  0.3202126E+04  0.7818609E-02  0.8188256E-01
       -2   -1    0    0    0  501  0.00000000000E+00  0.00000000000E+00  0.15871750504E+04  0.15871750504E+04  0.25500000920E-02 0. -1.
        2   -1    0    0  501    0  0.00000000000E+00  0.00000000000E+00 -0.16150723652E+04  0.16150723652E+04  0.25500000920E-02 0.  1.
    10030    2    1    2    0    0  0.00000000000E+00  0.00000000000E+00 -0.27897314781E+02  0.32022474157E+04  0.32021258956E+04 0.  0.
        3    1    3    3  502    0 -0.13573741345E+04 -0.66665003273E+03 -0.53981625776E+03  0.16057049572E+04  0.10100000352E+00 0.  1.
       -3    1    3    3    0  502  0.13573741345E+04  0.66665003273E+03  0.51191894298E+03  0.15965424585E+04  0.10100000352E+00 0. -1.
</event>
<event>
 5   0  0.1270948E-07  0.3201546E+04  0.7818609E-02  0.8188409E-01
       -1   -1    0    0    0  501  0.00000000000E+00  0.00000000000E+00  0.13904332846E+04  0.13904332846E+04  0.50400001928E-02 0. -1.
        1   -1    0    0  501    0  0.00000000000E+00  0.00000000000E+00 -0.18429324254E+04  0.18429324254E+04  0.50400001928E-02 0.  1.
    10030    2    1    2    0    0  0.00000000000E+00  0.00000000000E+00 -0.45249914075E+03  0.32333657100E+04  0.32015462424E+04 0.  0.
        4    1    3    3  502    0 -0.14233917852E+04  0.29986842713E+03  0.44860398091E+03  0.15222392691E+04  0.12699999809E+01 0. -1.
       -4    1    3    3    0  502  0.14233917852E+04 -0.29986842713E+03 -0.90110312166E+03  0.17111264409E+04  0.12699999809E+01 0.  1.
</event>
<event>
 5   0  0.1317293E-07  0.3190943E+04  0.7818609E-02  0.8191213E-01
        1   -1    0    0  501    0  0.00000000000E+00  0.00000000000E+00  0.17663224092E+04  0.17663224092E+04  0.50400001928E-02 0.  1.
       -1   -1    0    0    0  501  0.00000000000E+00  0.00000000000E+00 -0.14411461721E+04  0.14411461721E+04  0.50400001928E-02 0. -1.
    10030    2    1    2    0    0  0.00000000000E+00  0.00000000000E+00  0.32517623714E+03  0.32074685813E+04  0.31909426687E+04 0.  0.
        1    1    3    3  502    0 -0.13388081225E+04 -0.62887636890E+03  0.76371214434E+03  0.16646768202E+04  0.50400001928E-02 0.  1.
       -1    1    3    3    0  502  0.13388081225E+04  0.62887636890E+03 -0.43853590721E+03  0.15427917611E+04  0.50400001928E-02 0. -1.
</event>
<event>
 5   0  0.3750285E-07  0.3202492E+04  0.7818609E-02  0.8188159E-01
        2   -1    0    0  501    0  0.00000000000E+00  0.00000000000E+00  0.16150354816E+04  0.16150354816E+04  0.25500000920E-02 0. -1.
       -2   -1    0    0    0  501  0.00000000000E+00  0.00000000000E+00 -0.15875744470E+04  0.15875744470E+04  0.25500000920E-02 0.  1.
    10030    2    1    2    0    0  0.00000000000E+00  0.00000000000E+00  0.27461034599E+02  0.32026099286E+04  0.32024921930E+04 0.  0.
        1    1    3    3  502    0  0.13746415056E+04 -0.59475870568E+03 -0.55251629189E+03  0.15964496358E+04  0.50400001928E-02 0. -1.
       -1    1    3    3    0  502 -0.13746415056E+04  0.59475870568E+03  0.57997732649E+03  0.16061602928E+04  0.50400001928E-02 0.  1.
</event>
<event>
 5   0  0.3830207E-07  0.3204290E+04  0.7818609E-02  0.8187685E-01
       -2   -1    0    0    0  501  0.00000000000E+00  0.00000000000E+00  0.20209589679E+04  0.20209589679E+04  0.25500000920E-02 0. -1.
        2   -1    0    0  501    0  0.00000000000E+00  0.00000000000E+00 -0.12701243366E+04  0.12701243366E+04  0.25500000920E-02 0.  1.
    10030    2    1    2    0    0  0.00000000000E+00  0.00000000000E+00  0.75083463133E+03  0.32910833046E+04  0.32042903542E+04 0.  0.
        4    1    3    3  502    0  0.83905225360E+03 -0.56304944362E+03  0.16524101726E+04  0.19368774746E+04  0.12699999809E+01 0. -1.
       -4    1    3    3    0  502 -0.83905225360E+03  0.56304944362E+03 -0.90157554131E+03  0.13542058299E+04  0.12699999809E+01 0.  1.
</event>
<event>
 5   0  0.1277374E-07  0.3194472E+04  0.7818609E-02  0.8190279E-01
        1   -1    0    0  501    0  0.00000000000E+00  0.00000000000E+00  0.13336411591E+04  0.13336411591E+04  0.50400001928E-02 0. -1.
       -1   -1    0    0    0  501  0.00000000000E+00  0.00000000000E+00 -0.19129301527E+04  0.19129301527E+04  0.50400001928E-02 0.  1.
    10030    2    1    2    0    0  0.00000000000E+00  0.00000000000E+00 -0.57928899362E+03  0.32465713118E+04  0.31944717160E+04 0.  0.
        5    1    3    3  502    0 -0.11898028639E+04  0.81427307519E+03  0.40892958224E+03  0.14986383784E+04  0.46999998093E+01 0.  1.
       -5    1    3    3    0  502  0.11898028639E+04 -0.81427307519E+03 -0.98821857586E+03  0.17479329334E+04  0.46999998093E+01 0. -1.
</event>
<event>
 5   0  0.3750285E-07  0.3193343E+04  0.7818609E-02  0.8190578E-01
       -2   -1    0    0    0  501  0.00000000000E+00  0.00000000000E+00  0.12111784069E+04  0.12111784069E+04  0.25500000920E-02 0.  1.
        2   -1    0    0  501    0  0.00000000000E+00  0.00000000000E+00 -0.21048586697E+04  0.21048586697E+04  0.25500000920E-02 0. -1.
    10030    2    1    2    0    0  0.00000000000E+00  0.00000000000E+00 -0.89368026286E+03  0.33160370766E+04  0.31933426815E+04 0.  0.
        1    1    3    3  502    0 -0.45912003012E+03 -0.20970796306E+03 -0.20198319733E+04  0.20819437630E+04  0.50400001928E-02 0. -1.
       -1    1    3    3    0  502  0.45912003012E+03  0.20970796306E+03  0.11261517104E+04  0.12340933136E+04  0.50400001928E-02 0.  1.
</event>
<event>
 5   0  0.3942564E-07  0.3184439E+04  0.7818609E-02  0.8192939E-01
       -2   -1    0    0    0  501  0.00000000000E+00  0.00000000000E+00  0.13444929771E+04  0.13444929771E+04  0.25500000920E-02 0.  1.
        2   -1    0    0  501    0  0.00000000000E+00  0.00000000000E+00 -0.18855898719E+04  0.18855898719E+04  0.25500000920E-02 0. -1.
    10030    2    1    2    0    0  0.00000000000E+00  0.00000000000E+00 -0.54109689481E+03  0.32300828489E+04  0.31844386258E+04 0.  0.
        3    1    3    3  502    0  0.15773369766E+04 -0.11121821757E+03 -0.45977236081E+03  0.16467398287E+04  0.10100000352E+00 0.  1.
       -3    1    3    3    0  502 -0.15773369766E+04  0.11121821757E+03 -0.81324533997E+02  0.15833430202E+04  0.10100000352E+00 0. -1.
</event>
<event>
 5   0  0.1317293E-07  0.3213068E+04  0.7818609E-02  0.8185375E-01
        1   -1    0    0  501    0  0.00000000000E+00  0.00000000000E+00  0.13932612147E+04  0.13932612147E+04  0.50400001928E-02 0. -1.
       -1   -1    0    0    0  501  0.00000000000E+00  0.00000000000E+00 -0.18524528403E+04  0.18524528403E+04  0.50400001928E-02 0.  1.
    10030    2    1    2    0    0  0.00000000000E+00  0.00000000000E+00 -0.45919162561E+03  0.32457140551E+04  0.32130675029E+04 0.  0.
        1    1    3    3  502    0 -0.93226643701E+03 -0.45363637496E+03 -0.14692748006E+04  0.17982422278E+04  0.50400001928E-02 0.  1.
       -1    1    3    3    0  502  0.93226643701E+03  0.45363637496E+03  0.10100831750E+04  0.14474718272E+04  0.50400001928E-02 0. -1.
</event>
<event>
 5   0  0.1317293E-07  0.3200375E+04  0.7818609E-02  0.8188718E-01
       -1   -1    0    0    0  501  0.00000000000E+00  0.00000000000E+00  0.15687572054E+04  0.15687572054E+04  0.50400001928E-02 0. -1.
        1   -1    0    0  501    0  0.00000000000E+00  0.00000000000E+00 -0.16322474472E+04  0.16322474473E+04  0.50400001928E-02 0.  1.
    10030    2    1    2    0    0  0.00000000000E+00  0.00000000000E+00 -0.63490241873E+02  0.32010046526E+04  0.32003749429E+04 0.  0.
        1    1    3    3  502    0  0.10557889985E+04 -0.11901701767E+04 -0.20325622080E+03  0.16039041587E+04  0.50400001928E-02 0.  1.
       -1    1    3    3    0  502 -0.10557889985E+04  0.11901701767E+04  0.13976597893E+03  0.15971004940E+04  0.50400001928E-02 0. -1.
</event>
<event>
 5   0  0.1365455E-07  0.3192172E+04  0.7818609E-02  0.8190888E-01
       -1   -1    0    0    0  501  0.00000000000E+00  0.00000000000E+00  0.27231866931E+04  0.27231866931E+04  0.50400001928E-02 0.  1.
        1   -1    0    0  501    0  0.00000000000E+00  0.00000000000E+00 -0.93548111429E+03  0.93548111430E+03  0.50400001928E-02 0. -1.
    10030    2    1    2    0    0  0.00000000000E+00  0.00000000000E+00  0.17877055788E+04  0.36586678074E+04  0.31921715005E+04 0.  0.
        3    1    3    3  502    0 -0.80003187718E+03  0.12196713068E+04  0.16364938980E+04  0.21922046870E+04  0.10100000352E+00 0.  1.
       -3    1    3    3    0  502  0.80003187718E+03 -0.12196713068E+04  0.15121168079E+03  0.14664631205E+04  0.10100000352E+00 0. -1.
</event>
<event>
 5   0  0.1277374E-07  0.3197476E+04  0.7818609E-02  0.8189484E-01
       -1   -1    0    0    0  501  0.00000000000E+00  0.00000000000E+00  0.13690387634E+04  0.13690387634E+04  0.50400001928E-02 0.  1.
        1   -1    0    0  501    0  0.00000000000E+00  0.00000000000E+00 -0.18669764471E+04  0.18669764471E+04  0.50400001928E-02 0. -1.
    10030    2    1    2    0    0  0.00000000000E+00  0.00000000000E+00 -0.49793768369E+03  0.32360152104E+04  0.31974759585E+04 0.  0.
        5    1    3    3  502    0  0.81888753887E+03 -0.10815358505E+04  0.60718521125E+03  0.14862680001E+04  0.46999998093E+01 0.  1.
       -5    1    3    3    0  502 -0.81888753887E+03  0.10815358505E+04 -0.11051228949E+04  0.17497472104E+04  0.46999998093E+01 0. -1.
</event>
<event>
 5   0  0.1277374E-07  0.3202069E+04  0.7818609E-02  0.8188271E-01
        1   -1    0    0  501    0  0.00000000000E+00  0.00000000000E+00  0.16020554394E+04  0.16020554394E+04  0.50400001928E-02 0. -1.
       -1   -1    0    0    0  501  0.00000000000E+00  0.00000000000E+00 -0.16000142182E+04  0.16000142182E+04  0.50400001928E-02 0.  1.
    10030    2    1    2    0    0  0.00000000000E+00  0.00000000000E+00  0.20412212132E+01  0.32020696577E+04  0.32020690071E+04 0.  0.
        5    1    3    3  502    0 -0.10833025138E+04 -0.11370804923E+04  0.31213642281E+03  0.16012331556E+04  0.46999998093E+01 0. -1.
       -5    1    3    3    0  502  0.10833025138E+04  0.11370804923E+04 -0.31009520159E+03  0.16008365020E+04  0.46999998093E+01 0.  1.
</event>
<event>
 5   0  0.3830207E-07  0.3201456E+04  0.7818609E-02  0.8188433E-01
       -2   -1    0    0    0  501  0.00000000000E+00  0.00000000000E+00  0.14277313142E+04  0.14277313142E+04  0.25500000920E-02 0. -1.
        2   -1    0    0  501    0  0.00000000000E+00  0.00000000000E+00 -0.17946869802E+04  0.17946869802E+04  0.25500000920E-02 0.  1.
    10030    2    1    2    0    0  0.00000000000E+00  0.00000000000E+00 -0.36695566596E+03  0.32224182944E+04  0.32014564190E+04 0.  0.
        4    1    3    3  502    0  0.42472618887E+03  0.15214619591E+04  0.77236183152E+02  0.15815201135E+04  0.12699999809E+01 0. -1.
       -4    1    3    3    0  502 -0.42472618887E+03 -0.15214619591E+04 -0.44419184911E+03  0.16408981809E+04  0.12699999809E+01 0.  1.
</event>
<event>
 5   0  0.3750285E-07  0.3200044E+04  0.7818609E-02  0.8188806E-01
        2   -1    0    0  501    0  0.00000000000E+00  0.00000000000E+00  0.23944902710E+04  0.23944902710E+04  0.25500000920E-02 0.  1.
       -2   -1    0    0    0  501  0.00000000000E+00  0.00000000000E+00 -0.10691505806E+04  0.10691505806E+04  0.25500000920E-02 0. -1.
    10030    2    1    2    0    0  0.00000000000E+00  0.00000000000E+00  0.13253396904E+04  0.34636408516E+04  0.32000441643E+04 0.  0.
        1    1    3    3  502    0 -0.82824034923E+03 -0.62416818857E+02 -0.81752900698E+03  0.11654319425E+04  0.50400001928E-02 0. -1.
       -1    1    3    3    0  502  0.82824034923E+03  0.62416818857E+02  0.21428686974E+04  0.22982089090E+04  0.50400001928E-02 0.  1.
</event>
<event>
 5   0  0.1288096E-07  0.3198562E+04  0.7818609E-02  0.8189197E-01
        1   -1    0    0  501    0  0.00000000000E+00  0.00000000000E+00  0.17711317599E+04  0.17711317599E+04  0.50400001928E-02 0.  1.
       -1   -1    0    0    0  501  0.00000000000E+00  0.00000000000E+00 -0.14441048924E+04  0.14441048924E+04  0.50400001928E-02 0. -1.
    10030    2    1    2    0    0  0.00000000000E+00  0.00000000000E+00  0.32702686753E+03  0.32152366523E+04  0.31985622018E+04 0.  0.
        2    1    3    3  502    0 -0.43411379951E+03  0.10348838921E+04 -0.98183882918E+03  0.14911227138E+04  0.25500000920E-02 0. -1.
       -2    1    3    3    0  502  0.43411379951E+03 -0.10348838921E+04  0.13088656967E+04  0.17241139386E+04  0.25500000920E-02 0.  1.
</event>
<event>
 5   0  0.3764056E-07  0.3196980E+04  0.7818609E-02  0.8189615E-01
        2   -1    0    0  501    0  0.00000000000E+00  0.00000000000E+00  0.28665240186E+04  0.28665240186E+04  0.25500000920E-02 0. -1.
       -2   -1    0    0    0  501  0.00000000000E+00  0.00000000000E+00 -0.89138270433E+03  0.89138270434E+03  0.25500000920E-02 0.  1.
    10030    2    1    2    0    0  0.00000000000E+00  0.00000000000E+00  0.19751413142E+04  0.37579067229E+04  0.31969797821E+04 0.  0.
        5    1    3    3  502    0  0.42232474695E+03  0.71535449677E+03 -0.61771464758E+03  0.10352215820E+04  0.46999998093E+01 0.  1.
       -5    1    3    3    0  502 -0.42232474695E+03 -0.71535449677E+03  0.25928559618E+04  0.27226851409E+04  0.46999998093E+01 0. -1.
</event>
<event>
 5   0  0.1288096E-07  0.3152406E+04  0.7818609E-02  0.8201501E-01
        1   -1    0    0  501    0  0.00000000000E+00  0.00000000000E+00  0.25344344801E+04  0.25344344801E+04  0.50400001928E-02 0.  1.
       -1   -1    0    0    0  501  0.00000000000E+00  0.00000000000E+00 -0.98026448048E+03  0.98026448050E+03  0.50400001928E-02 0. -1.
    10030    2    1    2    0    0  0.00000000000E+00  0.00000000000E+00  0.15541699996E+04  0.35146989606E+04  0.31524061280E+04 0.  0.
        2    1    3    3  502    0  0.14586499283E+04  0.56066530443E+02  0.11409023418E+03  0.14641788315E+04  0.25500000920E-02 0. -1.
       -2    1    3    3    0  502 -0.14586499283E+04 -0.56066530443E+02  0.14400797654E+04  0.20505201291E+04  0.25500000920E-02 0.  1.
</event>
<event>
 5   0  0.3858721E-07  0.3191506E+04  0.7818609E-02  0.8191064E-01
        2   -1    0    0  501    0  0.00000000000E+00  0.00000000000E+00  0.22547572260E+04  0.22547572260E+04  0.25500000920E-02 0. -1.
       -2   -1    0    0    0  501  0.00000000000E+00  0.00000000000E+00 -0.11293579497E+04  0.11293579497E+04  0.25500000920E-02 0.  1.
    10030    2    1    2    0    0  0.00000000000E+00  0.00000000000E+00  0.11253992763E+04  0.33841151756E+04  0.31915062261E+04 0.  0.
        2    1    3    3  502    0  0.75826035285E+03  0.13810269049E+04  0.83143923560E+03  0.17814278760E+04  0.25500000920E-02 0. -1.
       -2    1    3    3    0  502 -0.75826035285E+03 -0.13810269049E+04  0.29396004067E+03  0.16026872996E+04  0.25500000920E-02 0.  1.
</event>
<event>
 5   0  0.3942564E-07  0.3195912E+04  0.7818609E-02  0.8189898E-01
        2   -1    0    0  501    0  0.00000000000E+00  0.00000000000E+00  0.23056274159E+04  0.23056274159E+04  0.25500000920E-02 0.  1.
       -2   -1    0    0    0  501  0.00000000000E+00  0.00000000000E+00 -0.11074917113E+04  0.11074917113E+04  0.25500000920E-02 0. -1.
    10030    2    1    2    0    0  0.00000000000E+00  0.00000000000E+00  0.11981357047E+04  0.34131191272E+04  0.31959119215E+04 0.  0.
        3    1    3    3  502    0  0.77480500257E+02  0.15608114227E+04  0.24273300412E+03  0.15814723667E+04  0.10100000352E+00 0.  1.
       -3    1    3    3    0  502 -0.77480500257E+02 -0.15608114227E+04  0.95540270054E+03  0.18316467606E+04  0.10100000352E+00 0. -1.
</event>
<event>
 5   0  0.3750285E-07  0.3207610E+04  0.7818609E-02  0.8186810E-01
       -2   -1    0    0    0  501  0.00000000000E+00  0.00000000000E+00  0.11392565586E+04  0.11392565586E+04  0.25500000920E-02 0.  1.
        2   -1    0    0  501    0  0.00000000000E+00  0.00000000000E+00 -0.22577803665E+04  0.22577803665E+04  0.25500000920E-02 0. -1.
    10030    2    1    2    0    0  0.00000000000E+00  0.00000000000E+00 -0.11185238079E+04  0.33970369251E+04  0.32076103819E+04 0.  0.
        1    1    3    3  502    0 -0.62579092470E+03 -0.95476892196E+03 -0.17522834578E+04  0.20913381583E+04  0.50400001928E-02 0. -1.
       -1    1    3    3    0  502  0.62579092470E+03  0.95476892196E+03  0.63375964996E+03  0.13056987668E+04  0.50400001928E-02 0.  1.
</event>
<event>
 5   0  0.3830207E-07  0.3196717E+04  0.7818609E-02  0.8189685E-01
       -2   -1    0    0    0  501  0.00000000000E+00  0.00000000000E+00  0.12213636975E+04  0.12213636975E+04  0.25500000920E-02 0.  1.
        2   -1    0    0  501    0  0.00000000000E+00  0.00000000000E+00 -0.20917190948E+04  0.20917190948E+04  0.25500000920E-02 0. -1.
    10030    2    1    2    0    0  0.00000000000E+00  0.00000000000E+00 -0.87035539729E+03  0.33130827922E+04  0.31967169206E+04 0.  0.
        4    1    3    3  502    0  0.71260897852E+03  0.13820071874E+04 -0.81877617464E+03  0.17573137054E+04  0.12699999809E+01 0. -1.
       -4    1    3    3    0  502 -0.71260897852E+03 -0.13820071874E+04 -0.51579222642E+02  0.15557690868E+04  0.12699999809E+01 0.  1.
</event>
<event>
 5   0  0.1277374E-07  0.3207515E+04  0.7818609E-02  0.8186835E-01
        1   -1    0    0  501    0  0.00000000000E+00  0.00000000000E+00  0.19199453249E+04  0.19199453249E+04  0.50400001928E-02 0. -1.
       -1   -1    0    0    0  501  0.00000000000E+00  0.00000000000E+00 -0.13396414914E+04  0.13396414914E+04  0.50400001928E-02 0.  1.
    10030    2    1    2    0    0  0.00000000000E+00  0.00000000000E+00  0.58030383355E+03  0.32595868163E+04  0.32075151868E+04 0.  0.
        5    1    3    3  502    0 -0.38235571973E+03 -0.58900707534E+03 -0.11750912373E+04  0.13689363525E+04  0.46999998093E+01 0.  1.
       -5    1    3    3    0  502  0.38235571973E+03  0.58900707534E+03  0.17553950709E+04  0.18906504638E+04  0.46999998093E+01 0. -1.
</event>
<event>
 5   0  0.1270948E-07  0.3195304E+04  0.7818609E-02  0.8190059E-01
       -1   -1    0    0    0  501  0.00000000000E+00  0.00000000000E+00  0.17708906914E+04  0.17708906914E+04  0.50400001928E-02 0.  1.
        1   -1    0    0  501    0  0.00000000000E+00  0.00000000000E+00 -0.14413604057E+04  0.14413604057E+04  0.50400001928E-02 0. -1.
    10030    2    1    2    0    0  0.00000000000E+00  0.00000000000E+00  0.32953028573E+03  0.32122510971E+04  0.31953038825E+04 0.  0.
        4    1    3    3  502    0  0.14632431180E+04 -0.50755654366E+03  0.55901350949E+03  0.16465697022E+04  0.12699999809E+01 0. -1.
       -4    1    3    3    0  502 -0.14632431180E+04  0.50755654366E+03 -0.22948322377E+03  0.15656813949E+04  0.12699999809E+01 0.  1.
</event>
<event>
 5   0  0.1230450E-07  0.3198255E+04  0.7818609E-02  0.8189278E-01
       -3   -1    0    0    0  501  0.00000000000E+00  0.00000000000E+00  0.19909020644E+04  0.19909020670E+04  0.10100000352E+00 0. -1.
        3   -1    0    0  501    0  0.00000000000E+00  0.00000000000E+00 -0.12844475728E+04  0.12844475768E+04  0.10100000352E+00 0.  1.
    10030    2    1    2    0    0  0.00000000000E+00  0.00000000000E+00  0.70645449160E+03  0.32753496438E+04  0.31982553588E+04 0.  0.
        2    1    3    3  502    0  0.45401881575E+03 -0.99236301429E+03 -0.84383374373E+03  0.13794828104E+04  0.25500000920E-02 0.  1.
       -2    1    3    3    0  502 -0.45401881575E+03  0.99236301429E+03  0.15502882353E+04  0.18958668333E+04  0.25500000920E-02 0. -1.
</event>
<event>
 5   0  0.3942564E-07  0.3182178E+04  0.7818609E-02  0.8193540E-01
        2   -1    0    0  501    0  0.00000000000E+00  0.00000000000E+00  0.27392002850E+04  0.27392002850E+04  0.25500000920E-02 0.  1.
       -2   -1    0    0    0  501  0.00000000000E+00  0.00000000000E+00 -0.92419840421E+03  0.92419840421E+03  0.25500000920E-02 0. -1.
    10030    2    1    2    0    0  0.00000000000E+00  0.00000000000E+00  0.18150018808E+04  0.36633986892E+04  0.31821782051E+04 0.  0.
        3    1    3    3  502    0 -0.12545690802E+04  0.85480835155E+03  0.35909828737E+03  0.15599975914E+04  0.10100000352E+00 0. -1.
       -3    1    3    3    0  502  0.12545690802E+04 -0.85480835155E+03  0.14559035934E+04  0.21034010978E+04  0.10100000352E+00 0.  1.
</event>
<event>
 5   0  0.3858721E-07  0.3202877E+04  0.7818609E-02  0.8188058E-01
        2   -1    0    0  501    0  0.00000000000E+00  0.00000000000E+00  0.15819105017E+04  0.15819105017E+04  0.25500000920E-02 0. -1.
       -2   -1    0    0    0  501  0.00000000000E+00  0.00000000000E+00 -0.16212072840E+04  0.16212072840E+04  0.25500000920E-02 0.  1.
    10030    2    1    2    0    0  0.00000000000E+00  0.00000000000E+00 -0.39296782324E+02  0.32031177857E+04  0.32028767245E+04 0.  0.
        2    1    3    3  502    0 -0.12025997291E+04 -0.39230526203E+03  0.96249237467E+03  0.15895097038E+04  0.25500000920E-02 0. -1.
       -2    1    3    3    0  502  0.12025997291E+04  0.39230526203E+03 -0.10017891570E+04  0.16136080819E+04  0.25500000920E-02 0.  1.
</event>
<event>
 5   0  0.3764056E-07  0.3152427E+04  0.7818609E-02  0.8201495E-01
       -2   -1    0    0    0  501  0.00000000000E+00  0.00000000000E+00  0.11583438171E+04  0.11583438171E+04  0.25500000920E-02 0.  1.
        2   -1    0    0  501    0  0.00000000000E+00  0.00000000000E+00 -0.21448284720E+04  0.21448284720E+04  0.25500000920E-02 0. -1.
    10030    2    1    2    0    0  0.00000000000E+00  0.00000000000E+00 -0.98648465488E+03  0.33031722891E+04  0.31524268742E+04 0.  0.
        5    1    3    3  502    0 -0.81927885791E+03 -0.62679474417E+03  0.75552618036E+03  0.12786443593E+04  0.46999998093E+01 0.  1.
       -5    1    3    3    0  502  0.81927885791E+03  0.62679474417E+03 -0.17420108352E+04  0.20245279298E+04  0.46999998093E+01 0. -1.
</event>
<event>
 5   0  0.1270948E-07  0.3200891E+04  0.7818609E-02  0.8188582E-01
        1   -1    0    0  501    0  0.00000000000E+00  0.00000000000E+00  0.16057575397E+04  0.16057575397E+04  0.50400001928E-02 0. -1.
       -1   -1    0    0    0  501  0.00000000000E+00  0.00000000000E+00 -0.15951506200E+04  0.15951506200E+04  0.50400001928E-02 0.  1.
    10030    2    1    2    0    0  0.00000000000E+00  0.00000000000E+00  0.10606919694E+02  0.32009081597E+04  0.32008905855E+04 0.  0.
        4    1    3    3  502    0  0.67100928086E+03  0.38359018538E+03  0.14067492146E+04  0.16050980814E+04  0.12699999809E+01 0. -1.
       -4    1    3    3    0  502 -0.67100928086E+03 -0.38359018538E+03 -0.13961422949E+04  0.15958100783E+04  0.12699999809E+01 0.  1.
</event>
<event>
 5   0  0.1317293E-07  0.3200799E+04  0.7818609E-02  0.8188606E-01
       -1   -1    0    0    0  501  0.00000000000E+00  0.00000000000E+00  0.19321963371E+04  0.19321963371E+04  0.50400001928E-02 0. -1.
        1   -1    0    0  501    0  0.00000000000E+00  0.00000000000E+00 -0.13255791841E+04  0.13255791841E+04  0.50400001928E-02 0.  1.
    10030    2    1    2    0    0  0.00000000000E+00  0.00000000000E+00  0.60661715297E+03  0.32577755212E+04  0.32007994276E+04 0.  0.
        1    1    3    3  502    0  0.70197517976E+03 -0.14136330541E+04  0.33732262194E+02  0.15786910496E+04  0.50400001928E-02 0.  1.
       -1    1    3    3    0  502 -0.70197517976E+03  0.14136330541E+04  0.57288489078E+03  0.16790844716E+04  0.50400001928E-02 0. -1.
</event>
<event>
 5   0  0.3858721E-07  0.3207535E+04  0.7818609E-02  0.8186830E-01
       -2   -1    0    0    0  501  0.00000000000E+00  0.00000000000E+00  0.10233891274E+04  0.10233891274E+04  0.25500000920E-02 0.  1.
        2   -1    0    0  501    0  0.00000000000E+00  0.00000000000E+00 -0.25132863582E+04  0.25132863582E+04  0.25500000920E-02 0. -1.
    10030    2    1    2    0    0  0.00000000000E+00  0.00000000000E+00 -0.14898972309E+04  0.35366754856E+04  0.32075348372E+04 0.  0.
        2    1    3    3  502    0 -0.10497125774E+03  0.15989779978E+04 -0.67247459937E+03  0.17378065741E+04  0.25500000920E-02 0. -1.
       -2    1    3    3    0  502  0.10497125774E+03 -0.15989779978E+04 -0.81742263151E+03  0.17988689115E+04  0.25500000920E-02 0.  1.
</event>
<event>
 5   0  0.1270948E-07  0.3197283E+04  0.7818609E-02  0.8189535E-01
        1   -1    0    0  501    0  0.00000000000E+00  0.00000000000E+00  0.15702484695E+04  0.15702484695E+04  0.50400001928E-02 0.  1.
       -1   -1    0    0    0  501  0.00000000000E+00  0.00000000000E+00 -0.16275482519E+04  0.16275482519E+04  0.50400001928E-02 0. -1.
    10030    2    1    2    0    0  0.00000000000E+00  0.00000000000E+00 -0.57299782384E+02  0.31977967214E+04  0.31972833166E+04 0.  0.
        4    1    3    3  502    0 -0.15969389057E+04 -0.34585134059E+01 -0.10233470819E+03  0.16002186835E+04  0.12699999809E+01 0.  1.
       -4    1    3    3    0  502  0.15969389057E+04  0.34585134059E+01  0.45034925811E+02  0.15975780379E+04  0.12699999809E+01 0. -1.
</event>
<event>
 5   0  0.3830207E-07  0.3203929E+04  0.7818609E-02  0.8187780E-01
       -2   -1    0    0    0  501  0.00000000000E+00  0.00000000000E+00  0.12836388453E+04  0.12836388453E+04  0.25500000920E-02 0.  1.
        2   -1    0    0  501    0  0.00000000000E+00  0.00000000000E+00 -0.19992307878E+04  0.19992307878E+04  0.25500000920E-02 0. -1.
    10030    2    1    2    0    0  0.00000000000E+00  0.00000000000E+00 -0.71559194254E+03  0.32828696331E+04  0.32039290254E+04 0.  0.
        4    1    3    3  502    0  0.11244528925E+04  0.51149865614E+03  0.68726693001E+03  0.14136345457E+04  0.12699999809E+01 0.  1.
       -4    1    3    3    0  502 -0.11244528925E+04 -0.51149865614E+03 -0.14028588725E+04  0.18692350874E+04  0.12699999809E+01 0. -1.
</event>
<event>
 5   0  0.1277374E-07  0.3202955E+04  0.7818609E-02  0.8188037E-01
       -1   -1    0    0    0  501  0.00000000000E+00  0.00000000000E+00  0.16767550774E+04  0.16767550774E+04  0.50400001928E-02 0. -1.
        1   -1    0    0  501    0  0.00000000000E+00  0.00000000000E+00 -0.15295797488E+04  0.15295797488E+04  0.50400001928E-02 0.  1.
    10030    2    1    2    0    0  0.00000000000E+00  0.00000000000E+00  0.14717532860E+03  0.32063348263E+04  0.32029552667E+04 0.  0.
        5    1    3    3  502    0 -0.67366829604E+03 -0.92142076327E+03  0.11980998290E+04  0.16547841208E+04  0.46999998093E+01 0. -1.
       -5    1    3    3    0  502  0.67366829604E+03  0.92142076327E+03 -0.10509245004E+04  0.15515507055E+04  0.46999998093E+01 0.  1.
</event>
<event>
 5   0  0.3764056E-07  0.3201893E+04  0.7818609E-02  0.8188317E-01
        2   -1    0    0  501    0  0.00000000000E+00  0.00000000000E+00  0.20072811798E+04  0.20072811798E+04  0.25500000920E-02 0.  1.
       -2   -1    0    0    0  501  0.00000000000E+00  0.00000000000E+00 -0.12768665032E+04  0.12768665033E+04  0.25500000920E-02 0. -1.
    10030    2    1    2    0    0  0.00000000000E+00  0.00000000000E+00  0.73041467657E+03  0.32841476831E+04  0.32018932531E+04 0.  0.
        5    1    3    3  502    0  0.65610621274E+02 -0.15995694543E+04  0.37442817742E+03  0.16441246130E+04  0.46999998093E+01 0.  1.
       -5    1    3    3    0  502 -0.65610621274E+02  0.15995694543E+04  0.35598649914E+03  0.16400230701E+04  0.46999998093E+01 0. -1.
</event>
<event>
 5   0  0.3750285E-07  0.3202578E+04  0.7818609E-02  0.8188137E-01
       -2   -1    0    0    0  501  0.00000000000E+00  0.00000000000E+00  0.11317421629E+04  0.11317421629E+04  0.25500000920E-02 0.  1.
        2   -1    0    0  501    0  0.00000000000E+00  0.00000000000E+00 -0.22656459368E+04  0.22656459368E+04  0.25500000920E-02 0. -1.
    10030    2    1    2    0    0  0.00000000000E+00  0.00000000000E+00 -0.11339037738E+04  0.33973880997E+04  0.32025783569E+04 0.  0.
        1    1    3    3  502    0  0.10817273758E+04 -0.80044843601E+03  0.35375679200E+03  0.13914006189E+04  0.50400001928E-02 0.  1.
       -1    1    3    3    0  502 -0.10817273758E+04  0.80044843601E+03 -0.14876605658E+04  0.20059874809E+04  0.50400001928E-02 0. -1.
</event>
<event>
 5   0  0.1365455E-07  0.3200464E+04  0.7818609E-02  0.8188695E-01
        1   -1    0    0  501    0  0.00000000000E+00  0.00000000000E+00  0.15927321077E+04  0.15927321077E+04  0.50400001928E-02 0.  1.
       -1   -1    0    0    0  501  0.00000000000E+00  0.00000000000E+00 -0.16077670789E+04  0.16077670789E+04  0.50400001928E-02 0. -1.
    10030    2    1    2    0    0  0.00000000000E+00  0.00000000000E+00 -0.15034971127E+02  0.32004991866E+04  0.32004638715E+04 0.  0.
        3    1    3    3  502    0 -0.91592833347E+03  0.12707344258E+04 -0.33470842002E+03  0.16017866367E+04  0.10100000352E+00 0. -1.
       -3    1    3    3    0  502  0.91592833347E+03 -0.12707344258E+04  0.31967344889E+03  0.15987125499E+04  0.10100000352E+00 0.  1.
</event>
<event>
 5   0  0.1270948E-07  0.3244688E+04  0.7818609E-02  0.8177114E-01
        1   -1    0    0  501    0  0.00000000000E+00  0.00000000000E+00  0.30674045772E+04  0.30674045772E+04  0.50400001928E-02 0.  1.
       -1   -1    0    0    0  501  0.00000000000E+00  0.00000000000E+00 -0.85805457674E+03  0.85805457676E+03  0.50400001928E-02 0. -1.
    10030    2    1    2    0    0  0.00000000000E+00  0.00000000000E+00  0.22093500005E+04  0.39254591540E+04  0.32446882970E+04 0.  0.
        4    1    3    3  502    0  0.64414464067E+03 -0.83885372964E+03  0.25929887441E+04  0.28003910688E+04  0.12699999809E+01 0.  1.
       -4    1    3    3    0  502 -0.64414464067E+03  0.83885372964E+03 -0.38363874367E+03  0.11250680852E+04  0.12699999809E+01 0. -1.
</event>
<event>
 5   0  0.1270948E-07  0.3202272E+04  0.7818609E-02  0.8188217E-01
        1   -1    0    0  501    0  0.00000000000E+00  0.00000000000E+00  0.15104863666E+04  0.15104863666E+04  0.50400001928E-02 0. -1.
       -1   -1    0    0    0  501  0.00000000000E+00  0.00000000000E+00 -0.16972255002E+04  0.16972255002E+04  0.50400001928E-02 0.  1.
    10030    2    1    2    0    0  0.00000000000E+00  0.00000000000E+00 -0.18673913364E+03  0.32077118668E+04  0.32022716806E+04 0.  0.
        4    1    3    3  502    0 -0.40704852558E+03 -0.80038404715E+03 -0.14212653477E+04  0.16811602918E+04  0.12699999809E+01 0.  1.
       -4    1    3    3    0  502  0.40704852558E+03  0.80038404715E+03  0.12345262141E+04  0.15265515750E+04  0.12699999809E+01 0. -1.
</event>
<event>
 5   0  0.1270948E-07  0.3202201E+04  0.7818609E-02  0.8188236E-01
        1   -1    0    0  501    0  0.00000000000E+00  0.00000000000E+00  0.26785314879E+04  0.26785314879E+04  0.50400001928E-02 0.  1.
       -1   -1    0    0    0  501  0.00000000000E+00  0.00000000000E+00 -0.95706296381E+03  0.95706296383E+03  0.50400001928E-02 0. -1.
    10030    2    1    2    0    0  0.00000000000E+00  0.00000000000E+00  0.17214685241E+04  0.36355944517E+04  0.32022012957E+04 0.  0.
        4    1    3    3  502    0 -0.75246542490E+03  0.11143935157E+04  0.18475318942E+04  0.22850498543E+04  0.12699999809E+01 0.  1.
       -4    1    3    3    0  502  0.75246542490E+03 -0.11143935157E+04 -0.12606337010E+03  0.13505445975E+04  0.12699999809E+01 0. -1.
</event>
<event>
 5   0  0.1365455E-07  0.3200904E+04  0.7818609E-02  0.8188578E-01
        1   -1    0    0  501    0  0.00000000000E+00  0.00000000000E+00  0.13685674084E+04  0.13685674084E+04  0.50400001928E-02 0.  1.
       -1   -1    0    0    0  501  0.00000000000E+00  0.00000000000E+00 -0.18716263462E+04  0.18716263462E+04  0.50400001928E-02 0. -1.
    10030    2    1    2    0    0  0.00000000000E+00  0.00000000000E+00 -0.50305893782E+03  0.32401937546E+04  0.32009041336E+04 0.  0.
        3    1    3    3  502    0  0.15149199399E+04 -0.24869021334E+03 -0.70942854320E+03  0.16911883735E+04  0.10100000352E+00 0.  1.
       -3    1    3    3    0  502 -0.15149199399E+04  0.24869021334E+03  0.20636960538E+03  0.15490053811E+04  0.10100000352E+00 0. -1.
</event>
<event>
 5   0  0.3764056E-07  0.3167950E+04  0.7818609E-02  0.8197333E-01
        2   -1    0    0  501    0  0.00000000000E+00  0.00000000000E+00  0.15769143805E+04  0.15769143805E+04  0.25500000920E-02 0. -1.
       -2   -1    0    0    0  501  0.00000000000E+00  0.00000000000E+00 -0.15910668261E+04  0.15910668261E+04  0.25500000920E-02 0.  1.
    10030    2    1    2    0    0  0.00000000000E+00  0.00000000000E+00 -0.14152445586E+02  0.31679812067E+04  0.31679495946E+04 0.  0.
        5    1    3    3  502    0  0.14245714578E+04  0.47334623154E+03  0.49839254397E+03  0.15817325031E+04  0.46999998093E+01 0. -1.
       -5    1    3    3    0  502 -0.14245714578E+04 -0.47334623154E+03 -0.51254498955E+03  0.15862487036E+04  0.46999998093E+01 0.  1.
</event>
<event>
 5   0  0.3858721E-07  0.3202958E+04  0.7818609E-02  0.8188036E-01
       -2   -1    0    0    0  501  0.00000000000E+00  0.00000000000E+00  0.92424097990E+03  0.92424097991E+03  0.25500000920E-02 0.  1.
        2   -1    0    0  501    0  0.00000000000E+00  0.00000000000E+00 -0.27749640777E+04  0.27749640777E+04  0.25500000920E-02 0. -1.
    10030    2    1    2    0    0  0.00000000000E+00  0.00000000000E+00 -0.18507230978E+04  0.36992050576E+04  0.32029583315E+04 0.  0.
        2    1    3    3  502    0  0.16421483794E+03 -0.14522033686E+04 -0.16901266610E+03  0.14711989730E+04  0.25500000920E-02 0.  1.
       -2    1    3    3    0  502 -0.16421483794E+03  0.14522033686E+04 -0.16817104317E+04  0.22280060846E+04  0.25500000920E-02 0. -1.
</event>
<event>
 5   0  0.1288096E-07  0.3200293E+04  0.7818609E-02  0.8188740E-01
       -1   -1    0    0    0  501  0.00000000000E+00  0.00000000000E+00  0.90107489177E+03  0.90107489179E+03  0.50400001928E-02 0. -1.
        1   -1    0    0  501    0  0.00000000000E+00  0.00000000000E+00 -0.28415721015E+04  0.28415721015E+04  0.50400001928E-02 0.  1.
    10030    2    1    2    0    0  0.00000000000E+00  0.00000000000E+00 -0.19404972097E+04  0.37426469933E+04  0.32002932827E+04 0.  0.
        2    1    3    3  502    0  0.40792263896E+03 -0.89118451497E+03 -0.24494587622E+04  0.26382681719E+04  0.25500000920E-02 0.  1.
       -2    1    3    3    0  502 -0.40792263896E+03  0.89118451497E+03  0.50896155252E+03  0.11043788214E+04  0.25500000920E-02 0. -1.
</event>
<event>
 5   0  0.1317293E-07  0.3206728E+04  0.7818609E-02  0.8187043E-01
        1   -1    0    0  501    0  0.00000000000E+00  0.00000000000E+00  0.28710961198E+04  0.28710961198E+04  0.50400001928E-02 0. -1.
       -1   -1    0    0    0  501  0.00000000000E+00  0.00000000000E+00 -0.89539885647E+03  0.89539885649E+03  0.50400001928E-02 0.  1.
    10030    2    1    2    0    0  0.00000000000E+00  0.00000000000E+00  0.19756972633E+04  0.37664949762E+04  0.32067280412E+04 0.  0.
        1    1    3    3  502    0  0.11252629233E+04 -0.54397742618E+03 -0.19177944161E+03  0.12644791184E+04  0.50400001928E-02 0.  1.
       -1    1    3    3    0  502 -0.11252629233E+04  0.54397742618E+03  0.21674767049E+04  0.25020158578E+04  0.50400001928E-02 0. -1.
</event>
<event>
 5   0  0.1365455E-07  0.3198639E+04  0.7818609E-02  0.8189177E-01
        1   -1    0    0  501    0  0.00000000000E+00  0.00000000000E+00  0.13315950798E+04  0.13315950798E+04  0.50400001928E-02 0.  1.
       -1   -1    0    0    0  501  0.00000000000E+00  0.00000000000E+00 -0.19208708297E+04  0.19208708297E+04  0.50400001928E-02 0. -1.
    10030    2    1    2    0    0  0.00000000000E+00  0.00000000000E+00 -0.58927574988E+03  0.32524659095E+04  0.31986385515E+04 0.  0.
        3    1    3    3  502    0 -0.20076862613E+03  0.14049202491E+04  0.45513982517E+03  0.14903896196E+04  0.10100000352E+00 0.  1.
       -3    1    3    3    0  502  0.20076862613E+03 -0.14049202491E+04 -0.10444155751E+04  0.17620762899E+04  0.10100000352E+00 0. -1.
</event>
<event>
 5   0  0.1317293E-07  0.3199543E+04  0.7818609E-02  0.8188938E-01
        1   -1    0    0  501    0  0.00000000000E+00  0.00000000000E+00  0.24271998087E+04  0.24271998087E+04  0.50400001928E-02 0.  1.
       -1   -1    0    0    0  501  0.00000000000E+00  0.00000000000E+00 -0.10544123761E+04  0.10544123761E+04  0.50400001928E-02 0. -1.
    10030    2    1    2    0    0  0.00000000000E+00  0.00000000000E+00  0.13727874325E+04  0.34816121848E+04  0.31995434160E+04 0.  0.
        1    1    3    3  502    0 -0.10213745244E+03  0.13271723183E+04 -0.27922168021E+03  0.13600673396E+04  0.50400001928E-02 0. -1.
       -1    1    3    3    0  502  0.10213745244E+03 -0.13271723183E+04  0.16520091128E+04  0.21215448452E+04  0.50400001928E-02 0.  1.
</event>
<event>
 5   0  0.1270948E-07  0.3215472E+04  0.7818609E-02  0.8184743E-01
        1   -1    0    0  501    0  0.00000000000E+00  0.00000000000E+00  0.14289965013E+04  0.14289965013E+04  0.50400001928E-02 0. -1.
       -1   -1    0    0    0  501  0.00000000000E+00  0.00000000000E+00 -0.18088326403E+04  0.18088326403E+04  0.50400001928E-02 0.  1.
    10030    2    1    2    0    0  0.00000000000E+00  0.00000000000E+00 -0.37983613904E+03  0.32378291416E+04  0.32154722915E+04 0.  0.
        4    1    3    3  502    0  0.25857047035E+03  0.32648002345E+03  0.13737361577E+04  0.14354792014E+04  0.12699999809E+01 0. -1.
       -4    1    3    3    0  502 -0.25857047035E+03 -0.32648002345E+03 -0.17535722968E+04  0.18023499401E+04  0.12699999809E+01 0.  1.
</event>
<event>
 5   0  0.1270948E-07  0.3204099E+04  0.7818609E-02  0.8187735E-01
       -1   -1    0    0    0  501  0.00000000000E+00  0.00000000000E+00  0.14240657250E+04  0.14240657250E+04  0.50400001928E-02 0.  1.
        1   -1    0    0  501    0  0.00000000000E+00  0.00000000000E+00 -0.18022783937E+04  0.18022783937E+04  0.50400001928E-02 0. -1.
    10030    2    1    2    0    0  0.00000000000E+00  0.00000000000E+00 -0.37821266868E+03  0.32263441187E+04  0.32040991791E+04 0.  0.
        4    1    3    3  502    0  0.72201957042E+03  0.17487323423E+03 -0.16183508023E+04  0.17807172264E+04  0.12699999809E+01 0. -1.
       -4    1    3    3    0  502 -0.72201957042E+03 -0.17487323423E+03  0.12401381337E+04  0.14456268922E+04  0.12699999809E+01 0.  1.
</event>
<event>
 5   0  0.1365455E-07  0.3190794E+04  0.7818609E-02  0.8191253E-01
       -1   -1    0    0    0  501  0.00000000000E+00  0.00000000000E+00  0.21264596849E+04  0.21264596849E+04  0.50400001928E-02 0. -1.
        1   -1    0    0  501    0  0.00000000000E+00  0.00000000000E+00 -0.11969623985E+04  0.11969623985E+04  0.50400001928E-02 0.  1.
    10030    2    1    2    0    0  0.00000000000E+00  0.00000000000E+00  0.92949728639E+03  0.33234220834E+04  0.31907944369E+04 0.  0.
        3    1    3    3  502    0 -0.10737481330E+04 -0.72911784054E+03  0.14310748928E+04  0.19319739226E+04  0.10100000352E+00 0. -1.
       -3    1    3    3    0  502  0.10737481330E+04  0.72911784054E+03 -0.50157760644E+03  0.13914481607E+04  0.10100000352E+00 0.  1.
</event>
<event>
 5   0  0.3858721E-07  0.3199827E+04  0.7818609E-02  0.8188863E-01
       -2   -1    0    0    0  501  0.00000000000E+00  0.00000000000E+00  0.11493643921E+04  0.11493643921E+04  0.25500000920E-02 0. -1.
        2   -1    0    0  501    0  0.00000000000E+00  0.00000000000E+00 -0.22270769856E+04  0.22270769857E+04  0.25500000920E-02 0.  1.
    10030    2    1    2    0    0  0.00000000000E+00  0.00000000000E+00 -0.10777125935E+04  0.33764413778E+04  0.31998268615E+04 0.  0.
        2    1    3    3  502    0 -0.10502811727E+03  0.77089571242E+03 -0.20140219128E+04  0.21590728033E+04  0.25500000920E-02 0.  1.
       -2    1    3    3    0  502  0.10502811727E+03 -0.77089571242E+03  0.93630931923E+03  0.12173685745E+04  0.25500000920E-02 0. -1.
</event>
<event>
 5   0  0.1230450E-07  0.3212515E+04  0.7818609E-02  0.8185520E-01
       -3   -1    0    0    0  501  0.00000000000E+00  0.00000000000E+00  0.19634532335E+04  0.19634532361E+04  0.10100000352E+00 0.  1.
        3   -1    0    0  501    0  0.00000000000E+00  0.00000000000E+00 -0.13140435999E+04  0.13140436038E+04  0.10100000352E+00 0. -1.
    10030    2    1    2    0    0  0.00000000000E+00  0.00000000000E+00  0.64940963360E+03  0.32774968399E+04  0.32125150059E+04 0.  0.
        2    1    3    3  502    0 -0.15224680016E+04 -0.20389309890E+03 -0.15445689362E+03  0.15438063815E+04  0.25500000920E-02 0. -1.
       -2    1    3    3    0  502  0.15224680016E+04  0.20389309890E+03  0.80386652722E+03  0.17336904583E+04  0.25500000920E-02 0.  1.
</event>
<event>
 5   0  0.3750285E-07  0.3196333E+04  0.7818609E-02  0.8189786E-01
       -2   -1    0    0    0  501  0.00000000000E+00  0.00000000000E+00  0.11179546613E+04  0.11179546613E+04  0.25500000920E-02 0.  1.
        2   -1    0    0  501    0  0.00000000000E+00  0.00000000000E+00 -0.22846505621E+04  0.22846505621E+04  0.25500000920E-02 0. -1.
    10030    2    1    2    0    0  0.00000000000E+00  0.00000000000E+00 -0.11666959008E+04  0.34026052234E+04  0.31963327394E+04 0.  0.
        1    1    3    3  502    0 -0.23876872910E+03 -0.63372667249E+03  0.95766058845E+03  0.11729167933E+04  0.50400001928E-02 0.  1.
       -1    1    3    3    0  502  0.23876872910E+03  0.63372667249E+03 -0.21243564893E+04  0.22296884300E+04  0.50400001928E-02 0. -1.
</event>
<event>
 5   0  0.1365455E-07  0.3202416E+04  0.7818609E-02  0.8188180E-01
       -1   -1    0    0    0  501  0.00000000000E+00  0.00000000000E+00  0.12390905415E+04  0.12390905415E+04  0.50400001928E-02 0.  1.
        1   -1    0    0  501    0  0.00000000000E+00  0.00000000000E+00 -0.20691517684E+04  0.20691517684E+04  0.50400001928E-02 0. -1.
    10030    2    1    2    0    0  0.00000000000E+00  0.00000000000E+00 -0.83006122697E+03  0.33082423099E+04  0.32024155790E+04 0.  0.
        3    1    3    3  502    0  0.14570204595E+03  0.26028513646E+02 -0.20620699108E+04  0.20673748806E+04  0.10100000352E+00 0. -1.
       -3    1    3    3    0  502 -0.14570204595E+03 -0.26028513646E+02  0.12320086839E+04  0.12408674293E+04  0.10100000352E+00 0.  1.
</event>
<event>
 5   0  0.3750285E-07  0.3202191E+04  0.7818609E-02  0.8188239E-01
        2   -1    0    0  501    0  0.00000000000E+00  0.00000000000E+00  0.14372921657E+04  0.14372921657E+04  0.25500000920E-02 0. -1.
       -2   -1    0    0    0  501  0.00000000000E+00  0.00000000000E+00 -0.17835669787E+04  0.17835669787E+04  0.25500000920E-02 0.  1.
    10030    2    1    2    0    0  0.00000000000E+00  0.00000000000E+00 -0.34627481309E+03  0.32208591444E+04  0.32021910283E+04 0.  0.
        1    1    3    3  502    0  0.59968014187E+03 -0.93842578665E+03  0.98389375644E+03  0.14860370633E+04  0.50400001928E-02 0. -1.
       -1    1    3    3    0  502 -0.59968014187E+03  0.93842578665E+03 -0.13301685695E+04  0.17348220811E+04  0.50400001928E-02 0.  1.
</event>
<event>
 5   0  0.1317293E-07  0.3201457E+04  0.7818609E-02  0.8188433E-01
        1   -1    0    0  501    0  0.00000000000E+00  0.00000000000E+00  0.20420251874E+04  0.20420251874E+04  0.50400001928E-02 0. -1.
       -1   -1    0    0    0  501  0.00000000000E+00  0.00000000000E+00 -0.12547991112E+04  0.12547991112E+04  0.50400001928E-02 0.  1.
    10030    2    1    2    0    0  0.00000000000E+00  0.00000000000E+00  0.78722607620E+03  0.32968242986E+04  0.32014567872E+04 0.  0.
        1    1    3    3  502    0 -0.30622642504E+01 -0.37004377149E+03 -0.12101452564E+04  0.12654616991E+04  0.50400001928E-02 0.  1.
       -1    1    3    3    0  502  0.30622642504E+01  0.37004377149E+03  0.19973713326E+04  0.20313625995E+04  0.50400001928E-02 0. -1.
</event>
<event>
 5   0  0.3764056E-07  0.3167493E+04  0.7818609E-02  0.8197455E-01
        2   -1    0    0  501    0  0.00000000000E+00  0.00000000000E+00  0.21195933133E+04  0.21195933133E+04  0.25500000920E-02 0.  1.
       -2   -1    0    0    0  501  0.00000000000E+00  0.00000000000E+00 -0.11833653365E+04  0.11833653365E+04  0.25500000920E-02 0. -1.
    10030    2    1    2    0    0  0.00000000000E+00  0.00000000000E+00  0.93622797674E+03  0.33029586498E+04  0.31674931757E+04 0.  0.
        5    1    3    3  502    0  0.73220023299E+03  0.80604776592E+03  0.16672516148E+04  0.19913764635E+04  0.46999998093E+01 0.  1.
       -5    1    3    3    0  502 -0.73220023299E+03 -0.80604776592E+03 -0.73102363808E+03  0.13115821864E+04  0.46999998093E+01 0. -1.
</event>
<event>
 5   0  0.1288096E-07  0.3200256E+04  0.7818609E-02  0.8188749E-01
        1   -1    0    0  501    0  0.00000000000E+00  0.00000000000E+00  0.17318198098E+04  0.17318198098E+04  0.50400001928E-02 0.  1.
       -1   -1    0    0    0  501  0.00000000000E+00  0.00000000000E+00 -0.14784506764E+04  0.14784506764E+04  0.50400001928E-02 0. -1.
    10030    2    1    2    0    0  0.00000000000E+00  0.00000000000E+00  0.25336913341E+03  0.32102704862E+04  0.32002563454E+04 0.  0.
        2    1    3    3  502    0 -0.11054630807E+04 -0.92019880572E+03  0.83001741056E+03  0.16606454669E+04  0.25500000920E-02 0.  1.
       -2    1    3    3    0  502  0.11054630807E+04  0.92019880572E+03 -0.57664827715E+03  0.15496250193E+04  0.25500000920E-02 0. -1.
</event>
<event>
 5   0  0.3942564E-07  0.3198505E+04  0.7818609E-02  0.8189212E-01
       -2   -1    0    0    0  501  0.00000000000E+00  0.00000000000E+00  0.14166036151E+04  0.14166036151E+04  0.25500000920E-02 0.  1.
        2   -1    0    0  501    0  0.00000000000E+00  0.00000000000E+00 -0.18054506512E+04  0.18054506512E+04  0.25500000920E-02 0. -1.
    10030    2    1    2    0    0  0.00000000000E+00  0.00000000000E+00 -0.38884703612E+03  0.32220542662E+04  0.31985046001E+04 0.  0.
        3    1    3    3  502    0 -0.10941804196E+04 -0.36525804789E+03  0.92141596356E+03  0.14763643251E+04  0.10100000352E+00 0.  1.
       -3    1    3    3    0  502  0.10941804196E+04  0.36525804789E+03 -0.13102629997E+04  0.17456899412E+04  0.10100000352E+00 0. -1.
</event>
<event>
 5   0  0.3858721E-07  0.3193483E+04  0.7818609E-02  0.8190540E-01
       -2   -1    0    0    0  501  0.00000000000E+00  0.00000000000E+00  0.15118999161E+04  0.15118999161E+04  0.25500000920E-02 0.  1.
        2   -1    0    0  501    0  0.00000000000E+00  0.00000000000E+00 -0.16863437861E+04  0.16863437861E+04  0.25500000920E-02 0. -1.
    10030    2    1    2    0    0  0.00000000000E+00  0.00000000000E+00 -0.17444387000E+03  0.31982437022E+04  0.31934827563E+04 0.  0.
        2    1    3    3  502    0  0.74200539096E+03  0.58636375942E+03 -0.13756812726E+04  0.16693991202E+04  0.25500000920E-02 0. -1.
       -2    1    3    3    0  502 -0.74200539096E+03 -0.58636375942E+03  0.12012374026E+04  0.15288445820E+04  0.25500000920E-02 0.  1.
</event>
<event>
 5   0  0.1288096E-07  0.3205453E+04  0.7818609E-02  0.8187378E-01
       -1   -1    0    0    0  501  0.00000000000E+00  0.00000000000E+00  0.12114376162E+04  0.12114376162E+04  0.50400001928E-02 0.  1.
        1   -1    0    0  501    0  0.00000000000E+00  0.00000000000E+00 -0.21204003135E+04  0.21204003135E+04  0.50400001928E-02 0. -1.
    10030    2    1    2    0    0  0.00000000000E+00  0.00000000000E+00 -0.90896269732E+03  0.33318379297E+04  0.32054532916E+04 0.  0.
        2    1    3    3  502    0  0.27483762479E+03  0.11023797163E+02  0.11867209881E+04  0.12181805891E+04  0.25500000920E-02 0.  1.
       -2    1    3    3    0  502 -0.27483762479E+03 -0.11023797163E+02 -0.20956836854E+04  0.21136573406E+04  0.25500000920E-02 0. -1.
</event>
<event>
 5   0  0.3764056E-07  0.3201280E+04  0.7818609E-02  0.8188479E-01
        2   -1    0    0  501    0  0.00000000000E+00  0.00000000000E+00  0.18393370812E+04  0.18393370812E+04  0.25500000920E-02 0.  1.
       -2   -1    0    0    0  501  0.00000000000E+00  0.00000000000E+00 -0.13929196355E+04  0.13929196355E+04  0.25500000920E-02 0. -1.
    10030    2    1    2    0    0  0.00000000000E+00  0.00000000000E+00  0.44641744577E+03  0.32322567167E+04  0.32012802044E+04 0.  0.
        5    1    3    3  502    0 -0.56878139403E+03  0.11233332449E+04 -0.77460322143E+03  0.14783173184E+04  0.46999998093E+01 0. -1.
       -5    1    3    3    0  502  0.56878139403E+03 -0.11233332449E+04  0.12210206672E+04  0.17539393983E+04  0.46999998093E+01 0.  1.
</event>
<event>
 5   0  0.3764056E-07  0.3203407E+04  0.7818609E-02  0.8187918E-01
       -2   -1    0    0    0  501  0.00000000000E+00  0.00000000000E+00  0.10649768744E+04  0.10649768744E+04  0.25500000920E-02 0.  1.
        2   -1    0    0  501    0  0.00000000000E+00  0.00000000000E+00 -0.24089301193E+04  0.24089301193E+04  0.25500000920E-02 0. -1.
    10030    2    1    2    0    0  0.00000000000E+00  0.00000000000E+00 -0.13439532449E+04  0.34739069938E+04  0.32034074791E+04 0.  0.
        5    1    3    3  502    0 -0.75994053075E+03  0.63118813543E+03 -0.20392005275E+04  0.22658925292E+04  0.46999998093E+01 0. -1.
       -5    1    3    3    0  502  0.75994053075E+03 -0.63118813543E+03  0.69524728262E+03  0.12080144646E+04  0.46999998093E+01 0.  1.
</event>
<event>
 5   0  0.3942564E-07  0.3197421E+04  0.7818609E-02  0.8189499E-01
        2   -1    0    0  501    0  0.00000000000E+00  0.00000000000E+00  0.13679471466E+04  0.13679471466E+04  0.25500000920E-02 0. -1.
       -2   -1    0    0    0  501  0.00000000000E+00  0.00000000000E+00 -0.18684017072E+04  0.18684017072E+04  0.25500000920E-02 0.  1.
    10030    2    1    2    0    0  0.00000000000E+00  0.00000000000E+00 -0.50045456061E+03  0.32363488538E+04  0.31974207005E+04 0.  0.
        3    1    3    3  502    0 -0.56163028703E+03 -0.72759749338E+03  0.10737686607E+04  0.14134375963E+04  0.10100000352E+00 0. -1.
       -3    1    3    3    0  502  0.56163028703E+03  0.72759749338E+03 -0.15742232214E+04  0.18229112575E+04  0.10100000352E+00 0.  1.
</event>
<event>
 5   0  0.3750285E-07  0.3200673E+04  0.7818609E-02  0.8188640E-01
       -2   -1    0    0    0  501  0.00000000000E+00  0.00000000000E+00  0.28594639416E+04  0.28594639416E+04  0.25500000920E-02 0.  1.
        2   -1    0    0  501    0  0.00000000000E+00  0.00000000000E+00 -0.89564916406E+03  0.89564916406E+03  0.25500000920E-02 0. -1.
    10030    2    1    2    0    0  0.00000000000E+00  0.00000000000E+00  0.19638147776E+04  0.37551131057E+04  0.32006727349E+04 0.  0.
        1    1    3    3  502    0  0.13411544089E+04 -0.77342761949E+03  0.14573044612E+04  0.21261753746E+04  0.50400001928E-02 0. -1.
       -1    1    3    3    0  502 -0.13411544089E+04  0.77342761949E+03  0.50651031635E+03  0.16289377310E+04  0.50400001928E-02 0.  1.
</event>
<event>
 5   0  0.1277374E-07  0.3132819E+04  0.7818609E-02  0.8206788E-01
        1   -1    0    0  501    0  0.00000000000E+00  0.00000000000E+00  0.26286194683E+04  0.26286194683E+04  0.50400001928E-02 0.  1.
       -1   -1    0    0    0  501  0.00000000000E+00  0.00000000000E+00 -0.93343223425E+03  0.93343223426E+03  0.50400001928E-02 0. -1.
    10030    2    1    2    0    0  0.00000000000E+00  0.00000000000E+00  0.16951872340E+04  0.35620517025E+04  0.31328186307E+04 0.  0.
        5    1    3    3  502    0  0.76289868452E+03 -0.13408385100E+04  0.53880805107E+03  0.16340742085E+04  0.46999998093E+01 0.  1.
       -5    1    3    3    0  502 -0.76289868452E+03  0.13408385100E+04  0.11563791829E+04  0.19279774941E+04  0.46999998093E+01 0. -1.
</event>
<event>
 5   0  0.1317293E-07  0.3199401E+04  0.7818609E-02  0.8188975E-01
       -1   -1    0    0    0  501  0.00000000000E+00  0.00000000000E+00  0.13461100488E+04  0.13461100488E+04  0.50400001928E-02 0.  1.
        1   -1    0    0  501    0  0.00000000000E+00  0.00000000000E+00 -0.19010637935E+04  0.19010637935E+04  0.50400001928E-02 0. -1.
    10030    2    1    2    0    0  0.00000000000E+00  0.00000000000E+00 -0.55495374469E+03  0.32471738424E+04  0.31994006163E+04 0.  0.
        1    1    3    3  502    0  0.48551511241E+03  0.14706802065E+04  0.12902317197E+03  0.15541145946E+04  0.50400001928E-02 0. -1.
       -1    1    3    3    0  502 -0.48551511241E+03 -0.14706802065E+04 -0.68397691666E+03  0.16930592478E+04  0.50400001928E-02 0.  1.
</event>
<event>
 5   0  0.3858721E-07  0.3206621E+04  0.7818609E-02  0.8187071E-01
       -2   -1    0    0    0  501  0.00000000000E+00  0.00000000000E+00  0.10998099796E+04  0.10998099796E+04  0.25500000920E-02 0. -1.
        2   -1    0    0  501    0  0.00000000000E+00  0.00000000000E+00 -0.23373174515E+04  0.23373174515E+04  0.25500000920E-02 0.  1.
    10030    2    1    2    0    0  0.00000000000E+00  0.00000000000E+00 -0.12375074719E+04  0.34371274311E+04  0.32066213114E+04 0.  0.
        2    1    3    3  502    0 -0.12061371814E+02 -0.36190088338E+03 -0.22929148215E+04  0.23213306755E+04  0.25500000920E-02 0.  1.
       -2    1    3    3    0  502  0.12061371814E+02  0.36190088338E+03  0.10554073497E+04  0.11157967556E+04  0.25500000920E-02 0. -1.
</event>
<event>
 5   0  0.1288096E-07  0.3194510E+04  0.7818609E-02  0.8190269E-01
        1   -1    0    0  501    0  0.00000000000E+00  0.00000000000E+00  0.20376829018E+04  0.20376829018E+04  0.50400001928E-02 0.  1.
       -1   -1    0    0    0  501  0.00000000000E+00  0.00000000000E+00 -0.12520215493E+04  0.12520215493E+04  0.50400001928E-02 0. -1.
    10030    2    1    2    0    0  0.00000000000E+00  0.00000000000E+00  0.78566135251E+03  0.32897044511E+04  0.31945096047E+04 0.  0.
        2    1    3    3  502    0  0.82009274083E+03  0.90404109397E+03 -0.66810300353E+03  0.13914754854E+04  0.25500000920E-02 0. -1.
       -2    1    3    3    0  502 -0.82009274083E+03 -0.90404109397E+03  0.14537643560E+04  0.18982289657E+04  0.25500000920E-02 0.  1.
</event>
<event>
 5   0  0.3750285E-07  0.3195168E+04  0.7818609E-02  0.8190095E-01
       -2   -1    0    0    0  501  0.00000000000E+00  0.00000000000E+00  0.11666923041E+04  0.11666923041E+04  0.25500000920E-02 0. -1.
        2   -1    0    0  501    0  0.00000000000E+00  0.00000000000E+00 -0.21876154736E+04  0.21876154736E+04  0.25500000920E-02 0.  1.
    10030    2    1    2    0    0  0.00000000000E+00  0.00000000000E+00 -0.10209231695E+04  0.33543077778E+04  0.31951676873E+04 0.  0.
        1    1    3    3  502    0  0.14665943198E+02 -0.71603512541E+03 -0.20096472803E+04  0.21334487531E+04  0.50400001928E-02 0.  1.
       -1    1    3    3    0  502 -0.14665943198E+02  0.71603512541E+03  0.98872411083E+03  0.12208590247E+04  0.50400001928E-02 0. -1.
</event>
<event>
 5   0  0.3764056E-07  0.3195787E+04  0.7818609E-02  0.8189931E-01
        2   -1    0    0  501    0  0.00000000000E+00  0.00000000000E+00  0.17534010322E+04  0.17534010322E+04  0.25500000920E-02 0. -1.
       -2   -1    0    0    0  501  0.00000000000E+00  0.00000000000E+00 -0.14561777630E+04  0.14561777630E+04  0.25500000920E-02 0.  1.
    10030    2    1    2    0    0  0.00000000000E+00  0.00000000000E+00  0.29722326920E+03  0.32095787951E+04  0.31957869720E+04 0.  0.
        5    1    3    3  502    0  0.68466713659E+03  0.40059720326E+02 -0.13008310803E+04  0.14705636534E+04  0.46999998093E+01 0.  1.
       -5    1    3    3    0  502 -0.68466713659E+03 -0.40059720326E+02  0.15980543495E+04  0.17390151417E+04  0.46999998093E+01 0. -1.
</event>
<event>
 5   0  0.1277374E-07  0.3215352E+04  0.7818609E-02  0.8184774E-01
       -1   -1    0    0    0  501  0.00000000000E+00  0.00000000000E+00  0.19097352879E+04  0.19097352879E+04  0.50400001928E-02 0.  1.
        1   -1    0    0  501    0  0.00000000000E+00  0.00000000000E+00 -0.13533931811E+04  0.13533931811E+04  0.50400001928E-02 0. -1.
    10030    2    1    2    0    0  0.00000000000E+00  0.00000000000E+00  0.55634210679E+03  0.32631284691E+04  0.32153523704E+04 0.  0.
        5    1    3    3  502    0 -0.53983324931E+03  0.12194971128E+04 -0.63294801213E+03  0.14762243804E+04  0.46999998093E+01 0. -1.
       -5    1    3    3    0  502  0.53983324931E+03 -0.12194971128E+04  0.11892901189E+04  0.17869040887E+04  0.46999998093E+01 0.  1.
</event>
<event>
 5   0  0.1277374E-07  0.3195554E+04  0.7818609E-02  0.8189992E-01
       -1   -1    0    0    0  501  0.00000000000E+00  0.00000000000E+00  0.18953651163E+04  0.18953651163E+04  0.50400001928E-02 0.  1.
        1   -1    0    0  501    0  0.00000000000E+00  0.00000000000E+00 -0.13469125016E+04  0.13469125016E+04  0.50400001928E-02 0. -1.
    10030    2    1    2    0    0  0.00000000000E+00  0.00000000000E+00  0.54845261462E+03  0.32422776179E+04  0.31955537675E+04 0.  0.
        5    1    3    3  502    0 -0.92476850453E+03  0.11552879396E+04 -0.33706262939E+03  0.15177352590E+04  0.46999998093E+01 0.  1.
       -5    1    3    3    0  502  0.92476850453E+03 -0.11552879396E+04  0.88551524402E+03  0.17245423589E+04  0.46999998093E+01 0. -1.
</event>
<event>
 5   0  0.3750285E-07  0.3201050E+04  0.7818609E-02  0.8188540E-01
        2   -1    0    0  501    0  0.00000000000E+00  0.00000000000E+00  0.22556683903E+04  0.22556683903E+04  0.25500000920E-02 0. -1.
       -2   -1    0    0    0  501  0.00000000000E+00  0.00000000000E+00 -0.11356636064E+04  0.11356636064E+04  0.25500000920E-02 0.  1.
    10030    2    1    2    0    0  0.00000000000E+00  0.00000000000E+00  0.11200047839E+04  0.33913319966E+04  0.32010501395E+04 0.  0.
        1    1    3    3  502    0 -0.11917730694E+04 -0.87497650099E+03 -0.89440469571E+02  0.14811841627E+04  0.50400001928E-02 0.  1.
       -1    1    3    3    0  502  0.11917730694E+04  0.87497650099E+03  0.12094452535E+04  0.19101478339E+04  0.50400001928E-02 0. -1.
</event>
<event>
 5   0  0.3830207E-07  0.3200865E+04  0.7818609E-02  0.8188589E-01
        2   -1    0    0  501    0  0.00000000000E+00  0.00000000000E+00  0.95293876728E+03  0.95293876728E+03  0.25500000920E-02 0.  1.
       -2   -1    0    0    0  501  0.00000000000E+00  0.00000000000E+00 -0.26878794941E+04  0.26878794941E+04  0.25500000920E-02 0. -1.
    10030    2    1    2    0    0  0.00000000000E+00  0.00000000000E+00 -0.17349407268E+04  0.36408182614E+04  0.32008652403E+04 0.  0.
        4    1    3    3  502    0  0.50966087531E+03 -0.13993350294E+04 -0.15341064244E+04  0.21380778439E+04  0.12699999809E+01 0. -1.
       -4    1    3    3    0  502 -0.50966087531E+03  0.13993350294E+04 -0.20083430248E+03  0.15027404175E+04  0.12699999809E+01 0.  1.
</event>
<event>
 5   0  0.1288096E-07  0.3203180E+04  0.7818609E-02  0.8187978E-01
        1   -1    0    0  501    0  0.00000000000E+00  0.00000000000E+00  0.11333016052E+04  0.11333016052E+04  0.50400001928E-02 0. -1.
       -1   -1    0    0    0  501  0.00000000000E+00  0.00000000000E+00 -0.22633783393E+04  0.22633783393E+04  0.50400001928E-02 0.  1.
    10030    2    1    2    0    0  0.00000000000E+00  0.00000000000E+00 -0.11300767340E+04  0.33966799445E+04  0.32031798608E+04 0.  0.
        2    1    3    3  502    0 -0.11723986660E+04  0.22570603326E+03  0.56698383548E+03  0.13217157467E+04  0.25500000920E-02 0. -1.
       -2    1    3    3    0  502  0.11723986660E+04 -0.22570603326E+03 -0.16970605695E+04  0.20749641978E+04  0.25500000920E-02 0.  1.
</event>
<event>
 5   0  0.1270948E-07  0.3225356E+04  0.7818609E-02  0.8182153E-01
        1   -1    0    0  501    0  0.00000000000E+00  0.00000000000E+00  0.21487249359E+04  0.21487249360E+04  0.50400001928E-02 0. -1.
       -1   -1    0    0    0  501  0.00000000000E+00  0.00000000000E+00 -0.12103601397E+04  0.12103601397E+04  0.50400001928E-02 0.  1.
    10030    2    1    2    0    0  0.00000000000E+00  0.00000000000E+00  0.93836479627E+03  0.33590850756E+04  0.32253564229E+04 0.  0.
        4    1    3    3  502    0 -0.78486098789E+03 -0.12970557060E+04 -0.10349759580E+03  0.15195636347E+04  0.12699999809E+01 0.  1.
       -4    1    3    3    0  502  0.78486098789E+03  0.12970557060E+04  0.10418623921E+04  0.18395214409E+04  0.12699999809E+01 0. -1.
</event>
<event>
 5   0  0.3764056E-07  0.3188212E+04  0.7818609E-02  0.8191937E-01
       -2   -1    0    0    0  501  0.00000000000E+00  0.00000000000E+00  0.11543731372E+04  0.11543731372E+04  0.25500000920E-02 0. -1.
        2   -1    0    0  501    0  0.00000000000E+00  0.00000000000E+00 -0.22013448561E+04  0.22013448561E+04  0.25500000920E-02 0.  1.
    10030    2    1    2    0    0  0.00000000000E+00  0.00000000000E+00 -0.10469717189E+04  0.33557179933E+04  0.31882116414E+04 0.  0.
        5    1    3    3  502    0 -0.10827876222E+03  0.13314071151E+04  0.39215198332E+03  0.13921833445E+04  0.46999998093E+01 0.  1.
       -5    1    3    3    0  502  0.10827876222E+03 -0.13314071151E+04 -0.14391237022E+04  0.19635346488E+04  0.46999998093E+01 0. -1.
</event>
<event>
 5   0  0.1317293E-07  0.3203565E+04  0.7818609E-02  0.8187876E-01
       -1   -1    0    0    0  501  0.00000000000E+00  0.00000000000E+00  0.19400414200E+04  0.19400414200E+04  0.50400001928E-02 0. -1.
        1   -1    0    0  501    0  0.00000000000E+00  0.00000000000E+00 -0.13225010583E+04  0.13225010584E+04  0.50400001928E-02 0.  1.
    10030    2    1    2    0    0  0.00000000000E+00  0.00000000000E+00  0.61754036167E+03  0.32625424784E+04  0.32035647839E+04 0.  0.
        1    1    3    3  502    0  0.96998172604E+03 -0.84586029768E+03 -0.66239078352E+03  0.14474480102E+04  0.50400001928E-02 0.  1.
       -1    1    3    3    0  502 -0.96998172604E+03  0.84586029768E+03  0.12799311452E+04  0.18150944682E+04  0.50400001928E-02 0. -1.
</event>
<event>
 5   0  0.3764056E-07  0.3200466E+04  0.7818609E-02  0.8188694E-01
       -2   -1    0    0    0  501  0.00000000000E+00  0.00000000000E+00  0.17493017964E+04  0.17493017964E+04  0.25500000920E-02 0.  1.
        2   -1    0    0  501    0  0.00000000000E+00  0.00000000000E+00 -0.14638673060E+04  0.14638673060E+04  0.25500000920E-02 0. -1.
    10030    2    1    2    0    0  0.00000000000E+00  0.00000000000E+00  0.28543449040E+03  0.32131691023E+04  0.32004660335E+04 0.  0.
        5    1    3    3  502    0 -0.15718552492E+04  0.44022736858E+02 -0.15520404730E+03  0.15801193980E+04  0.46999998093E+01 0.  1.
       -5    1    3    3    0  502  0.15718552492E+04 -0.44022736858E+02  0.44063853769E+03  0.16330497043E+04  0.46999998093E+01 0. -1.
</event>
<event>
 5   0  0.1288096E-07  0.3198706E+04  0.7818609E-02  0.8189159E-01
       -1   -1    0    0    0  501  0.00000000000E+00  0.00000000000E+00  0.14142024477E+04  0.14142024477E+04  0.50400001928E-02 0.  1.
        1   -1    0    0  501    0  0.00000000000E+00  0.00000000000E+00 -0.18087440608E+04  0.18087440609E+04  0.50400001928E-02 0. -1.
    10030    2    1    2    0    0  0.00000000000E+00  0.00000000000E+00 -0.39454161316E+03  0.32229465086E+04  0.31987061623E+04 0.  0.
        2    1    3    3  502    0 -0.37893011444E+03 -0.15091601797E+04  0.17536669140E+03  0.15658563012E+04  0.25500000920E-02 0.  1.
       -2    1    3    3    0  502  0.37893011444E+03  0.15091601797E+04 -0.56990830455E+03  0.16570902073E+04  0.25500000920E-02 0. -1.
</event>
<event>
 5   0  0.3750285E-07  0.3202733E+04  0.7818609E-02  0.8188096E-01
       -2   -1    0    0    0  501  0.00000000000E+00  0.00000000000E+00  0.19127077050E+04  0.19127077050E+04  0.25500000920E-02 0.  1.
        2   -1    0    0  501    0  0.00000000000E+00  0.00000000000E+00 -0.13407035395E+04  0.13407035395E+04  0.25500000920E-02 0. -1.
    10030    2    1    2    0    0  0.00000000000E+00  0.00000000000E+00  0.57200416557E+03  0.32534112445E+04  0.32027325771E+04 0.  0.
        1    1    3    3  502    0  0.17052448191E+03 -0.13800401394E+04 -0.52078480007E+03  0.14848589810E+04  0.50400001928E-02 0. -1.
       -1    1    3    3    0  502 -0.17052448191E+03  0.13800401394E+04  0.10927889656E+04  0.17685522635E+04  0.50400001928E-02 0.  1.
</event>
<event>
 5   0  0.3858721E-07  0.3203379E+04  0.7818609E-02  0.8187925E-01
       -2   -1    0    0    0  501  0.00000000000E+00  0.00000000000E+00  0.16808425594E+04  0.16808425594E+04  0.25500000920E-02 0.  1.
        2   -1    0    0  501    0  0.00000000000E+00  0.00000000000E+00 -0.15262640768E+04  0.15262640768E+04  0.25500000920E-02 0. -1.
    10030    2    1    2    0    0  0.00000000000E+00  0.00000000000E+00  0.15457848260E+03  0.32071066362E+04  0.32033792265E+04 0.  0.
        2    1    3    3  502    0 -0.28865155460E+03 -0.19628733521E+03  0.16422975731E+04  0.16789847398E+04  0.25500000920E-02 0.  1.
       -2    1    3    3    0  502  0.28865155460E+03  0.19628733521E+03 -0.14877190905E+04  0.15281218964E+04  0.25500000920E-02 0. -1.
</event>
<event>
 5   0  0.1230450E-07  0.3199053E+04  0.7818609E-02  0.8189067E-01
        3   -1    0    0  501    0  0.00000000000E+00  0.00000000000E+00  0.19017238551E+04  0.19017238578E+04  0.10100000352E+00 0. -1.
       -3   -1    0    0    0  501  0.00000000000E+00  0.00000000000E+00 -0.13453507521E+04  0.13453507558E+04  0.10100000352E+00 0.  1.
    10030    2    1    2    0    0  0.00000000000E+00  0.00000000000E+00  0.55637310307E+03  0.32470746137E+04  0.31990533782E+04 0.  0.
        5    1    3    3  502    0 -0.36582302252E+03  0.14433185061E+04  0.87131159436E+03  0.17251668842E+04  0.46999998093E+01 0. -1.
       -5    1    3    3    0  502  0.36582302252E+03 -0.14433185061E+04 -0.31493849129E+03  0.15219077295E+04  0.46999998093E+01 0.  1.
</event>
<event>
 5   0  0.1270948E-07  0.3198149E+04  0.7818609E-02  0.8189306E-01
        1   -1    0    0  501    0  0.00000000000E+00  0.00000000000E+00  0.23285574421E+04  0.23285574421E+04  0.50400001928E-02 0.  1.
       -1   -1    0    0    0  501  0.00000000000E+00  0.00000000000E+00 -0.10981217321E+04  0.10981217322E+04  0.50400001928E-02 0. -1.
    10030    2    1    2    0    0  0.00000000000E+00  0.00000000000E+00  0.12304357099E+04  0.34266791742E+04  0.31981491721E+04 0.  0.
        4    1    3    3  502    0  0.78033632616E+03  0.62575323368E+03 -0.72154913338E+03  0.12333396354E+04  0.12699999809E+01 0. -1.
       -4    1    3    3    0  502 -0.78033632616E+03 -0.62575323368E+03  0.19519848433E+04  0.21933395389E+04  0.12699999809E+01 0.  1.
</event>
<event>
 5   0  0.3830207E-07  0.3226776E+04  0.7818609E-02  0.8181781E-01
       -2   -1    0    0    0  501  0.00000000000E+00  0.00000000000E+00  0.12308144074E+04  0.12308144074E+04  0.25500000920E-02 0. -1.
        2   -1    0    0  501    0  0.00000000000E+00  0.00000000000E+00 -0.21148773573E+04  0.21148773573E+04  0.25500000920E-02 0.  1.
    10030    2    1    2    0    0  0.00000000000E+00  0.00000000000E+00 -0.88406294991E+03  0.33456917647E+04  0.32267764232E+04 0.  0.
        4    1    3    3  502    0 -0.14873605841E+04 -0.43107225009E+03 -0.91143509487E+03  0.17968807242E+04  0.12699999809E+01 0.  1.
       -4    1    3    3    0  502  0.14873605841E+04  0.43107225009E+03  0.27372144962E+02  0.15488110405E+04  0.12699999809E+01 0. -1.
</event>
<event>
 5   0  0.3764056E-07  0.3197311E+04  0.7818609E-02  0.8189528E-01
       -2   -1    0    0    0  501  0.00000000000E+00  0.00000000000E+00  0.26423502585E+04  0.26423502585E+04  0.25500000920E-02 0.  1.
        2   -1    0    0  501    0  0.00000000000E+00  0.00000000000E+00 -0.96720706689E+03  0.96720706690E+03  0.25500000920E-02 0. -1.
    10030    2    1    2    0    0  0.00000000000E+00  0.00000000000E+00  0.16751431917E+04  0.36095573254E+04  0.31973112725E+04 0.  0.
        5    1    3    3  502    0  0.11958256830E+04 -0.10606921947E+04  0.86547154163E+03  0.18177266228E+04  0.46999998093E+01 0. -1.
       -5    1    3    3    0  502 -0.11958256830E+04  0.10606921947E+04  0.80967165003E+03  0.17918307026E+04  0.46999998093E+01 0.  1.
</event>
<event>
 5   0  0.1317293E-07  0.3199880E+04  0.7818609E-02  0.8188849E-01
        1   -1    0    0  501    0  0.00000000000E+00  0.00000000000E+00  0.18981385451E+04  0.18981385451E+04  0.50400001928E-02 0. -1.
       -1   -1    0    0    0  501  0.00000000000E+00  0.00000000000E+00 -0.13485886724E+04  0.13485886724E+04  0.50400001928E-02 0.  1.
    10030    2    1    2    0    0  0.00000000000E+00  0.00000000000E+00  0.54954987273E+03  0.32467272175E+04  0.31998800856E+04 0.  0.
        1    1    3    3  502    0 -0.13247711439E+04  0.79630304735E+03  0.69397122293E+03  0.16943179115E+04  0.50400001928E-02 0.  1.
       -1    1    3    3    0  502  0.13247711439E+04 -0.79630304735E+03 -0.14442135020E+03  0.15524093060E+04  0.50400001928E-02 0. -1.
</event>
<event>
 5   0  0.3830207E-07  0.3170362E+04  0.7818609E-02  0.8196689E-01
       -2   -1    0    0    0  501  0.00000000000E+00  0.00000000000E+00  0.21966558262E+04  0.21966558262E+04  0.25500000920E-02 0. -1.
        2   -1    0    0  501    0  0.00000000000E+00  0.00000000000E+00 -0.11439202143E+04  0.11439202143E+04  0.25500000920E-02 0.  1.
    10030    2    1    2    0    0  0.00000000000E+00  0.00000000000E+00  0.10527356119E+04  0.33405760405E+04  0.31703621266E+04 0.  0.
        4    1    3    3  502    0 -0.10701207170E+03  0.66431963447E+03 -0.98596983096E+03  0.11936960588E+04  0.12699999809E+01 0.  1.
       -4    1    3    3    0  502  0.10701207170E+03 -0.66431963447E+03  0.20387054429E+04  0.21468799817E+04  0.12699999809E+01 0. -1.
</event>
<event>
 5   0  0.1365455E-07  0.3201887E+04  0.7818609E-02  0.8188319E-01
        1   -1    0    0  501    0  0.00000000000E+00  0.00000000000E+00  0.23883304718E+04  0.23883304718E+04  0.50400001928E-02 0.  1.
       -1   -1    0    0    0  501  0.00000000000E+00  0.00000000000E+00 -0.10731427508E+04  0.10731427508E+04  0.50400001928E-02 0. -1.
    10030    2    1    2    0    0  0.00000000000E+00  0.00000000000E+00  0.13151877210E+04  0.34614732226E+04  0.32018866515E+04 0.  0.
        3    1    3    3  502    0  0.16599681115E+03  0.14215034029E+04  0.14332535002E+04  0.20254487088E+04  0.10100000352E+00 0.  1.
       -3    1    3    3    0  502 -0.16599681115E+03 -0.14215034029E+04 -0.11806577920E+03  0.14360245138E+04  0.10100000352E+00 0. -1.
</event>
<event>
 5   0  0.1288096E-07  0.3202116E+04  0.7818609E-02  0.8188258E-01
        1   -1    0    0  501    0  0.00000000000E+00  0.00000000000E+00  0.21840556096E+04  0.21840556096E+04  0.50400001928E-02 0.  1.
       -1   -1    0    0    0  501  0.00000000000E+00  0.00000000000E+00 -0.11736822465E+04  0.11736822465E+04  0.50400001928E-02 0. -1.
    10030    2    1    2    0    0  0.00000000000E+00  0.00000000000E+00  0.10103733631E+04  0.33577378561E+04  0.32021163592E+04 0.  0.
        2    1    3    3  502    0 -0.67217108362E+03 -0.10012228631E+04  0.16095199147E+04  0.20111726785E+04  0.25500000920E-02 0.  1.
       -2    1    3    3    0  502  0.67217108362E+03  0.10012228631E+04 -0.59914655161E+03  0.13465651776E+04  0.25500000920E-02 0. -1.
</event>
<event>
 5   0  0.1288096E-07  0.3200364E+04  0.7818609E-02  0.8188721E-01
       -1   -1    0    0    0  501  0.00000000000E+00  0.00000000000E+00  0.23845425544E+04  0.23845425544E+04  0.50400001928E-02 0. -1.
        1   -1    0    0  501    0  0.00000000000E+00  0.00000000000E+00 -0.10738253357E+04  0.10738253357E+04  0.50400001928E-02 0.  1.
    10030    2    1    2    0    0  0.00000000000E+00  0.00000000000E+00  0.13107172187E+04  0.34583678901E+04  0.32003638599E+04 0.  0.
        2    1    3    3  502    0 -0.57945824331E+03  0.46286103666E+03 -0.87689775292E+03  0.11484606498E+04  0.25500000920E-02 0.  1.
       -2    1    3    3    0  502  0.57945824331E+03 -0.46286103666E+03  0.21876149716E+04  0.23099072403E+04  0.25500000920E-02 0. -1.
</event>
<event>
 5   0  0.1317293E-07  0.3227283E+04  0.7818609E-02  0.8181649E-01
        1   -1    0    0  501    0  0.00000000000E+00  0.00000000000E+00  0.19269345879E+04  0.19269345879E+04  0.50400001928E-02 0. -1.
       -1   -1    0    0    0  501  0.00000000000E+00  0.00000000000E+00 -0.13512856158E+04  0.13512856158E+04  0.50400001928E-02 0.  1.
    10030    2    1    2    0    0  0.00000000000E+00  0.00000000000E+00  0.57564897213E+03  0.32782202037E+04  0.32272830624E+04 0.  0.
        1    1    3    3  502    0  0.13046705873E+04  0.91047237188E+03  0.13913648924E+02  0.15910119016E+04  0.50400001928E-02 0. -1.
       -1    1    3    3    0  502 -0.13046705873E+04 -0.91047237188E+03  0.56173532321E+03  0.16872083021E+04  0.50400001928E-02 0.  1.
</event>
<event>
 5   0  0.1277374E-07  0.3201532E+04  0.7818609E-02  0.8188413E-01
       -1   -1    0    0    0  501  0.00000000000E+00  0.00000000000E+00  0.14544739446E+04  0.14544739446E+04  0.50400001928E-02 0.  1.
        1   -1    0    0  501    0  0.00000000000E+00  0.00000000000E+00 -0.17617720703E+04  0.17617720703E+04  0.50400001928E-02 0. -1.
    10030    2    1    2    0    0  0.00000000000E+00  0.00000000000E+00 -0.30729812562E+03  0.32162460149E+04  0.32015318662E+04 0.  0.
        5    1    3    3  502    0  0.34427729485E+03  0.13133858262E+04  0.69813950150E+03  0.15267383659E+04  0.46999998093E+01 0.  1.
       -5    1    3    3    0  502 -0.34427729485E+03 -0.13133858262E+04 -0.10054376271E+04  0.16895076491E+04  0.46999998093E+01 0. -1.
</event>
<event>
 5   0  0.1288096E-07  0.3198120E+04  0.7818609E-02  0.8189314E-01
        1   -1    0    0  501    0  0.00000000000E+00  0.00000000000E+00  0.13608667340E+04  0.13608667340E+04  0.50400001928E-02 0. -1.
       -1   -1    0    0    0  501  0.00000000000E+00  0.00000000000E+00 -0.18789439363E+04  0.18789439363E+04  0.50400001928E-02 0.  1.
    10030    2    1    2    0    0  0.00000000000E+00  0.00000000000E+00 -0.51807720232E+03  0.32398106702E+04  0.31981196337E+04 0.  0.
        2    1    3    3  502    0  0.15039847257E+04 -0.26425010169E+03  0.22169386760E+03  0.15430315428E+04  0.25500000920E-02 0. -1.
       -2    1    3    3    0  502 -0.15039847257E+04  0.26425010169E+03 -0.73977106992E+03  0.16967791274E+04  0.25500000920E-02 0.  1.
</event>
<event>
 5   0  0.3830207E-07  0.3201991E+04  0.7818609E-02  0.8188292E-01
        2   -1    0    0  501    0  0.00000000000E+00  0.00000000000E+00  0.18629036981E+04  0.18629036981E+04  0.25500000920E-02 0. -1.
       -2   -1    0    0    0  501  0.00000000000E+00  0.00000000000E+00 -0.13759094594E+04  0.13759094594E+04  0.25500000920E-02 0.  1.
    10030    2    1    2    0    0  0.00000000000E+00  0.00000000000E+00  0.48699423872E+03  0.32388131575E+04  0.32019911432E+04 0.  0.
        4    1    3    3  502    0  0.11652490187E+04  0.95219425673E+03 -0.30932799303E+03  0.15362827208E+04  0.12699999809E+01 0.  1.
       -4    1    3    3    0  502 -0.11652490187E+04 -0.95219425673E+03  0.79632223175E+03  0.17025304367E+04  0.12699999809E+01 0. -1.
</event>
<event>
 5   0  0.3830207E-07  0.3202156E+04  0.7818609E-02  0.8188248E-01
        2   -1    0    0  501    0  0.00000000000E+00  0.00000000000E+00  0.22478460980E+04  0.22478460980E+04  0.25500000920E-02 0. -1.
       -2   -1    0    0    0  501  0.00000000000E+00  0.00000000000E+00 -0.11404033398E+04  0.11404033398E+04  0.25500000920E-02 0.  1.
    10030    2    1    2    0    0  0.00000000000E+00  0.00000000000E+00  0.11074427582E+04  0.33882494378E+04  0.32021562720E+04 0.  0.
        4    1    3    3  502    0  0.22289267756E+03  0.57680801246E+03  0.21163895056E+04  0.22048797657E+04  0.12699999809E+01 0. -1.
       -4    1    3    3    0  502 -0.22289267756E+03 -0.57680801246E+03 -0.10089467474E+04  0.11833696721E+04  0.12699999809E+01 0.  1.
</event>
<event>
 5   0  0.3750285E-07  0.3198524E+04  0.7818609E-02  0.8189207E-01
        2   -1    0    0  501    0  0.00000000000E+00  0.00000000000E+00  0.21909050152E+04  0.21909050152E+04  0.25500000920E-02 0.  1.
       -2   -1    0    0    0  501  0.00000000000E+00  0.00000000000E+00 -0.11673889943E+04  0.11673889943E+04  0.25500000920E-02 0. -1.
    10030    2    1    2    0    0  0.00000000000E+00  0.00000000000E+00  0.10235160209E+04  0.33582940095E+04  0.31985236608E+04 0.  0.
        1    1    3    3  502    0 -0.82876589028E+03 -0.30324388224E+02 -0.92397730036E+03  0.12415742108E+04  0.50400001928E-02 0. -1.
       -1    1    3    3    0  502  0.82876589028E+03  0.30324388224E+02  0.19474933213E+04  0.21167197986E+04  0.50400001928E-02 0.  1.
</event>
<event>
 5   0  0.1270948E-07  0.3214751E+04  0.7818609E-02  0.8184932E-01
       -1   -1    0    0    0  501  0.00000000000E+00  0.00000000000E+00  0.18677327745E+04  0.18677327745E+04  0.50400001928E-02 0.  1.
        1   -1    0    0  501    0  0.00000000000E+00  0.00000000000E+00 -0.13833113651E+04  0.13833113651E+04  0.50400001928E-02 0. -1.
    10030    2    1    2    0    0  0.00000000000E+00  0.00000000000E+00  0.48442140942E+03  0.32510441396E+04  0.32147509850E+04 0.  0.
        4    1    3    3  502    0 -0.11254498876E+04 -0.85492893830E+03 -0.53201281667E+03  0.15101589946E+04  0.12699999809E+01 0. -1.
       -4    1    3    3    0  502  0.11254498876E+04  0.85492893830E+03  0.10164342261E+04  0.17408851450E+04  0.12699999809E+01 0.  1.
</event>
<event>
 5   0  0.1270948E-07  0.3192690E+04  0.7818609E-02  0.8190750E-01
        1   -1    0    0  501    0  0.00000000000E+00  0.00000000000E+00  0.20944607586E+04  0.20944607586E+04  0.50400001928E-02 0.  1.
       -1   -1    0    0    0  501  0.00000000000E+00  0.00000000000E+00 -0.12166941059E+04  0.12166941059E+04  0.50400001928E-02 0. -1.
    10030    2    1    2    0    0  0.00000000000E+00  0.00000000000E+00  0.87776665273E+03  0.33111548645E+04  0.31926904391E+04 0.  0.
        4    1    3    3  502    0 -0.38416093624E+03  0.90911202595E+03  0.17401305885E+04  0.20005300244E+04  0.12699999809E+01 0.  1.
       -4    1    3    3    0  502  0.38416093624E+03 -0.90911202595E+03 -0.86236393579E+03  0.13106248400E+04  0.12699999809E+01 0. -1.
</event>
<event>
 5   0  0.3764056E-07  0.3199187E+04  0.7818609E-02  0.8189032E-01
       -2   -1    0    0    0  501  0.00000000000E+00  0.00000000000E+00  0.18516524875E+04  0.18516524875E+04  0.25500000920E-02 0.  1.
        2   -1    0    0  501    0  0.00000000000E+00  0.00000000000E+00 -0.13818467446E+04  0.13818467446E+04  0.25500000920E-02 0. -1.
    10030    2    1    2    0    0  0.00000000000E+00  0.00000000000E+00  0.46980574292E+03  0.32334992321E+04  0.31991873731E+04 0.  0.
        5    1    3    3  502    0  0.44224928255E+02  0.73436167378E+03  0.16705009102E+04  0.18253323788E+04  0.46999998093E+01 0.  1.
       -5    1    3    3    0  502 -0.44224928255E+02 -0.73436167378E+03 -0.12006951672E+04  0.14081668533E+04  0.46999998093E+01 0. -1.
</event>
<event>
 5   0  0.1277374E-07  0.3198769E+04  0.7818609E-02  0.8189142E-01
        1   -1    0    0  501    0  0.00000000000E+00  0.00000000000E+00  0.17690699948E+04  0.17690699948E+04  0.50400001928E-02 0. -1.
       -1   -1    0    0    0  501  0.00000000000E+00  0.00000000000E+00 -0.14459747722E+04  0.14459747722E+04  0.50400001928E-02 0.  1.
    10030    2    1    2    0    0  0.00000000000E+00  0.00000000000E+00  0.32309522261E+03  0.32150447669E+04  0.31987688773E+04 0.  0.
        5    1    3    3  502    0 -0.68962275662E+03 -0.20951633018E+03  0.15965839996E+04  0.17517360523E+04  0.46999998093E+01 0. -1.
       -5    1    3    3    0  502  0.68962275662E+03  0.20951633018E+03 -0.12734887770E+04  0.14633087146E+04  0.46999998093E+01 0.  1.
</event>
<event>
 5   0  0.1230450E-07  0.3207277E+04  0.7818609E-02  0.8186898E-01
       -3   -1    0    0    0  501  0.00000000000E+00  0.00000000000E+00  0.19221221196E+04  0.19221221223E+04  0.10100000352E+00 0. -1.
        3   -1    0    0  501    0  0.00000000000E+00  0.00000000000E+00 -0.13379253735E+04  0.13379253773E+04  0.10100000352E+00 0.  1.
    10030    2    1    2    0    0  0.00000000000E+00  0.00000000000E+00  0.58419674612E+03  0.32600474996E+04  0.32072767049E+04 0.  0.
        2    1    3    3  502    0 -0.10571157400E+04  0.35300356416E+03 -0.87993494964E+03  0.14199967323E+04  0.25500000920E-02 0.  1.
       -2    1    3    3    0  502  0.10571157400E+04 -0.35300356416E+03  0.14641316958E+04  0.18400507674E+04  0.25500000920E-02 0. -1.
</event>
<event>
 5   0  0.3858721E-07  0.3208949E+04  0.7818609E-02  0.8186458E-01
        2   -1    0    0  501    0  0.00000000000E+00  0.00000000000E+00  0.21863293087E+04  0.21863293087E+04  0.25500000920E-02 0. -1.
       -2   -1    0    0    0  501  0.00000000000E+00  0.00000000000E+00 -0.11774705928E+04  0.11774705928E+04  0.25500000920E-02 0.  1.
    10030    2    1    2    0    0  0.00000000000E+00  0.00000000000E+00  0.10088587159E+04  0.33637999015E+04  0.32089490287E+04 0.  0.
        2    1    3    3  502    0 -0.13677408740E+04 -0.83863178694E+03  0.52318390879E+03  0.16875247479E+04  0.25500000920E-02 0.  1.
       -2    1    3    3    0  502  0.13677408740E+04  0.83863178694E+03  0.48567480714E+03  0.16762751536E+04  0.25500000920E-02 0. -1.
</event>
<event>
 5   0  0.1365455E-07  0.3206674E+04  0.7818609E-02  0.8187057E-01
        1   -1    0    0  501    0  0.00000000000E+00  0.00000000000E+00  0.17914417419E+04  0.17914417419E+04  0.50400001928E-02 0. -1.
       -1   -1    0    0    0  501  0.00000000000E+00  0.00000000000E+00 -0.14349832609E+04  0.14349832610E+04  0.50400001928E-02 0.  1.
    10030    2    1    2    0    0  0.00000000000E+00  0.00000000000E+00  0.35645848094E+03  0.32264250029E+04  0.32066736115E+04 0.  0.
        3    1    3    3  502    0  0.23454487797E+03 -0.45415372040E+03  0.17072679000E+04  0.17821421364E+04  0.10100000352E+00 0. -1.
       -3    1    3    3    0  502 -0.23454487797E+03  0.45415372040E+03 -0.13508094191E+04  0.14442828665E+04  0.10100000352E+00 0.  1.
</event>
<event>
 5   0  0.3942564E-07  0.3165803E+04  0.7818609E-02  0.8197907E-01
       -2   -1    0    0    0  501  0.00000000000E+00  0.00000000000E+00  0.12250351518E+04  0.12250351518E+04  0.25500000920E-02 0.  1.
        2   -1    0    0  501    0  0.00000000000E+00  0.00000000000E+00 -0.20453100977E+04  0.20453100977E+04  0.25500000920E-02 0. -1.
    10030    2    1    2    0    0  0.00000000000E+00  0.00000000000E+00 -0.82027494593E+03  0.32703452495E+04  0.31658027519E+04 0.  0.
        3    1    3    3  502    0  0.20703924507E+03 -0.11994697240E+04 -0.14554744492E+04  0.18973662668E+04  0.10100000352E+00 0. -1.
       -3    1    3    3    0  502 -0.20703924507E+03  0.11994697240E+04  0.63519950325E+03  0.13729789827E+04  0.10100000352E+00 0.  1.
</event>
<event>
 5   0  0.3830207E-07  0.3196212E+04  0.7818609E-02  0.8189818E-01
       -2   -1    0    0    0  501  0.00000000000E+00  0.00000000000E+00  0.11045219294E+04  0.11045219294E+04  0.25500000920E-02 0. -1.
        2   -1    0    0  501    0  0.00000000000E+00  0.00000000000E+00 -0.23122605322E+04  0.23122605322E+04  0.25500000920E-02 0.  1.
    10030    2    1    2    0    0  0.00000000000E+00  0.00000000000E+00 -0.12077386028E+04  0.34167824617E+04  0.31962117980E+04 0.  0.
        4    1    3    3  502    0 -0.96362671902E+03  0.12730734987E+04 -0.67675246376E+03  0.17341534237E+04  0.12699999809E+01 0.  1.
       -4    1    3    3    0  502  0.96362671902E+03 -0.12730734987E+04 -0.53098613900E+03  0.16826290380E+04  0.12699999809E+01 0. -1.
</event>
<event>
 5   0  0.3830207E-07  0.3200485E+04  0.7818609E-02  0.8188689E-01
       -2   -1    0    0    0  501  0.00000000000E+00  0.00000000000E+00  0.15011249278E+04  0.15011249278E+04  0.25500000920E-02 0.  1.
        2   -1    0    0  501    0  0.00000000000E+00  0.00000000000E+00 -0.17059046014E+04  0.17059046014E+04  0.25500000920E-02 0. -1.
    10030    2    1    2    0    0  0.00000000000E+00  0.00000000000E+00 -0.20477967367E+03  0.32070295292E+04  0.32004849143E+04 0.  0.
        4    1    3    3  502    0 -0.61141839167E+03 -0.39519470504E+03  0.13255726411E+04  0.15123345345E+04  0.12699999809E+01 0.  1.
       -4    1    3    3    0  502  0.61141839167E+03  0.39519470504E+03 -0.15303523148E+04  0.16946949947E+04  0.12699999809E+01 0. -1.
</event>
<event>
 5   0  0.1288096E-07  0.3198451E+04  0.7818609E-02  0.8189226E-01
       -1   -1    0    0    0  501  0.00000000000E+00  0.00000000000E+00  0.15448619493E+04  0.15448619493E+04  0.50400001928E-02 0. -1.
        1   -1    0    0  501    0  0.00000000000E+00  0.00000000000E+00 -0.16555025082E+04  0.16555025082E+04  0.50400001928E-02 0.  1.
    10030    2    1    2    0    0  0.00000000000E+00  0.00000000000E+00 -0.11064055883E+03  0.32003644575E+04  0.31984513952E+04 0.  0.
        2    1    3    3  502    0 -0.45732824239E+03  0.14977609731E+04  0.26904297934E+03  0.15889685896E+04  0.25500000920E-02 0. -1.
       -2    1    3    3    0  502  0.45732824239E+03 -0.14977609731E+04 -0.37968353816E+03  0.16113958679E+04  0.25500000920E-02 0.  1.
</event>
<event>
 5   0  0.3750285E-07  0.3211222E+04  0.7818609E-02  0.8185860E-01
        2   -1    0    0  501    0  0.00000000000E+00  0.00000000000E+00  0.11640052679E+04  0.11640052679E+04  0.25500000920E-02 0.  1.
       -2   -1    0    0    0  501  0.00000000000E+00  0.00000000000E+00 -0.22147548232E+04  0.22147548232E+04  0.25500000920E-02 0. -1.
    10030    2    1    2    0    0  0.00000000000E+00  0.00000000000E+00 -0.10507495554E+04  0.33787600911E+04  0.32112217496E+04 0.  0.
        1    1    3    3  502    0 -0.12618553069E+04 -0.28106301066E+03 -0.15272681723E+04  0.20009555971E+04  0.50400001928E-02 0. -1.
       -1    1    3    3    0  502  0.12618553069E+04  0.28106301066E+03  0.47651861690E+03  0.13778044940E+04  0.50400001928E-02 0.  1.
</event>
<event>
 5   0  0.1317293E-07  0.3191465E+04  0.7818609E-02  0.8191075E-01
        1   -1    0    0  501    0  0.00000000000E+00  0.00000000000E+00  0.30987860153E+04  0.30987860153E+04  0.50400001928E-02 0.  1.
       -1   -1    0    0    0  501  0.00000000000E+00  0.00000000000E+00 -0.82172891834E+03  0.82172891835E+03  0.50400001928E-02 0. -1.
    10030    2    1    2    0    0  0.00000000000E+00  0.00000000000E+00  0.22770570969E+04  0.39205149336E+04  0.31914649179E+04 0.  0.
        1    1    3    3  502    0  0.14658272511E+04 -0.19367816235E+03  0.40126003369E+03  0.15320477718E+04  0.50400001928E-02 0. -1.
       -1    1    3    3    0  502 -0.14658272511E+04  0.19367816235E+03  0.18757970633E+04  0.23884671618E+04  0.50400001928E-02 0.  1.
</event>
<event>
 5   0  0.1277374E-07  0.3201869E+04  0.7818609E-02  0.8188324E-01
       -1   -1    0    0    0  501  0.00000000000E+00  0.00000000000E+00  0.13741952528E+04  0.13741952528E+04  0.50400001928E-02 0.  1.
        1   -1    0    0  501    0  0.00000000000E+00  0.00000000000E+00 -0.18650848824E+04  0.18650848824E+04  0.50400001928E-02 0. -1.
    10030    2    1    2    0    0  0.00000000000E+00  0.00000000000E+00 -0.49088962959E+03  0.32392801352E+04  0.32018686990E+04 0.  0.
        5    1    3    3  502    0 -0.24017226093E+03  0.14958794443E+04 -0.76881976617E+03  0.16989537809E+04  0.46999998093E+01 0. -1.
       -5    1    3    3    0  502  0.24017226093E+03 -0.14958794443E+04  0.27793013658E+03  0.15403263543E+04  0.46999998093E+01 0.  1.
</event>
<event>
 5   0  0.3750285E-07  0.3198352E+04  0.7818609E-02  0.8189253E-01
       -2   -1    0    0    0  501  0.00000000000E+00  0.00000000000E+00  0.97649684946E+03  0.97649684947E+03  0.25500000920E-02 0. -1.
        2   -1    0    0  501    0  0.00000000000E+00  0.00000000000E+00 -0.26189168316E+04  0.26189168316E+04  0.25500000920E-02 0.  1.
    10030    2    1    2    0    0  0.00000000000E+00  0.00000000000E+00 -0.16424199822E+04  0.35954136811E+04  0.31983520976E+04 0.  0.
        1    1    3    3  502    0  0.82209716364E+03 -0.54879477980E+03  0.59197328663E+03  0.11521509575E+04  0.50400001928E-02 0. -1.
       -1    1    3    3    0  502 -0.82209716364E+03  0.54879477980E+03 -0.22343932688E+04  0.24432627236E+04  0.50400001928E-02 0.  1.
</event>
<event>
 5   0  0.1277374E-07  0.3201626E+04  0.7818609E-02  0.8188388E-01
        1   -1    0    0  501    0  0.00000000000E+00  0.00000000000E+00  0.19366057392E+04  0.19366057392E+04  0.50400001928E-02 0. -1.
       -1   -1    0    0    0  501  0.00000000000E+00  0.00000000000E+00 -0.13232437908E+04  0.13232437908E+04  0.50400001928E-02 0.  1.
    10030    2    1    2    0    0  0.00000000000E+00  0.00000000000E+00  0.61336194843E+03  0.32598495301E+04  0.32016255370E+04 0.  0.
        5    1    3    3  502    0 -0.42253038597E+03 -0.75528501085E+03  0.16778683971E+04  0.18879226210E+04  0.46999998093E+01 0. -1.
       -5    1    3    3    0  502  0.42253038597E+03  0.75528501085E+03 -0.10645064487E+04  0.13719269091E+04  0.46999998093E+01 0.  1.
</event>
<event>
 5   0  0.1365455E-07  0.3201479E+04  0.7818609E-02  0.8188427E-01
        1   -1    0    0  501    0  0.00000000000E+00  0.00000000000E+00  0.19057168938E+04  0.19057168938E+04  0.50400001928E-02 0. -1.
       -1   -1    0    0    0  501  0.00000000000E+00  0.00000000000E+00 -0.13445681234E+04  0.13445681234E+04  0.50400001928E-02 0.  1.
    10030    2    1    2    0    0  0.00000000000E+00  0.00000000000E+00  0.56114877048E+03  0.32502850172E+04  0.32014785257E+04 0.  0.
        3    1    3    3  502    0  0.15150123116E+03 -0.83092071150E+02  0.18962209963E+04  0.19040774649E+04  0.10100000352E+00 0. -1.
       -3    1    3    3    0  502 -0.15150123116E+03  0.83092071150E+02 -0.13350722259E+04  0.13462075523E+04  0.10100000352E+00 0.  1.
</event>
<event>
 5   0  0.1270948E-07  0.3206006E+04  0.7818609E-02  0.8187233E-01
       -1   -1    0    0    0  501  0.00000000000E+00  0.00000000000E+00  0.19064697961E+04  0.19064697961E+04  0.50400001928E-02 0. -1.
        1   -1    0    0  501    0  0.00000000000E+00  0.00000000000E+00 -0.13478411889E+04  0.13478411889E+04  0.50400001928E-02 0.  1.
    10030    2    1    2    0    0  0.00000000000E+00  0.00000000000E+00  0.55862860720E+03  0.32543109851E+04  0.32060059368E+04 0.  0.
        4    1    3    3  502    0 -0.43351572246E+03 -0.17273075999E+03 -0.12773647718E+04  0.13599390318E+04  0.12699999809E+01 0.  1.
       -4    1    3    3    0  502  0.43351572246E+03  0.17273075999E+03  0.18359933790E+04  0.18943719533E+04  0.12699999809E+01 0. -1.
</event>
<event>
 5   0  0.3764056E-07  0.3202055E+04  0.7818609E-02  0.8188275E-01
        2   -1    0    0  501    0  0.00000000000E+00  0.00000000000E+00  0.13377339446E+04  0.13377339446E+04  0.25500000920E-02 0.  1.
       -2   -1    0    0    0  501  0.00000000000E+00  0.00000000000E+00 -0.19161421934E+04  0.19161421934E+04  0.25500000920E-02 0. -1.
    10030    2    1    2    0    0  0.00000000000E+00  0.00000000000E+00 -0.57840824878E+03  0.32538761381E+04  0.32020546247E+04 0.  0.
        5    1    3    3  502    0 -0.54677993412E+03  0.86902065026E+03  0.95913177411E+03  0.14050341765E+04  0.46999998093E+01 0.  1.
       -5    1    3    3    0  502  0.54677993412E+03 -0.86902065026E+03 -0.15375400229E+04  0.18488419616E+04  0.46999998093E+01 0. -1.
</event>
<event>
 5   0  0.3750285E-07  0.3204751E+04  0.7818609E-02  0.8187563E-01
        2   -1    0    0  501    0  0.00000000000E+00  0.00000000000E+00  0.20711200361E+04  0.20711200361E+04  0.25500000920E-02 0.  1.
       -2   -1    0    0    0  501  0.00000000000E+00  0.00000000000E+00 -0.12397194234E+04  0.12397194234E+04  0.25500000920E-02 0. -1.
    10030    2    1    2    0    0  0.00000000000E+00  0.00000000000E+00  0.83140061264E+03  0.33108394595E+04  0.32047513083E+04 0.  0.
        1    1    3    3  502    0  0.14869935314E+04 -0.20797164536E+03  0.99387444978E+03  0.18006077834E+04  0.50400001928E-02 0.  1.
       -1    1    3    3    0  502 -0.14869935314E+04  0.20797164536E+03 -0.16247383714E+03  0.15102316761E+04  0.50400001928E-02 0. -1.
</event>
<event>
 5   0  0.1288096E-07  0.3228162E+04  0.7818609E-02  0.8181419E-01
        1   -1    0    0  501    0  0.00000000000E+00  0.00000000000E+00  0.13816558979E+04  0.13816558979E+04  0.50400001928E-02 0. -1.
       -1   -1    0    0    0  501  0.00000000000E+00  0.00000000000E+00 -0.18856049872E+04  0.18856049872E+04  0.50400001928E-02 0.  1.
    10030    2    1    2    0    0  0.00000000000E+00  0.00000000000E+00 -0.50394908939E+03  0.32672608851E+04  0.32281618619E+04 0.  0.
        2    1    3    3  502    0  0.13290134337E+04 -0.83900115012E+03 -0.62392753011E+03  0.16910012418E+04  0.25500000920E-02 0.  1.
       -2    1    3    3    0  502 -0.13290134337E+04  0.83900115012E+03  0.11997844072E+03  0.15762596433E+04  0.25500000920E-02 0. -1.
</event>
<event>
 5   0  0.1277374E-07  0.3197707E+04  0.7818609E-02  0.8189423E-01
       -1   -1    0    0    0  501  0.00000000000E+00  0.00000000000E+00  0.18611910139E+04  0.18611910139E+04  0.50400001928E-02 0. -1.
        1   -1    0    0  501    0  0.00000000000E+00  0.00000000000E+00 -0.13734929343E+04  0.13734929343E+04  0.50400001928E-02 0.  1.
    10030    2    1    2    0    0  0.00000000000E+00  0.00000000000E+00  0.48769807962E+03  0.32346839481E+04  0.31977071203E+04 0.  0.
        5    1    3    3  502    0 -0.14763703900E+04 -0.22166799411E+03  0.82274661635E+03  0.17046232173E+04  0.46999998093E+01 0.  1.
       -5    1    3    3    0  502  0.14763703900E+04  0.22166799411E+03 -0.33504853673E+03  0.15300607309E+04  0.46999998093E+01 0. -1.
</event>
<event>
 5   0  0.3942564E-07  0.3199292E+04  0.7818609E-02  0.8189004E-01
       -2   -1    0    0    0  501  0.00000000000E+00  0.00000000000E+00  0.19916171828E+04  0.19916171828E+04  0.25500000920E-02 0. -1.
        2   -1    0    0  501    0  0.00000000000E+00  0.00000000000E+00 -0.12848184755E+04  0.12848184755E+04  0.25500000920E-02 0.  1.
    10030    2    1    2    0    0  0.00000000000E+00  0.00000000000E+00  0.70679870732E+03  0.32764356582E+04  0.31992915169E+04 0.  0.
        3    1    3    3  502    0 -0.69363232919E+03  0.91034175780E+03  0.14979428066E+04  0.18851208412E+04  0.10100000352E+00 0. -1.
       -3    1    3    3    0  502  0.69363232919E+03 -0.91034175780E+03 -0.79114409925E+03  0.13913148170E+04  0.10100000352E+00 0.  1.
</event>
<event>
 5   0  0.3750285E-07  0.3186264E+04  0.7818609E-02  0.8192454E-01
       -2   -1    0    0    0  501  0.00000000000E+00  0.00000000000E+00  0.16467490731E+04  0.16467490731E+04  0.25500000920E-02 0.  1.
        2   -1    0    0  501    0  0.00000000000E+00  0.00000000000E+00 -0.15412610997E+04  0.15412610997E+04  0.25500000920E-02 0. -1.
    10030    2    1    2    0    0  0.00000000000E+00  0.00000000000E+00  0.10548797342E+03  0.31880101728E+04  0.31862644507E+04 0.  0.
        1    1    3    3  502    0 -0.53583189186E+03 -0.70296186198E+03  0.13789131629E+04  0.16378866587E+04  0.50400001928E-02 0.  1.
       -1    1    3    3    0  502  0.53583189186E+03  0.70296186198E+03 -0.12734251895E+04  0.15501235141E+04  0.50400001928E-02 0. -1.
</event>
<event>
 5   0  0.1230450E-07  0.3212700E+04  0.7818609E-02  0.8185471E-01
        3   -1    0    0  501    0  0.00000000000E+00  0.00000000000E+00  0.10534933940E+04  0.10534933988E+04  0.10100000352E+00 0.  1.
       -3   -1    0    0    0  501  0.00000000000E+00  0.00000000000E+00 -0.24493367847E+04  0.24493367868E+04  0.10100000352E+00 0. -1.
    10030    2    1    2    0    0  0.00000000000E+00  0.00000000000E+00 -0.13958433908E+04  0.35028301857E+04  0.32126998830E+04 0.  0.
        1    1    3    3  502    0  0.12393190342E+04  0.95742065617E+03 -0.10876881136E+04  0.19067331785E+04  0.50400001928E-02 0. -1.
       -1    1    3    3    0  502 -0.12393190342E+04 -0.95742065617E+03 -0.30815527720E+03  0.15960970072E+04  0.50400001928E-02 0.  1.
</event>
<event>
 5   0  0.1288096E-07  0.3197377E+04  0.7818609E-02  0.8189510E-01
        1   -1    0    0  501    0  0.00000000000E+00  0.00000000000E+00  0.11610834667E+04  0.11610834667E+04  0.50400001928E-02 0. -1.
       -1   -1    0    0    0  501  0.00000000000E+00  0.00000000000E+00 -0.22012238854E+04  0.22012238854E+04  0.50400001928E-02 0.  1.
    10030    2    1    2    0    0  0.00000000000E+00  0.00000000000E+00 -0.10401404187E+04  0.33623073521E+04  0.31973768372E+04 0.  0.
        2    1    3    3  502    0  0.69466723458E+03  0.48378316154E+03  0.90605476787E+03  0.12399774016E+04  0.25500000920E-02 0. -1.
       -2    1    3    3    0  502 -0.69466723458E+03 -0.48378316154E+03 -0.19461951866E+04  0.21223299504E+04  0.25500000920E-02 0.  1.
</event>
<event>
 5   0  0.1277374E-07  0.3196635E+04  0.7818609E-02  0.8189706E-01
        1   -1    0    0  501    0  0.00000000000E+00  0.00000000000E+00  0.20292134178E+04  0.20292134178E+04  0.50400001928E-02 0. -1.
       -1   -1    0    0    0  501  0.00000000000E+00  0.00000000000E+00 -0.12589210283E+04  0.12589210283E+04  0.50400001928E-02 0.  1.
    10030    2    1    2    0    0  0.00000000000E+00  0.00000000000E+00  0.77029238948E+03  0.32881344461E+04  0.31966353828E+04 0.  0.
        5    1    3    3  502    0  0.85598728088E+03  0.10384580806E+04  0.12720845361E+04  0.18518451791E+04  0.46999998093E+01 0. -1.
       -5    1    3    3    0  502 -0.85598728088E+03 -0.10384580806E+04 -0.50179214666E+03  0.14362892670E+04  0.46999998093E+01 0.  1.
</event>
<event>
 5   0  0.1288096E-07  0.3200244E+04  0.7818609E-02  0.8188753E-01
       -1   -1    0    0    0  501  0.00000000000E+00  0.00000000000E+00  0.16835524795E+04  0.16835524795E+04  0.50400001928E-02 0. -1.
        1   -1    0    0  501    0  0.00000000000E+00  0.00000000000E+00 -0.15208260139E+04  0.15208260139E+04  0.50400001928E-02 0.  1.
    10030    2    1    2    0    0  0.00000000000E+00  0.00000000000E+00  0.16272646566E+03  0.32043784934E+04  0.32002439948E+04 0.  0.
        2    1    3    3  502    0 -0.15818061012E+03  0.85467130159E+03  0.14265669027E+04  0.16705021003E+04  0.25500000920E-02 0. -1.
       -2    1    3    3    0  502  0.15818061012E+03 -0.85467130159E+03 -0.12638404370E+04  0.15338763931E+04  0.25500000920E-02 0.  1.
</event>
<event>
 5   0  0.1277374E-07  0.3199564E+04  0.7818609E-02  0.8188932E-01
        1   -1    0    0  501    0  0.00000000000E+00  0.00000000000E+00  0.20164018269E+04  0.20164018269E+04  0.50400001928E-02 0.  1.
       -1   -1    0    0    0  501  0.00000000000E+00  0.00000000000E+00 -0.12692423225E+04  0.12692423225E+04  0.50400001928E-02 0. -1.
    10030    2    1    2    0    0  0.00000000000E+00  0.00000000000E+00  0.74715950436E+03  0.32856441494E+04  0.31995640565E+04 0.  0.
        5    1    3    3  502    0  0.10179306935E+04 -0.50036805572E+03 -0.78492480780E+03  0.13793767186E+04  0.46999998093E+01 0. -1.
       -5    1    3    3    0  502 -0.10179306935E+04  0.50036805572E+03  0.15320843122E+04  0.19062674308E+04  0.46999998093E+01 0.  1.
</event>
<event>
 5   0  0.1288096E-07  0.3201013E+04  0.7818609E-02  0.8188550E-01
        1   -1    0    0  501    0  0.00000000000E+00  0.00000000000E+00  0.12704471593E+04  0.12704471593E+04  0.50400001928E-02 0.  1.
       -1   -1    0    0    0  501  0.00000000000E+00  0.00000000000E+00 -0.20163143355E+04  0.20163143355E+04  0.50400001928E-02 0. -1.
    10030    2    1    2    0    0  0.00000000000E+00  0.00000000000E+00 -0.74586717622E+03  0.32867614948E+04  0.32010128520E+04 0.  0.
        2    1    3    3  502    0  0.72610721165E+03  0.11611723153E+04 -0.12234140703E+04  0.18363809017E+04  0.25500000920E-02 0. -1.
       -2    1    3    3    0  502 -0.72610721165E+03 -0.11611723153E+04  0.47754689405E+03  0.14503805931E+04  0.25500000920E-02 0.  1.
</event>
<event>
 5   0  0.3942564E-07  0.3201338E+04  0.7818609E-02  0.8188464E-01
        2   -1    0    0  501    0  0.00000000000E+00  0.00000000000E+00  0.22585986174E+04  0.22585986174E+04  0.25500000920E-02 0. -1.
       -2   -1    0    0    0  501  0.00000000000E+00  0.00000000000E+00 -0.11343944249E+04  0.11343944249E+04  0.25500000920E-02 0.  1.
    10030    2    1    2    0    0  0.00000000000E+00  0.00000000000E+00  0.11242041926E+04  0.33929930423E+04  0.32013382699E+04 0.  0.
        3    1    3    3  502    0  0.61591873755E+02  0.15973350584E+04  0.47426205606E+03  0.16673923820E+04  0.10100000352E+00 0.  1.
       -3    1    3    3    0  502 -0.61591873755E+02 -0.15973350584E+04  0.64994213649E+03  0.17256006603E+04  0.10100000352E+00 0. -1.
</event>
<event>
 5   0  0.3858721E-07  0.3200038E+04  0.7818609E-02  0.8188807E-01
       -2   -1    0    0    0  501  0.00000000000E+00  0.00000000000E+00  0.17333175864E+04  0.17333175864E+04  0.25500000920E-02 0. -1.
        2   -1    0    0  501    0  0.00000000000E+00  0.00000000000E+00 -0.14769719331E+04  0.14769719331E+04  0.25500000920E-02 0.  1.
    10030    2    1    2    0    0  0.00000000000E+00  0.00000000000E+00  0.25634565336E+03  0.32102895195E+04  0.32000383912E+04 0.  0.
        2    1    3    3  502    0  0.13723157312E+04 -0.78504068635E+03 -0.11862761817E+03  0.15854374340E+04  0.25500000920E-02 0. -1.
       -2    1    3    3    0  502 -0.13723157312E+04  0.78504068635E+03  0.37497327153E+03  0.16248520855E+04  0.25500000920E-02 0.  1.
</event>
<event>
 5   0  0.3750285E-07  0.3167902E+04  0.7818609E-02  0.8197346E-01
       -2   -1    0    0    0  501  0.00000000000E+00  0.00000000000E+00  0.12524534519E+04  0.12524534519E+04  0.25500000920E-02 0. -1.
        2   -1    0    0  501    0  0.00000000000E+00  0.00000000000E+00 -0.20031886890E+04  0.20031886890E+04  0.25500000920E-02 0.  1.
    10030    2    1    2    0    0  0.00000000000E+00  0.00000000000E+00 -0.75073523709E+03  0.32556421410E+04  0.31679018851E+04 0.  0.
        1    1    3    3  502    0  0.56696481766E+03  0.87942166942E+03  0.84671408334E+03  0.13460149762E+04  0.50400001928E-02 0. -1.
       -1    1    3    3    0  502 -0.56696481766E+03 -0.87942166942E+03 -0.15974493204E+04  0.19096271648E+04  0.50400001928E-02 0.  1.
</event>
<event>
 5   0  0.1288096E-07  0.3199564E+04  0.7818609E-02  0.8188932E-01
       -1   -1    0    0    0  501  0.00000000000E+00  0.00000000000E+00  0.12815056501E+04  0.12815056501E+04  0.50400001928E-02 0. -1.
        1   -1    0    0  501    0  0.00000000000E+00  0.00000000000E+00 -0.19971060156E+04  0.19971060156E+04  0.50400001928E-02 0.  1.
    10030    2    1    2    0    0  0.00000000000E+00  0.00000000000E+00 -0.71560036552E+03  0.32786116658E+04  0.31995641222E+04 0.  0.
        2    1    3    3  502    0 -0.95828772281E+03  0.20369939843E+03 -0.16537567514E+04  0.19221654969E+04  0.25500000920E-02 0.  1.
       -2    1    3    3    0  502  0.95828772281E+03 -0.20369939843E+03  0.93815638590E+03  0.13564461689E+04  0.25500000920E-02 0. -1.
</event>
<event>
 5   0  0.3830207E-07  0.3193586E+04  0.7818609E-02  0.8190513E-01
        2   -1    0    0  501    0  0.00000000000E+00  0.00000000000E+00  0.21157063066E+04  0.21157063066E+04  0.25500000920E-02 0.  1.
       -2   -1    0    0    0  501  0.00000000000E+00  0.00000000000E+00 -0.12051521954E+04  0.12051521954E+04  0.25500000920E-02 0. -1.
    10030    2    1    2    0    0  0.00000000000E+00  0.00000000000E+00  0.91055411119E+03  0.33208585021E+04  0.31935861349E+04 0.  0.
        4    1    3    3  502    0  0.72914795574E+03 -0.41080887785E+03 -0.95881750842E+03  0.12726952906E+04  0.12699999809E+01 0. -1.
       -4    1    3    3    0  502 -0.72914795574E+03  0.41080887785E+03  0.18693716196E+04  0.20481632114E+04  0.12699999809E+01 0.  1.
</event>
<event>
 5   0  0.1317293E-07  0.3198399E+04  0.7818609E-02  0.8189240E-01
        1   -1    0    0  501    0  0.00000000000E+00  0.00000000000E+00  0.26266640460E+04  0.26266640460E+04  0.50400001928E-02 0. -1.
       -1   -1    0    0    0  501  0.00000000000E+00  0.00000000000E+00 -0.97364532891E+03  0.97364532892E+03  0.50400001928E-02 0.  1.
    10030    2    1    2    0    0  0.00000000000E+00  0.00000000000E+00  0.16530187171E+04  0.36003093749E+04  0.31983990864E+04 0.  0.
        1    1    3    3  502    0 -0.61359018703E+03 -0.62351933212E+03  0.23334521263E+04  0.24920409509E+04  0.50400001928E-02 0. -1.
       -1    1    3    3    0  502  0.61359018703E+03  0.62351933212E+03 -0.68043340926E+03  0.11082684240E+04  0.50400001928E-02 0.  1.
</event>
<event>
 5   0  0.1270948E-07  0.3188403E+04  0.7818609E-02  0.8191887E-01
        1   -1    0    0  501    0  0.00000000000E+00  0.00000000000E+00  0.17002045016E+04  0.17002045016E+04  0.50400001928E-02 0. -1.
       -1   -1    0    0    0  501  0.00000000000E+00  0.00000000000E+00 -0.14948076808E+04  0.14948076808E+04  0.50400001928E-02 0.  1.
    10030    2    1    2    0    0  0.00000000000E+00  0.00000000000E+00  0.20539682074E+03  0.31950121824E+04  0.31884032041E+04 0.  0.
        4    1    3    3  502    0 -0.64967384033E+03 -0.11001217774E+04 -0.85276270952E+03  0.15360826396E+04  0.12699999809E+01 0.  1.
       -4    1    3    3    0  502  0.64967384033E+03  0.11001217774E+04  0.10581595303E+04  0.16589295429E+04  0.12699999809E+01 0. -1.
</event>
<event>
 5   0  0.3942564E-07  0.3198389E+04  0.7818609E-02  0.8189243E-01
        2   -1    0    0  501    0  0.00000000000E+00  0.00000000000E+00  0.23420114585E+04  0.23420114585E+04  0.25500000920E-02 0. -1.
       -2   -1    0    0    0  501  0.00000000000E+00  0.00000000000E+00 -0.10919768478E+04  0.10919768478E+04  0.25500000920E-02 0.  1.
    10030    2    1    2    0    0  0.00000000000E+00  0.00000000000E+00  0.12500346107E+04  0.34339883064E+04  0.31983885255E+04 0.  0.
        3    1    3    3  502    0  0.14905580597E+04 -0.54455709798E+03  0.41266954484E+03  0.16396956808E+04  0.10100000352E+00 0. -1.
       -3    1    3    3    0  502 -0.14905580597E+04  0.54455709798E+03  0.83736506584E+03  0.17942926255E+04  0.10100000352E+00 0.  1.
</event>
<event>
 5   0  0.1277374E-07  0.3199489E+04  0.7818609E-02  0.8188952E-01
       -1   -1    0    0    0  501  0.00000000000E+00  0.00000000000E+00  0.98573975752E+03  0.98573975753E+03  0.50400001928E-02 0. -1.
        1   -1    0    0  501    0  0.00000000000E+00  0.00000000000E+00 -0.25962043723E+04  0.25962043723E+04  0.50400001928E-02 0.  1.
    10030    2    1    2    0    0  0.00000000000E+00  0.00000000000E+00 -0.16104646148E+04  0.35819441299E+04  0.31994886269E+04 0.  0.
        5    1    3    3  502    0  0.80351918321E+03 -0.30889926537E+03 -0.23147801254E+04  0.24696742605E+04  0.46999998093E+01 0.  1.
       -5    1    3    3    0  502 -0.80351918321E+03  0.30889926537E+03  0.70431551058E+03  0.11122698694E+04  0.46999998093E+01 0. -1.
</event>
<event>
 5   0  0.3942564E-07  0.3202121E+04  0.7818609E-02  0.8188257E-01
       -2   -1    0    0    0  501  0.00000000000E+00  0.00000000000E+00  0.89183568605E+03  0.89183568605E+03  0.25500000920E-02 0.  1.
        2   -1    0    0  501    0  0.00000000000E+00  0.00000000000E+00 -0.28742906459E+04  0.28742906459E+04  0.25500000920E-02 0. -1.
    10030    2    1    2    0    0  0.00000000000E+00  0.00000000000E+00 -0.19824549599E+04  0.37661263320E+04  0.32021211533E+04 0.  0.
        3    1    3    3  502    0  0.29366369988E+03  0.34266723301E+03 -0.27979389900E+04  0.28340998223E+04  0.10100000352E+00 0. -1.
       -3    1    3    3    0  502 -0.29366369988E+03 -0.34266723301E+03  0.81548403007E+03  0.93202650966E+03  0.10100000352E+00 0.  1.
</event>
<event>
 5   0  0.1270948E-07  0.3199849E+04  0.7818609E-02  0.8188857E-01
        1   -1    0    0  501    0  0.00000000000E+00  0.00000000000E+00  0.16447172778E+04  0.16447172778E+04  0.50400001928E-02 0. -1.
       -1   -1    0    0    0  501  0.00000000000E+00  0.00000000000E+00 -0.15563517287E+04  0.15563517287E+04  0.50400001928E-02 0.  1.
    10030    2    1    2    0    0  0.00000000000E+00  0.00000000000E+00  0.88365549168E+02  0.32010690065E+04  0.31998491080E+04 0.  0.
        4    1    3    3  502    0 -0.14106205415E+04 -0.27931223659E+03 -0.65743425282E+03  0.15811663566E+04  0.12699999809E+01 0.  1.
       -4    1    3    3    0  502  0.14106205415E+04  0.27931223659E+03  0.74579980198E+03  0.16199026499E+04  0.12699999809E+01 0. -1.
</event>
<event>
 5   0  0.1277374E-07  0.3197127E+04  0.7818609E-02  0.8189576E-01
       -1   -1    0    0    0  501  0.00000000000E+00  0.00000000000E+00  0.21343814616E+04  0.21343814616E+04  0.50400001928E-02 0.  1.
        1   -1    0    0  501    0  0.00000000000E+00  0.00000000000E+00 -0.11972580240E+04  0.11972580241E+04  0.50400001928E-02 0. -1.
    10030    2    1    2    0    0  0.00000000000E+00  0.00000000000E+00  0.93712343756E+03  0.33316394857E+04  0.31971270424E+04 0.  0.
        5    1    3    3  502    0  0.22191769735E+03  0.96352063301E+03  0.17774997785E+04  0.20339977943E+04  0.46999998093E+01 0.  1.
       -5    1    3    3    0  502 -0.22191769735E+03 -0.96352063301E+03 -0.84037634098E+03  0.12976416913E+04  0.46999998093E+01 0. -1.
</event>
<event>
 5   0  0.3764056E-07  0.3199659E+04  0.7818609E-02  0.8188907E-01
        2   -1    0    0  501    0  0.00000000000E+00  0.00000000000E+00  0.25682653268E+04  0.25682653268E+04  0.25500000920E-02 0. -1.
       -2   -1    0    0    0  501  0.00000000000E+00  0.00000000000E+00 -0.99656901304E+03  0.99656901304E+03  0.25500000920E-02 0.  1.
    10030    2    1    2    0    0  0.00000000000E+00  0.00000000000E+00  0.15716963138E+04  0.35648343399E+04  0.31996585080E+04 0.  0.
        5    1    3    3  502    0  0.10365438596E+04  0.11044254802E+04  0.13596549175E+04  0.20354022695E+04  0.46999998093E+01 0.  1.
       -5    1    3    3    0  502 -0.10365438596E+04 -0.11044254802E+04  0.21204139625E+03  0.15294320703E+04  0.46999998093E+01 0. -1.
</event>
<event>
 5   0  0.1317293E-07  0.3199760E+04  0.7818609E-02  0.8188880E-01
       -1   -1    0    0    0  501  0.00000000000E+00  0.00000000000E+00  0.14258199156E+04  0.14258199156E+04  0.50400001928E-02 0. -1.
        1   -1    0    0  501    0  0.00000000000E+00  0.00000000000E+00 -0.17951893359E+04  0.17951893359E+04  0.50400001928E-02 0.  1.
    10030    2    1    2    0    0  0.00000000000E+00  0.00000000000E+00 -0.36936942030E+03  0.32210092516E+04  0.31997604332E+04 0.  0.
        1    1    3    3  502    0  0.61704631007E+03 -0.33303163174E+03 -0.16322748857E+04  0.17765071120E+04  0.50400001928E-02 0.  1.
       -1    1    3    3    0  502 -0.61704631007E+03  0.33303163174E+03  0.12629054654E+04  0.14445021395E+04  0.50400001928E-02 0. -1.
</event>
<event>
 5   0  0.3764056E-07  0.3197218E+04  0.7818609E-02  0.8189552E-01
       -2   -1    0    0    0  501  0.00000000000E+00  0.00000000000E+00  0.12979990832E+04  0.12979990832E+04  0.25500000920E-02 0.  1.
        2   -1    0    0  501    0  0.00000000000E+00  0.00000000000E+00 -0.19688387881E+04  0.19688387881E+04  0.25500000920E-02 0. -1.
    10030    2    1    2    0    0  0.00000000000E+00  0.00000000000E+00 -0.67083970495E+03  0.32668378713E+04  0.31972181295E+04 0.  0.
        5    1    3    3  502    0  0.88455662900E+03 -0.12522914879E+04  0.12704423925E+03  0.15384527062E+04  0.46999998093E+01 0. -1.
       -5    1    3    3    0  502 -0.88455662900E+03  0.12522914879E+04 -0.79788394420E+03  0.17283851651E+04  0.46999998093E+01 0.  1.
</event>
<event>
 5   0  0.1288096E-07  0.3203230E+04  0.7818609E-02  0.8187965E-01
        1   -1    0    0  501    0  0.00000000000E+00  0.00000000000E+00  0.15972880379E+04  0.15972880379E+04  0.50400001928E-02 0. -1.
       -1   -1    0    0    0  501  0.00000000000E+00  0.00000000000E+00 -0.16059532994E+04  0.16059532994E+04  0.50400001928E-02 0.  1.
    10030    2    1    2    0    0  0.00000000000E+00  0.00000000000E+00 -0.86652615119E+01  0.32032413374E+04  0.32032296169E+04 0.  0.
        2    1    3    3  502    0 -0.94809691961E+03  0.28354812876E+03  0.12549903182E+04  0.15982140060E+04  0.25500000920E-02 0. -1.
       -2    1    3    3    0  502  0.94809691961E+03 -0.28354812876E+03 -0.12636555797E+04  0.16050273314E+04  0.25500000920E-02 0.  1.
</event>
<event>
 5   0  0.1365455E-07  0.3203334E+04  0.7818609E-02  0.8187937E-01
       -1   -1    0    0    0  501  0.00000000000E+00  0.00000000000E+00  0.28972557266E+04  0.28972557267E+04  0.50400001928E-02 0. -1.
        1   -1    0    0  501    0  0.00000000000E+00  0.00000000000E+00 -0.88543712030E+03  0.88543712032E+03  0.50400001928E-02 0.  1.
    10030    2    1    2    0    0  0.00000000000E+00  0.00000000000E+00  0.20118186063E+04  0.37826928470E+04  0.32033343674E+04 0.  0.
        3    1    3    3  502    0  0.70938493329E+03 -0.14221617558E+04  0.12407989081E+04  0.20162720510E+04  0.10100000352E+00 0.  1.
       -3    1    3    3    0  502 -0.70938493329E+03  0.14221617558E+04  0.77101969822E+03  0.17664207959E+04  0.10100000352E+00 0. -1.
</event>
<event>
 5   0  0.1277374E-07  0.3114185E+04  0.7818609E-02  0.8211856E-01
       -1   -1    0    0    0  501  0.00000000000E+00  0.00000000000E+00  0.16035359644E+04  0.16035359644E+04  0.50400001928E-02 0.  1.
        1   -1    0    0  501    0  0.00000000000E+00  0.00000000000E+00 -0.15119945058E+04  0.15119945058E+04  0.50400001928E-02 0. -1.
    10030    2    1    2    0    0  0.00000000000E+00  0.00000000000E+00  0.91541458576E+02  0.31155304702E+04  0.31141853304E+04 0.  0.
        5    1    3    3  502    0  0.73175795127E+03  0.93799232576E+03  0.10508021739E+04  0.15872953730E+04  0.46999998093E+01 0.  1.
       -5    1    3    3    0  502 -0.73175795127E+03 -0.93799232576E+03 -0.95926071532E+03  0.15282350972E+04  0.46999998093E+01 0. -1.
</event>
<event>
 5   0  0.3858721E-07  0.3175939E+04  0.7818609E-02  0.8195201E-01
        2   -1    0    0  501    0  0.00000000000E+00  0.00000000000E+00  0.19456560986E+04  0.19456560986E+04  0.25500000920E-02 0. -1.
       -2   -1    0    0    0  501  0.00000000000E+00  0.00000000000E+00 -0.12960394023E+04  0.12960394023E+04  0.25500000920E-02 0.  1.
    10030    2    1    2    0    0  0.00000000000E+00  0.00000000000E+00  0.64961669635E+03  0.32416955009E+04  0.31759388956E+04 0.  0.
        2    1    3    3  502    0  0.50092835740E+03  0.13595197368E+04  0.98820654490E+03  0.17537888440E+04  0.25500000920E-02 0. -1.
       -2    1    3    3    0  502 -0.50092835740E+03 -0.13595197368E+04 -0.33858984856E+03  0.14879066569E+04  0.25500000920E-02 0.  1.
</event>
<event>
 5   0  0.3750285E-07  0.3198309E+04  0.7818609E-02  0.8189264E-01
        2   -1    0    0  501    0  0.00000000000E+00  0.00000000000E+00  0.20500892356E+04  0.20500892356E+04  0.25500000920E-02 0.  1.
       -2   -1    0    0    0  501  0.00000000000E+00  0.00000000000E+00 -0.12474069016E+04  0.12474069016E+04  0.25500000920E-02 0. -1.
    10030    2    1    2    0    0  0.00000000000E+00  0.00000000000E+00  0.80268233400E+03  0.32974961371E+04  0.31983092166E+04 0.  0.
        1    1    3    3  502    0  0.16952677139E+03 -0.22045414093E+03  0.20249665901E+04  0.20439738368E+04  0.50400001928E-02 0.  1.
       -1    1    3    3    0  502 -0.16952677139E+03  0.22045414093E+03 -0.12222842561E+04  0.12535223003E+04  0.50400001928E-02 0. -1.
</event>
<event>
 5   0  0.1317293E-07  0.3197331E+04  0.7818609E-02  0.8189523E-01
        1   -1    0    0  501    0  0.00000000000E+00  0.00000000000E+00  0.24326086786E+04  0.24326086786E+04  0.50400001928E-02 0.  1.
       -1   -1    0    0    0  501  0.00000000000E+00  0.00000000000E+00 -0.10506131909E+04  0.10506131909E+04  0.50400001928E-02 0. -1.
    10030    2    1    2    0    0  0.00000000000E+00  0.00000000000E+00  0.13819954877E+04  0.34832218695E+04  0.31973306154E+04 0.  0.
        1    1    3    3  502    0  0.14785216858E+04  0.59732665974E+03  0.81475675783E+03  0.17907132904E+04  0.50400001928E-02 0.  1.
       -1    1    3    3    0  502 -0.14785216858E+04 -0.59732665974E+03  0.56723872988E+03  0.16925085792E+04  0.50400001928E-02 0. -1.
</event>
<event>
 5   0  0.1365455E-07  0.3202719E+04  0.7818609E-02  0.8188100E-01
       -1   -1    0    0    0  501  0.00000000000E+00  0.00000000000E+00  0.86696594649E+03  0.86696594651E+03  0.50400001928E-02 0.  1.
        1   -1    0    0  501    0  0.00000000000E+00  0.00000000000E+00 -0.29578458625E+04  0.29578458625E+04  0.50400001928E-02 0. -1.
    10030    2    1    2    0    0  0.00000000000E+00  0.00000000000E+00 -0.20908799160E+04  0.38248118090E+04  0.32027186188E+04 0.  0.
        3    1    3    3  502    0 -0.38416931886E+03  0.15473367134E+04 -0.86624575407E+03  0.18144472125E+04  0.10100000352E+00 0.  1.
       -3    1    3    3    0  502  0.38416931886E+03 -0.15473367134E+04 -0.12246341620E+04  0.20103645966E+04  0.10100000352E+00 0. -1.
</event>
<event>
 5   0  0.1365455E-07  0.3196752E+04  0.7818609E-02  0.8189676E-01
        1   -1    0    0  501    0  0.00000000000E+00  0.00000000000E+00  0.18811350263E+04  0.18811350263E+04  0.50400001928E-02 0.  1.
       -1   -1    0    0    0  501  0.00000000000E+00  0.00000000000E+00 -0.13581189085E+04  0.13581189085E+04  0.50400001928E-02 0. -1.
    10030    2    1    2    0    0  0.00000000000E+00  0.00000000000E+00  0.52301611781E+03  0.32392539348E+04  0.31967515065E+04 0.  0.
        3    1    3    3  502    0  0.31958981203E+03  0.26321893022E+03 -0.13028387911E+04  0.13670445417E+04  0.10100000352E+00 0. -1.
       -3    1    3    3    0  502 -0.31958981203E+03 -0.26321893022E+03  0.18258549089E+04  0.18722093931E+04  0.10100000352E+00 0.  1.
</event>
<event>
 5   0  0.1270948E-07  0.3202747E+04  0.7818609E-02  0.8188092E-01
       -1   -1    0    0    0  501  0.00000000000E+00  0.00000000000E+00  0.16550690974E+04  0.16550690974E+04  0.50400001928E-02 0.  1.
        1   -1    0    0  501    0  0.00000000000E+00  0.00000000000E+00 -0.15494196733E+04  0.15494196733E+04  0.50400001928E-02 0. -1.
    10030    2    1    2    0    0  0.00000000000E+00  0.00000000000E+00  0.10564942415E+03  0.32044887707E+04  0.32027467088E+04 0.  0.
        4    1    3    3  502    0 -0.66309123505E+02 -0.74978654190E+03 -0.13613860843E+04  0.15556189899E+04  0.12699999809E+01 0. -1.
       -4    1    3    3    0  502  0.66309123505E+02  0.74978654190E+03  0.14670355084E+04  0.16488697809E+04  0.12699999809E+01 0.  1.
</event>
<event>
 5   0  0.3750285E-07  0.3192285E+04  0.7818609E-02  0.8190858E-01
        2   -1    0    0  501    0  0.00000000000E+00  0.00000000000E+00  0.15920353350E+04  0.15920353350E+04  0.25500000920E-02 0.  1.
       -2   -1    0    0    0  501  0.00000000000E+00  0.00000000000E+00 -0.16002599351E+04  0.16002599351E+04  0.25500000920E-02 0. -1.
    10030    2    1    2    0    0  0.00000000000E+00  0.00000000000E+00 -0.82246000975E+01  0.31922952700E+04  0.31922846751E+04 0.  0.
        1    1    3    3  502    0 -0.73510333474E+03  0.13694110298E+04 -0.36744101712E+03  0.15970837118E+04  0.50400001928E-02 0. -1.
       -1    1    3    3    0  502  0.73510333474E+03 -0.13694110298E+04  0.35921641702E+03  0.15952115583E+04  0.50400001928E-02 0.  1.
</event>
<event>
 5   0  0.3942564E-07  0.3201509E+04  0.7818609E-02  0.8188419E-01
        2   -1    0    0  501    0  0.00000000000E+00  0.00000000000E+00  0.17683027596E+04  0.17683027596E+04  0.25500000920E-02 0. -1.
       -2   -1    0    0    0  501  0.00000000000E+00  0.00000000000E+00 -0.14490813324E+04  0.14490813324E+04  0.25500000920E-02 0.  1.
    10030    2    1    2    0    0  0.00000000000E+00  0.00000000000E+00  0.31922142726E+03  0.32173840920E+04  0.32015087187E+04 0.  0.
        3    1    3    3  502    0  0.76257560835E+03  0.10923369491E+04  0.10515323470E+04  0.16971864529E+04  0.10100000352E+00 0. -1.
       -3    1    3    3    0  502 -0.76257560835E+03 -0.10923369491E+04 -0.73231091976E+03  0.15201976392E+04  0.10100000352E+00 0.  1.
</event>
<event>
 5   0  0.1365455E-07  0.3135929E+04  0.7818609E-02  0.8205946E-01
        1   -1    0    0  501    0  0.00000000000E+00  0.00000000000E+00  0.22209085104E+04  0.22209085104E+04  0.50400001928E-02 0. -1.
       -1   -1    0    0    0  501  0.00000000000E+00  0.00000000000E+00 -0.11069853303E+04  0.11069853303E+04  0.50400001928E-02 0.  1.
    10030    2    1    2    0    0  0.00000000000E+00  0.00000000000E+00  0.11139231801E+04  0.33278938407E+04  0.31359292983E+04 0.  0.
        3    1    3    3  502    0  0.10343038869E+04  0.20396280473E+03 -0.67474593994E+03  0.12516658699E+04  0.10100000352E+00 0.  1.
       -3    1    3    3    0  502 -0.10343038869E+04 -0.20396280473E+03  0.17886691200E+04  0.20762279709E+04  0.10100000352E+00 0. -1.
</event>
<event>
 5   0  0.3830207E-07  0.3122777E+04  0.7818609E-02  0.8209515E-01
       -2   -1    0    0    0  501  0.00000000000E+00  0.00000000000E+00  0.12154598773E+04  0.12154598773E+04  0.25500000920E-02 0. -1.
        2   -1    0    0  501    0  0.00000000000E+00  0.00000000000E+00 -0.20057705328E+04  0.20057705328E+04  0.25500000920E-02 0.  1.
    10030    2    1    2    0    0  0.00000000000E+00  0.00000000000E+00 -0.79031065549E+03  0.32212304101E+04  0.31227767168E+04 0.  0.
        4    1    3    3  502    0  0.26742196474E+03  0.11315594568E+04  0.67980863984E+03  0.13468788777E+04  0.12699999809E+01 0. -1.
       -4    1    3    3    0  502 -0.26742196474E+03 -0.11315594568E+04 -0.14701192953E+04  0.18743515324E+04  0.12699999809E+01 0.  1.
</event>
<event>
 5   0  0.1365455E-07  0.3203941E+04  0.7818609E-02  0.8187777E-01
        1   -1    0    0  501    0  0.00000000000E+00  0.00000000000E+00  0.18939059819E+04  0.18939059819E+04  0.50400001928E-02 0.  1.
       -1   -1    0    0    0  501  0.00000000000E+00  0.00000000000E+00 -0.13550349468E+04  0.13550349468E+04  0.50400001928E-02 0. -1.
    10030    2    1    2    0    0  0.00000000000E+00  0.00000000000E+00  0.53887103508E+03  0.32489409286E+04  0.32039405683E+04 0.  0.
        3    1    3    3  502    0 -0.19641803811E+03 -0.70853344038E+03  0.17126999302E+04  0.18638510517E+04  0.10100000352E+00 0.  1.
       -3    1    3    3    0  502  0.19641803811E+03  0.70853344038E+03 -0.11738288952E+04  0.13850898769E+04  0.10100000352E+00 0. -1.
</event>
<event>
 5   0  0.1365455E-07  0.3199421E+04  0.7818609E-02  0.8188970E-01
        1   -1    0    0  501    0  0.00000000000E+00  0.00000000000E+00  0.25986850947E+04  0.25986850947E+04  0.50400001928E-02 0. -1.
       -1   -1    0    0    0  501  0.00000000000E+00  0.00000000000E+00 -0.98475682941E+03  0.98475682942E+03  0.50400001928E-02 0.  1.
    10030    2    1    2    0    0  0.00000000000E+00  0.00000000000E+00  0.16139282653E+04  0.35834419241E+04  0.31994205066E+04 0.  0.
        3    1    3    3  502    0 -0.41622530193E+03 -0.12039716048E+04  0.18907221594E+04  0.22798292527E+04  0.10100000352E+00 0. -1.
       -3    1    3    3    0  502  0.41622530193E+03  0.12039716048E+04 -0.27679389412E+03  0.13036126714E+04  0.10100000352E+00 0.  1.
</event>
<event>
 5   0  0.3764056E-07  0.3198972E+04  0.7818609E-02  0.8189089E-01
       -2   -1    0    0    0  501  0.00000000000E+00  0.00000000000E+00  0.19136942137E+04  0.19136942137E+04  0.25500000920E-02 0. -1.
        2   -1    0    0  501    0  0.00000000000E+00  0.00000000000E+00 -0.13368677749E+04  0.13368677749E+04  0.25500000920E-02 0.  1.
    10030    2    1    2    0    0  0.00000000000E+00  0.00000000000E+00  0.57682643887E+03  0.32505619886E+04  0.31989724133E+04 0.  0.
        5    1    3    3  502    0 -0.13164730113E+04 -0.58782208930E+03 -0.41535868994E+03  0.15003935915E+04  0.46999998093E+01 0.  1.
       -5    1    3    3    0  502  0.13164730113E+04  0.58782208930E+03  0.99218512881E+03  0.17501683971E+04  0.46999998093E+01 0. -1.
</event>
<event>
 5   0  0.1270948E-07  0.3201301E+04  0.7818609E-02  0.8188474E-01
        1   -1    0    0  501    0  0.00000000000E+00  0.00000000000E+00  0.25245120636E+04  0.25245120636E+04  0.50400001928E-02 0.  1.
       -1   -1    0    0    0  501  0.00000000000E+00  0.00000000000E+00 -0.10148819887E+04  0.10148819887E+04  0.50400001928E-02 0. -1.
    10030    2    1    2    0    0  0.00000000000E+00  0.00000000000E+00  0.15096300749E+04  0.35393940523E+04  0.32013008754E+04 0.  0.
        4    1    3    3  502    0  0.65785693209E+03 -0.54132249964E+02 -0.85739739968E+03  0.10820526593E+04  0.12699999809E+01 0. -1.
       -4    1    3    3    0  502 -0.65785693209E+03  0.54132249964E+02  0.23670274746E+04  0.24573413931E+04  0.12699999809E+01 0.  1.
</event>
<event>
 5   0  0.1365455E-07  0.3212784E+04  0.7818609E-02  0.8185449E-01
       -1   -1    0    0    0  501  0.00000000000E+00  0.00000000000E+00  0.17884427323E+04  0.17884427323E+04  0.50400001928E-02 0.  1.
        1   -1    0    0  501    0  0.00000000000E+00  0.00000000000E+00 -0.14428728249E+04  0.14428728249E+04  0.50400001928E-02 0. -1.
    10030    2    1    2    0    0  0.00000000000E+00  0.00000000000E+00  0.34556990733E+03  0.32313155572E+04  0.32127840994E+04 0.  0.
        3    1    3    3  502    0 -0.29532168447E+03  0.14308673138E+04  0.84439347199E+03  0.16874823000E+04  0.10100000352E+00 0.  1.
       -3    1    3    3    0  502  0.29532168447E+03 -0.14308673138E+04 -0.49882356465E+03  0.15438332572E+04  0.10100000352E+00 0. -1.
</event>
<event>
 5   0  0.3858721E-07  0.3205109E+04  0.7818609E-02  0.8187469E-01
       -2   -1    0    0    0  501  0.00000000000E+00  0.00000000000E+00  0.96153904564E+03  0.96153904564E+03  0.25500000920E-02 0.  1.
        2   -1    0    0  501    0  0.00000000000E+00  0.00000000000E+00 -0.26709057171E+04  0.26709057171E+04  0.25500000920E-02 0. -1.
    10030    2    1    2    0    0  0.00000000000E+00  0.00000000000E+00 -0.17093666715E+04  0.36324447628E+04  0.32051085063E+04 0.  0.
        2    1    3    3  502    0  0.19105034952E+03  0.15751498250E+04 -0.11095765419E+04  0.19361707852E+04  0.25500000920E-02 0. -1.
       -2    1    3    3    0  502 -0.19105034952E+03 -0.15751498250E+04 -0.59979012959E+03  0.16962739775E+04  0.25500000920E-02 0.  1.
</event>
<event>
 5   0  0.1270948E-07  0.3204213E+04  0.7818609E-02  0.8187705E-01
       -1   -1    0    0    0  501  0.00000000000E+00  0.00000000000E+00  0.20120294700E+04  0.20120294700E+04  0.50400001928E-02 0.  1.
        1   -1    0    0  501    0  0.00000000000E+00  0.00000000000E+00 -0.12756996164E+04  0.12756996165E+04  0.50400001928E-02 0. -1.
    10030    2    1    2    0    0  0.00000000000E+00  0.00000000000E+00  0.73632985355E+03  0.32877290865E+04  0.32042129912E+04 0.  0.
        4    1    3    3  502    0  0.12244443016E+04 -0.90399208535E+03 -0.14515254607E+03  0.15289003933E+04  0.12699999809E+01 0.  1.
       -4    1    3    3    0  502 -0.12244443016E+04  0.90399208535E+03  0.88148239963E+03  0.17588286932E+04  0.12699999809E+01 0. -1.
</event>
<event>
 5   0  0.3750285E-07  0.3205385E+04  0.7818609E-02  0.8187396E-01
        2   -1    0    0  501    0  0.00000000000E+00  0.00000000000E+00  0.17841138232E+04  0.17841138232E+04  0.25500000920E-02 0.  1.
       -2   -1    0    0    0  501  0.00000000000E+00  0.00000000000E+00 -0.14397196347E+04  0.14397196347E+04  0.25500000920E-02 0. -1.
    10030    2    1    2    0    0  0.00000000000E+00  0.00000000000E+00  0.34439418852E+03  0.32238334579E+04  0.32053852822E+04 0.  0.
        1    1    3    3  502    0 -0.10381046105E+04 -0.66927892988E+03 -0.85496832969E+03  0.15021871765E+04  0.50400001928E-02 0. -1.
       -1    1    3    3    0  502  0.10381046105E+04  0.66927892988E+03  0.11993625182E+04  0.17216462815E+04  0.50400001928E-02 0.  1.
</event>
<event>
 5   0  0.1288096E-07  0.3193056E+04  0.7818609E-02  0.8190653E-01
       -1   -1    0    0    0  501  0.00000000000E+00  0.00000000000E+00  0.13486059816E+04  0.13486059816E+04  0.50400001928E-02 0. -1.
        1   -1    0    0  501    0  0.00000000000E+00  0.00000000000E+00 -0.18900274501E+04  0.18900274501E+04  0.50400001928E-02 0.  1.
    10030    2    1    2    0    0  0.00000000000E+00  0.00000000000E+00 -0.54142146844E+03  0.32386334317E+04  0.31930564195E+04 0.  0.
        2    1    3    3  502    0 -0.11068757929E+03  0.71233948987E+03 -0.17155518579E+04  0.18608593354E+04  0.25500000920E-02 0.  1.
       -2    1    3    3    0  502  0.11068757929E+03 -0.71233948987E+03  0.11741303894E+04  0.13777740963E+04  0.25500000920E-02 0. -1.
</event>
<event>
 5   0  0.1270948E-07  0.3200259E+04  0.7818609E-02  0.8188749E-01
        1   -1    0    0  501    0  0.00000000000E+00  0.00000000000E+00  0.15524909756E+04  0.15524909756E+04  0.50400001928E-02 0.  1.
       -1   -1    0    0    0  501  0.00000000000E+00  0.00000000000E+00 -0.16492302001E+04  0.16492302001E+04  0.50400001928E-02 0. -1.
    10030    2    1    2    0    0  0.00000000000E+00  0.00000000000E+00 -0.96739224435E+02  0.32017211757E+04  0.32002593660E+04 0.  0.
        4    1    3    3  502    0  0.14315683623E+04 -0.57526517812E+03  0.37620070386E+03  0.15880322993E+04  0.12699999809E+01 0.  1.
       -4    1    3    3    0  502 -0.14315683623E+04  0.57526517812E+03 -0.47293992830E+03  0.16136888764E+04  0.12699999809E+01 0. -1.
</event>
<event>
 5   0  0.3942564E-07  0.3204552E+04  0.7818609E-02  0.8187616E-01
        2   -1    0    0  501    0  0.00000000000E+00  0.00000000000E+00  0.17399930478E+04  0.17399930478E+04  0.25500000920E-02 0. -1.
       -2   -1    0    0    0  501  0.00000000000E+00  0.00000000000E+00 -0.14754594412E+04  0.14754594412E+04  0.25500000920E-02 0.  1.
    10030    2    1    2    0    0  0.00000000000E+00  0.00000000000E+00  0.26453360661E+03  0.32154524891E+04  0.32045524930E+04 0.  0.
        3    1    3    3  502    0 -0.10306954427E+04 -0.61213616141E+03 -0.93447933143E+03  0.15199655939E+04  0.10100000352E+00 0.  1.
       -3    1    3    3    0  502  0.10306954427E+04  0.61213616141E+03  0.11990129380E+04  0.16954868951E+04  0.10100000352E+00 0. -1.
</event>
<event>
 5   0  0.1365455E-07  0.3206711E+04  0.7818609E-02  0.8187047E-01
       -1   -1    0    0    0  501  0.00000000000E+00  0.00000000000E+00  0.13341328035E+04  0.13341328035E+04  0.50400001928E-02 0. -1.
        1   -1    0    0  501    0  0.00000000000E+00  0.00000000000E+00 -0.19269062525E+04  0.19269062525E+04  0.50400001928E-02 0.  1.
    10030    2    1    2    0    0  0.00000000000E+00  0.00000000000E+00 -0.59277344900E+03  0.32610390560E+04  0.32067109884E+04 0.  0.
        3    1    3    3  502    0 -0.93593751257E+03 -0.69736849288E+03  0.82153136072E+03  0.14273106281E+04  0.10100000352E+00 0. -1.
       -3    1    3    3    0  502  0.93593751257E+03  0.69736849288E+03 -0.14143048097E+04  0.18337284279E+04  0.10100000352E+00 0.  1.
</event>
<event>
 5   0  0.3858721E-07  0.3197997E+04  0.7818609E-02  0.8189346E-01
       -2   -1    0    0    0  501  0.00000000000E+00  0.00000000000E+00  0.22070365145E+04  0.22070365145E+04  0.25500000920E-02 0. -1.
        2   -1    0    0  501    0  0.00000000000E+00  0.00000000000E+00 -0.11584751573E+04  0.11584751573E+04  0.25500000920E-02 0.  1.
    10030    2    1    2    0    0  0.00000000000E+00  0.00000000000E+00  0.10485613572E+04  0.33655116719E+04  0.31979974818E+04 0.  0.
        2    1    3    3  502    0 -0.69632816323E+03 -0.12323010448E+04  0.13071263554E+04  0.19266598260E+04  0.25500000920E-02 0. -1.
       -2    1    3    3    0  502  0.69632816323E+03  0.12323010448E+04 -0.25856499822E+03  0.14388518459E+04  0.25500000920E-02 0.  1.
</event>
<event>
 5   0  0.3942564E-07  0.3197444E+04  0.7818609E-02  0.8189493E-01
        2   -1    0    0  501    0  0.00000000000E+00  0.00000000000E+00  0.21407903616E+04  0.21407903616E+04  0.25500000920E-02 0.  1.
       -2   -1    0    0    0  501  0.00000000000E+00  0.00000000000E+00 -0.11939104131E+04  0.11939104131E+04  0.25500000920E-02 0. -1.
    10030    2    1    2    0    0  0.00000000000E+00  0.00000000000E+00  0.94687994854E+03  0.33347007747E+04  0.31974439197E+04 0.  0.
        3    1    3    3  502    0  0.33110811102E+03  0.12065428951E+04  0.15114188869E+04  0.19620819047E+04  0.10100000352E+00 0.  1.
       -3    1    3    3    0  502 -0.33110811102E+03 -0.12065428951E+04 -0.56453893836E+03  0.13726188699E+04  0.10100000352E+00 0. -1.
</event>
<event>
 5   0  0.3858721E-07  0.3200179E+04  0.7818609E-02  0.8188770E-01
        2   -1    0    0  501    0  0.00000000000E+00  0.00000000000E+00  0.14989073242E+04  0.14989073242E+04  0.25500000920E-02 0. -1.
       -2   -1    0    0    0  501  0.00000000000E+00  0.00000000000E+00 -0.17081019496E+04  0.17081019496E+04  0.25500000920E-02 0.  1.
    10030    2    1    2    0    0  0.00000000000E+00  0.00000000000E+00 -0.20919462537E+03  0.32070092738E+04  0.32001790717E+04 0.  0.
        2    1    3    3  502    0  0.29259225523E+01 -0.74794977995E+03  0.13129354390E+04  0.15110383521E+04  0.25500000920E-02 0. -1.
       -2    1    3    3    0  502 -0.29259225523E+01  0.74794977995E+03 -0.15221300644E+04  0.16959709217E+04  0.25500000920E-02 0.  1.
</event>
<event>
 5   0  0.3858721E-07  0.3203920E+04  0.7818609E-02  0.8187783E-01
        2   -1    0    0  501    0  0.00000000000E+00  0.00000000000E+00  0.17311902573E+04  0.17311902573E+04  0.25500000920E-02 0.  1.
       -2   -1    0    0    0  501  0.00000000000E+00  0.00000000000E+00 -0.14823769965E+04  0.14823769965E+04  0.25500000920E-02 0. -1.
    10030    2    1    2    0    0  0.00000000000E+00  0.00000000000E+00  0.24881326083E+03  0.32135672539E+04  0.32039204822E+04 0.  0.
        2    1    3    3  502    0  0.97136935234E+03  0.82697391563E+03 -0.84744436704E+03  0.15315372118E+04  0.25500000920E-02 0. -1.
       -2    1    3    3    0  502 -0.97136935234E+03 -0.82697391563E+03  0.10962576279E+04  0.16820300421E+04  0.25500000920E-02 0.  1.
</event>
<event>
 5   0  0.1277374E-07  0.3211078E+04  0.7818609E-02  0.8185898E-01
       -1   -1    0    0    0  501  0.00000000000E+00  0.00000000000E+00  0.19078333363E+04  0.19078333363E+04  0.50400001928E-02 0.  1.
        1   -1    0    0  501    0  0.00000000000E+00  0.00000000000E+00 -0.13511432341E+04  0.13511432341E+04  0.50400001928E-02 0. -1.
    10030    2    1    2    0    0  0.00000000000E+00  0.00000000000E+00  0.55669010228E+03  0.32589765704E+04  0.32110783884E+04 0.  0.
        5    1    3    3  502    0 -0.11960584169E+03  0.10942562497E+04  0.14645527054E+04  0.18321132646E+04  0.46999998093E+01 0.  1.
       -5    1    3    3    0  502  0.11960584169E+03 -0.10942562497E+04 -0.90786260311E+03  0.14268633058E+04  0.46999998093E+01 0. -1.
</event>
<event>
 5   0  0.1317293E-07  0.3198833E+04  0.7818609E-02  0.8189125E-01
        1   -1    0    0  501    0  0.00000000000E+00  0.00000000000E+00  0.21014489541E+04  0.21014489541E+04  0.50400001928E-02 0. -1.
       -1   -1    0    0    0  501  0.00000000000E+00  0.00000000000E+00 -0.12173189300E+04  0.12173189300E+04  0.50400001928E-02 0.  1.
    10030    2    1    2    0    0  0.00000000000E+00  0.00000000000E+00  0.88413002410E+03  0.33187678841E+04  0.31988332824E+04 0.  0.
        1    1    3    3  502    0 -0.33357222951E+03  0.37821566370E+03  0.20168061557E+04  0.20788998509E+04  0.50400001928E-02 0. -1.
       -1    1    3    3    0  502  0.33357222951E+03 -0.37821566370E+03 -0.11326761316E+04  0.12398680332E+04  0.50400001928E-02 0.  1.
</event>
<event>
 5   0  0.3858721E-07  0.3194329E+04  0.7818609E-02  0.8190317E-01
        2   -1    0    0  501    0  0.00000000000E+00  0.00000000000E+00  0.22225070393E+04  0.22225070393E+04  0.25500000920E-02 0.  1.
       -2   -1    0    0    0  501  0.00000000000E+00  0.00000000000E+00 -0.11477732689E+04  0.11477732689E+04  0.25500000920E-02 0. -1.
    10030    2    1    2    0    0  0.00000000000E+00  0.00000000000E+00  0.10747337704E+04  0.33702803082E+04  0.31943288307E+04 0.  0.
        2    1    3    3  502    0  0.13440299455E+04 -0.72563162286E+03  0.44770565863E+02  0.15280582941E+04  0.25500000920E-02 0. -1.
       -2    1    3    3    0  502 -0.13440299455E+04  0.72563162286E+03  0.10299632046E+04  0.18422220141E+04  0.25500000920E-02 0.  1.
</event>
<event>
 5   0  0.3858721E-07  0.3144413E+04  0.7818609E-02  0.8203654E-01
        2   -1    0    0  501    0  0.00000000000E+00  0.00000000000E+00  0.26495610867E+04  0.26495610867E+04  0.25500000920E-02 0.  1.
       -2   -1    0    0    0  501  0.00000000000E+00  0.00000000000E+00 -0.93292200448E+03  0.93292200449E+03  0.25500000920E-02 0. -1.
    10030    2    1    2    0    0  0.00000000000E+00  0.00000000000E+00  0.17166390822E+04  0.35824830912E+04  0.31444133570E+04 0.  0.
        2    1    3    3  502    0 -0.71895746059E+03 -0.38452130837E+03  0.23898755758E+04  0.25251260829E+04  0.25500000920E-02 0.  1.
       -2    1    3    3    0  502  0.71895746059E+03  0.38452130837E+03 -0.67323649357E+03  0.10573570083E+04  0.25500000920E-02 0. -1.
</event>
<event>
 5   0  0.3942564E-07  0.3240765E+04  0.7818609E-02  0.8178133E-01
        2   -1    0    0  501    0  0.00000000000E+00  0.00000000000E+00  0.25426675556E+04  0.25426675556E+04  0.25500000920E-02 0. -1.
       -2   -1    0    0    0  501  0.00000000000E+00  0.00000000000E+00 -0.10326318525E+04  0.10326318525E+04  0.25500000920E-02 0.  1.
    10030    2    1    2    0    0  0.00000000000E+00  0.00000000000E+00  0.15100357031E+04  0.35752994080E+04  0.32407650382E+04 0.  0.
        3    1    3    3  502    0  0.12667207527E+04  0.91265319594E+03  0.12335210769E+04  0.19897466117E+04  0.10100000352E+00 0. -1.
       -3    1    3    3    0  502 -0.12667207527E+04 -0.91265319594E+03  0.27651462617E+03  0.15855527964E+04  0.10100000352E+00 0.  1.
</event>
<event>
 5   0  0.1288096E-07  0.3196962E+04  0.7818609E-02  0.8189620E-01
       -1   -1    0    0    0  501  0.00000000000E+00  0.00000000000E+00  0.14068509071E+04  0.14068509071E+04  0.50400001928E-02 0. -1.
        1   -1    0    0  501    0  0.00000000000E+00  0.00000000000E+00 -0.18162135111E+04  0.18162135111E+04  0.50400001928E-02 0.  1.
    10030    2    1    2    0    0  0.00000000000E+00  0.00000000000E+00 -0.40936260401E+03  0.32230644182E+04  0.31969620740E+04 0.  0.
        2    1    3    3  502    0  0.12792269660E+04  0.76878395156E+03 -0.78179836036E+03  0.16848320602E+04  0.25500000920E-02 0.  1.
       -2    1    3    3    0  502 -0.12792269660E+04 -0.76878395156E+03  0.37243575635E+03  0.15382323580E+04  0.25500000920E-02 0. -1.
</event>
<event>
 5   0  0.1317293E-07  0.3193912E+04  0.7818609E-02  0.8190427E-01
       -1   -1    0    0    0  501  0.00000000000E+00  0.00000000000E+00  0.16677843085E+04  0.16677843085E+04  0.50400001928E-02 0. -1.
        1   -1    0    0  501    0  0.00000000000E+00  0.00000000000E+00 -0.15291358608E+04  0.15291358608E+04  0.50400001928E-02 0.  1.
    10030    2    1    2    0    0  0.00000000000E+00  0.00000000000E+00  0.13864844777E+03  0.31969201693E+04  0.31939122056E+04 0.  0.
        1    1    3    3  502    0 -0.21007965307E+03 -0.15556741484E+03 -0.15075750081E+04  0.15300709416E+04  0.50400001928E-02 0.  1.
       -1    1    3    3    0  502  0.21007965307E+03  0.15556741484E+03  0.16462234559E+04  0.16668492277E+04  0.50400001928E-02 0. -1.
</event>
<event>
 5   0  0.3858721E-07  0.3203155E+04  0.7818609E-02  0.8187985E-01
       -2   -1    0    0    0  501  0.00000000000E+00  0.00000000000E+00  0.19474224357E+04  0.19474224357E+04  0.25500000920E-02 0.  1.
        2   -1    0    0  501    0  0.00000000000E+00  0.00000000000E+00 -0.13171512947E+04  0.13171512947E+04  0.25500000920E-02 0. -1.
    10030    2    1    2    0    0  0.00000000000E+00  0.00000000000E+00  0.63027114099E+03  0.32645737304E+04  0.32031546840E+04 0.  0.
        2    1    3    3  502    0  0.19167570683E+03 -0.62326329703E+03 -0.11757371459E+04  0.13444532533E+04  0.25500000920E-02 0. -1.
       -2    1    3    3    0  502 -0.19167570683E+03  0.62326329703E+03  0.18060082869E+04  0.19201204771E+04  0.25500000920E-02 0.  1.
</event>
<event>
 5   0  0.3764056E-07  0.3224598E+04  0.7818609E-02  0.8182351E-01
       -2   -1    0    0    0  501  0.00000000000E+00  0.00000000000E+00  0.12683385220E+04  0.12683385220E+04  0.25500000920E-02 0. -1.
        2   -1    0    0  501    0  0.00000000000E+00  0.00000000000E+00 -0.20495384088E+04  0.20495384088E+04  0.25500000920E-02 0.  1.
    10030    2    1    2    0    0  0.00000000000E+00  0.00000000000E+00 -0.78119988680E+03  0.33178769309E+04  0.32245982797E+04 0.  0.
        5    1    3    3  502    0 -0.10364788446E+04  0.12017144275E+04 -0.68358317980E+03  0.17279218774E+04  0.46999998093E+01 0.  1.
       -5    1    3    3    0  502  0.10364788446E+04 -0.12017144275E+04 -0.97616706998E+02  0.15899550535E+04  0.46999998093E+01 0. -1.
</event>
<event>
 5   0  0.1288096E-07  0.3193722E+04  0.7818609E-02  0.8190477E-01
        1   -1    0    0  501    0  0.00000000000E+00  0.00000000000E+00  0.16176050937E+04  0.16176050937E+04  0.50400001928E-02 0. -1.
       -1   -1    0    0    0  501  0.00000000000E+00  0.00000000000E+00 -0.15763827848E+04  0.15763827849E+04  0.50400001928E-02 0.  1.
    10030    2    1    2    0    0  0.00000000000E+00  0.00000000000E+00  0.41222308835E+02  0.31939878785E+04  0.31937218554E+04 0.  0.
        2    1    3    3  502    0  0.89905639075E+03 -0.10605397268E+04 -0.76489549353E+03  0.15868560180E+04  0.25500000920E-02 0.  1.
       -2    1    3    3    0  502 -0.89905639075E+03  0.10605397268E+04  0.80611780237E+03  0.16071318605E+04  0.25500000920E-02 0. -1.
</event>
<event>
 5   0  0.1277374E-07  0.3203306E+04  0.7818609E-02  0.8187945E-01
        1   -1    0    0  501    0  0.00000000000E+00  0.00000000000E+00  0.27273088238E+04  0.27273088238E+04  0.50400001928E-02 0. -1.
       -1   -1    0    0    0  501  0.00000000000E+00  0.00000000000E+00 -0.94059444845E+03  0.94059444846E+03  0.50400001928E-02 0.  1.
    10030    2    1    2    0    0  0.00000000000E+00  0.00000000000E+00  0.17867143753E+04  0.36679032722E+04  0.32033055046E+04 0.  0.
        5    1    3    3  502    0  0.15847668213E+04  0.22936805031E+03  0.85412619866E+03  0.18148413797E+04  0.46999998093E+01 0.  1.
       -5    1    3    3    0  502 -0.15847668213E+04 -0.22936805031E+03  0.93258817666E+03  0.18530618925E+04  0.46999998093E+01 0. -1.
</event>
<event>
 5   0  0.3830207E-07  0.3197801E+04  0.7818609E-02  0.8189398E-01
       -2   -1    0    0    0  501  0.00000000000E+00  0.00000000000E+00  0.16922756351E+04  0.16922756351E+04  0.25500000920E-02 0. -1.
        2   -1    0    0  501    0  0.00000000000E+00  0.00000000000E+00 -0.15106776544E+04  0.15106776544E+04  0.25500000920E-02 0.  1.
    10030    2    1    2    0    0  0.00000000000E+00  0.00000000000E+00  0.18159798076E+03  0.32029532895E+04  0.31978011114E+04 0.  0.
        4    1    3    3  502    0 -0.13625895051E+04 -0.72975874346E+03 -0.31886290294E+03  0.15782500267E+04  0.12699999809E+01 0.  1.
       -4    1    3    3    0  502  0.13625895051E+04  0.72975874346E+03  0.50046088370E+03  0.16247032628E+04  0.12699999809E+01 0. -1.
</event>
<event>
 5   0  0.1365455E-07  0.3196566E+04  0.7818609E-02  0.8189725E-01
        1   -1    0    0  501    0  0.00000000000E+00  0.00000000000E+00  0.13418392995E+04  0.13418392995E+04  0.50400001928E-02 0.  1.
       -1   -1    0    0    0  501  0.00000000000E+00  0.00000000000E+00 -0.19037361482E+04  0.19037361482E+04  0.50400001928E-02 0. -1.
    10030    2    1    2    0    0  0.00000000000E+00  0.00000000000E+00 -0.56189684868E+03  0.32455754477E+04  0.31965656442E+04 0.  0.
        3    1    3    3  502    0  0.72785944862E+03 -0.10872285875E+04  0.65109240794E+03  0.14614262596E+04  0.10100000352E+00 0.  1.
       -3    1    3    3    0  502 -0.72785944862E+03  0.10872285875E+04 -0.12129892566E+04  0.17841491881E+04  0.10100000352E+00 0. -1.
</event>
<event>
 5   0  0.1288096E-07  0.3201271E+04  0.7818609E-02  0.8188482E-01
        1   -1    0    0  501    0  0.00000000000E+00  0.00000000000E+00  0.14584403502E+04  0.14584403502E+04  0.50400001928E-02 0.  1.
       -1   -1    0    0    0  501  0.00000000000E+00  0.00000000000E+00 -0.17566943632E+04  0.17566943632E+04  0.50400001928E-02 0. -1.
    10030    2    1    2    0    0  0.00000000000E+00  0.00000000000E+00 -0.29825401307E+03  0.32151347134E+04  0.32012709615E+04 0.  0.
        2    1    3    3  502    0 -0.14841380526E+04 -0.52987133770E+03  0.13245219841E+03  0.15814464830E+04  0.25500000920E-02 0.  1.
       -2    1    3    3    0  502  0.14841380526E+04  0.52987133770E+03 -0.43070621148E+03  0.16336882304E+04  0.25500000920E-02 0. -1.
</event>
<event>
 5   0  0.3858721E-07  0.3202041E+04  0.7818609E-02  0.8188278E-01
       -2   -1    0    0    0  501  0.00000000000E+00  0.00000000000E+00  0.95150034274E+03  0.95150034274E+03  0.25500000920E-02 0. -1.
        2   -1    0    0  501    0  0.00000000000E+00  0.00000000000E+00 -0.26939217165E+04  0.26939217165E+04  0.25500000920E-02 0.  1.
    10030    2    1    2    0    0  0.00000000000E+00  0.00000000000E+00 -0.17424213737E+04  0.36454220592E+04  0.32020414966E+04 0.  0.
        2    1    3    3  502    0  0.14417717128E+04 -0.68904050531E+03 -0.75859468724E+03  0.17688833736E+04  0.25500000920E-02 0. -1.
       -2    1    3    3    0  502 -0.14417717128E+04  0.68904050531E+03 -0.98382668647E+03  0.18765386856E+04  0.25500000920E-02 0.  1.
</event>
<event>
 5   0  0.3764056E-07  0.3190649E+04  0.7818609E-02  0.8191291E-01
        2   -1    0    0  501    0  0.00000000000E+00  0.00000000000E+00  0.13519556073E+04  0.13519556073E+04  0.25500000920E-02 0. -1.
       -2   -1    0    0    0  501  0.00000000000E+00  0.00000000000E+00 -0.18825030126E+04  0.18825030126E+04  0.25500000920E-02 0.  1.
    10030    2    1    2    0    0  0.00000000000E+00  0.00000000000E+00 -0.53054740527E+03  0.32344586198E+04  0.31906491525E+04 0.  0.
        5    1    3    3  502    0  0.10357682143E+04 -0.25748204142E+03  0.93672422894E+03  0.14200659022E+04  0.46999998093E+01 0. -1.
       -5    1    3    3    0  502 -0.10357682143E+04  0.25748204142E+03 -0.14672716342E+04  0.18143927177E+04  0.46999998093E+01 0.  1.
</event>
<event>
 5   0  0.1270948E-07  0.3199647E+04  0.7818609E-02  0.8188910E-01
        1   -1    0    0  501    0  0.00000000000E+00  0.00000000000E+00  0.71995464286E+03  0.71995464287E+03  0.50400001928E-02 0.  1.
       -1   -1    0    0    0  501  0.00000000000E+00  0.00000000000E+00 -0.35549954311E+04  0.35549954311E+04  0.50400001928E-02 0. -1.
    10030    2    1    2    0    0  0.00000000000E+00  0.00000000000E+00 -0.28350407883E+04  0.42749500740E+04  0.31996471468E+04 0.  0.
        4    1    3    3  502    0  0.11476225858E+03  0.73360239937E+03 -0.33108257092E+04  0.33930681316E+04  0.12699999809E+01 0. -1.
       -4    1    3    3    0  502 -0.11476225858E+03 -0.73360239937E+03  0.47578492094E+03  0.88188194235E+03  0.12699999809E+01 0.  1.
</event>
<event>
 5   0  0.3764056E-07  0.3120199E+04  0.7818609E-02  0.8210216E-01
        2   -1    0    0  501    0  0.00000000000E+00  0.00000000000E+00  0.13275601613E+04  0.13275601613E+04  0.25500000920E-02 0. -1.
       -2   -1    0    0    0  501  0.00000000000E+00  0.00000000000E+00 -0.18333707109E+04  0.18333707109E+04  0.25500000920E-02 0.  1.
    10030    2    1    2    0    0  0.00000000000E+00  0.00000000000E+00 -0.50581054955E+03  0.31609308722E+04  0.31201986582E+04 0.  0.
        5    1    3    3  502    0 -0.14450757008E+04  0.34420116543E+03  0.22993986273E+03  0.15032008029E+04  0.46999998093E+01 0. -1.
       -5    1    3    3    0  502  0.14450757008E+04 -0.34420116543E+03 -0.73575041228E+03  0.16577300693E+04  0.46999998093E+01 0.  1.
</event>
<event>
 5   0  0.1365455E-07  0.3201233E+04  0.7818609E-02  0.8188491E-01
        1   -1    0    0  501    0  0.00000000000E+00  0.00000000000E+00  0.16862483624E+04  0.16862483625E+04  0.50400001928E-02 0.  1.
       -1   -1    0    0    0  501  0.00000000000E+00  0.00000000000E+00 -0.15193337095E+04  0.15193337095E+04  0.50400001928E-02 0. -1.
    10030    2    1    2    0    0  0.00000000000E+00  0.00000000000E+00  0.16691465292E+03  0.32055820720E+04  0.32012334996E+04 0.  0.
        3    1    3    3  502    0  0.13756375044E+04 -0.80270583788E+03  0.24260327723E+03  0.16110777654E+04  0.10100000352E+00 0. -1.
       -3    1    3    3    0  502 -0.13756375044E+04  0.80270583788E+03 -0.75688624309E+02  0.15945043066E+04  0.10100000352E+00 0.  1.
</event>
<event>
 5   0  0.3858721E-07  0.3197704E+04  0.7818609E-02  0.8189424E-01
       -2   -1    0    0    0  501  0.00000000000E+00  0.00000000000E+00  0.14579670358E+04  0.14579670358E+04  0.25500000920E-02 0.  1.
        2   -1    0    0  501    0  0.00000000000E+00  0.00000000000E+00 -0.17533508737E+04  0.17533508737E+04  0.25500000920E-02 0. -1.
    10030    2    1    2    0    0  0.00000000000E+00  0.00000000000E+00 -0.29538383788E+03  0.32113179094E+04  0.31977040363E+04 0.  0.
        2    1    3    3  502    0 -0.70346257784E+03 -0.12321999347E+04  0.59243385336E+03  0.15375806151E+04  0.25500000920E-02 0. -1.
       -2    1    3    3    0  502  0.70346257784E+03  0.12321999347E+04 -0.88781769125E+03  0.16737372943E+04  0.25500000920E-02 0.  1.
</event>
<event>
 5   0  0.3942564E-07  0.3200251E+04  0.7818609E-02  0.8188751E-01
        2   -1    0    0  501    0  0.00000000000E+00  0.00000000000E+00  0.24185770842E+04  0.24185770842E+04  0.25500000920E-02 0.  1.
       -2   -1    0    0    0  501  0.00000000000E+00  0.00000000000E+00 -0.10586397378E+04  0.10586397378E+04  0.25500000920E-02 0. -1.
    10030    2    1    2    0    0  0.00000000000E+00  0.00000000000E+00  0.13599373464E+04  0.34772168220E+04  0.32002511216E+04 0.  0.
        3    1    3    3  502    0 -0.10380332527E+04 -0.90961606945E+03  0.15596591256E+04  0.20826548023E+04  0.10100000352E+00 0.  1.
       -3    1    3    3    0  502  0.10380332527E+04  0.90961606945E+03 -0.19972177919E+03  0.13945620197E+04  0.10100000352E+00 0. -1.
</event>
<event>
 5   0  0.3750285E-07  0.3192615E+04  0.7818609E-02  0.8190770E-01
       -2   -1    0    0    0  501  0.00000000000E+00  0.00000000000E+00  0.12304491593E+04  0.12304491593E+04  0.25500000920E-02 0. -1.
        2   -1    0    0  501    0  0.00000000000E+00  0.00000000000E+00 -0.20709488635E+04  0.20709488635E+04  0.25500000920E-02 0.  1.
    10030    2    1    2    0    0  0.00000000000E+00  0.00000000000E+00 -0.84049970419E+03  0.33013980227E+04  0.31926147829E+04 0.  0.
        1    1    3    3  502    0  0.14685511902E+04 -0.51597366068E+03 -0.54173451713E+02  0.15574999775E+04  0.50400001928E-02 0.  1.
       -1    1    3    3    0  502 -0.14685511902E+04  0.51597366068E+03 -0.78632625248E+03  0.17438980453E+04  0.50400001928E-02 0. -1.
</event>
<event>
 5   0  0.1317293E-07  0.3199080E+04  0.7818609E-02  0.8189060E-01
       -1   -1    0    0    0  501  0.00000000000E+00  0.00000000000E+00  0.20408168206E+04  0.20408168206E+04  0.50400001928E-02 0.  1.
        1   -1    0    0  501    0  0.00000000000E+00  0.00000000000E+00 -0.12536788316E+04  0.12536788316E+04  0.50400001928E-02 0. -1.
    10030    2    1    2    0    0  0.00000000000E+00  0.00000000000E+00  0.78713798902E+03  0.32944956522E+04  0.31990803973E+04 0.  0.
        1    1    3    3  502    0  0.66780019289E+03  0.65470679733E+03 -0.94279848659E+03  0.13279559761E+04  0.50400001928E-02 0. -1.
       -1    1    3    3    0  502 -0.66780019289E+03 -0.65470679733E+03  0.17299364756E+04  0.19665396761E+04  0.50400001928E-02 0.  1.
</event>
<event>
 5   0  0.3942564E-07  0.3199225E+04  0.7818609E-02  0.8189022E-01
       -2   -1    0    0    0  501  0.00000000000E+00  0.00000000000E+00  0.12037390684E+04  0.12037390684E+04  0.25500000920E-02 0.  1.
        2   -1    0    0  501    0  0.00000000000E+00  0.00000000000E+00 -0.21256773431E+04  0.21256773431E+04  0.25500000920E-02 0. -1.
    10030    2    1    2    0    0  0.00000000000E+00  0.00000000000E+00 -0.92193827468E+03  0.33294164115E+04  0.31992254468E+04 0.  0.
        3    1    3    3  502    0  0.39656817126E+03  0.15426927637E+04 -0.30804164568E+03  0.16223615328E+04  0.10100000352E+00 0. -1.
       -3    1    3    3    0  502 -0.39656817126E+03 -0.15426927637E+04 -0.61389662901E+03  0.17070548787E+04  0.10100000352E+00 0.  1.
</event>
<event>
 5   0  0.1270948E-07  0.3200459E+04  0.7818609E-02  0.8188696E-01
        1   -1    0    0  501    0  0.00000000000E+00  0.00000000000E+00  0.21496443800E+04  0.21496443800E+04  0.50400001928E-02 0. -1.
       -1   -1    0    0    0  501  0.00000000000E+00  0.00000000000E+00 -0.11912363065E+04  0.11912363065E+04  0.50400001928E-02 0.  1.
    10030    2    1    2    0    0  0.00000000000E+00  0.00000000000E+00  0.95840807349E+03  0.33408806865E+04  0.32004589868E+04 0.  0.
        4    1    3    3  502    0  0.98962396129E+03 -0.11933587274E+04  0.65228521520E+02  0.15516819938E+04  0.12699999809E+01 0.  1.
       -4    1    3    3    0  502 -0.98962396129E+03  0.11933587274E+04  0.89317955197E+03  0.17891986927E+04  0.12699999809E+01 0. -1.
</event>
<event>
 5   0  0.3764056E-07  0.3203773E+04  0.7818609E-02  0.8187821E-01
       -2   -1    0    0    0  501  0.00000000000E+00  0.00000000000E+00  0.14028177299E+04  0.14028177299E+04  0.25500000920E-02 0. -1.
        2   -1    0    0  501    0  0.00000000000E+00  0.00000000000E+00 -0.18292047678E+04  0.18292047678E+04  0.25500000920E-02 0.  1.
    10030    2    1    2    0    0  0.00000000000E+00  0.00000000000E+00 -0.42638703791E+03  0.32320224977E+04  0.32037733253E+04 0.  0.
        5    1    3    3  502    0 -0.15563509574E+02  0.11088130694E+04 -0.13793752314E+04  0.17698606625E+04  0.46999998093E+01 0.  1.
       -5    1    3    3    0  502  0.15563509574E+02 -0.11088130694E+04  0.95298819347E+03  0.14621618353E+04  0.46999998093E+01 0. -1.
</event>
<event>
 5   0  0.1270948E-07  0.3200020E+04  0.7818609E-02  0.8188812E-01
       -1   -1    0    0    0  501  0.00000000000E+00  0.00000000000E+00  0.16421298580E+04  0.16421298580E+04  0.50400001928E-02 0. -1.
        1   -1    0    0  501    0  0.00000000000E+00  0.00000000000E+00 -0.15589702619E+04  0.15589702619E+04  0.50400001928E-02 0.  1.
    10030    2    1    2    0    0  0.00000000000E+00  0.00000000000E+00  0.83159596169E+02  0.32011001199E+04  0.32000197592E+04 0.  0.
        4    1    3    3  502    0 -0.52766948761E+03  0.54682558425E+03 -0.13669355899E+04  0.15639590236E+04  0.12699999809E+01 0.  1.
       -4    1    3    3    0  502  0.52766948761E+03 -0.54682558425E+03  0.14500951860E+04  0.16371410963E+04  0.12699999809E+01 0. -1.
</event>
<event>
 5   0  0.1277374E-07  0.3196910E+04  0.7818609E-02  0.8189634E-01
       -1   -1    0    0    0  501  0.00000000000E+00  0.00000000000E+00  0.13964317101E+04  0.13964317101E+04  0.50400001928E-02 0.  1.
        1   -1    0    0  501    0  0.00000000000E+00  0.00000000000E+00 -0.18297047379E+04  0.18297047379E+04  0.50400001928E-02 0. -1.
    10030    2    1    2    0    0  0.00000000000E+00  0.00000000000E+00 -0.43327302780E+03  0.32261364479E+04  0.31969095802E+04 0.  0.
        5    1    3    3  502    0 -0.66302109163E+03 -0.12594378102E+04 -0.95078665777E+03  0.17116652489E+04  0.46999998093E+01 0. -1.
       -5    1    3    3    0  502  0.66302109163E+03  0.12594378102E+04  0.51751362996E+03  0.15144711991E+04  0.46999998093E+01 0.  1.
</event>
<event>
 5   0  0.3750285E-07  0.3186622E+04  0.7818609E-02  0.8192359E-01
       -2   -1    0    0    0  501  0.00000000000E+00  0.00000000000E+00  0.17123204653E+04  0.17123204653E+04  0.25500000920E-02 0. -1.
        2   -1    0    0  501    0  0.00000000000E+00  0.00000000000E+00 -0.14825730457E+04  0.14825730457E+04  0.25500000920E-02 0.  1.
    10030    2    1    2    0    0  0.00000000000E+00  0.00000000000E+00  0.22974741962E+03  0.31948935110E+04  0.31866221411E+04 0.  0.
        1    1    3    3  502    0  0.15860711384E+04 -0.75037910043E+02  0.24707887704E+03  0.16069537378E+04  0.50400001928E-02 0.  1.
       -1    1    3    3    0  502 -0.15860711384E+04  0.75037910043E+02 -0.17331457426E+02  0.15879397732E+04  0.50400001928E-02 0. -1.
</event>
<event>
 5   0  0.3830207E-07  0.3184975E+04  0.7818609E-02  0.8192796E-01
       -2   -1    0    0    0  501  0.00000000000E+00  0.00000000000E+00  0.88052302604E+03  0.88052302604E+03  0.25500000920E-02 0. -1.
        2   -1    0    0  501    0  0.00000000000E+00  0.00000000000E+00 -0.28801258699E+04  0.28801258699E+04  0.25500000920E-02 0.  1.
    10030    2    1    2    0    0  0.00000000000E+00  0.00000000000E+00 -0.19996028438E+04  0.37606488959E+04  0.31849754450E+04 0.  0.
        4    1    3    3  502    0  0.11980026397E+04 -0.48239290231E+03  0.10032387848E+03  0.12953685693E+04  0.12699999809E+01 0. -1.
       -4    1    3    3    0  502 -0.11980026397E+04  0.48239290231E+03 -0.20999267223E+04  0.24652803266E+04  0.12699999809E+01 0.  1.
</event>
<event>
 5   0  0.3942564E-07  0.3197315E+04  0.7818609E-02  0.8189527E-01
        2   -1    0    0  501    0  0.00000000000E+00  0.00000000000E+00  0.17656878201E+04  0.17656878201E+04  0.25500000920E-02 0.  1.
       -2   -1    0    0    0  501  0.00000000000E+00  0.00000000000E+00 -0.14474282667E+04  0.14474282667E+04  0.25500000920E-02 0. -1.
    10030    2    1    2    0    0  0.00000000000E+00  0.00000000000E+00  0.31825955340E+03  0.32131160868E+04  0.31973154121E+04 0.  0.
        3    1    3    3  502    0  0.40123460401E+01 -0.14766799905E+04 -0.45635634344E+03  0.15455940656E+04  0.10100000352E+00 0. -1.
       -3    1    3    3    0  502 -0.40123460401E+01  0.14766799905E+04  0.77461589683E+03  0.16675220212E+04  0.10100000352E+00 0.  1.
</event>
<event>
 5   0  0.1270948E-07  0.3195949E+04  0.7818609E-02  0.8189888E-01
        1   -1    0    0  501    0  0.00000000000E+00  0.00000000000E+00  0.10295701823E+04  0.10295701823E+04  0.50400001928E-02 0.  1.
       -1   -1    0    0    0  501  0.00000000000E+00  0.00000000000E+00 -0.24801831891E+04  0.24801831891E+04  0.50400001928E-02 0. -1.
    10030    2    1    2    0    0  0.00000000000E+00  0.00000000000E+00 -0.14506130068E+04  0.35097533714E+04  0.31959490973E+04 0.  0.
        4    1    3    3  502    0  0.49354020101E+03 -0.44559159388E+03  0.87042821211E+03  0.10953450068E+04  0.12699999809E+01 0.  1.
       -4    1    3    3    0  502 -0.49354020101E+03  0.44559159388E+03 -0.23210412189E+04  0.24144083647E+04  0.12699999809E+01 0. -1.
</event>
<event>
 5   0  0.1288096E-07  0.3179539E+04  0.7818609E-02  0.8194242E-01
       -1   -1    0    0    0  501  0.00000000000E+00  0.00000000000E+00  0.13700747469E+04  0.13700747469E+04  0.50400001928E-02 0. -1.
        1   -1    0    0  501    0  0.00000000000E+00  0.00000000000E+00 -0.18446924874E+04  0.18446924874E+04  0.50400001928E-02 0.  1.
    10030    2    1    2    0    0  0.00000000000E+00  0.00000000000E+00 -0.47461774057E+03  0.32147672343E+04  0.31795387041E+04 0.  0.
        2    1    3    3  502    0  0.61108453954E+03  0.70837400078E+03  0.10622919132E+04  0.14155147997E+04  0.25500000920E-02 0. -1.
       -2    1    3    3    0  502 -0.61108453954E+03 -0.70837400078E+03 -0.15369096538E+04  0.17992524346E+04  0.25500000920E-02 0.  1.
</event>
<event>
 5   0  0.3764056E-07  0.3194047E+04  0.7818609E-02  0.8190391E-01
       -2   -1    0    0    0  501  0.00000000000E+00  0.00000000000E+00  0.27871740047E+04  0.27871740047E+04  0.25500000920E-02 0.  1.
        2   -1    0    0  501    0  0.00000000000E+00  0.00000000000E+00 -0.91507890141E+03  0.91507890141E+03  0.25500000920E-02 0. -1.
    10030    2    1    2    0    0  0.00000000000E+00  0.00000000000E+00  0.18720951032E+04  0.37022529061E+04  0.31940470418E+04 0.  0.
        5    1    3    3  502    0  0.23697644794E+03  0.11033487705E+04 -0.37376029197E+03  0.11888041016E+04  0.46999998093E+01 0. -1.
       -5    1    3    3    0  502 -0.23697644794E+03 -0.11033487705E+04  0.22458553952E+04  0.25134488044E+04  0.46999998093E+01 0.  1.
</event>
<event>
 5   0  0.1317293E-07  0.3198316E+04  0.7818609E-02  0.8189262E-01
       -1   -1    0    0    0  501  0.00000000000E+00  0.00000000000E+00  0.23374381200E+04  0.23374381200E+04  0.50400001928E-02 0. -1.
        1   -1    0    0  501    0  0.00000000000E+00  0.00000000000E+00 -0.10940639699E+04  0.10940639699E+04  0.50400001928E-02 0.  1.
    10030    2    1    2    0    0  0.00000000000E+00  0.00000000000E+00  0.12433741501E+04  0.34315020899E+04  0.31983163252E+04 0.  0.
        1    1    3    3  502    0  0.62267702307E+03 -0.32650520525E+03  0.21627124262E+04  0.22741278246E+04  0.50400001928E-02 0. -1.
       -1    1    3    3    0  502 -0.62267702307E+03  0.32650520525E+03 -0.91933827610E+03  0.11573742653E+04  0.50400001928E-02 0.  1.
</event>
<event>
 5   0  0.3942564E-07  0.3199708E+04  0.7818609E-02  0.8188894E-01
        2   -1    0    0  501    0  0.00000000000E+00  0.00000000000E+00  0.19665539229E+04  0.19665539229E+04  0.25500000920E-02 0.  1.
       -2   -1    0    0    0  501  0.00000000000E+00  0.00000000000E+00 -0.13015323444E+04  0.13015323444E+04  0.25500000920E-02 0. -1.
    10030    2    1    2    0    0  0.00000000000E+00  0.00000000000E+00  0.66502157855E+03  0.32680862673E+04  0.31997084478E+04 0.  0.
        3    1    3    3  502    0  0.26078999690E+03 -0.60814606137E+03 -0.11552156932E+04  0.13313062617E+04  0.10100000352E+00 0. -1.
       -3    1    3    3    0  502 -0.26078999690E+03  0.60814606137E+03  0.18202372718E+04  0.19367800056E+04  0.10100000352E+00 0.  1.
</event>
<event>
 5   0  0.1288096E-07  0.3203423E+04  0.7818609E-02  0.8187914E-01
       -1   -1    0    0    0  501  0.00000000000E+00  0.00000000000E+00  0.12710658190E+04  0.12710658190E+04  0.50400001928E-02 0. -1.
        1   -1    0    0  501    0  0.00000000000E+00  0.00000000000E+00 -0.20183694260E+04  0.20183694260E+04  0.50400001928E-02 0.  1.
    10030    2    1    2    0    0  0.00000000000E+00  0.00000000000E+00 -0.74730360695E+03  0.32894352450E+04  0.32034234110E+04 0.  0.
        2    1    3    3  502    0  0.10874864529E+04  0.36733559397E+03 -0.15207485534E+04  0.19053184475E+04  0.25500000920E-02 0.  1.
       -2    1    3    3    0  502 -0.10874864529E+04 -0.36733559397E+03  0.77344494647E+03  0.13841167974E+04  0.25500000920E-02 0. -1.
</event>
<event>
 5   0  0.1270948E-07  0.3194345E+04  0.7818609E-02  0.8190312E-01
        1   -1    0    0  501    0  0.00000000000E+00  0.00000000000E+00  0.17010697402E+04  0.17010697402E+04  0.50400001928E-02 0.  1.
       -1   -1    0    0    0  501  0.00000000000E+00  0.00000000000E+00 -0.14996211053E+04  0.14996211053E+04  0.50400001928E-02 0. -1.
    10030    2    1    2    0    0  0.00000000000E+00  0.00000000000E+00  0.20144863495E+03  0.32006908455E+04  0.31943450559E+04 0.  0.
        4    1    3    3  502    0 -0.12017869897E+04 -0.95746586452E+03 -0.33594600599E+03  0.15728617810E+04  0.12699999809E+01 0. -1.
       -4    1    3    3    0  502  0.12017869897E+04  0.95746586452E+03  0.53739464094E+03  0.16278290645E+04  0.12699999809E+01 0.  1.
</event>
<event>
 5   0  0.1230450E-07  0.3172719E+04  0.7818609E-02  0.8196059E-01
       -3   -1    0    0    0  501  0.00000000000E+00  0.00000000000E+00  0.14236732739E+04  0.14236732775E+04  0.10100000352E+00 0. -1.
        3   -1    0    0  501    0  0.00000000000E+00  0.00000000000E+00 -0.17676360684E+04  0.17676360713E+04  0.10100000352E+00 0.  1.
    10030    2    1    2    0    0  0.00000000000E+00  0.00000000000E+00 -0.34396279448E+03  0.31913093488E+04  0.31727188586E+04 0.  0.
        3    1    3    3  502    0 -0.10395410293E+03 -0.61170764738E+03  0.12965539936E+04  0.14373743319E+04  0.10100000352E+00 0. -1.
       -3    1    3    3    0  502  0.10395410293E+03  0.61170764738E+03 -0.16405167881E+04  0.17539350169E+04  0.10100000352E+00 0.  1.
</event>
<event>
 5   0  0.3830207E-07  0.3207205E+04  0.7818609E-02  0.8186917E-01
       -2   -1    0    0    0  501  0.00000000000E+00  0.00000000000E+00  0.15979130252E+04  0.15979130252E+04  0.25500000920E-02 0.  1.
        2   -1    0    0  501    0  0.00000000000E+00  0.00000000000E+00 -0.16093123197E+04  0.16093123197E+04  0.25500000920E-02 0. -1.
    10030    2    1    2    0    0  0.00000000000E+00  0.00000000000E+00 -0.11399294527E+02  0.32072253449E+04  0.32072050868E+04 0.  0.
        4    1    3    3  502    0 -0.97289478131E+03 -0.70891025689E+03  0.10537698787E+04  0.15998470483E+04  0.12699999809E+01 0.  1.
       -4    1    3    3    0  502  0.97289478131E+03  0.70891025689E+03 -0.10651691732E+04  0.16073782966E+04  0.12699999809E+01 0. -1.
</event>
<event>
 5   0  0.1277374E-07  0.3203008E+04  0.7818609E-02  0.8188023E-01
       -1   -1    0    0    0  501  0.00000000000E+00  0.00000000000E+00  0.15443138334E+04  0.15443138334E+04  0.50400001928E-02 0. -1.
        1   -1    0    0  501    0  0.00000000000E+00  0.00000000000E+00 -0.16608121793E+04  0.16608121794E+04  0.50400001928E-02 0.  1.
    10030    2    1    2    0    0  0.00000000000E+00  0.00000000000E+00 -0.11649834596E+03  0.32051260128E+04  0.32030081007E+04 0.  0.
        5    1    3    3  502    0 -0.12370264988E+04  0.64738882001E+02  0.95749218855E+03  0.15656433383E+04  0.46999998093E+01 0. -1.
       -5    1    3    3    0  502  0.12370264988E+04 -0.64738882001E+02 -0.10739905345E+04  0.16394826745E+04  0.46999998093E+01 0.  1.
</event>
<event>
 5   0  0.3858721E-07  0.3210072E+04  0.7818609E-02  0.8186162E-01
        2   -1    0    0  501    0  0.00000000000E+00  0.00000000000E+00  0.13669220794E+04  0.13669220794E+04  0.25500000920E-02 0. -1.
       -2   -1    0    0    0  501  0.00000000000E+00  0.00000000000E+00 -0.18846285059E+04  0.18846285059E+04  0.25500000920E-02 0.  1.
    10030    2    1    2    0    0  0.00000000000E+00  0.00000000000E+00 -0.51770642647E+03  0.32515505853E+04  0.32100718472E+04 0.  0.
        2    1    3    3  502    0  0.71180527502E+03  0.82911748767E+03  0.93193826013E+03  0.14361794730E+04  0.25500000920E-02 0. -1.
       -2    1    3    3    0  502 -0.71180527502E+03 -0.82911748767E+03 -0.14496446866E+04  0.18153711123E+04  0.25500000920E-02 0.  1.
</event>
<event>
 5   0  0.1270948E-07  0.3197049E+04  0.7818609E-02  0.8189597E-01
       -1   -1    0    0    0  501  0.00000000000E+00  0.00000000000E+00  0.11181000108E+04  0.11181000108E+04  0.50400001928E-02 0.  1.
        1   -1    0    0  501    0  0.00000000000E+00  0.00000000000E+00 -0.22853778518E+04  0.22853778518E+04  0.50400001928E-02 0. -1.
    10030    2    1    2    0    0  0.00000000000E+00  0.00000000000E+00 -0.11672778411E+04  0.34034778626E+04  0.31970492650E+04 0.  0.
        4    1    3    3  502    0 -0.39719781425E+03  0.64032684895E+03  0.91717414980E+03  0.11870107881E+04  0.12699999809E+01 0.  1.
       -4    1    3    3    0  502  0.39719781425E+03 -0.64032684895E+03 -0.20844519909E+04  0.22164670745E+04  0.12699999809E+01 0. -1.
</event>
<event>
 5   0  0.1317293E-07  0.3203846E+04  0.7818609E-02  0.8187802E-01
       -1   -1    0    0    0  501  0.00000000000E+00  0.00000000000E+00  0.15530765806E+04  0.15530765806E+04  0.50400001928E-02 0. -1.
        1   -1    0    0  501    0  0.00000000000E+00  0.00000000000E+00 -0.16523055179E+04  0.16523055179E+04  0.50400001928E-02 0.  1.
    10030    2    1    2    0    0  0.00000000000E+00  0.00000000000E+00 -0.99228937326E+02  0.32053820985E+04  0.32038458164E+04 0.  0.
        1    1    3    3  502    0 -0.38046693307E+03  0.32567475250E+03 -0.15719675383E+04  0.16498184970E+04  0.50400001928E-02 0.  1.
       -1    1    3    3    0  502  0.38046693307E+03 -0.32567475250E+03  0.14727386009E+04  0.15555636015E+04  0.50400001928E-02 0. -1.
</event>
<event>
 5   0  0.3858721E-07  0.3202511E+04  0.7818609E-02  0.8188154E-01
        2   -1    0    0  501    0  0.00000000000E+00  0.00000000000E+00  0.86306266011E+03  0.86306266011E+03  0.25500000920E-02 0.  1.
       -2   -1    0    0    0  501  0.00000000000E+00  0.00000000000E+00 -0.29708378593E+04  0.29708378593E+04  0.25500000920E-02 0. -1.
    10030    2    1    2    0    0  0.00000000000E+00  0.00000000000E+00 -0.21077751992E+04  0.38339005194E+04  0.32025110308E+04 0.  0.
        2    1    3    3  502    0  0.62630575712E+03  0.90725067806E+03  0.33638795140E+03  0.11526142234E+04  0.25500000920E-02 0.  1.
       -2    1    3    3    0  502 -0.62630575712E+03 -0.90725067806E+03 -0.24441631506E+04  0.26812862959E+04  0.25500000920E-02 0. -1.
</event>
<event>
 5   0  0.3750285E-07  0.3201525E+04  0.7818609E-02  0.8188415E-01
       -2   -1    0    0    0  501  0.00000000000E+00  0.00000000000E+00  0.11712052135E+04  0.11712052135E+04  0.25500000920E-02 0. -1.
        2   -1    0    0  501    0  0.00000000000E+00  0.00000000000E+00 -0.21878660343E+04  0.21878660343E+04  0.25500000920E-02 0.  1.
    10030    2    1    2    0    0  0.00000000000E+00  0.00000000000E+00 -0.10166608208E+04  0.33590712478E+04  0.32015247028E+04 0.  0.
        1    1    3    3  502    0 -0.10219784601E+03  0.13564758568E+04 -0.13936353494E+04  0.19474831545E+04  0.50400001928E-02 0.  1.
       -1    1    3    3    0  502  0.10219784601E+03 -0.13564758568E+04  0.37697452854E+03  0.14115880933E+04  0.50400001928E-02 0. -1.
</event>
<event>
 5   0  0.1288096E-07  0.3196240E+04  0.7818609E-02  0.8189811E-01
       -1   -1    0    0    0  501  0.00000000000E+00  0.00000000000E+00  0.95049876892E+03  0.95049876893E+03  0.50400001928E-02 0.  1.
        1   -1    0    0  501    0  0.00000000000E+00  0.00000000000E+00 -0.26869976450E+04  0.26869976450E+04  0.50400001928E-02 0. -1.
    10030    2    1    2    0    0  0.00000000000E+00  0.00000000000E+00 -0.17364988761E+04  0.36374964139E+04  0.31962402623E+04 0.  0.
        2    1    3    3  502    0 -0.70295566092E+03  0.86935894492E+03 -0.21678543065E+04  0.24391645969E+04  0.25500000920E-02 0. -1.
       -2    1    3    3    0  502  0.70295566092E+03 -0.86935894492E+03  0.43135543046E+03  0.11983318170E+04  0.25500000920E-02 0.  1.
</event>
<event>
 5   0  0.1317293E-07  0.3198168E+04  0.7818609E-02  0.8189301E-01
       -1   -1    0    0    0  501  0.00000000000E+00  0.00000000000E+00  0.14072946303E+04  0.14072946303E+04  0.50400001928E-02 0.  1.
        1   -1    0    0  501    0  0.00000000000E+00  0.00000000000E+00 -0.18170106322E+04  0.18170106322E+04  0.50400001928E-02 0. -1.
    10030    2    1    2    0    0  0.00000000000E+00  0.00000000000E+00 -0.40971600194E+03  0.32243052625E+04  0.31981677917E+04 0.  0.
        1    1    3    3  502    0  0.33200378018E+03 -0.87908911012E+03  0.10995651199E+04  0.14463981563E+04  0.50400001928E-02 0.  1.
       -1    1    3    3    0  502 -0.33200378018E+03  0.87908911012E+03 -0.15092811218E+04  0.17779071062E+04  0.50400001928E-02 0. -1.
</event>
<event>
 5   0  0.1317293E-07  0.3198530E+04  0.7818609E-02  0.8189205E-01
       -1   -1    0    0    0  501  0.00000000000E+00  0.00000000000E+00  0.17522926161E+04  0.17522926161E+04  0.50400001928E-02 0. -1.
        1   -1    0    0  501    0  0.00000000000E+00  0.00000000000E+00 -0.14596016369E+04  0.14596016369E+04  0.50400001928E-02 0.  1.
    10030    2    1    2    0    0  0.00000000000E+00  0.00000000000E+00  0.29269097922E+03  0.32118942530E+04  0.31985303943E+04 0.  0.
        1    1    3    3  502    0 -0.12525644510E+04  0.94978559528E+03 -0.14922899779E+03  0.15790122466E+04  0.50400001928E-02 0.  1.
       -1    1    3    3    0  502  0.12525644510E+04 -0.94978559528E+03  0.44191997701E+03  0.16328820065E+04  0.50400001928E-02 0. -1.
</event>
<event>
 5   0  0.3830207E-07  0.3196778E+04  0.7818609E-02  0.8189669E-01
       -2   -1    0    0    0  501  0.00000000000E+00  0.00000000000E+00  0.18267178345E+04  0.18267178345E+04  0.25500000920E-02 0. -1.
        2   -1    0    0  501    0  0.00000000000E+00  0.00000000000E+00 -0.13986002191E+04  0.13986002191E+04  0.25500000920E-02 0.  1.
    10030    2    1    2    0    0  0.00000000000E+00  0.00000000000E+00  0.42811761547E+03  0.32253180536E+04  0.31967783555E+04 0.  0.
        4    1    3    3  502    0 -0.12359247464E+03  0.16191937567E+03  0.18135682121E+04  0.18249723989E+04  0.12699999809E+01 0. -1.
       -4    1    3    3    0  502  0.12359247464E+03 -0.16191937567E+03 -0.13854505966E+04  0.14003456547E+04  0.12699999809E+01 0.  1.
</event>
<event>
 5   0  0.1365455E-07  0.3204053E+04  0.7818609E-02  0.8187748E-01
        1   -1    0    0  501    0  0.00000000000E+00  0.00000000000E+00  0.14451979168E+04  0.14451979168E+04  0.50400001928E-02 0.  1.
       -1   -1    0    0    0  501  0.00000000000E+00  0.00000000000E+00 -0.17758732820E+04  0.17758732820E+04  0.50400001928E-02 0. -1.
    10030    2    1    2    0    0  0.00000000000E+00  0.00000000000E+00 -0.33067536519E+03  0.32210711989E+04  0.32040526636E+04 0.  0.
        3    1    3    3  502    0  0.72895133668E+03 -0.74554702691E+03  0.10573782429E+04  0.14850115081E+04  0.10100000352E+00 0.  1.
       -3    1    3    3    0  502 -0.72895133668E+03  0.74554702691E+03 -0.13880536081E+04  0.17360596907E+04  0.10100000352E+00 0. -1.
</event>
<event>
 5   0  0.1317293E-07  0.3188369E+04  0.7818609E-02  0.8191896E-01
       -1   -1    0    0    0  501  0.00000000000E+00  0.00000000000E+00  0.24365210204E+04  0.24365210204E+04  0.50400001928E-02 0.  1.
        1   -1    0    0  501    0  0.00000000000E+00  0.00000000000E+00 -0.10430544112E+04  0.10430544113E+04  0.50400001928E-02 0. -1.
    10030    2    1    2    0    0  0.00000000000E+00  0.00000000000E+00  0.13934666092E+04  0.34795754317E+04  0.31883688610E+04 0.  0.
        1    1    3    3  502    0 -0.93361219201E+03  0.76923838035E+03 -0.43639760661E+03  0.12860024424E+04  0.50400001928E-02 0. -1.
       -1    1    3    3    0  502  0.93361219201E+03 -0.76923838035E+03  0.18298642158E+04  0.21935729892E+04  0.50400001928E-02 0.  1.
</event>
<event>
 5   0  0.1317293E-07  0.3195692E+04  0.7818609E-02  0.8189956E-01
        1   -1    0    0  501    0  0.00000000000E+00  0.00000000000E+00  0.15399268533E+04  0.15399268533E+04  0.50400001928E-02 0.  1.
       -1   -1    0    0    0  501  0.00000000000E+00  0.00000000000E+00 -0.16579430804E+04  0.16579430804E+04  0.50400001928E-02 0. -1.
    10030    2    1    2    0    0  0.00000000000E+00  0.00000000000E+00 -0.11801622707E+03  0.31978699337E+04  0.31956915187E+04 0.  0.
        1    1    3    3  502    0 -0.13802591766E+04 -0.25232417450E+03  0.70592658921E+03  0.15707053298E+04  0.50400001928E-02 0.  1.
       -1    1    3    3    0  502  0.13802591766E+04  0.25232417450E+03 -0.82394281628E+03  0.16271646039E+04  0.50400001928E-02 0. -1.
</event>
<event>
 5   0  0.3830207E-07  0.3194256E+04  0.7818609E-02  0.8190336E-01
        2   -1    0    0  501    0  0.00000000000E+00  0.00000000000E+00  0.16356308995E+04  0.16356308995E+04  0.25500000920E-02 0. -1.
       -2   -1    0    0    0  501  0.00000000000E+00  0.00000000000E+00 -0.15595311293E+04  0.15595311294E+04  0.25500000920E-02 0.  1.
    10030    2    1    2    0    0  0.00000000000E+00  0.00000000000E+00  0.76099770180E+02  0.31951620289E+04  0.31942556591E+04 0.  0.
        4    1    3    3  502    0  0.67840888162E+03  0.13804631389E+04 -0.39207050203E+03  0.15873367569E+04  0.12699999809E+01 0.  1.
       -4    1    3    3    0  502 -0.67840888162E+03 -0.13804631389E+04  0.46817027221E+03  0.16078252720E+04  0.12699999809E+01 0. -1.
</event>
<event>
 5   0  0.3942564E-07  0.3210595E+04  0.7818609E-02  0.8186025E-01
       -2   -1    0    0    0  501  0.00000000000E+00  0.00000000000E+00  0.16420925082E+04  0.16420925082E+04  0.25500000920E-02 0.  1.
        2   -1    0    0  501    0  0.00000000000E+00  0.00000000000E+00 -0.15693270564E+04  0.15693270564E+04  0.25500000920E-02 0. -1.
    10030    2    1    2    0    0  0.00000000000E+00  0.00000000000E+00  0.72765451819E+02  0.32114195646E+04  0.32105950864E+04 0.  0.
        3    1    3    3  502    0  0.10443431646E+04 -0.12176912122E+04  0.96027381144E+02  0.16070612315E+04  0.10100000352E+00 0.  1.
       -3    1    3    3    0  502 -0.10443431646E+04  0.12176912122E+04 -0.23261929325E+02  0.16043583331E+04  0.10100000352E+00 0. -1.
</event>
<event>
 5   0  0.3764056E-07  0.3200935E+04  0.7818609E-02  0.8188570E-01
        2   -1    0    0  501    0  0.00000000000E+00  0.00000000000E+00  0.22168172820E+04  0.22168172820E+04  0.25500000920E-02 0. -1.
       -2   -1    0    0    0  501  0.00000000000E+00  0.00000000000E+00 -0.11554835148E+04  0.11554835148E+04  0.25500000920E-02 0.  1.
    10030    2    1    2    0    0  0.00000000000E+00  0.00000000000E+00  0.10613337671E+04  0.33723007968E+04  0.32009347539E+04 0.  0.
        5    1    3    3  502    0 -0.15232123776E+04 -0.47712741111E+03  0.40759138751E+03  0.16474159593E+04  0.46999998093E+01 0.  1.
       -5    1    3    3    0  502  0.15232123776E+04  0.47712741111E+03  0.65374237964E+03  0.17248848375E+04  0.46999998093E+01 0. -1.
</event>
<event>
 5   0  0.3942564E-07  0.3187271E+04  0.7818609E-02  0.8192187E-01
        2   -1    0    0  501    0  0.00000000000E+00  0.00000000000E+00  0.20906439882E+04  0.20906439882E+04  0.25500000920E-02 0. -1.
       -2   -1    0    0    0  501  0.00000000000E+00  0.00000000000E+00 -0.12147805890E+04  0.12147805890E+04  0.25500000920E-02 0.  1.
    10030    2    1    2    0    0  0.00000000000E+00  0.00000000000E+00  0.87586339929E+03  0.33054245772E+04  0.31872707669E+04 0.  0.
        3    1    3    3  502    0 -0.14375603444E+04 -0.67407097286E+03  0.57983351379E+03  0.16903130877E+04  0.10100000352E+00 0. -1.
       -3    1    3    3    0  502  0.14375603444E+04  0.67407097286E+03  0.29602988549E+03  0.16151114895E+04  0.10100000352E+00 0.  1.
</event>
<event>
 5   0  0.1277374E-07  0.3189506E+04  0.7818609E-02  0.8191594E-01
        1   -1    0    0  501    0  0.00000000000E+00  0.00000000000E+00  0.17812693038E+04  0.17812693038E+04  0.50400001928E-02 0.  1.
       -1   -1    0    0    0  501  0.00000000000E+00  0.00000000000E+00 -0.14277670393E+04  0.14277670393E+04  0.50400001928E-02 0. -1.
    10030    2    1    2    0    0  0.00000000000E+00  0.00000000000E+00  0.35350226450E+03  0.32090363430E+04  0.31895062941E+04 0.  0.
        5    1    3    3  502    0 -0.31569982615E+02  0.15612638165E+04 -0.14876377023E+03  0.15686599752E+04  0.46999998093E+01 0.  1.
       -5    1    3    3    0  502  0.31569982615E+02 -0.15612638165E+04  0.50226603473E+03  0.16403763678E+04  0.46999998093E+01 0. -1.
</event>
<event>
 5   0  0.3764056E-07  0.3199945E+04  0.7818609E-02  0.8188832E-01
        2   -1    0    0  501    0  0.00000000000E+00  0.00000000000E+00  0.17249598681E+04  0.17249598681E+04  0.25500000920E-02 0.  1.
       -2   -1    0    0    0  501  0.00000000000E+00  0.00000000000E+00 -0.14840413971E+04  0.14840413971E+04  0.25500000920E-02 0. -1.
    10030    2    1    2    0    0  0.00000000000E+00  0.00000000000E+00  0.24091847100E+03  0.32090012652E+04  0.31999449074E+04 0.  0.
        5    1    3    3  502    0  0.38654806591E+03  0.93960691289E+03  0.13599221027E+04  0.16975543506E+04  0.46999998093E+01 0.  1.
       -5    1    3    3    0  502 -0.38654806591E+03 -0.93960691289E+03 -0.11190036317E+04  0.15114469146E+04  0.46999998093E+01 0. -1.
</event>
<event>
 5   0  0.3858721E-07  0.3198872E+04  0.7818609E-02  0.8189115E-01
       -2   -1    0    0    0  501  0.00000000000E+00  0.00000000000E+00  0.12684448244E+04  0.12684448244E+04  0.25500000920E-02 0.  1.
        2   -1    0    0  501    0  0.00000000000E+00  0.00000000000E+00 -0.20167973250E+04  0.20167973250E+04  0.25500000920E-02 0. -1.
    10030    2    1    2    0    0  0.00000000000E+00  0.00000000000E+00 -0.74835250061E+03  0.32852421494E+04  0.31988723818E+04 0.  0.
        2    1    3    3  502    0  0.26642600902E+02 -0.92764273075E+03  0.96367228710E+03  0.13378696278E+04  0.25500000920E-02 0.  1.
       -2    1    3    3    0  502 -0.26642600902E+02  0.92764273075E+03 -0.17120247877E+04  0.19473725216E+04  0.25500000920E-02 0. -1.
</event>
<event>
 5   0  0.3764056E-07  0.3203390E+04  0.7818609E-02  0.8187922E-01
       -2   -1    0    0    0  501  0.00000000000E+00  0.00000000000E+00  0.16339924854E+04  0.16339924854E+04  0.25500000920E-02 0.  1.
        2   -1    0    0  501    0  0.00000000000E+00  0.00000000000E+00 -0.15700362336E+04  0.15700362336E+04  0.25500000920E-02 0. -1.
    10030    2    1    2    0    0  0.00000000000E+00  0.00000000000E+00  0.63956251722E+02  0.32040287190E+04  0.32033903337E+04 0.  0.
        5    1    3    3  502    0  0.11532670690E+04 -0.11088401148E+04  0.10850471116E+03  0.16035419218E+04  0.46999998093E+01 0. -1.
       -5    1    3    3    0  502 -0.11532670690E+04  0.11088401148E+04 -0.44548459435E+02  0.16004867972E+04  0.46999998093E+01 0.  1.
</event>
<event>
 5   0  0.1317293E-07  0.3204080E+04  0.7818609E-02  0.8187740E-01
       -1   -1    0    0    0  501  0.00000000000E+00  0.00000000000E+00  0.12114247591E+04  0.12114247591E+04  0.50400001928E-02 0.  1.
        1   -1    0    0  501    0  0.00000000000E+00  0.00000000000E+00 -0.21186067319E+04  0.21186067319E+04  0.50400001928E-02 0. -1.
    10030    2    1    2    0    0  0.00000000000E+00  0.00000000000E+00 -0.90718197279E+03  0.33300314910E+04  0.32040803048E+04 0.  0.
        1    1    3    3  502    0 -0.92428396221E+03  0.53213514263E+03  0.78883574570E+03  0.13265483355E+04  0.50400001928E-02 0.  1.
       -1    1    3    3    0  502  0.92428396221E+03 -0.53213514263E+03 -0.16960177185E+04  0.20034831555E+04  0.50400001928E-02 0. -1.
</event>
<event>
 5   0  0.3858721E-07  0.3202945E+04  0.7818609E-02  0.8188040E-01
        2   -1    0    0  501    0  0.00000000000E+00  0.00000000000E+00  0.23993780719E+04  0.23993780719E+04  0.25500000920E-02 0.  1.
       -2   -1    0    0    0  501  0.00000000000E+00  0.00000000000E+00 -0.10689081962E+04  0.10689081962E+04  0.25500000920E-02 0. -1.
    10030    2    1    2    0    0  0.00000000000E+00  0.00000000000E+00  0.13304698758E+04  0.34682862681E+04  0.32029454487E+04 0.  0.
        2    1    3    3  502    0  0.15730162337E+04 -0.92087181979E+02  0.35543068139E+03  0.16152990714E+04  0.25500000920E-02 0. -1.
       -2    1    3    3    0  502 -0.15730162337E+04  0.92087181979E+02  0.97503919436E+03  0.18529871967E+04  0.25500000920E-02 0.  1.
</event>
<event>
 5   0  0.1277374E-07  0.3200804E+04  0.7818609E-02  0.8188605E-01
        1   -1    0    0  501    0  0.00000000000E+00  0.00000000000E+00  0.24571709927E+04  0.24571709927E+04  0.50400001928E-02 0.  1.
       -1   -1    0    0    0  501  0.00000000000E+00  0.00000000000E+00 -0.10423720804E+04  0.10423720804E+04  0.50400001928E-02 0. -1.
    10030    2    1    2    0    0  0.00000000000E+00  0.00000000000E+00  0.14147989123E+04  0.34995430730E+04  0.32008039237E+04 0.  0.
        5    1    3    3  502    0 -0.36527872439E+03 -0.82583902422E+03 -0.73721752248E+03  0.11657402823E+04  0.46999998093E+01 0. -1.
       -5    1    3    3    0  502  0.36527872439E+03  0.82583902422E+03  0.21520164348E+04  0.23338027907E+04  0.46999998093E+01 0.  1.
</event>
<event>
 5   0  0.1365455E-07  0.3196618E+04  0.7818609E-02  0.8189711E-01
        1   -1    0    0  501    0  0.00000000000E+00  0.00000000000E+00  0.13368789321E+04  0.13368789321E+04  0.50400001928E-02 0.  1.
       -1   -1    0    0    0  501  0.00000000000E+00  0.00000000000E+00 -0.19108619471E+04  0.19108619471E+04  0.50400001928E-02 0. -1.
    10030    2    1    2    0    0  0.00000000000E+00  0.00000000000E+00 -0.57398301493E+03  0.32477408792E+04  0.31966176370E+04 0.  0.
        3    1    3    3  502    0  0.18092411853E+03  0.66172184098E+03 -0.17536791568E+04  0.18830825597E+04  0.10100000352E+00 0. -1.
       -3    1    3    3    0  502 -0.18092411853E+03 -0.66172184098E+03  0.11796961419E+04  0.13646583195E+04  0.10100000352E+00 0.  1.
</event>
<event>
 5   0  0.3830207E-07  0.3204698E+04  0.7818609E-02  0.8187578E-01
        2   -1    0    0  501    0  0.00000000000E+00  0.00000000000E+00  0.17891685337E+04  0.17891685337E+04  0.25500000920E-02 0. -1.
       -2   -1    0    0    0  501  0.00000000000E+00  0.00000000000E+00 -0.14350365808E+04  0.14350365808E+04  0.25500000920E-02 0.  1.
    10030    2    1    2    0    0  0.00000000000E+00  0.00000000000E+00  0.35413195289E+03  0.32242051144E+04  0.32046979857E+04 0.  0.
        4    1    3    3  502    0  0.13497570088E+04 -0.19543753230E+03 -0.66917276892E+03  0.15191555613E+04  0.12699999809E+01 0. -1.
       -4    1    3    3    0  502 -0.13497570088E+04  0.19543753230E+03  0.10233047218E+04  0.17050495531E+04  0.12699999809E+01 0.  1.
</event>
<event>
 5   0  0.1277374E-07  0.3188363E+04  0.7818609E-02  0.8191897E-01
        1   -1    0    0  501    0  0.00000000000E+00  0.00000000000E+00  0.17758678582E+04  0.17758678582E+04  0.50400001928E-02 0.  1.
       -1   -1    0    0    0  501  0.00000000000E+00  0.00000000000E+00 -0.14310829250E+04  0.14310829250E+04  0.50400001928E-02 0. -1.
    10030    2    1    2    0    0  0.00000000000E+00  0.00000000000E+00  0.34478493322E+03  0.32069507832E+04  0.31883626952E+04 0.  0.
        5    1    3    3  502    0 -0.11848341029E+03 -0.64577112663E+03 -0.12887754017E+04  0.14463826578E+04  0.46999998093E+01 0. -1.
       -5    1    3    3    0  502  0.11848341029E+03  0.64577112663E+03  0.16335603350E+04  0.17605681255E+04  0.46999998093E+01 0.  1.
</event>
<event>
 5   0  0.1317293E-07  0.3209472E+04  0.7818609E-02  0.8186320E-01
        1   -1    0    0  501    0  0.00000000000E+00  0.00000000000E+00  0.18311688122E+04  0.18311688122E+04  0.50400001928E-02 0.  1.
       -1   -1    0    0    0  501  0.00000000000E+00  0.00000000000E+00 -0.14063027502E+04  0.14063027502E+04  0.50400001928E-02 0. -1.
    10030    2    1    2    0    0  0.00000000000E+00  0.00000000000E+00  0.42486606193E+03  0.32374715624E+04  0.32094720667E+04 0.  0.
        1    1    3    3  502    0 -0.75720418957E+03  0.84378506955E+03  0.13580550299E+04  0.17690802391E+04  0.50400001928E-02 0.  1.
       -1    1    3    3    0  502  0.75720418957E+03 -0.84378506955E+03 -0.93318896797E+03  0.14683913233E+04  0.50400001928E-02 0. -1.
</event>
<event>
 5   0  0.1277374E-07  0.3194919E+04  0.7818609E-02  0.8190160E-01
        1   -1    0    0  501    0  0.00000000000E+00  0.00000000000E+00  0.19796743500E+04  0.19796743500E+04  0.50400001928E-02 0. -1.
       -1   -1    0    0    0  501  0.00000000000E+00  0.00000000000E+00 -0.12890384434E+04  0.12890384434E+04  0.50400001928E-02 0.  1.
    10030    2    1    2    0    0  0.00000000000E+00  0.00000000000E+00  0.69063590661E+03  0.32687127933E+04  0.31949186797E+04 0.  0.
        5    1    3    3  502    0 -0.15085727876E+04 -0.23981422751E+02  0.88230985510E+03  0.17478157039E+04  0.46999998093E+01 0.  1.
       -5    1    3    3    0  502  0.15085727876E+04  0.23981422751E+02 -0.19167394849E+03  0.15208970895E+04  0.46999998093E+01 0. -1.
</event>
<event>
 5   0  0.3764056E-07  0.3202394E+04  0.7818609E-02  0.8188185E-01
       -2   -1    0    0    0  501  0.00000000000E+00  0.00000000000E+00  0.15894749265E+04  0.15894749265E+04  0.25500000920E-02 0.  1.
        2   -1    0    0  501    0  0.00000000000E+00  0.00000000000E+00 -0.16130054096E+04  0.16130054096E+04  0.25500000920E-02 0. -1.
    10030    2    1    2    0    0  0.00000000000E+00  0.00000000000E+00 -0.23530483146E+02  0.32024803361E+04  0.32023938889E+04 0.  0.
        5    1    3    3  502    0  0.12830682348E+03 -0.68598404768E+03  0.14293749095E+04  0.15906512743E+04  0.46999998093E+01 0.  1.
       -5    1    3    3    0  502 -0.12830682348E+03  0.68598404768E+03 -0.14529053926E+04  0.16118290618E+04  0.46999998093E+01 0. -1.
</event>
<event>
 5   0  0.1270948E-07  0.3205230E+04  0.7818609E-02  0.8187437E-01
        1   -1    0    0  501    0  0.00000000000E+00  0.00000000000E+00  0.20302225187E+04  0.20302225187E+04  0.50400001928E-02 0.  1.
       -1   -1    0    0    0  501  0.00000000000E+00  0.00000000000E+00 -0.12650702295E+04  0.12650702296E+04  0.50400001928E-02 0. -1.
    10030    2    1    2    0    0  0.00000000000E+00  0.00000000000E+00  0.76515228911E+03  0.32952927482E+04  0.32052295192E+04 0.  0.
        4    1    3    3  502    0  0.10022824557E+04  0.57030626514E+03 -0.76159814273E+03  0.13819742042E+04  0.12699999809E+01 0. -1.
       -4    1    3    3    0  502 -0.10022824557E+04 -0.57030626514E+03  0.15267504318E+04  0.19133185441E+04  0.12699999809E+01 0.  1.
</event>
<event>
 5   0  0.1230450E-07  0.3196956E+04  0.7818609E-02  0.8189622E-01
       -3   -1    0    0    0  501  0.00000000000E+00  0.00000000000E+00  0.18767242447E+04  0.18767242475E+04  0.10100000352E+00 0.  1.
        3   -1    0    0  501    0  0.00000000000E+00  0.00000000000E+00 -0.13614849525E+04  0.13614849562E+04  0.10100000352E+00 0. -1.
    10030    2    1    2    0    0  0.00000000000E+00  0.00000000000E+00  0.51523929225E+03  0.32382092037E+04  0.31969559457E+04 0.  0.
        4    1    3    3  502    0  0.45372625106E+03 -0.84278112214E+03 -0.10391278975E+04  0.14127759663E+04  0.12699999809E+01 0. -1.
       -4    1    3    3    0  502 -0.45372625106E+03  0.84278112214E+03  0.15543671897E+04  0.18254332374E+04  0.12699999809E+01 0.  1.
</event>
<event>
 5   0  0.3764056E-07  0.3203698E+04  0.7818609E-02  0.8187841E-01
        2   -1    0    0  501    0  0.00000000000E+00  0.00000000000E+00  0.19205193508E+04  0.19205193508E+04  0.25500000920E-02 0. -1.
       -2   -1    0    0    0  501  0.00000000000E+00  0.00000000000E+00 -0.13360549755E+04  0.13360549755E+04  0.25500000920E-02 0.  1.
    10030    2    1    2    0    0  0.00000000000E+00  0.00000000000E+00  0.58446437525E+03  0.32565743263E+04  0.32036975102E+04 0.  0.
        5    1    3    3  502    0  0.94867227722E+03  0.10615736093E+04  0.10385017109E+04  0.17622217542E+04  0.46999998093E+01 0. -1.
       -5    1    3    3    0  502 -0.94867227722E+03 -0.10615736093E+04 -0.45403733567E+03  0.14943525721E+04  0.46999998093E+01 0.  1.
</event>
<event>
 5   0  0.1277374E-07  0.3202401E+04  0.7818609E-02  0.8188183E-01
       -1   -1    0    0    0  501  0.00000000000E+00  0.00000000000E+00  0.14005116148E+04  0.14005116149E+04  0.50400001928E-02 0.  1.
        1   -1    0    0  501    0  0.00000000000E+00  0.00000000000E+00 -0.18306477472E+04  0.18306477472E+04  0.50400001928E-02 0. -1.
    10030    2    1    2    0    0  0.00000000000E+00  0.00000000000E+00 -0.43013613236E+03  0.32311593621E+04  0.32024012445E+04 0.  0.
        5    1    3    3  502    0 -0.14489888785E+04  0.59411419767E+03  0.12151551949E+03  0.15707732368E+04  0.46999998093E+01 0.  1.
       -5    1    3    3    0  502  0.14489888785E+04 -0.59411419767E+03 -0.55165165185E+03  0.16603861253E+04  0.46999998093E+01 0. -1.
</event>
<event>
 5   0  0.3830207E-07  0.3204906E+04  0.7818609E-02  0.8187523E-01
        2   -1    0    0  501    0  0.00000000000E+00  0.00000000000E+00  0.13674672468E+04  0.13674672468E+04  0.25500000920E-02 0.  1.
       -2   -1    0    0    0  501  0.00000000000E+00  0.00000000000E+00 -0.18778182074E+04  0.18778182074E+04  0.25500000920E-02 0. -1.
    10030    2    1    2    0    0  0.00000000000E+00  0.00000000000E+00 -0.51035096060E+03  0.32452854542E+04  0.32049055488E+04 0.  0.
        4    1    3    3  502    0  0.93120983027E+03  0.13578972822E+03 -0.15685378652E+04  0.18291810314E+04  0.12699999809E+01 0. -1.
       -4    1    3    3    0  502 -0.93120983027E+03 -0.13578972822E+03  0.10581869046E+04  0.14161044228E+04  0.12699999809E+01 0.  1.
</event>
<event>
 5   0  0.1270948E-07  0.3194720E+04  0.7818609E-02  0.8190213E-01
        1   -1    0    0  501    0  0.00000000000E+00  0.00000000000E+00  0.20795619702E+04  0.20795619703E+04  0.50400001928E-02 0. -1.
       -1   -1    0    0    0  501  0.00000000000E+00  0.00000000000E+00 -0.12269693383E+04  0.12269693383E+04  0.50400001928E-02 0.  1.
    10030    2    1    2    0    0  0.00000000000E+00  0.00000000000E+00  0.85259263196E+03  0.33065313085E+04  0.31947198779E+04 0.  0.
        4    1    3    3  502    0  0.36378581906E+03 -0.14242765083E+04 -0.22060151796E+03  0.14864623564E+04  0.12699999809E+01 0.  1.
       -4    1    3    3    0  502 -0.36378581906E+03  0.14242765083E+04  0.10731941499E+04  0.18200689522E+04  0.12699999809E+01 0. -1.
</event>
<event>
 5   0  0.1288096E-07  0.3200120E+04  0.7818609E-02  0.8188785E-01
       -1   -1    0    0    0  501  0.00000000000E+00  0.00000000000E+00  0.15756362512E+04  0.15756362512E+04  0.50400001928E-02 0.  1.
        1   -1    0    0  501    0  0.00000000000E+00  0.00000000000E+00 -0.16248627601E+04  0.16248627601E+04  0.50400001928E-02 0. -1.
    10030    2    1    2    0    0  0.00000000000E+00  0.00000000000E+00 -0.49226508911E+02  0.32004990114E+04  0.32001204153E+04 0.  0.
        2    1    3    3  502    0  0.98348342474E+03  0.12506890226E+04  0.14490603218E+03  0.15976421489E+04  0.25500000920E-02 0.  1.
       -2    1    3    3    0  502 -0.98348342474E+03 -0.12506890226E+04 -0.19413254109E+03  0.16028568624E+04  0.25500000920E-02 0. -1.
</event>
<event>
 5   0  0.1365455E-07  0.3199795E+04  0.7818609E-02  0.8188871E-01
       -1   -1    0    0    0  501  0.00000000000E+00  0.00000000000E+00  0.97904796602E+03  0.97904796603E+03  0.50400001928E-02 0.  1.
        1   -1    0    0  501    0  0.00000000000E+00  0.00000000000E+00 -0.26144501644E+04  0.26144501644E+04  0.50400001928E-02 0. -1.
    10030    2    1    2    0    0  0.00000000000E+00  0.00000000000E+00 -0.16354021984E+04  0.35934981304E+04  0.31997950658E+04 0.  0.
        3    1    3    3  502    0 -0.15483876916E+04  0.57497736462E+02 -0.37008590094E+03  0.15930392391E+04  0.10100000352E+00 0.  1.
       -3    1    3    3    0  502  0.15483876916E+04 -0.57497736462E+02 -0.12653162974E+04  0.20004588913E+04  0.10100000352E+00 0. -1.
</event>
<event>
 5   0  0.3942564E-07  0.3199108E+04  0.7818609E-02  0.8189053E-01
       -2   -1    0    0    0  501  0.00000000000E+00  0.00000000000E+00  0.15519129372E+04  0.15519129372E+04  0.25500000920E-02 0. -1.
        2   -1    0    0  501    0  0.00000000000E+00  0.00000000000E+00 -0.16486572290E+04  0.16486572290E+04  0.25500000920E-02 0.  1.
    10030    2    1    2    0    0  0.00000000000E+00  0.00000000000E+00 -0.96744291818E+02  0.32005701663E+04  0.31991076774E+04 0.  0.
        3    1    3    3  502    0  0.22687806928E+03  0.51886196756E+03 -0.15450109329E+04  0.16455242912E+04  0.10100000352E+00 0.  1.
       -3    1    3    3    0  502 -0.22687806928E+03 -0.51886196756E+03  0.14482666411E+04  0.15550458751E+04  0.10100000352E+00 0. -1.
</event>
<event>
 5   0  0.1288096E-07  0.3199148E+04  0.7818609E-02  0.8189042E-01
       -1   -1    0    0    0  501  0.00000000000E+00  0.00000000000E+00  0.12424824008E+04  0.12424824008E+04  0.50400001928E-02 0. -1.
        1   -1    0    0  501    0  0.00000000000E+00  0.00000000000E+00 -0.20592938967E+04  0.20592938967E+04  0.50400001928E-02 0.  1.
    10030    2    1    2    0    0  0.00000000000E+00  0.00000000000E+00 -0.81681149588E+03  0.33017762975E+04  0.31991476520E+04 0.  0.
        2    1    3    3  502    0  0.81566533705E+03  0.10681362696E+04  0.48683747495E+03  0.14294179793E+04  0.25500000920E-02 0. -1.
       -2    1    3    3    0  502 -0.81566533705E+03 -0.10681362696E+04 -0.13036489708E+04  0.18723583182E+04  0.25500000920E-02 0.  1.
</event>
<event>
 5   0  0.1288096E-07  0.3198088E+04  0.7818609E-02  0.8189322E-01
       -1   -1    0    0    0  501  0.00000000000E+00  0.00000000000E+00  0.11064183964E+04  0.11064183965E+04  0.50400001928E-02 0. -1.
        1   -1    0    0  501    0  0.00000000000E+00  0.00000000000E+00 -0.23110086670E+04  0.23110086670E+04  0.50400001928E-02 0.  1.
    10030    2    1    2    0    0  0.00000000000E+00  0.00000000000E+00 -0.12045902705E+04  0.34174270634E+04  0.31980884938E+04 0.  0.
        2    1    3    3  502    0 -0.13182843308E+04  0.89344639169E+03 -0.44809849210E+03  0.16543615960E+04  0.25500000920E-02 0.  1.
       -2    1    3    3    0  502  0.13182843308E+04 -0.89344639169E+03 -0.75649177844E+03  0.17630654674E+04  0.25500000920E-02 0. -1.
</event>
<event>
 5   0  0.3764056E-07  0.3207377E+04  0.7818609E-02  0.8186872E-01
       -2   -1    0    0    0  501  0.00000000000E+00  0.00000000000E+00  0.12364368960E+04  0.12364368960E+04  0.25500000920E-02 0.  1.
        2   -1    0    0  501    0  0.00000000000E+00  0.00000000000E+00 -0.20800224144E+04  0.20800224144E+04  0.25500000920E-02 0. -1.
    10030    2    1    2    0    0  0.00000000000E+00  0.00000000000E+00 -0.84358551836E+03  0.33164593104E+04  0.32073767834E+04 0.  0.
        5    1    3    3  502    0  0.69876553107E+03 -0.13602837575E+04  0.77484351355E+02  0.15312318842E+04  0.46999998093E+01 0.  1.
       -5    1    3    3    0  502 -0.69876553107E+03  0.13602837575E+04 -0.92106986971E+03  0.17852274262E+04  0.46999998093E+01 0. -1.
</event>
<event>
 5   0  0.3830207E-07  0.3198090E+04  0.7818609E-02  0.8189322E-01
       -2   -1    0    0    0  501  0.00000000000E+00  0.00000000000E+00  0.97867385665E+03  0.97867385665E+03  0.25500000920E-02 0. -1.
        2   -1    0    0  501    0  0.00000000000E+00  0.00000000000E+00 -0.26126627224E+04  0.26126627224E+04  0.25500000920E-02 0.  1.
    10030    2    1    2    0    0  0.00000000000E+00  0.00000000000E+00 -0.16339888658E+04  0.35913365791E+04  0.31980898691E+04 0.  0.
        4    1    3    3  502    0 -0.79515465338E+03 -0.17814257871E+02  0.74079237345E+03  0.10869053427E+04  0.12699999809E+01 0. -1.
       -4    1    3    3    0  502  0.79515465338E+03  0.17814257871E+02 -0.23747812392E+04  0.25044312364E+04  0.12699999809E+01 0.  1.
</event>
<event>
 5   0  0.1288096E-07  0.3199507E+04  0.7818609E-02  0.8188947E-01
       -1   -1    0    0    0  501  0.00000000000E+00  0.00000000000E+00  0.13863582540E+04  0.13863582540E+04  0.50400001928E-02 0. -1.
        1   -1    0    0  501    0  0.00000000000E+00  0.00000000000E+00 -0.18459960116E+04  0.18459960116E+04  0.50400001928E-02 0.  1.
    10030    2    1    2    0    0  0.00000000000E+00  0.00000000000E+00 -0.45963775765E+03  0.32323542656E+04  0.31995073418E+04 0.  0.
        2    1    3    3  502    0  0.12422459706E+04  0.23079169112E+03 -0.12211016475E+04  0.17571366167E+04  0.25500000920E-02 0.  1.
       -2    1    3    3    0  502 -0.12422459706E+04 -0.23079169112E+03  0.76146388981E+03  0.14752176489E+04  0.25500000920E-02 0. -1.
</event>
<event>
 5   0  0.1365455E-07  0.3199748E+04  0.7818609E-02  0.8188884E-01
       -1   -1    0    0    0  501  0.00000000000E+00  0.00000000000E+00  0.15940848081E+04  0.15940848081E+04  0.50400001928E-02 0. -1.
        1   -1    0    0  501    0  0.00000000000E+00  0.00000000000E+00 -0.16056846595E+04  0.16056846595E+04  0.50400001928E-02 0.  1.
    10030    2    1    2    0    0  0.00000000000E+00  0.00000000000E+00 -0.11599851419E+02  0.31997694676E+04  0.31997484415E+04 0.  0.
        3    1    3    3  502    0 -0.88213593504E+02 -0.10256246421E+04 -0.12305160887E+04  0.16043245929E+04  0.10100000352E+00 0.  1.
       -3    1    3    3    0  502  0.88213593504E+02  0.10256246421E+04  0.12189162373E+04  0.15954448747E+04  0.10100000352E+00 0. -1.
</event>
<event>
 5   0  0.1365455E-07  0.3204211E+04  0.7818609E-02  0.8187706E-01
        1   -1    0    0  501    0  0.00000000000E+00  0.00000000000E+00  0.18098491530E+04  0.18098491530E+04  0.50400001928E-02 0. -1.
       -1   -1    0    0    0  501  0.00000000000E+00  0.00000000000E+00 -0.14182080071E+04  0.14182080071E+04  0.50400001928E-02 0.  1.
    10030    2    1    2    0    0  0.00000000000E+00  0.00000000000E+00  0.39164114588E+03  0.32280571602E+04  0.32042113292E+04 0.  0.
        3    1    3    3  502    0  0.88394130549E+03 -0.47778310917E+03  0.14529506478E+04  0.17665487613E+04  0.10100000352E+00 0. -1.
       -3    1    3    3    0  502 -0.88394130549E+03  0.47778310917E+03 -0.10613095019E+04  0.14615083989E+04  0.10100000352E+00 0.  1.
</event>
<event>
 5   0  0.3858721E-07  0.3204154E+04  0.7818609E-02  0.8187721E-01
        2   -1    0    0  501    0  0.00000000000E+00  0.00000000000E+00  0.17185649130E+04  0.17185649130E+04  0.25500000920E-02 0.  1.
       -2   -1    0    0    0  501  0.00000000000E+00  0.00000000000E+00 -0.14934845749E+04  0.14934845749E+04  0.25500000920E-02 0. -1.
    10030    2    1    2    0    0  0.00000000000E+00  0.00000000000E+00  0.22508033811E+03  0.32120494879E+04  0.32041536720E+04 0.  0.
        2    1    3    3  502    0  0.18353099796E+00  0.99438947820E+03  0.13717564592E+04  0.16942627457E+04  0.25500000920E-02 0.  1.
       -2    1    3    3    0  502 -0.18353099796E+00 -0.99438947820E+03 -0.11466761211E+04  0.15177867422E+04  0.25500000920E-02 0. -1.
</event>
<event>
 5   0  0.1317293E-07  0.3194247E+04  0.7818609E-02  0.8190338E-01
        1   -1    0    0  501    0  0.00000000000E+00  0.00000000000E+00  0.17808532743E+04  0.17808532743E+04  0.50400001928E-02 0. -1.
       -1   -1    0    0    0  501  0.00000000000E+00  0.00000000000E+00 -0.14323491297E+04  0.14323491297E+04  0.50400001928E-02 0.  1.
    10030    2    1    2    0    0  0.00000000000E+00  0.00000000000E+00  0.34850414455E+03  0.32132024040E+04  0.31942471023E+04 0.  0.
        1    1    3    3  502    0 -0.13725176184E+04  0.15607145901E+03 -0.63215382572E+03  0.15191383652E+04  0.50400001928E-02 0.  1.
       -1    1    3    3    0  502  0.13725176184E+04 -0.15607145901E+03  0.98065797027E+03  0.16940640389E+04  0.50400001928E-02 0. -1.
</event>
<event>
 5   0  0.3764056E-07  0.3201034E+04  0.7818609E-02  0.8188544E-01
       -2   -1    0    0    0  501  0.00000000000E+00  0.00000000000E+00  0.18201976886E+04  0.18201976886E+04  0.25500000920E-02 0.  1.
        2   -1    0    0  501    0  0.00000000000E+00  0.00000000000E+00 -0.14073500842E+04  0.14073500842E+04  0.25500000920E-02 0. -1.
    10030    2    1    2    0    0  0.00000000000E+00  0.00000000000E+00  0.41284760444E+03  0.32275477728E+04  0.32010344392E+04 0.  0.
        5    1    3    3  502    0  0.37856139024E+03 -0.22045622486E+03 -0.13457172302E+04  0.14152337711E+04  0.46999998093E+01 0. -1.
       -5    1    3    3    0  502 -0.37856139024E+03  0.22045622486E+03  0.17585648346E+04  0.18123140017E+04  0.46999998093E+01 0.  1.
</event>
<event>
 5   0  0.1365455E-07  0.3202064E+04  0.7818609E-02  0.8188272E-01
       -1   -1    0    0    0  501  0.00000000000E+00  0.00000000000E+00  0.16461674113E+04  0.16461674113E+04  0.50400001928E-02 0.  1.
        1   -1    0    0  501    0  0.00000000000E+00  0.00000000000E+00 -0.15571341349E+04  0.15571341349E+04  0.50400001928E-02 0. -1.
    10030    2    1    2    0    0  0.00000000000E+00  0.00000000000E+00  0.89033276451E+02  0.32033015462E+04  0.32020640018E+04 0.  0.
        3    1    3    3  502    0 -0.88545652554E+03  0.11876203202E+04 -0.56303033215E+03  0.15847644773E+04  0.10100000352E+00 0. -1.
       -3    1    3    3    0  502  0.88545652554E+03 -0.11876203202E+04  0.65206360860E+03  0.16185370689E+04  0.10100000352E+00 0.  1.
</event>
<event>
 5   0  0.3858721E-07  0.3189927E+04  0.7818609E-02  0.8191482E-01
        2   -1    0    0  501    0  0.00000000000E+00  0.00000000000E+00  0.24011124122E+04  0.24011124122E+04  0.25500000920E-02 0.  1.
       -2   -1    0    0    0  501  0.00000000000E+00  0.00000000000E+00 -0.10594709193E+04  0.10594709193E+04  0.25500000920E-02 0. -1.
    10030    2    1    2    0    0  0.00000000000E+00  0.00000000000E+00  0.13416414929E+04  0.34605833316E+04  0.31899271307E+04 0.  0.
        2    1    3    3  502    0 -0.17971893944E+03  0.15833371424E+04  0.74482426812E+03  0.17589822609E+04  0.25500000920E-02 0.  1.
       -2    1    3    3    0  502  0.17971893944E+03 -0.15833371424E+04  0.59681722476E+03  0.17016010706E+04  0.25500000920E-02 0. -1.
</event>
<event>
 5   0  0.3764056E-07  0.3199877E+04  0.7818609E-02  0.8188850E-01
        2   -1    0    0  501    0  0.00000000000E+00  0.00000000000E+00  0.14910802562E+04  0.14910802562E+04  0.25500000920E-02 0.  1.
       -2   -1    0    0    0  501  0.00000000000E+00  0.00000000000E+00 -0.17167445660E+04  0.17167445660E+04  0.25500000920E-02 0. -1.
    10030    2    1    2    0    0  0.00000000000E+00  0.00000000000E+00 -0.22566430987E+03  0.32078248222E+04  0.31998774522E+04 0.  0.
        5    1    3    3  502    0 -0.44447191874E+03 -0.82687465038E+03 -0.14116211480E+04  0.16952797201E+04  0.46999998093E+01 0. -1.
       -5    1    3    3    0  502  0.44447191874E+03  0.82687465038E+03  0.11859568381E+04  0.15125451021E+04  0.46999998093E+01 0.  1.
</event>
<event>
 5   0  0.1317293E-07  0.3191502E+04  0.7818609E-02  0.8191065E-01
       -1   -1    0    0    0  501  0.00000000000E+00  0.00000000000E+00  0.13417999540E+04  0.13417999540E+04  0.50400001928E-02 0. -1.
        1   -1    0    0  501    0  0.00000000000E+00  0.00000000000E+00 -0.18977650704E+04  0.18977650705E+04  0.50400001928E-02 0.  1.
    10030    2    1    2    0    0  0.00000000000E+00  0.00000000000E+00 -0.55596511648E+03  0.32395650244E+04  0.31915018936E+04 0.  0.
        1    1    3    3  502    0 -0.13876471948E+04  0.64202045207E+03  0.18569655161E+03  0.15402071963E+04  0.50400001928E-02 0. -1.
       -1    1    3    3    0  502  0.13876471948E+04 -0.64202045207E+03 -0.74166166808E+03  0.16993578282E+04  0.50400001928E-02 0.  1.
</event>
<event>
 5   0  0.1270948E-07  0.3204610E+04  0.7818609E-02  0.8187601E-01
        1   -1    0    0  501    0  0.00000000000E+00  0.00000000000E+00  0.29315198575E+04  0.29315198575E+04  0.50400001928E-02 0.  1.
       -1   -1    0    0    0  501  0.00000000000E+00  0.00000000000E+00 -0.87578515493E+03  0.87578515494E+03  0.50400001928E-02 0. -1.
    10030    2    1    2    0    0  0.00000000000E+00  0.00000000000E+00  0.20557347025E+04  0.38073050124E+04  0.32046101620E+04 0.  0.
        4    1    3    3  502    0  0.75623004447E+03  0.13669114997E+04  0.14513427100E+04  0.21323058418E+04  0.12699999809E+01 0.  1.
       -4    1    3    3    0  502 -0.75623004447E+03 -0.13669114997E+04  0.60439199256E+03  0.16749991707E+04  0.12699999809E+01 0. -1.
</event>
<event>
 5   0  0.3942564E-07  0.3199057E+04  0.7818609E-02  0.8189066E-01
       -2   -1    0    0    0  501  0.00000000000E+00  0.00000000000E+00  0.15740018705E+04  0.15740018705E+04  0.25500000920E-02 0.  1.
        2   -1    0    0  501    0  0.00000000000E+00  0.00000000000E+00 -0.16254690396E+04  0.16254690396E+04  0.25500000920E-02 0. -1.
    10030    2    1    2    0    0  0.00000000000E+00  0.00000000000E+00 -0.51467169122E+02  0.31994709102E+04  0.31990569291E+04 0.  0.
        3    1    3    3  502    0  0.77140119534E+03  0.13560273653E+04 -0.37879665963E+03  0.16054148807E+04  0.10100000352E+00 0. -1.
       -3    1    3    3    0  502 -0.77140119534E+03 -0.13560273653E+04  0.32732949051E+03  0.15940560295E+04  0.10100000352E+00 0.  1.
</event>
<event>
 5   0  0.1277374E-07  0.3194913E+04  0.7818609E-02  0.8190162E-01
       -1   -1    0    0    0  501  0.00000000000E+00  0.00000000000E+00  0.11051950188E+04  0.11051950188E+04  0.50400001928E-02 0. -1.
        1   -1    0    0  501    0  0.00000000000E+00  0.00000000000E+00 -0.23089745343E+04  0.23089745343E+04  0.50400001928E-02 0.  1.
    10030    2    1    2    0    0  0.00000000000E+00  0.00000000000E+00 -0.12037795155E+04  0.34141695531E+04  0.31949129276E+04 0.  0.
        5    1    3    3  502    0  0.13047624589E+04 -0.74386733809E+03 -0.20394377132E+02  0.15020591571E+04  0.46999998093E+01 0. -1.
       -5    1    3    3    0  502 -0.13047624589E+04  0.74386733809E+03 -0.11833851383E+04  0.19121103960E+04  0.46999998093E+01 0.  1.
</event>
<event>
 5   0  0.3750285E-07  0.3199202E+04  0.7818609E-02  0.8189028E-01
       -2   -1    0    0    0  501  0.00000000000E+00  0.00000000000E+00  0.13278013796E+04  0.13278013796E+04  0.25500000920E-02 0. -1.
        2   -1    0    0  501    0  0.00000000000E+00  0.00000000000E+00 -0.19270372837E+04  0.19270372837E+04  0.25500000920E-02 0.  1.
    10030    2    1    2    0    0  0.00000000000E+00  0.00000000000E+00 -0.59923590404E+03  0.32548386633E+04  0.31992016278E+04 0.  0.
        1    1    3    3  502    0 -0.72971375455E+03  0.14057129573E+04 -0.52759453466E+03  0.16693912288E+04  0.50400001928E-02 0.  1.
       -1    1    3    3    0  502  0.72971375455E+03 -0.14057129573E+04 -0.71641369378E+02  0.15854474345E+04  0.50400001928E-02 0. -1.
</event>
<event>
 5   0  0.1317293E-07  0.3193709E+04  0.7818609E-02  0.8190480E-01
       -1   -1    0    0    0  501  0.00000000000E+00  0.00000000000E+00  0.13417672985E+04  0.13417672985E+04  0.50400001928E-02 0. -1.
        1   -1    0    0  501    0  0.00000000000E+00  0.00000000000E+00 -0.19004374814E+04  0.19004374814E+04  0.50400001928E-02 0.  1.
    10030    2    1    2    0    0  0.00000000000E+00  0.00000000000E+00 -0.55867018293E+03  0.32422047799E+04  0.31937093577E+04 0.  0.
        1    1    3    3  502    0 -0.17716853538E+03  0.79638347915E+03 -0.16728880509E+04  0.18612280265E+04  0.50400001928E-02 0.  1.
       -1    1    3    3    0  502  0.17716853538E+03 -0.79638347915E+03  0.11142178680E+04  0.13809767533E+04  0.50400001928E-02 0. -1.
</event>
<event>
 5   0  0.3858721E-07  0.3192006E+04  0.7818609E-02  0.8190932E-01
        2   -1    0    0  501    0  0.00000000000E+00  0.00000000000E+00  0.22168233001E+04  0.22168233001E+04  0.25500000920E-02 0. -1.
       -2   -1    0    0    0  501  0.00000000000E+00  0.00000000000E+00 -0.11490429167E+04  0.11490429167E+04  0.25500000920E-02 0.  1.
    10030    2    1    2    0    0  0.00000000000E+00  0.00000000000E+00  0.10677803834E+04  0.33658662168E+04  0.31920057084E+04 0.  0.
        2    1    3    3  502    0 -0.83222510143E+03 -0.13103283632E+04  0.92513325512E+03  0.18070502424E+04  0.25500000920E-02 0. -1.
       -2    1    3    3    0  502  0.83222510143E+03  0.13103283632E+04  0.14264712830E+03  0.15588159744E+04  0.25500000920E-02 0.  1.
</event>
<event>
 5   0  0.1365455E-07  0.3197691E+04  0.7818609E-02  0.8189427E-01
       -1   -1    0    0    0  501  0.00000000000E+00  0.00000000000E+00  0.14285357807E+04  0.14285357808E+04  0.50400001928E-02 0. -1.
        1   -1    0    0  501    0  0.00000000000E+00  0.00000000000E+00 -0.17894595479E+04  0.17894595479E+04  0.50400001928E-02 0.  1.
    10030    2    1    2    0    0  0.00000000000E+00  0.00000000000E+00 -0.36092376720E+03  0.32179953287E+04  0.31976910373E+04 0.  0.
        3    1    3    3  502    0  0.51536030606E+03  0.14931741763E+04  0.68376497494E+02  0.15810884610E+04  0.10100000352E+00 0. -1.
       -3    1    3    3    0  502 -0.51536030606E+03 -0.14931741763E+04 -0.42930026469E+03  0.16369068677E+04  0.10100000352E+00 0.  1.
</event>
<event>
 5   0  0.3830207E-07  0.3251539E+04  0.7818609E-02  0.8175337E-01
       -2   -1    0    0    0  501  0.00000000000E+00  0.00000000000E+00  0.12850527365E+04  0.12850527365E+04  0.25500000920E-02 0. -1.
        2   -1    0    0  501    0  0.00000000000E+00  0.00000000000E+00 -0.20568232900E+04  0.20568232900E+04  0.25500000920E-02 0.  1.
    10030    2    1    2    0    0  0.00000000000E+00  0.00000000000E+00 -0.77177055347E+03  0.33418760265E+04  0.32515389571E+04 0.  0.
        4    1    3    3  502    0  0.94427023195E+02 -0.60368061868E+03  0.11625500372E+04  0.13133434257E+04  0.12699999809E+01 0. -1.
       -4    1    3    3    0  502 -0.94427023195E+02  0.60368061868E+03 -0.19343205906E+04  0.20285326008E+04  0.12699999809E+01 0.  1.
</event>
<event>
 5   0  0.3750285E-07  0.3182927E+04  0.7818609E-02  0.8193341E-01
       -2   -1    0    0    0  501  0.00000000000E+00  0.00000000000E+00  0.10604382899E+04  0.10604382899E+04  0.25500000920E-02 0.  1.
        2   -1    0    0  501    0  0.00000000000E+00  0.00000000000E+00 -0.23884050277E+04  0.23884050277E+04  0.25500000920E-02 0. -1.
    10030    2    1    2    0    0  0.00000000000E+00  0.00000000000E+00 -0.13279667378E+04  0.34488433176E+04  0.31829270448E+04 0.  0.
        1    1    3    3  502    0  0.15177515947E+04  0.43097446922E+03 -0.88983743330E+03  0.18113860864E+04  0.50400001928E-02 0. -1.
       -1    1    3    3    0  502 -0.15177515947E+04 -0.43097446922E+03 -0.43812930451E+03  0.16374572312E+04  0.50400001928E-02 0.  1.
</event>
<event>
 5   0  0.1365455E-07  0.3200848E+04  0.7818609E-02  0.8188593E-01
        1   -1    0    0  501    0  0.00000000000E+00  0.00000000000E+00  0.13997738722E+04  0.13997738723E+04  0.50400001928E-02 0.  1.
       -1   -1    0    0    0  501  0.00000000000E+00  0.00000000000E+00 -0.18298358544E+04  0.18298358544E+04  0.50400001928E-02 0. -1.
    10030    2    1    2    0    0  0.00000000000E+00  0.00000000000E+00 -0.43006198213E+03  0.32296097266E+04  0.32008476499E+04 0.  0.
        3    1    3    3  502    0  0.59797918408E+03 -0.27312637926E+03 -0.16873135147E+04  0.18108572641E+04  0.10100000352E+00 0. -1.
       -3    1    3    3    0  502 -0.59797918408E+03  0.27312637926E+03  0.12572515326E+04  0.14187524626E+04  0.10100000352E+00 0.  1.
</event>
<event>
 5   0  0.1277374E-07  0.3179709E+04  0.7818609E-02  0.8194197E-01
       -1   -1    0    0    0  501  0.00000000000E+00  0.00000000000E+00  0.98880133024E+03  0.98880133025E+03  0.50400001928E-02 0.  1.
        1   -1    0    0  501    0  0.00000000000E+00  0.00000000000E+00 -0.25562634139E+04  0.25562634139E+04  0.50400001928E-02 0. -1.
    10030    2    1    2    0    0  0.00000000000E+00  0.00000000000E+00 -0.15674620837E+04  0.35450647441E+04  0.31797085804E+04 0.  0.
        5    1    3    3  502    0  0.69438244976E+02  0.89980539126E+03  0.67553232772E+03  0.11273142542E+04  0.46999998093E+01 0.  1.
       -5    1    3    3    0  502 -0.69438244976E+02 -0.89980539126E+03 -0.22429944114E+04  0.24177504899E+04  0.46999998093E+01 0. -1.
</event>
<event>
 5   0  0.1365455E-07  0.3222132E+04  0.7818609E-02  0.8182996E-01
        1   -1    0    0  501    0  0.00000000000E+00  0.00000000000E+00  0.16696525562E+04  0.16696525563E+04  0.50400001928E-02 0.  1.
       -1   -1    0    0    0  501  0.00000000000E+00  0.00000000000E+00 -0.15545352850E+04  0.15545352850E+04  0.50400001928E-02 0. -1.
    10030    2    1    2    0    0  0.00000000000E+00  0.00000000000E+00  0.11511727122E+03  0.32241878413E+04  0.32221320969E+04 0.  0.
        3    1    3    3  502    0 -0.10271184027E+04  0.20873748016E+02  0.12993684947E+04  0.16564318344E+04  0.10100000352E+00 0.  1.
       -3    1    3    3    0  502  0.10271184027E+04 -0.20873748016E+02 -0.11842512235E+04  0.15677560069E+04  0.10100000352E+00 0. -1.
</event>
<event>
 5   0  0.1230450E-07  0.3205175E+04  0.7818609E-02  0.8187452E-01
       -3   -1    0    0    0  501  0.00000000000E+00  0.00000000000E+00  0.12381574516E+04  0.12381574558E+04  0.10100000352E+00 0.  1.
        3   -1    0    0  501    0  0.00000000000E+00  0.00000000000E+00 -0.20742811780E+04  0.20742811805E+04  0.10100000352E+00 0. -1.
    10030    2    1    2    0    0  0.00000000000E+00  0.00000000000E+00 -0.83612372638E+03  0.33124386362E+04  0.32051750082E+04 0.  0.
        2    1    3    3  502    0 -0.77084157307E+03  0.12642727181E+04  0.21539825284E+03  0.14963217046E+04  0.25500000920E-02 0.  1.
       -2    1    3    3    0  502  0.77084157307E+03 -0.12642727181E+04 -0.10515219792E+04  0.18161169316E+04  0.25500000920E-02 0. -1.
</event>
<event>
 5   0  0.3858721E-07  0.3196310E+04  0.7818609E-02  0.8189792E-01
        2   -1    0    0  501    0  0.00000000000E+00  0.00000000000E+00  0.20146701057E+04  0.20146701057E+04  0.25500000920E-02 0. -1.
       -2   -1    0    0    0  501  0.00000000000E+00  0.00000000000E+00 -0.12677507736E+04  0.12677507736E+04  0.25500000920E-02 0.  1.
    10030    2    1    2    0    0  0.00000000000E+00  0.00000000000E+00  0.74691933217E+03  0.32824208793E+04  0.31963101133E+04 0.  0.
        2    1    3    3  502    0 -0.10767706451E+04 -0.10440908662E+04  0.94017725548E+03  0.17701677973E+04  0.25500000920E-02 0. -1.
       -2    1    3    3    0  502  0.10767706451E+04  0.10440908662E+04 -0.19325792332E+03  0.15122530820E+04  0.25500000920E-02 0.  1.
</event>
<event>
 5   0  0.1365455E-07  0.3198731E+04  0.7818609E-02  0.8189152E-01
       -1   -1    0    0    0  501  0.00000000000E+00  0.00000000000E+00  0.99850664319E+03  0.99850664320E+03  0.50400001928E-02 0.  1.
        1   -1    0    0  501    0  0.00000000000E+00  0.00000000000E+00 -0.25617961727E+04  0.25617961727E+04  0.50400001928E-02 0. -1.
    10030    2    1    2    0    0  0.00000000000E+00  0.00000000000E+00 -0.15632895295E+04  0.35603028159E+04  0.31987313091E+04 0.  0.
        3    1    3    3  502    0  0.48841205713E+03 -0.12840668648E+04 -0.16931093460E+04  0.21803654094E+04  0.10100000352E+00 0. -1.
       -3    1    3    3    0  502 -0.48841205713E+03  0.12840668648E+04  0.12981981647E+03  0.13799374065E+04  0.10100000352E+00 0.  1.
</event>
<event>
 5   0  0.3750285E-07  0.3195341E+04  0.7818609E-02  0.8190049E-01
       -2   -1    0    0    0  501  0.00000000000E+00  0.00000000000E+00  0.10965818074E+04  0.10965818074E+04  0.25500000920E-02 0. -1.
        2   -1    0    0  501    0  0.00000000000E+00  0.00000000000E+00 -0.23277337957E+04  0.23277337957E+04  0.25500000920E-02 0.  1.
    10030    2    1    2    0    0  0.00000000000E+00  0.00000000000E+00 -0.12311519884E+04  0.34243156031E+04  0.31953406909E+04 0.  0.
        1    1    3    3  502    0 -0.63394091400E+03 -0.10579438400E+04  0.47279081842E+03  0.13208548024E+04  0.50400001928E-02 0. -1.
       -1    1    3    3    0  502  0.63394091400E+03  0.10579438400E+04 -0.17039428068E+04  0.21034608007E+04  0.50400001928E-02 0.  1.
</event>
<event>
 5   0  0.3830207E-07  0.3199740E+04  0.7818609E-02  0.8188886E-01
        2   -1    0    0  501    0  0.00000000000E+00  0.00000000000E+00  0.18547484977E+04  0.18547484977E+04  0.25500000920E-02 0.  1.
       -2   -1    0    0    0  501  0.00000000000E+00  0.00000000000E+00 -0.13800166847E+04  0.13800166847E+04  0.25500000920E-02 0. -1.
    10030    2    1    2    0    0  0.00000000000E+00  0.00000000000E+00  0.47473181299E+03  0.32347651824E+04  0.31997399099E+04 0.  0.
        4    1    3    3  502    0  0.77672782125E+03 -0.13820634132E+04  0.45460618157E+03  0.16492646178E+04  0.12699999809E+01 0.  1.
       -4    1    3    3    0  502 -0.77672782125E+03  0.13820634132E+04  0.20125631418E+02  0.15855005646E+04  0.12699999809E+01 0. -1.
</event>
<event>
 5   0  0.1277374E-07  0.3179935E+04  0.7818609E-02  0.8194136E-01
        1   -1    0    0  501    0  0.00000000000E+00  0.00000000000E+00  0.19675697100E+04  0.19675697100E+04  0.50400001928E-02 0.  1.
       -1   -1    0    0    0  501  0.00000000000E+00  0.00000000000E+00 -0.12848320621E+04  0.12848320621E+04  0.50400001928E-02 0. -1.
    10030    2    1    2    0    0  0.00000000000E+00  0.00000000000E+00  0.68273764788E+03  0.32524017721E+04  0.31799349980E+04 0.  0.
        5    1    3    3  502    0  0.43744103878E+03  0.75516844640E+03  0.17006933771E+04  0.19115475662E+04  0.46999998093E+01 0.  1.
       -5    1    3    3    0  502 -0.43744103878E+03 -0.75516844640E+03 -0.10179557292E+04  0.13408542059E+04  0.46999998093E+01 0. -1.
</event>
<event>
 5   0  0.3942564E-07  0.3197166E+04  0.7818609E-02  0.8189566E-01
        2   -1    0    0  501    0  0.00000000000E+00  0.00000000000E+00  0.12940374980E+04  0.12940374980E+04  0.25500000920E-02 0.  1.
       -2   -1    0    0    0  501  0.00000000000E+00  0.00000000000E+00 -0.19748012914E+04  0.19748012914E+04  0.25500000920E-02 0. -1.
    10030    2    1    2    0    0  0.00000000000E+00  0.00000000000E+00 -0.68076379344E+03  0.32688387894E+04  0.31971655710E+04 0.  0.
        3    1    3    3  502    0  0.12359617582E+03 -0.15755925420E+04 -0.94790773747E+02  0.15832729310E+04  0.10100000352E+00 0.  1.
       -3    1    3    3    0  502 -0.12359617582E+03  0.15755925420E+04 -0.58597301969E+03  0.16855658584E+04  0.10100000352E+00 0. -1.
</event>
<event>
 5   0  0.3942564E-07  0.3202032E+04  0.7818609E-02  0.8188281E-01
        2   -1    0    0  501    0  0.00000000000E+00  0.00000000000E+00  0.15013855155E+04  0.15013855155E+04  0.25500000920E-02 0. -1.
       -2   -1    0    0    0  501  0.00000000000E+00  0.00000000000E+00 -0.17072583043E+04  0.17072583043E+04  0.25500000920E-02 0.  1.
    10030    2    1    2    0    0  0.00000000000E+00  0.00000000000E+00 -0.20587278875E+03  0.32086438198E+04  0.32020324104E+04 0.  0.
        3    1    3    3  502    0  0.18134887780E+03  0.15598362974E+04  0.20959889388E+03  0.15842690418E+04  0.10100000352E+00 0. -1.
       -3    1    3    3    0  502 -0.18134887780E+03 -0.15598362974E+04 -0.41547168263E+03  0.16243747780E+04  0.10100000352E+00 0.  1.
</event>
<event>
 5   0  0.1288096E-07  0.3211741E+04  0.7818609E-02  0.8185723E-01
       -1   -1    0    0    0  501  0.00000000000E+00  0.00000000000E+00  0.11758130070E+04  0.11758130071E+04  0.50400001928E-02 0. -1.
        1   -1    0    0  501    0  0.00000000000E+00  0.00000000000E+00 -0.21932229249E+04  0.21932229249E+04  0.50400001928E-02 0.  1.
    10030    2    1    2    0    0  0.00000000000E+00  0.00000000000E+00 -0.10174099179E+04  0.33690359320E+04  0.32117409874E+04 0.  0.
        2    1    3    3  502    0  0.14821181632E+04  0.14522339325E+03  0.12160241404E+03  0.14941724234E+04  0.25500000920E-02 0. -1.
       -2    1    3    3    0  502 -0.14821181632E+04 -0.14522339325E+03 -0.11390123319E+04  0.18748635086E+04  0.25500000920E-02 0.  1.
</event>
<event>
 5   0  0.1277374E-07  0.3197253E+04  0.7818609E-02  0.8189543E-01
       -1   -1    0    0    0  501  0.00000000000E+00  0.00000000000E+00  0.12162060436E+04  0.12162060437E+04  0.50400001928E-02 0. -1.
        1   -1    0    0  501    0  0.00000000000E+00  0.00000000000E+00 -0.21012943637E+04  0.21012943637E+04  0.50400001928E-02 0.  1.
    10030    2    1    2    0    0  0.00000000000E+00  0.00000000000E+00 -0.88508832009E+03  0.33175004074E+04  0.31972531365E+04 0.  0.
        5    1    3    3  502    0 -0.15548446890E+04 -0.35005178213E+03 -0.57175283215E+03  0.16932222678E+04  0.46999998093E+01 0. -1.
       -5    1    3    3    0  502  0.15548446890E+04  0.35005178213E+03 -0.31333548794E+03  0.16242781397E+04  0.46999998093E+01 0.  1.
</event>
<event>
 5   0  0.1317293E-07  0.3200608E+04  0.7818609E-02  0.8188657E-01
       -1   -1    0    0    0  501  0.00000000000E+00  0.00000000000E+00  0.14685750780E+04  0.14685750780E+04  0.50400001928E-02 0. -1.
        1   -1    0    0  501    0  0.00000000000E+00  0.00000000000E+00 -0.17438492044E+04  0.17438492044E+04  0.50400001928E-02 0.  1.
    10030    2    1    2    0    0  0.00000000000E+00  0.00000000000E+00 -0.27527412643E+03  0.32124242824E+04  0.32006083681E+04 0.  0.
        1    1    3    3  502    0  0.11351784074E+04  0.46626032019E+03 -0.11685339477E+04  0.16945501733E+04  0.50400001928E-02 0.  1.
       -1    1    3    3    0  502 -0.11351784074E+04 -0.46626032019E+03  0.89325982125E+03  0.15178741091E+04  0.50400001928E-02 0. -1.
</event>
<event>
 5   0  0.3764056E-07  0.3194206E+04  0.7818609E-02  0.8190349E-01
        2   -1    0    0  501    0  0.00000000000E+00  0.00000000000E+00  0.26555012637E+04  0.26555012637E+04  0.25500000920E-02 0. -1.
       -2   -1    0    0    0  501  0.00000000000E+00  0.00000000000E+00 -0.96054847511E+03  0.96054847511E+03  0.25500000920E-02 0.  1.
    10030    2    1    2    0    0  0.00000000000E+00  0.00000000000E+00  0.16949527886E+04  0.36160497388E+04  0.31942058102E+04 0.  0.
        5    1    3    3  502    0  0.12568597342E+04 -0.96331448545E+03  0.10823476557E+04  0.19181161923E+04  0.46999998093E+01 0. -1.
       -5    1    3    3    0  502 -0.12568597342E+04  0.96331448545E+03  0.61260513283E+03  0.16979335465E+04  0.46999998093E+01 0.  1.
</event>
<event>
 5   0  0.3942564E-07  0.3206471E+04  0.7818609E-02  0.8187110E-01
       -2   -1    0    0    0  501  0.00000000000E+00  0.00000000000E+00  0.15833644985E+04  0.15833644985E+04  0.25500000920E-02 0.  1.
        2   -1    0    0  501    0  0.00000000000E+00  0.00000000000E+00 -0.16233561968E+04  0.16233561968E+04  0.25500000920E-02 0. -1.
    10030    2    1    2    0    0  0.00000000000E+00  0.00000000000E+00 -0.39991698321E+02  0.32067206954E+04  0.32064713132E+04 0.  0.
        3    1    3    3  502    0  0.10827212699E+04 -0.50979490397E+03 -0.10869379372E+04  0.16166664102E+04  0.10100000352E+00 0. -1.
       -3    1    3    3    0  502 -0.10827212699E+04  0.50979490397E+03  0.10469462389E+04  0.15900542851E+04  0.10100000352E+00 0.  1.
</event>
<event>
 5   0  0.3830207E-07  0.3205392E+04  0.7818609E-02  0.8187395E-01
       -2   -1    0    0    0  501  0.00000000000E+00  0.00000000000E+00  0.10112315361E+04  0.10112315361E+04  0.25500000920E-02 0.  1.
        2   -1    0    0  501    0  0.00000000000E+00  0.00000000000E+00 -0.25401045083E+04  0.25401045083E+04  0.25500000920E-02 0. -1.
    10030    2    1    2    0    0  0.00000000000E+00  0.00000000000E+00 -0.15288729723E+04  0.35513360444E+04  0.32053915728E+04 0.  0.
        4    1    3    3  502    0 -0.20522726121E+03 -0.15894937462E+04 -0.75905728347E+03  0.17733522409E+04  0.12699999809E+01 0. -1.
       -4    1    3    3    0  502  0.20522726121E+03  0.15894937462E+04 -0.76981568880E+03  0.17779838035E+04  0.12699999809E+01 0.  1.
</event>
<event>
 5   0  0.3942564E-07  0.3205392E+04  0.7818609E-02  0.8187395E-01
       -2   -1    0    0    0  501  0.00000000000E+00  0.00000000000E+00  0.17265105640E+04  0.17265105640E+04  0.25500000920E-02 0.  1.
        2   -1    0    0  501    0  0.00000000000E+00  0.00000000000E+00 -0.14877604093E+04  0.14877604093E+04  0.25500000920E-02 0. -1.
    10030    2    1    2    0    0  0.00000000000E+00  0.00000000000E+00  0.23875015471E+03  0.32142709733E+04  0.32053917473E+04 0.  0.
        3    1    3    3  502    0 -0.39354175350E+03  0.15492772606E+04  0.28684204152E+01  0.15984815858E+04  0.10100000352E+00 0.  1.
       -3    1    3    3    0  502  0.39354175350E+03 -0.15492772606E+04  0.23588173430E+03  0.16157893875E+04  0.10100000352E+00 0. -1.
</event>
<event>
 5   0  0.1277374E-07  0.3192225E+04  0.7818609E-02  0.8190873E-01
       -1   -1    0    0    0  501  0.00000000000E+00  0.00000000000E+00  0.21612783158E+04  0.21612783158E+04  0.50400001928E-02 0.  1.
        1   -1    0    0  501    0  0.00000000000E+00  0.00000000000E+00 -0.11787354974E+04  0.11787354974E+04  0.50400001928E-02 0. -1.
    10030    2    1    2    0    0  0.00000000000E+00  0.00000000000E+00  0.98254281837E+03  0.33400138133E+04  0.31922252243E+04 0.  0.
        5    1    3    3  502    0  0.98303299080E+03  0.96339440504E+03  0.13368127593E+04  0.19187425789E+04  0.46999998093E+01 0.  1.
       -5    1    3    3    0  502 -0.98303299080E+03 -0.96339440504E+03 -0.35426994089E+03  0.14212712344E+04  0.46999998093E+01 0. -1.
</event>
<event>
 5   0  0.1270948E-07  0.3197587E+04  0.7818609E-02  0.8189455E-01
        1   -1    0    0  501    0  0.00000000000E+00  0.00000000000E+00  0.22171140358E+04  0.22171140358E+04  0.50400001928E-02 0. -1.
       -1   -1    0    0    0  501  0.00000000000E+00  0.00000000000E+00 -0.11529136163E+04  0.11529136163E+04  0.50400001928E-02 0.  1.
    10030    2    1    2    0    0  0.00000000000E+00  0.00000000000E+00  0.10642004195E+04  0.33700276521E+04  0.31975871908E+04 0.  0.
        4    1    3    3  502    0 -0.25826905482E+03 -0.95939572426E+03 -0.78804598086E+03  0.12681329352E+04  0.12699999809E+01 0.  1.
       -4    1    3    3    0  502  0.25826905482E+03  0.95939572426E+03  0.18522464003E+04  0.21018947169E+04  0.12699999809E+01 0. -1.
</event>
<event>
 5   0  0.1277374E-07  0.3214953E+04  0.7818609E-02  0.8184879E-01
       -1   -1    0    0    0  501  0.00000000000E+00  0.00000000000E+00  0.12608059458E+04  0.12608059458E+04  0.50400001928E-02 0. -1.
        1   -1    0    0  501    0  0.00000000000E+00  0.00000000000E+00 -0.20494676067E+04  0.20494676067E+04  0.50400001928E-02 0.  1.
    10030    2    1    2    0    0  0.00000000000E+00  0.00000000000E+00 -0.78866166088E+03  0.33102735525E+04  0.32149531532E+04 0.  0.
        5    1    3    3  502    0 -0.11094688532E+03  0.12812862628E+04 -0.13872645023E+04  0.18916999202E+04  0.46999998093E+01 0.  1.
       -5    1    3    3    0  502  0.11094688532E+03 -0.12812862628E+04  0.59860284143E+03  0.14185736323E+04  0.46999998093E+01 0. -1.
</event>
<event>
 5   0  0.1270948E-07  0.3209204E+04  0.7818609E-02  0.8186391E-01
       -1   -1    0    0    0  501  0.00000000000E+00  0.00000000000E+00  0.11524430451E+04  0.11524430451E+04  0.50400001928E-02 0. -1.
        1   -1    0    0  501    0  0.00000000000E+00  0.00000000000E+00 -0.22341641554E+04  0.22341641554E+04  0.50400001928E-02 0.  1.
    10030    2    1    2    0    0  0.00000000000E+00  0.00000000000E+00 -0.10817211103E+04  0.33866072005E+04  0.32092036036E+04 0.  0.
        4    1    3    3  502    0 -0.12893193949E+03  0.92720188892E+03  0.83441561345E+03  0.12540246476E+04  0.12699999809E+01 0. -1.
       -4    1    3    3    0  502  0.12893193949E+03 -0.92720188892E+03 -0.19161367238E+04  0.21325825529E+04  0.12699999809E+01 0.  1.
</event>
<event>
 5   0  0.3942564E-07  0.3211416E+04  0.7818609E-02  0.8185809E-01
        2   -1    0    0  501    0  0.00000000000E+00  0.00000000000E+00  0.22267003491E+04  0.22267003491E+04  0.25500000920E-02 0. -1.
       -2   -1    0    0    0  501  0.00000000000E+00  0.00000000000E+00 -0.11579009980E+04  0.11579009980E+04  0.25500000920E-02 0.  1.
    10030    2    1    2    0    0  0.00000000000E+00  0.00000000000E+00  0.10687993510E+04  0.33846013471E+04  0.32114162337E+04 0.  0.
        3    1    3    3  502    0 -0.37552143817E+03 -0.12314985836E+04  0.15456727581E+04  0.20116434568E+04  0.10100000352E+00 0. -1.
       -3    1    3    3    0  502  0.37552143817E+03  0.12314985836E+04 -0.47687340708E+03  0.13729578903E+04  0.10100000352E+00 0.  1.
</event>
<event>
 5   0  0.1365455E-07  0.3148944E+04  0.7818609E-02  0.8202432E-01
        1   -1    0    0  501    0  0.00000000000E+00  0.00000000000E+00  0.21186442625E+04  0.21186442625E+04  0.50400001928E-02 0. -1.
       -1   -1    0    0    0  501  0.00000000000E+00  0.00000000000E+00 -0.11700702897E+04  0.11700702897E+04  0.50400001928E-02 0.  1.
    10030    2    1    2    0    0  0.00000000000E+00  0.00000000000E+00  0.94857397275E+03  0.32887145522E+04  0.31489443983E+04 0.  0.
        3    1    3    3  502    0  0.87611339137E+03  0.54625021165E+03  0.17157451055E+04  0.20024348293E+04  0.10100000352E+00 0. -1.
       -3    1    3    3    0  502 -0.87611339137E+03 -0.54625021165E+03 -0.76717113278E+03  0.12862797229E+04  0.10100000352E+00 0.  1.
</event>
<event>
 5   0  0.1230450E-07  0.3194989E+04  0.7818609E-02  0.8190142E-01
       -4   -1    0    0    0  501  0.00000000000E+00  0.00000000000E+00  0.12824956051E+04  0.12824962339E+04  0.12699999809E+01 0.  1.
        4   -1    0    0  501    0  0.00000000000E+00  0.00000000000E+00 -0.19898604337E+04  0.19898608389E+04  0.12699999809E+01 0. -1.
    10030    2    1    2    0    0  0.00000000000E+00  0.00000000000E+00 -0.70736482862E+03  0.32723570728E+04  0.31949891723E+04 0.  0.
        4    1    3    3  502    0  0.11941287850E+04 -0.60349560639E+03 -0.12476510467E+04  0.18294221081E+04  0.12699999809E+01 0. -1.
       -4    1    3    3    0  502 -0.11941287850E+04  0.60349560639E+03  0.54028621811E+03  0.14429349648E+04  0.12699999809E+01 0.  1.
</event>
<event>
 5   0  0.3942564E-07  0.3192542E+04  0.7818609E-02  0.8190790E-01
        2   -1    0    0  501    0  0.00000000000E+00  0.00000000000E+00  0.17204380405E+04  0.17204380405E+04  0.25500000920E-02 0.  1.
       -2   -1    0    0    0  501  0.00000000000E+00  0.00000000000E+00 -0.14810656018E+04  0.14810656018E+04  0.25500000920E-02 0. -1.
    10030    2    1    2    0    0  0.00000000000E+00  0.00000000000E+00  0.23937243875E+03  0.32015036423E+04  0.31925423110E+04 0.  0.
        3    1    3    3  502    0 -0.38106434871E+03 -0.55785702232E+03  0.15700055011E+04  0.17091903870E+04  0.10100000352E+00 0.  1.
       -3    1    3    3    0  502  0.38106434871E+03  0.55785702232E+03 -0.13306330624E+04  0.14923132553E+04  0.10100000352E+00 0. -1.
</event>
<event>
 5   0  0.1365455E-07  0.3199442E+04  0.7818609E-02  0.8188965E-01
        1   -1    0    0  501    0  0.00000000000E+00  0.00000000000E+00  0.26738384608E+04  0.26738384608E+04  0.50400001928E-02 0. -1.
       -1   -1    0    0    0  501  0.00000000000E+00  0.00000000000E+00 -0.95709129582E+03  0.95709129583E+03  0.50400001928E-02 0.  1.
    10030    2    1    2    0    0  0.00000000000E+00  0.00000000000E+00  0.17167471650E+04  0.36309297567E+04  0.31994421497E+04 0.  0.
        3    1    3    3  502    0  0.15975706480E+04  0.82815190887E+02  0.86307689499E+03  0.18176886609E+04  0.10100000352E+00 0.  1.
       -3    1    3    3    0  502 -0.15975706480E+04 -0.82815190887E+02  0.85367027000E+03  0.18132410957E+04  0.10100000352E+00 0. -1.
</event>
<event>
 5   0  0.3830207E-07  0.3201847E+04  0.7818609E-02  0.8188330E-01
        2   -1    0    0  501    0  0.00000000000E+00  0.00000000000E+00  0.18240162927E+04  0.18240162927E+04  0.25500000920E-02 0. -1.
       -2   -1    0    0    0  501  0.00000000000E+00  0.00000000000E+00 -0.14051165711E+04  0.14051165711E+04  0.25500000920E-02 0.  1.
    10030    2    1    2    0    0  0.00000000000E+00  0.00000000000E+00  0.41889972158E+03  0.32291328638E+04  0.32018466664E+04 0.  0.
        4    1    3    3  502    0  0.70800422732E+03 -0.10186211347E+04 -0.81114995822E+03  0.14821689747E+04  0.12699999809E+01 0.  1.
       -4    1    3    3    0  502 -0.70800422732E+03  0.10186211347E+04  0.12300496798E+04  0.17469638891E+04  0.12699999809E+01 0. -1.
</event>
<event>
 5   0  0.1288096E-07  0.3194695E+04  0.7818609E-02  0.8190220E-01
        1   -1    0    0  501    0  0.00000000000E+00  0.00000000000E+00  0.15759154030E+04  0.15759154031E+04  0.50400001928E-02 0.  1.
       -1   -1    0    0    0  501  0.00000000000E+00  0.00000000000E+00 -0.16190713335E+04  0.16190713335E+04  0.50400001928E-02 0. -1.
    10030    2    1    2    0    0  0.00000000000E+00  0.00000000000E+00 -0.43155930456E+02  0.31949867366E+04  0.31946952613E+04 0.  0.
        2    1    3    3  502    0 -0.45730076592E+03  0.52066590181E+03 -0.14609113034E+04  0.16169350044E+04  0.25500000920E-02 0. -1.
       -2    1    3    3    0  502  0.45730076592E+03 -0.52066590181E+03  0.14177553730E+04  0.15780517322E+04  0.25500000920E-02 0.  1.
</event>
<event>
 5   0  0.1288096E-07  0.3199744E+04  0.7818609E-02  0.8188885E-01
        1   -1    0    0  501    0  0.00000000000E+00  0.00000000000E+00  0.21767499216E+04  0.21767499216E+04  0.50400001928E-02 0. -1.
       -1   -1    0    0    0  501  0.00000000000E+00  0.00000000000E+00 -0.11758768090E+04  0.11758768090E+04  0.50400001928E-02 0.  1.
    10030    2    1    2    0    0  0.00000000000E+00  0.00000000000E+00  0.10008731126E+04  0.33526267306E+04  0.31997435846E+04 0.  0.
        2    1    3    3  502    0  0.13533769117E+04  0.43866968318E+03 -0.26632753287E+03  0.14474082046E+04  0.25500000920E-02 0. -1.
       -2    1    3    3    0  502 -0.13533769117E+04 -0.43866968318E+03  0.12672006455E+04  0.19052185260E+04  0.25500000920E-02 0.  1.
</event>
<event>
 5   0  0.1270948E-07  0.3223061E+04  0.7818609E-02  0.8182753E-01
        1   -1    0    0  501    0  0.00000000000E+00  0.00000000000E+00  0.21308919156E+04  0.21308919156E+04  0.50400001928E-02 0.  1.
       -1   -1    0    0    0  501  0.00000000000E+00  0.00000000000E+00 -0.12187527270E+04  0.12187527270E+04  0.50400001928E-02 0. -1.
    10030    2    1    2    0    0  0.00000000000E+00  0.00000000000E+00  0.91213918863E+03  0.33496446426E+04  0.32230608638E+04 0.  0.
        4    1    3    3  502    0  0.19441659468E+03 -0.10757800215E+04 -0.77446300452E+03  0.13397369239E+04  0.12699999809E+01 0. -1.
       -4    1    3    3    0  502 -0.19441659468E+03  0.10757800215E+04  0.16866021931E+04  0.20099077187E+04  0.12699999809E+01 0.  1.
</event>
<event>
 5   0  0.1365455E-07  0.3193024E+04  0.7818609E-02  0.8190662E-01
        1   -1    0    0  501    0  0.00000000000E+00  0.00000000000E+00  0.23651406382E+04  0.23651406382E+04  0.50400001928E-02 0. -1.
       -1   -1    0    0    0  501  0.00000000000E+00  0.00000000000E+00 -0.10776741042E+04  0.10776741042E+04  0.50400001928E-02 0.  1.
    10030    2    1    2    0    0  0.00000000000E+00  0.00000000000E+00  0.12874665340E+04  0.34428147423E+04  0.31930241581E+04 0.  0.
        3    1    3    3  502    0  0.13976209284E+04 -0.70006225351E+03  0.29364972125E+03  0.15904909894E+04  0.10100000352E+00 0. -1.
       -3    1    3    3    0  502 -0.13976209284E+04  0.70006225351E+03  0.99381681274E+03  0.18523237530E+04  0.10100000352E+00 0.  1.
</event>
<event>
 5   0  0.1277374E-07  0.3202983E+04  0.7818609E-02  0.8188030E-01
        1   -1    0    0  501    0  0.00000000000E+00  0.00000000000E+00  0.14611958939E+04  0.14611958939E+04  0.50400001928E-02 0.  1.
       -1   -1    0    0    0  501  0.00000000000E+00  0.00000000000E+00 -0.17552570337E+04  0.17552570337E+04  0.50400001928E-02 0. -1.
    10030    2    1    2    0    0  0.00000000000E+00  0.00000000000E+00 -0.29406113980E+03  0.32164529277E+04  0.32029825916E+04 0.  0.
        5    1    3    3  502    0  0.67679612544E+03 -0.25045440836E+03 -0.15827185998E+04  0.17394828721E+04  0.46999998093E+01 0. -1.
       -5    1    3    3    0  502 -0.67679612544E+03  0.25045440836E+03  0.12886574600E+04  0.14769700556E+04  0.46999998093E+01 0.  1.
</event>
<event>
 5   0  0.3942564E-07  0.3192927E+04  0.7818609E-02  0.8190688E-01
       -2   -1    0    0    0  501  0.00000000000E+00  0.00000000000E+00  0.14516916650E+04  0.14516916650E+04  0.25500000920E-02 0. -1.
        2   -1    0    0  501    0  0.00000000000E+00  0.00000000000E+00 -0.17556724167E+04  0.17556724167E+04  0.25500000920E-02 0.  1.
    10030    2    1    2    0    0  0.00000000000E+00  0.00000000000E+00 -0.30398075176E+03  0.32073640817E+04  0.31929265659E+04 0.  0.
        3    1    3    3  502    0  0.31207174738E+03 -0.85391817319E+03 -0.14702237266E+04  0.17286187661E+04  0.10100000352E+00 0.  1.
       -3    1    3    3    0  502 -0.31207174738E+03  0.85391817319E+03  0.11662429748E+04  0.14787453156E+04  0.10100000352E+00 0. -1.
</event>
<event>
 5   0  0.1317293E-07  0.3201186E+04  0.7818609E-02  0.8188504E-01
        1   -1    0    0  501    0  0.00000000000E+00  0.00000000000E+00  0.16202077607E+04  0.16202077607E+04  0.50400001928E-02 0.  1.
       -1   -1    0    0    0  501  0.00000000000E+00  0.00000000000E+00 -0.15812156014E+04  0.15812156014E+04  0.50400001928E-02 0. -1.
    10030    2    1    2    0    0  0.00000000000E+00  0.00000000000E+00  0.38992159261E+02  0.32014233622E+04  0.32011858983E+04 0.  0.
        1    1    3    3  502    0 -0.14195676042E+04 -0.30239575286E+03  0.69429231763E+03  0.16089304511E+04  0.50400001928E-02 0.  1.
       -1    1    3    3    0  502  0.14195676042E+04  0.30239575286E+03 -0.65530015837E+03  0.15924929110E+04  0.50400001928E-02 0. -1.
</event>
<event>
 5   0  0.3750285E-07  0.3209753E+04  0.7818609E-02  0.8186246E-01
        2   -1    0    0  501    0  0.00000000000E+00  0.00000000000E+00  0.21235197519E+04  0.21235197519E+04  0.25500000920E-02 0. -1.
       -2   -1    0    0    0  501  0.00000000000E+00  0.00000000000E+00 -0.12129053529E+04  0.12129053529E+04  0.25500000920E-02 0.  1.
    10030    2    1    2    0    0  0.00000000000E+00  0.00000000000E+00  0.91061439896E+03  0.33364251048E+04  0.32097529338E+04 0.  0.
        1    1    3    3  502    0  0.43485498825E+03  0.17691569640E+03  0.20505488478E+04  0.21036037178E+04  0.50400001928E-02 0. -1.
       -1    1    3    3    0  502 -0.43485498825E+03 -0.17691569640E+03 -0.11399344488E+04  0.12328213870E+04  0.50400001928E-02 0.  1.
</event>
<event>
 5   0  0.1365455E-07  0.3200508E+04  0.7818609E-02  0.8188683E-01
       -1   -1    0    0    0  501  0.00000000000E+00  0.00000000000E+00  0.13278532087E+04  0.13278532087E+04  0.50400001928E-02 0.  1.
        1   -1    0    0  501    0  0.00000000000E+00  0.00000000000E+00 -0.19285360441E+04  0.19285360441E+04  0.50400001928E-02 0. -1.
    10030    2    1    2    0    0  0.00000000000E+00  0.00000000000E+00 -0.60068283541E+03  0.32563892528E+04  0.32005079436E+04 0.  0.
        3    1    3    3  502    0 -0.12407191005E+04 -0.94635673145E+03  0.60588586808E+02  0.15616164499E+04  0.10100000352E+00 0. -1.
       -3    1    3    3    0  502  0.12407191005E+04  0.94635673145E+03 -0.66127142222E+03  0.16947728029E+04  0.10100000352E+00 0.  1.
</event>
<event>
 5   0  0.1288096E-07  0.3199428E+04  0.7818609E-02  0.8188968E-01
       -1   -1    0    0    0  501  0.00000000000E+00  0.00000000000E+00  0.17489044197E+04  0.17489044197E+04  0.50400001928E-02 0. -1.
        1   -1    0    0  501    0  0.00000000000E+00  0.00000000000E+00 -0.14632501458E+04  0.14632501458E+04  0.50400001928E-02 0.  1.
    10030    2    1    2    0    0  0.00000000000E+00  0.00000000000E+00  0.28565427387E+03  0.32121545656E+04  0.31994278534E+04 0.  0.
        2    1    3    3  502    0  0.51926165057E+03 -0.15006780779E+04 -0.51377810542E+02  0.15888067959E+04  0.25500000920E-02 0. -1.
       -2    1    3    3    0  502 -0.51926165057E+03  0.15006780779E+04  0.33703208441E+03  0.16233477696E+04  0.25500000920E-02 0.  1.
</event>
<event>
 5   0  0.1277374E-07  0.3204170E+04  0.7818609E-02  0.8187717E-01
        1   -1    0    0  501    0  0.00000000000E+00  0.00000000000E+00  0.13080858790E+04  0.13080858790E+04  0.50400001928E-02 0.  1.
       -1   -1    0    0    0  501  0.00000000000E+00  0.00000000000E+00 -0.19621621884E+04  0.19621621884E+04  0.50400001928E-02 0. -1.
    10030    2    1    2    0    0  0.00000000000E+00  0.00000000000E+00 -0.65407630943E+03  0.32702480674E+04  0.32041701896E+04 0.  0.
        5    1    3    3  502    0 -0.42277360702E+03  0.15450390804E+04 -0.35538277470E+03  0.16407931891E+04  0.46999998093E+01 0. -1.
       -5    1    3    3    0  502  0.42277360702E+03 -0.15450390804E+04 -0.29869353473E+03  0.16294548783E+04  0.46999998093E+01 0.  1.
</event>
<event>
 5   0  0.3764056E-07  0.3195101E+04  0.7818609E-02  0.8190112E-01
        2   -1    0    0  501    0  0.00000000000E+00  0.00000000000E+00  0.10061456080E+04  0.10061456080E+04  0.25500000920E-02 0.  1.
       -2   -1    0    0    0  501  0.00000000000E+00  0.00000000000E+00 -0.25365795396E+04  0.25365795396E+04  0.25500000920E-02 0. -1.
    10030    2    1    2    0    0  0.00000000000E+00  0.00000000000E+00 -0.15304339316E+04  0.35427251476E+04  0.31951014776E+04 0.  0.
        5    1    3    3  502    0  0.15777373714E+04  0.24085846222E+03 -0.68777340189E+03  0.17379074642E+04  0.46999998093E+01 0.  1.
       -5    1    3    3    0  502 -0.15777373714E+04 -0.24085846222E+03 -0.84266052972E+03  0.18048176834E+04  0.46999998093E+01 0. -1.
</event>
<event>
 5   0  0.3764056E-07  0.3200137E+04  0.7818609E-02  0.8188781E-01
       -2   -1    0    0    0  501  0.00000000000E+00  0.00000000000E+00  0.17148671946E+04  0.17148671946E+04  0.25500000920E-02 0.  1.
        2   -1    0    0  501    0  0.00000000000E+00  0.00000000000E+00 -0.14929546613E+04  0.14929546613E+04  0.25500000920E-02 0. -1.
    10030    2    1    2    0    0  0.00000000000E+00  0.00000000000E+00  0.22191253334E+03  0.32078218559E+04  0.32001368544E+04 0.  0.
        5    1    3    3  502    0  0.42801205940E+03  0.30922702342E+03  0.16250076714E+04  0.17086508412E+04  0.46999998093E+01 0.  1.
       -5    1    3    3    0  502 -0.42801205940E+03 -0.30922702342E+03 -0.14030951381E+04  0.14991710147E+04  0.46999998093E+01 0. -1.
</event>
<event>
 5   0  0.3764056E-07  0.3179058E+04  0.7818609E-02  0.8194370E-01
       -2   -1    0    0    0  501  0.00000000000E+00  0.00000000000E+00  0.14189908441E+04  0.14189908441E+04  0.25500000920E-02 0.  1.
        2   -1    0    0  501    0  0.00000000000E+00  0.00000000000E+00 -0.17805630665E+04  0.17805630665E+04  0.25500000920E-02 0. -1.
    10030    2    1    2    0    0  0.00000000000E+00  0.00000000000E+00 -0.36157222243E+03  0.31995539107E+04  0.31790581554E+04 0.  0.
        5    1    3    3  502    0 -0.10768025903E+04 -0.29551080429E+03  0.95776767856E+03  0.14711123241E+04  0.46999998093E+01 0.  1.
       -5    1    3    3    0  502  0.10768025903E+04  0.29551080429E+03 -0.13193399010E+04  0.17284415866E+04  0.46999998093E+01 0. -1.
</event>
<event>
 5   0  0.1270948E-07  0.3222227E+04  0.7818609E-02  0.8182972E-01
       -1   -1    0    0    0  501  0.00000000000E+00  0.00000000000E+00  0.15323711931E+04  0.15323711932E+04  0.50400001928E-02 0.  1.
        1   -1    0    0  501    0  0.00000000000E+00  0.00000000000E+00 -0.16939025158E+04  0.16939025158E+04  0.50400001928E-02 0. -1.
    10030    2    1    2    0    0  0.00000000000E+00  0.00000000000E+00 -0.16153132262E+03  0.32262737089E+04  0.32222274403E+04 0.  0.
        4    1    3    3  502    0  0.32598026903E+03  0.14670666536E+04 -0.66213073534E+03  0.16422443257E+04  0.12699999809E+01 0. -1.
       -4    1    3    3    0  502 -0.32598026903E+03 -0.14670666536E+04  0.50059941272E+03  0.15840293832E+04  0.12699999809E+01 0.  1.
</event>
<event>
 5   0  0.3858721E-07  0.3197483E+04  0.7818609E-02  0.8189482E-01
        2   -1    0    0  501    0  0.00000000000E+00  0.00000000000E+00  0.22827002416E+04  0.22827002416E+04  0.25500000920E-02 0.  1.
       -2   -1    0    0    0  501  0.00000000000E+00  0.00000000000E+00 -0.11197149516E+04  0.11197149516E+04  0.25500000920E-02 0. -1.
    10030    2    1    2    0    0  0.00000000000E+00  0.00000000000E+00  0.11629852900E+04  0.34024151932E+04  0.31974825038E+04 0.  0.
        2    1    3    3  502    0  0.75559018967E+03 -0.12076695040E+04 -0.19068286500E+03  0.14372689799E+04  0.25500000920E-02 0. -1.
       -2    1    3    3    0  502 -0.75559018967E+03  0.12076695040E+04  0.13536681550E+04  0.19651462133E+04  0.25500000920E-02 0.  1.
</event>
<event>
 5   0  0.3942564E-07  0.3200291E+04  0.7818609E-02  0.8188740E-01
       -2   -1    0    0    0  501  0.00000000000E+00  0.00000000000E+00  0.22152696034E+04  0.22152696034E+04  0.25500000920E-02 0.  1.
        2   -1    0    0  501    0  0.00000000000E+00  0.00000000000E+00 -0.11558260840E+04  0.11558260840E+04  0.25500000920E-02 0. -1.
    10030    2    1    2    0    0  0.00000000000E+00  0.00000000000E+00  0.10594435194E+04  0.33710956874E+04  0.32002914809E+04 0.  0.
        3    1    3    3  502    0 -0.11914952675E+04  0.39340562076E+02  0.16540484907E+04  0.20388930997E+04  0.10100000352E+00 0.  1.
       -3    1    3    3    0  502  0.11914952675E+04 -0.39340562076E+02 -0.59460497126E+03  0.13322025876E+04  0.10100000352E+00 0. -1.
</event>
<event>
 5   0  0.1365455E-07  0.3199485E+04  0.7818609E-02  0.8188953E-01
       -1   -1    0    0    0  501  0.00000000000E+00  0.00000000000E+00  0.23950135218E+04  0.23950135218E+04  0.50400001928E-02 0.  1.
        1   -1    0    0  501    0  0.00000000000E+00  0.00000000000E+00 -0.10685433916E+04  0.10685433916E+04  0.50400001928E-02 0. -1.
    10030    2    1    2    0    0  0.00000000000E+00  0.00000000000E+00  0.13264701302E+04  0.34635569134E+04  0.31994848782E+04 0.  0.
        3    1    3    3  502    0 -0.93834199477E+03 -0.25524321491E+03  0.20383287186E+04  0.22584106742E+04  0.10100000352E+00 0.  1.
       -3    1    3    3    0  502  0.93834199477E+03  0.25524321491E+03 -0.71185858837E+03  0.12051462392E+04  0.10100000352E+00 0. -1.
</event>
<event>
 5   0  0.3942564E-07  0.3203315E+04  0.7818609E-02  0.8187942E-01
        2   -1    0    0  501    0  0.00000000000E+00  0.00000000000E+00  0.13242253625E+04  0.13242253625E+04  0.25500000920E-02 0.  1.
       -2   -1    0    0    0  501  0.00000000000E+00  0.00000000000E+00 -0.19372127227E+04  0.19372127227E+04  0.25500000920E-02 0. -1.
    10030    2    1    2    0    0  0.00000000000E+00  0.00000000000E+00 -0.61298736017E+03  0.32614380852E+04  0.32033146708E+04 0.  0.
        3    1    3    3  502    0 -0.40291390925E+03 -0.30182927536E+03 -0.18545645355E+04  0.19216789941E+04  0.10100000352E+00 0. -1.
       -3    1    3    3    0  502  0.40291390925E+03  0.30182927536E+03  0.12415771753E+04  0.13397590911E+04  0.10100000352E+00 0.  1.
</event>
<event>
 5   0  0.1270948E-07  0.3195673E+04  0.7818609E-02  0.8189961E-01
       -1   -1    0    0    0  501  0.00000000000E+00  0.00000000000E+00  0.21426736599E+04  0.21426736599E+04  0.50400001928E-02 0. -1.
        1   -1    0    0  501    0  0.00000000000E+00  0.00000000000E+00 -0.11915400702E+04  0.11915400702E+04  0.50400001928E-02 0.  1.
    10030    2    1    2    0    0  0.00000000000E+00  0.00000000000E+00  0.95113358969E+03  0.33342137301E+04  0.31956730265E+04 0.  0.
        4    1    3    3  502    0  0.11794686364E+04 -0.40008900101E+03  0.15198905226E+04  0.19650155945E+04  0.12699999809E+01 0. -1.
       -4    1    3    3    0  502 -0.11794686364E+04  0.40008900101E+03 -0.56875693288E+03  0.13691981356E+04  0.12699999809E+01 0.  1.
</event>
<event>
 5   0  0.3764056E-07  0.3205630E+04  0.7818609E-02  0.8187332E-01
        2   -1    0    0  501    0  0.00000000000E+00  0.00000000000E+00  0.16135229251E+04  0.16135229251E+04  0.25500000920E-02 0. -1.
       -2   -1    0    0    0  501  0.00000000000E+00  0.00000000000E+00 -0.15921778798E+04  0.15921778798E+04  0.25500000920E-02 0.  1.
    10030    2    1    2    0    0  0.00000000000E+00  0.00000000000E+00  0.21345045311E+02  0.32057008050E+04  0.32056297416E+04 0.  0.
        5    1    3    3  502    0 -0.34910555347E+03 -0.15727355785E+03  0.15671079251E+04  0.16132138725E+04  0.46999998093E+01 0. -1.
       -5    1    3    3    0  502  0.34910555347E+03  0.15727355785E+03 -0.15457628798E+04  0.15924869325E+04  0.46999998093E+01 0.  1.
</event>
<event>
 5   0  0.1365455E-07  0.3197841E+04  0.7818609E-02  0.8189388E-01
        1   -1    0    0  501    0  0.00000000000E+00  0.00000000000E+00  0.21600386124E+04  0.21600386124E+04  0.50400001928E-02 0. -1.
       -1   -1    0    0    0  501  0.00000000000E+00  0.00000000000E+00 -0.11835653839E+04  0.11835653840E+04  0.50400001928E-02 0.  1.
    10030    2    1    2    0    0  0.00000000000E+00  0.00000000000E+00  0.97647322847E+03  0.33436039964E+04  0.31978411028E+04 0.  0.
        3    1    3    3  502    0  0.53077848297E+03 -0.13805050407E+04 -0.14692903037E+03  0.14863068713E+04  0.10100000352E+00 0. -1.
       -3    1    3    3    0  502 -0.53077848297E+03  0.13805050407E+04  0.11234022588E+04  0.18572971251E+04  0.10100000352E+00 0.  1.
</event>
<event>
 5   0  0.3858721E-07  0.3191340E+04  0.7818609E-02  0.8191108E-01
       -2   -1    0    0    0  501  0.00000000000E+00  0.00000000000E+00  0.14898253856E+04  0.14898253856E+04  0.25500000920E-02 0. -1.
        2   -1    0    0  501    0  0.00000000000E+00  0.00000000000E+00 -0.17090339505E+04  0.17090339505E+04  0.25500000920E-02 0.  1.
    10030    2    1    2    0    0  0.00000000000E+00  0.00000000000E+00 -0.21920856486E+03  0.31988593361E+04  0.31913396336E+04 0.  0.
        2    1    3    3  502    0  0.13701791860E+04 -0.59050291174E+03  0.45748269295E+03  0.15605688402E+04  0.25500000920E-02 0. -1.
       -2    1    3    3    0  502 -0.13701791860E+04  0.59050291174E+03 -0.67669125781E+03  0.16382904959E+04  0.25500000920E-02 0.  1.
</event>
<event>
 5   0  0.1277374E-07  0.3196728E+04  0.7818609E-02  0.8189682E-01
       -1   -1    0    0    0  501  0.00000000000E+00  0.00000000000E+00  0.19130723920E+04  0.19130723920E+04  0.50400001928E-02 0. -1.
        1   -1    0    0  501    0  0.00000000000E+00  0.00000000000E+00 -0.13354266152E+04  0.13354266152E+04  0.50400001928E-02 0.  1.
    10030    2    1    2    0    0  0.00000000000E+00  0.00000000000E+00  0.57764577683E+03  0.32484990072E+04  0.31967281956E+04 0.  0.
        5    1    3    3  502    0 -0.12807802017E+04  0.94512885173E+03  0.43636105246E+03  0.16504846347E+04  0.46999998093E+01 0.  1.
       -5    1    3    3    0  502  0.12807802017E+04 -0.94512885173E+03  0.14128472437E+03  0.15980143725E+04  0.46999998093E+01 0. -1.
</event>
<event>
 5   0  0.1288096E-07  0.3202108E+04  0.7818609E-02  0.8188261E-01
        1   -1    0    0  501    0  0.00000000000E+00  0.00000000000E+00  0.16272459806E+04  0.16272459806E+04  0.50400001928E-02 0. -1.
       -1   -1    0    0    0  501  0.00000000000E+00  0.00000000000E+00 -0.15752839949E+04  0.15752839949E+04  0.50400001928E-02 0.  1.
    10030    2    1    2    0    0  0.00000000000E+00  0.00000000000E+00  0.51961985685E+02  0.32025299754E+04  0.32021083985E+04 0.  0.
        2    1    3    3  502    0  0.10116788672E+04 -0.12169321824E+04  0.26882251939E+03  0.16052051625E+04  0.25500000920E-02 0. -1.
       -2    1    3    3    0  502 -0.10116788672E+04  0.12169321824E+04 -0.21686053371E+03  0.15973248129E+04  0.25500000920E-02 0.  1.
</event>
<event>
 5   0  0.1277374E-07  0.3221054E+04  0.7818609E-02  0.8183279E-01
        1   -1    0    0  501    0  0.00000000000E+00  0.00000000000E+00  0.17174213015E+04  0.17174213015E+04  0.50400001928E-02 0. -1.
       -1   -1    0    0    0  501  0.00000000000E+00  0.00000000000E+00 -0.15102857243E+04  0.15102857243E+04  0.50400001928E-02 0.  1.
    10030    2    1    2    0    0  0.00000000000E+00  0.00000000000E+00  0.20713557728E+03  0.32277070258E+04  0.32210537867E+04 0.  0.
        5    1    3    3  502    0 -0.15076408063E+03  0.89391262204E+03 -0.12303336007E+04  0.15282514331E+04  0.46999998093E+01 0.  1.
       -5    1    3    3    0  502  0.15076408063E+03 -0.89391262204E+03  0.14374691780E+04  0.16994555927E+04  0.46999998093E+01 0. -1.
</event>
<event>
 5   0  0.3764056E-07  0.3197329E+04  0.7818609E-02  0.8189523E-01
        2   -1    0    0  501    0  0.00000000000E+00  0.00000000000E+00  0.26524559470E+04  0.26524559470E+04  0.25500000920E-02 0. -1.
       -2   -1    0    0    0  501  0.00000000000E+00  0.00000000000E+00 -0.96353250460E+03  0.96353250460E+03  0.25500000920E-02 0.  1.
    10030    2    1    2    0    0  0.00000000000E+00  0.00000000000E+00  0.16889234424E+04  0.36159884516E+04  0.31973285861E+04 0.  0.
        5    1    3    3  502    0  0.17897134649E+03 -0.14278827605E+03  0.26338105633E+04  0.26437472285E+04  0.46999998093E+01 0. -1.
       -5    1    3    3    0  502 -0.17897134649E+03  0.14278827605E+03 -0.94488712093E+03  0.97224122312E+03  0.46999998093E+01 0.  1.
</event>
<event>
 5   0  0.1277374E-07  0.3198689E+04  0.7818609E-02  0.8189163E-01
        1   -1    0    0  501    0  0.00000000000E+00  0.00000000000E+00  0.21195014866E+04  0.21195014866E+04  0.50400001928E-02 0. -1.
       -1   -1    0    0    0  501  0.00000000000E+00  0.00000000000E+00 -0.12068417769E+04  0.12068417770E+04  0.50400001928E-02 0.  1.
    10030    2    1    2    0    0  0.00000000000E+00  0.00000000000E+00  0.91265970961E+03  0.33263432635E+04  0.31986890692E+04 0.  0.
        5    1    3    3  502    0 -0.13079960140E+04 -0.96422353817E+02  0.14081328655E+04  0.19243209451E+04  0.46999998093E+01 0. -1.
       -5    1    3    3    0  502  0.13079960140E+04  0.96422353817E+02 -0.49547315589E+03  0.14020223184E+04  0.46999998093E+01 0.  1.
</event>
<event>
 5   0  0.3750285E-07  0.3201575E+04  0.7818609E-02  0.8188401E-01
        2   -1    0    0  501    0  0.00000000000E+00  0.00000000000E+00  0.17216277069E+04  0.17216277069E+04  0.25500000920E-02 0.  1.
       -2   -1    0    0    0  501  0.00000000000E+00  0.00000000000E+00 -0.14884294694E+04  0.14884294694E+04  0.25500000920E-02 0. -1.
    10030    2    1    2    0    0  0.00000000000E+00  0.00000000000E+00  0.23319823743E+03  0.32100571763E+04  0.32015754961E+04 0.  0.
        1    1    3    3  502    0 -0.72765629559E+03 -0.12467429942E+04 -0.57709331946E+03  0.15546345157E+04  0.50400001928E-02 0. -1.
       -1    1    3    3    0  502  0.72765629559E+03  0.12467429942E+04  0.81029155688E+03  0.16554226606E+04  0.50400001928E-02 0.  1.
</event>
<event>
 5   0  0.3764056E-07  0.3191963E+04  0.7818609E-02  0.8190943E-01
        2   -1    0    0  501    0  0.00000000000E+00  0.00000000000E+00  0.14828085284E+04  0.14828085284E+04  0.25500000920E-02 0.  1.
       -2   -1    0    0    0  501  0.00000000000E+00  0.00000000000E+00 -0.17177923560E+04  0.17177923560E+04  0.25500000920E-02 0. -1.
    10030    2    1    2    0    0  0.00000000000E+00  0.00000000000E+00 -0.23498382755E+03  0.32006008844E+04  0.31919631298E+04 0.  0.
        5    1    3    3  502    0 -0.10911892412E+04  0.11633089112E+04 -0.17379975388E+03  0.16044344884E+04  0.46999998093E+01 0.  1.
       -5    1    3    3    0  502  0.10911892412E+04 -0.11633089112E+04 -0.61184073671E+02  0.15961663960E+04  0.46999998093E+01 0. -1.
</event>
<event>
 5   0  0.3764056E-07  0.3205968E+04  0.7818609E-02  0.8187243E-01
       -2   -1    0    0    0  501  0.00000000000E+00  0.00000000000E+00  0.14691501856E+04  0.14691501856E+04  0.25500000920E-02 0.  1.
        2   -1    0    0  501    0  0.00000000000E+00  0.00000000000E+00 -0.17490092000E+04  0.17490092001E+04  0.25500000920E-02 0. -1.
    10030    2    1    2    0    0  0.00000000000E+00  0.00000000000E+00 -0.27985901445E+03  0.32181593857E+04  0.32059676797E+04 0.  0.
        5    1    3    3  502    0 -0.50108990435E+03  0.18316855371E+03 -0.16572641410E+04  0.17410308252E+04  0.46999998093E+01 0. -1.
       -5    1    3    3    0  502  0.50108990435E+03 -0.18316855371E+03  0.13774051266E+04  0.14771285604E+04  0.46999998093E+01 0.  1.
</event>
<event>
 5   0  0.1277374E-07  0.3198750E+04  0.7818609E-02  0.8189147E-01
       -1   -1    0    0    0  501  0.00000000000E+00  0.00000000000E+00  0.12228551811E+04  0.12228551811E+04  0.50400001928E-02 0. -1.
        1   -1    0    0  501    0  0.00000000000E+00  0.00000000000E+00 -0.20918266261E+04  0.20918266261E+04  0.50400001928E-02 0.  1.
    10030    2    1    2    0    0  0.00000000000E+00  0.00000000000E+00 -0.86897144500E+03  0.33146818073E+04  0.31987503984E+04 0.  0.
        5    1    3    3  502    0 -0.21760783520E+02  0.15857173239E+04 -0.21959093090E+03  0.16010044441E+04  0.46999998093E+01 0. -1.
       -5    1    3    3    0  502  0.21760783520E+02 -0.15857173239E+04 -0.64938051410E+03  0.17136773632E+04  0.46999998093E+01 0.  1.
</event>
<event>
 5   0  0.1277374E-07  0.3219989E+04  0.7818609E-02  0.8183558E-01
       -1   -1    0    0    0  501  0.00000000000E+00  0.00000000000E+00  0.16742889136E+04  0.16742889136E+04  0.50400001928E-02 0.  1.
        1   -1    0    0  501    0  0.00000000000E+00  0.00000000000E+00 -0.15481694248E+04  0.15481694248E+04  0.50400001928E-02 0. -1.
    10030    2    1    2    0    0  0.00000000000E+00  0.00000000000E+00  0.12611948883E+03  0.32224583384E+04  0.32199893816E+04 0.  0.
        5    1    3    3  502    0  0.86029749806E+02 -0.59359761252E+03 -0.14321747387E+04  0.15527091857E+04  0.46999998093E+01 0. -1.
       -5    1    3    3    0  502 -0.86029749806E+02  0.59359761252E+03  0.15582942275E+04  0.16697491527E+04  0.46999998093E+01 0.  1.
</event>
<event>
 5   0  0.3764056E-07  0.3195442E+04  0.7818609E-02  0.8190022E-01
        2   -1    0    0  501    0  0.00000000000E+00  0.00000000000E+00  0.27281702591E+04  0.27281702591E+04  0.25500000920E-02 0.  1.
       -2   -1    0    0    0  501  0.00000000000E+00  0.00000000000E+00 -0.93568636965E+03  0.93568636966E+03  0.25500000920E-02 0. -1.
    10030    2    1    2    0    0  0.00000000000E+00  0.00000000000E+00  0.17924838895E+04  0.36638566288E+04  0.31954415817E+04 0.  0.
        5    1    3    3  502    0 -0.82952326614E+03  0.24117510239E+02  0.24616603708E+04  0.25977845128E+04  0.46999998093E+01 0.  1.
       -5    1    3    3    0  502  0.82952326614E+03 -0.24117510239E+02 -0.66917648136E+03  0.10660721160E+04  0.46999998093E+01 0. -1.
</event>
<event>
 5   0  0.1270948E-07  0.3202081E+04  0.7818609E-02  0.8188268E-01
       -1   -1    0    0    0  501  0.00000000000E+00  0.00000000000E+00  0.13749597274E+04  0.13749597274E+04  0.50400001928E-02 0.  1.
        1   -1    0    0  501    0  0.00000000000E+00  0.00000000000E+00 -0.18642951249E+04  0.18642951249E+04  0.50400001928E-02 0. -1.
    10030    2    1    2    0    0  0.00000000000E+00  0.00000000000E+00 -0.48933539748E+03  0.32392548523E+04  0.32020810213E+04 0.  0.
        4    1    3    3  502    0 -0.54604206907E+03  0.14691864291E+04 -0.57504509959E+03  0.16695356193E+04  0.12699999809E+01 0.  1.
       -4    1    3    3    0  502  0.54604206907E+03 -0.14691864291E+04  0.85709702110E+02  0.15697192330E+04  0.12699999809E+01 0. -1.
</event>
<event>
 5   0  0.3750285E-07  0.3199702E+04  0.7818609E-02  0.8188896E-01
       -2   -1    0    0    0  501  0.00000000000E+00  0.00000000000E+00  0.84709787574E+03  0.84709787574E+03  0.25500000920E-02 0.  1.
        2   -1    0    0  501    0  0.00000000000E+00  0.00000000000E+00 -0.30215192104E+04  0.30215192104E+04  0.25500000920E-02 0. -1.
    10030    2    1    2    0    0  0.00000000000E+00  0.00000000000E+00 -0.21744213347E+04  0.38686170862E+04  0.31997015515E+04 0.  0.
        1    1    3    3  502    0  0.14052681332E+04  0.47459540312E+02 -0.20099756301E+04  0.24529641188E+04  0.50400001928E-02 0. -1.
       -1    1    3    3    0  502 -0.14052681332E+04 -0.47459540312E+02 -0.16444570454E+03  0.14156529674E+04  0.50400001928E-02 0.  1.
</event>
<event>
 5   0  0.1277374E-07  0.3206123E+04  0.7818609E-02  0.8187202E-01
        1   -1    0    0  501    0  0.00000000000E+00  0.00000000000E+00  0.28769198724E+04  0.28769198724E+04  0.50400001928E-02 0.  1.
       -1   -1    0    0    0  501  0.00000000000E+00  0.00000000000E+00 -0.89324924824E+03  0.89324924826E+03  0.50400001928E-02 0. -1.
    10030    2    1    2    0    0  0.00000000000E+00  0.00000000000E+00  0.19836706241E+04  0.37701691206E+04  0.32061232124E+04 0.  0.
        5    1    3    3  502    0  0.45334078850E+03  0.73424950923E+03  0.25804889304E+04  0.27209530356E+04  0.46999998093E+01 0.  1.
       -5    1    3    3    0  502 -0.45334078850E+03 -0.73424950923E+03 -0.59681830626E+03  0.10492160850E+04  0.46999998093E+01 0. -1.
</event>
<event>
 5   0  0.1317293E-07  0.3198486E+04  0.7818609E-02  0.8189217E-01
       -1   -1    0    0    0  501  0.00000000000E+00  0.00000000000E+00  0.11267670556E+04  0.11267670556E+04  0.50400001928E-02 0.  1.
        1   -1    0    0  501    0  0.00000000000E+00  0.00000000000E+00 -0.22698377680E+04  0.22698377680E+04  0.50400001928E-02 0. -1.
    10030    2    1    2    0    0  0.00000000000E+00  0.00000000000E+00 -0.11430707124E+04  0.33966048236E+04  0.31984861535E+04 0.  0.
        1    1    3    3  502    0 -0.13459101055E+04  0.19807132359E+03 -0.14643699003E+04  0.19987709889E+04  0.50400001928E-02 0. -1.
       -1    1    3    3    0  502  0.13459101055E+04 -0.19807132359E+03  0.32129918786E+03  0.13978338347E+04  0.50400001928E-02 0.  1.
</event>
<event>
 5   0  0.1317293E-07  0.3205843E+04  0.7818609E-02  0.8187276E-01
       -1   -1    0    0    0  501  0.00000000000E+00  0.00000000000E+00  0.28137965449E+04  0.28137965449E+04  0.50400001928E-02 0. -1.
        1   -1    0    0  501    0  0.00000000000E+00  0.00000000000E+00 -0.91312805031E+03  0.91312805032E+03  0.50400001928E-02 0.  1.
    10030    2    1    2    0    0  0.00000000000E+00  0.00000000000E+00  0.19006684946E+04  0.37269245952E+04  0.32058425120E+04 0.  0.
        1    1    3    3  502    0 -0.17116605149E+02 -0.57895234043E+03  0.26878875038E+04  0.27495850640E+04  0.50400001928E-02 0. -1.
       -1    1    3    3    0  502  0.17116605149E+02  0.57895234043E+03 -0.78721900929E+03  0.97733953121E+03  0.50400001928E-02 0.  1.
</event>
<event>
 5   0  0.1270948E-07  0.3220181E+04  0.7818609E-02  0.8183508E-01
        1   -1    0    0  501    0  0.00000000000E+00  0.00000000000E+00  0.13367391610E+04  0.13367391610E+04  0.50400001928E-02 0. -1.
       -1   -1    0    0    0  501  0.00000000000E+00  0.00000000000E+00 -0.19393402662E+04  0.19393402662E+04  0.50400001928E-02 0.  1.
    10030    2    1    2    0    0  0.00000000000E+00  0.00000000000E+00 -0.60260110527E+03  0.32760794272E+04  0.32201814113E+04 0.  0.
        4    1    3    3  502    0 -0.52273315017E+03  0.81730000452E+03 -0.16085811768E+04  0.18785005347E+04  0.12699999809E+01 0.  1.
       -4    1    3    3    0  502  0.52273315017E+03 -0.81730000452E+03  0.10059800715E+04  0.13975788925E+04  0.12699999809E+01 0. -1.
</event>
<event>
 5   0  0.3830207E-07  0.3199708E+04  0.7818609E-02  0.8188894E-01
        2   -1    0    0  501    0  0.00000000000E+00  0.00000000000E+00  0.20263922034E+04  0.20263922034E+04  0.25500000920E-02 0. -1.
       -2   -1    0    0    0  501  0.00000000000E+00  0.00000000000E+00 -0.12630981713E+04  0.12630981713E+04  0.25500000920E-02 0.  1.
    10030    2    1    2    0    0  0.00000000000E+00  0.00000000000E+00  0.76329403218E+03  0.32894903747E+04  0.31997076656E+04 0.  0.
        4    1    3    3  502    0 -0.12095801367E+03  0.78637775363E+02 -0.12563962643E+04  0.12646532831E+04  0.12699999809E+01 0.  1.
       -4    1    3    3    0  502  0.12095801367E+03 -0.78637775363E+02  0.20196902965E+04  0.20248370915E+04  0.12699999809E+01 0. -1.
</event>
<event>
 5   0  0.3942564E-07  0.3102559E+04  0.7818609E-02  0.8215036E-01
       -2   -1    0    0    0  501  0.00000000000E+00  0.00000000000E+00  0.23061097187E+04  0.23061097187E+04  0.25500000920E-02 0. -1.
        2   -1    0    0  501    0  0.00000000000E+00  0.00000000000E+00 -0.10435184274E+04  0.10435184274E+04  0.25500000920E-02 0.  1.
    10030    2    1    2    0    0  0.00000000000E+00  0.00000000000E+00  0.12625912913E+04  0.33496281461E+04  0.31025589355E+04 0.  0.
        3    1    3    3  502    0  0.10438616084E+04  0.20605998211E+03 -0.58747688529E+03  0.12154163380E+04  0.10100000352E+00 0.  1.
       -3    1    3    3    0  502 -0.10438616084E+04 -0.20605998211E+03  0.18500681765E+04  0.21342118081E+04  0.10100000352E+00 0. -1.
</event>
<event>
 5   0  0.1270948E-07  0.3203684E+04  0.7818609E-02  0.8187845E-01
       -1   -1    0    0    0  501  0.00000000000E+00  0.00000000000E+00  0.15314658994E+04  0.15314658994E+04  0.50400001928E-02 0.  1.
        1   -1    0    0  501    0  0.00000000000E+00  0.00000000000E+00 -0.16754522075E+04  0.16754522075E+04  0.50400001928E-02 0. -1.
    10030    2    1    2    0    0  0.00000000000E+00  0.00000000000E+00 -0.14398630806E+03  0.32069181069E+04  0.32036840805E+04 0.  0.
        4    1    3    3  502    0 -0.98054389835E+03 -0.11219428894E+04  0.51654093468E+03  0.15770346648E+04  0.12699999809E+01 0.  1.
       -4    1    3    3    0  502  0.98054389835E+03  0.11219428894E+04 -0.66052724274E+03  0.16298834422E+04  0.12699999809E+01 0. -1.
</event>
<event>
 5   0  0.3764056E-07  0.3191125E+04  0.7818609E-02  0.8191165E-01
       -2   -1    0    0    0  501  0.00000000000E+00  0.00000000000E+00  0.14557923481E+04  0.14557923481E+04  0.25500000920E-02 0.  1.
        2   -1    0    0  501    0  0.00000000000E+00  0.00000000000E+00 -0.17487514354E+04  0.17487514354E+04  0.25500000920E-02 0. -1.
    10030    2    1    2    0    0  0.00000000000E+00  0.00000000000E+00 -0.29295908729E+03  0.32045437836E+04  0.31911245407E+04 0.  0.
        5    1    3    3  502    0 -0.66069553840E+03 -0.12452390137E+04  0.60409787651E+03  0.15336541756E+04  0.46999998093E+01 0.  1.
       -5    1    3    3    0  502  0.66069553840E+03  0.12452390137E+04 -0.89705696379E+03  0.16708896080E+04  0.46999998093E+01 0. -1.
</event>
<event>
 5   0  0.3942564E-07  0.3201329E+04  0.7818609E-02  0.8188466E-01
        2   -1    0    0  501    0  0.00000000000E+00  0.00000000000E+00  0.15319265392E+04  0.15319265392E+04  0.25500000920E-02 0.  1.
       -2   -1    0    0    0  501  0.00000000000E+00  0.00000000000E+00 -0.16724865662E+04  0.16724865662E+04  0.25500000920E-02 0. -1.
    10030    2    1    2    0    0  0.00000000000E+00  0.00000000000E+00 -0.14056002699E+03  0.32044131054E+04  0.32013288224E+04 0.  0.
        3    1    3    3  502    0 -0.29726875853E+01 -0.47972893043E+03  0.14582727209E+04  0.15351573282E+04  0.10100000352E+00 0.  1.
       -3    1    3    3    0  502  0.29726875853E+01  0.47972893043E+03 -0.15988327479E+04  0.16692557772E+04  0.10100000352E+00 0. -1.
</event>
<event>
 5   0  0.3830207E-07  0.3202225E+04  0.7818609E-02  0.8188230E-01
       -2   -1    0    0    0  501  0.00000000000E+00  0.00000000000E+00  0.18608464993E+04  0.18608464993E+04  0.25500000920E-02 0. -1.
        2   -1    0    0  501    0  0.00000000000E+00  0.00000000000E+00 -0.13776319630E+04  0.13776319630E+04  0.25500000920E-02 0.  1.
    10030    2    1    2    0    0  0.00000000000E+00  0.00000000000E+00  0.48321453624E+03  0.32384784623E+04  0.32022252361E+04 0.  0.
        4    1    3    3  502    0 -0.10947748422E+02  0.21815769897E+03  0.18457066894E+04  0.18585874828E+04  0.12699999809E+01 0. -1.
       -4    1    3    3    0  502  0.10947748422E+02 -0.21815769897E+03 -0.13624921532E+04  0.13798909795E+04  0.12699999809E+01 0.  1.
</event>
<event>
 5   0  0.3858721E-07  0.3200197E+04  0.7818609E-02  0.8188765E-01
        2   -1    0    0  501    0  0.00000000000E+00  0.00000000000E+00  0.20558150575E+04  0.20558150575E+04  0.25500000920E-02 0.  1.
       -2   -1    0    0    0  501  0.00000000000E+00  0.00000000000E+00 -0.12454012114E+04  0.12454012114E+04  0.25500000920E-02 0. -1.
    10030    2    1    2    0    0  0.00000000000E+00  0.00000000000E+00  0.81041384609E+03  0.33012162688E+04  0.32001965958E+04 0.  0.
        2    1    3    3  502    0 -0.10897029295E+04 -0.10595825994E+04 -0.11072784645E+03  0.15239515791E+04  0.25500000920E-02 0.  1.
       -2    1    3    3    0  502  0.10897029295E+04  0.10595825994E+04  0.92114169254E+03  0.17772646897E+04  0.25500000920E-02 0. -1.
</event>
<event>
 5   0  0.3858721E-07  0.3193886E+04  0.7818609E-02  0.8190434E-01
        2   -1    0    0  501    0  0.00000000000E+00  0.00000000000E+00  0.85544135690E+03  0.85544135690E+03  0.25500000920E-02 0.  1.
       -2   -1    0    0    0  501  0.00000000000E+00  0.00000000000E+00 -0.29811822358E+04  0.29811822358E+04  0.25500000920E-02 0. -1.
    10030    2    1    2    0    0  0.00000000000E+00  0.00000000000E+00 -0.21257408789E+04  0.38366235927E+04  0.31938857694E+04 0.  0.
        2    1    3    3  502    0  0.11092268321E+04  0.29612782913E+03  0.27053349252E+03  0.11795186420E+04  0.25500000920E-02 0. -1.
       -2    1    3    3    0  502 -0.11092268321E+04 -0.29612782913E+03 -0.23962743714E+04  0.26571049508E+04  0.25500000920E-02 0.  1.
</event>
<event>
 5   0  0.3858721E-07  0.3200302E+04  0.7818609E-02  0.8188737E-01
       -2   -1    0    0    0  501  0.00000000000E+00  0.00000000000E+00  0.11848794058E+04  0.11848794058E+04  0.25500000920E-02 0. -1.
        2   -1    0    0  501    0  0.00000000000E+00  0.00000000000E+00 -0.21609652821E+04  0.21609652821E+04  0.25500000920E-02 0.  1.
    10030    2    1    2    0    0  0.00000000000E+00  0.00000000000E+00 -0.97608587633E+03  0.33458446879E+04  0.32003020229E+04 0.  0.
        2    1    3    3  502    0 -0.86810361452E+03  0.13163208848E+04 -0.77278683644E+03  0.17559909031E+04  0.25500000920E-02 0.  1.
       -2    1    3    3    0  502  0.86810361452E+03 -0.13163208848E+04 -0.20329903989E+03  0.15898537848E+04  0.25500000920E-02 0. -1.
</event>
<event>
 5   0  0.3942564E-07  0.3206658E+04  0.7818609E-02  0.8187061E-01
        2   -1    0    0  501    0  0.00000000000E+00  0.00000000000E+00  0.95346428220E+03  0.95346428221E+03  0.25500000920E-02 0. -1.
       -2   -1    0    0    0  501  0.00000000000E+00  0.00000000000E+00 -0.26961294235E+04  0.26961294235E+04  0.25500000920E-02 0.  1.
    10030    2    1    2    0    0  0.00000000000E+00  0.00000000000E+00 -0.17426651413E+04  0.36495937057E+04  0.32066575155E+04 0.  0.
        3    1    3    3  502    0 -0.65169957706E+03 -0.81624771679E+03  0.51311773724E+03  0.11637278446E+04  0.10100000352E+00 0. -1.
       -3    1    3    3    0  502  0.65169957706E+03  0.81624771679E+03 -0.22557828785E+04  0.24858658610E+04  0.10100000352E+00 0.  1.
</event>
<event>
 5   0  0.3830207E-07  0.3190384E+04  0.7818609E-02  0.8191361E-01
       -2   -1    0    0    0  501  0.00000000000E+00  0.00000000000E+00  0.88122415404E+03  0.88122415404E+03  0.25500000920E-02 0. -1.
        2   -1    0    0  501    0  0.00000000000E+00  0.00000000000E+00 -0.28876159193E+04  0.28876159193E+04  0.25500000920E-02 0.  1.
    10030    2    1    2    0    0  0.00000000000E+00  0.00000000000E+00 -0.20063917653E+04  0.37688400733E+04  0.31903836106E+04 0.  0.
        4    1    3    3  502    0 -0.43508170795E+03  0.72928702972E+03  0.59200455509E+03  0.10351940255E+04  0.12699999809E+01 0. -1.
       -4    1    3    3    0  502  0.43508170795E+03 -0.72928702972E+03 -0.25983963203E+04  0.27336460478E+04  0.12699999809E+01 0.  1.
</event>
<event>
 5   0  0.3750285E-07  0.3191167E+04  0.7818609E-02  0.8191154E-01
       -2   -1    0    0    0  501  0.00000000000E+00  0.00000000000E+00  0.13075341424E+04  0.13075341424E+04  0.25500000920E-02 0.  1.
        2   -1    0    0  501    0  0.00000000000E+00  0.00000000000E+00 -0.19470902274E+04  0.19470902274E+04  0.25500000920E-02 0. -1.
    10030    2    1    2    0    0  0.00000000000E+00  0.00000000000E+00 -0.63955608507E+03  0.32546243698E+04  0.31911671537E+04 0.  0.
        1    1    3    3  502    0  0.13210102279E+04 -0.79900048772E+03  0.91246032150E+02  0.15465431258E+04  0.50400001928E-02 0.  1.
       -1    1    3    3    0  502 -0.13210102279E+04  0.79900048772E+03 -0.73080211722E+03  0.17080812440E+04  0.50400001928E-02 0. -1.
</event>
<event>
 5   0  0.1317293E-07  0.3202346E+04  0.7818609E-02  0.8188198E-01
       -1   -1    0    0    0  501  0.00000000000E+00  0.00000000000E+00  0.22414151278E+04  0.22414151278E+04  0.50400001928E-02 0. -1.
        1   -1    0    0  501    0  0.00000000000E+00  0.00000000000E+00 -0.11438107611E+04  0.11438107611E+04  0.50400001928E-02 0.  1.
    10030    2    1    2    0    0  0.00000000000E+00  0.00000000000E+00  0.10976043667E+04  0.33852258889E+04  0.32023458546E+04 0.  0.
        1    1    3    3  502    0  0.80226149089E+03 -0.22528670658E+03  0.19941350667E+04  0.21612385949E+04  0.50400001928E-02 0. -1.
       -1    1    3    3    0  502 -0.80226149089E+03  0.22528670658E+03 -0.89653069991E+03  0.12239872940E+04  0.50400001928E-02 0.  1.
</event>
<event>
 5   0  0.1365455E-07  0.3183882E+04  0.7818609E-02  0.8193087E-01
       -1   -1    0    0    0  501  0.00000000000E+00  0.00000000000E+00  0.12266522103E+04  0.12266522103E+04  0.50400001928E-02 0.  1.
        1   -1    0    0  501    0  0.00000000000E+00  0.00000000000E+00 -0.20660109423E+04  0.20660109423E+04  0.50400001928E-02 0. -1.
    10030    2    1    2    0    0  0.00000000000E+00  0.00000000000E+00 -0.83935873202E+03  0.32926631525E+04  0.31838824657E+04 0.  0.
        3    1    3    3  502    0  0.64324698269E+03  0.14537888584E+04 -0.33310445331E+03  0.16242620825E+04  0.10100000352E+00 0.  1.
       -3    1    3    3    0  502 -0.64324698269E+03 -0.14537888584E+04 -0.50625427871E+03  0.16684010700E+04  0.10100000352E+00 0. -1.
</event>
<event>
 5   0  0.1317293E-07  0.3228577E+04  0.7818609E-02  0.8181311E-01
        1   -1    0    0  501    0  0.00000000000E+00  0.00000000000E+00  0.18509973595E+04  0.18509973595E+04  0.50400001928E-02 0. -1.
       -1   -1    0    0    0  501  0.00000000000E+00  0.00000000000E+00 -0.14078502120E+04  0.14078502121E+04  0.50400001928E-02 0.  1.
    10030    2    1    2    0    0  0.00000000000E+00  0.00000000000E+00  0.44314714744E+03  0.32588475715E+04  0.32285767918E+04 0.  0.
        1    1    3    3  502    0  0.13284887516E+04  0.88350427092E+03  0.46977511354E+03  0.16631749208E+04  0.50400001928E-02 0.  1.
       -1    1    3    3    0  502 -0.13284887516E+04 -0.88350427092E+03 -0.26627966094E+02  0.15956726508E+04  0.50400001928E-02 0. -1.
</event>
<event>
 5   0  0.3830207E-07  0.3201850E+04  0.7818609E-02  0.8188329E-01
       -2   -1    0    0    0  501  0.00000000000E+00  0.00000000000E+00  0.11316034573E+04  0.11316034573E+04  0.25500000920E-02 0.  1.
        2   -1    0    0  501    0  0.00000000000E+00  0.00000000000E+00 -0.22648933242E+04  0.22648933242E+04  0.25500000920E-02 0. -1.
    10030    2    1    2    0    0  0.00000000000E+00  0.00000000000E+00 -0.11332898669E+04  0.33964967816E+04  0.32018501627E+04 0.  0.
        4    1    3    3  502    0  0.11497744247E+03 -0.75571049042E+03 -0.20587992616E+04  0.21961270843E+04  0.12699999809E+01 0. -1.
       -4    1    3    3    0  502 -0.11497744247E+03  0.75571049042E+03  0.92550939470E+03  0.12003696973E+04  0.12699999809E+01 0.  1.
</event>
<event>
 5   0  0.3858721E-07  0.3202700E+04  0.7818609E-02  0.8188105E-01
       -2   -1    0    0    0  501  0.00000000000E+00  0.00000000000E+00  0.10406887754E+04  0.10406887754E+04  0.25500000920E-02 0.  1.
        2   -1    0    0  501    0  0.00000000000E+00  0.00000000000E+00 -0.24640617053E+04  0.24640617053E+04  0.25500000920E-02 0. -1.
    10030    2    1    2    0    0  0.00000000000E+00  0.00000000000E+00 -0.14233729299E+04  0.35047504806E+04  0.32026997103E+04 0.  0.
        2    1    3    3  502    0 -0.96047699743E+03  0.75932034883E+03  0.41775619961E+03  0.12936783592E+04  0.25500000920E-02 0.  1.
       -2    1    3    3    0  502  0.96047699743E+03 -0.75932034883E+03 -0.18411291295E+04  0.22110721214E+04  0.25500000920E-02 0. -1.
</event>
<event>
 5   0  0.3858721E-07  0.3181134E+04  0.7818609E-02  0.8193818E-01
        2   -1    0    0  501    0  0.00000000000E+00  0.00000000000E+00  0.14090804855E+04  0.14090804855E+04  0.25500000920E-02 0. -1.
       -2   -1    0    0    0  501  0.00000000000E+00  0.00000000000E+00 -0.17954283799E+04  0.17954283799E+04  0.25500000920E-02 0.  1.
    10030    2    1    2    0    0  0.00000000000E+00  0.00000000000E+00 -0.38634789438E+03  0.32045088653E+04  0.31811338187E+04 0.  0.
        2    1    3    3  502    0 -0.13969769939E+04  0.24779287281E+02  0.57250621546E+03  0.15099410920E+04  0.25500000920E-02 0. -1.
       -2    1    3    3    0  502  0.13969769939E+04 -0.24779287281E+02 -0.95885410984E+03  0.16945677733E+04  0.25500000920E-02 0.  1.
</event>
<event>
 5   0  0.3750285E-07  0.3194996E+04  0.7818609E-02  0.8190140E-01
       -2   -1    0    0    0  501  0.00000000000E+00  0.00000000000E+00  0.13271491786E+04  0.13271491786E+04  0.25500000920E-02 0.  1.
        2   -1    0    0  501    0  0.00000000000E+00  0.00000000000E+00 -0.19229183416E+04  0.19229183416E+04  0.25500000920E-02 0. -1.
    10030    2    1    2    0    0  0.00000000000E+00  0.00000000000E+00 -0.59576916294E+03  0.32500675202E+04  0.31949957731E+04 0.  0.
        1    1    3    3  502    0  0.58452336603E+03  0.14108487359E+04  0.17906586202E+03  0.15376040791E+04  0.50400001928E-02 0.  1.
       -1    1    3    3    0  502 -0.58452336603E+03 -0.14108487359E+04 -0.77483502496E+03  0.17124634411E+04  0.50400001928E-02 0. -1.
</event>
<event>
 5   0  0.3764056E-07  0.3203446E+04  0.7818609E-02  0.8187908E-01
       -2   -1    0    0    0  501  0.00000000000E+00  0.00000000000E+00  0.11566177703E+04  0.11566177703E+04  0.25500000920E-02 0. -1.
        2   -1    0    0  501    0  0.00000000000E+00  0.00000000000E+00 -0.22181194399E+04  0.22181194399E+04  0.25500000920E-02 0.  1.
    10030    2    1    2    0    0  0.00000000000E+00  0.00000000000E+00 -0.10615016696E+04  0.33747372102E+04  0.32034458702E+04 0.  0.
        5    1    3    3  502    0 -0.54053758458E+03  0.14735836390E+04 -0.86697917554E+03  0.17931270458E+04  0.46999998093E+01 0.  1.
       -5    1    3    3    0  502  0.54053758458E+03 -0.14735836390E+04 -0.19452249405E+03  0.15816101644E+04  0.46999998093E+01 0. -1.
</event>
<event>
 5   0  0.1288096E-07  0.3203187E+04  0.7818609E-02  0.8187976E-01
       -1   -1    0    0    0  501  0.00000000000E+00  0.00000000000E+00  0.12818665113E+04  0.12818665113E+04  0.50400001928E-02 0. -1.
        1   -1    0    0  501    0  0.00000000000E+00  0.00000000000E+00 -0.20010676773E+04  0.20010676774E+04  0.50400001928E-02 0.  1.
    10030    2    1    2    0    0  0.00000000000E+00  0.00000000000E+00 -0.71920116604E+03  0.32829341887E+04  0.32031869396E+04 0.  0.
        2    1    3    3  502    0 -0.44070647417E+01 -0.43481198385E+03 -0.19394111232E+04  0.19875604113E+04  0.25500000920E-02 0.  1.
       -2    1    3    3    0  502  0.44070647417E+01  0.43481198385E+03  0.12202099572E+04  0.12953737774E+04  0.25500000920E-02 0. -1.
</event>
<event>
 5   0  0.1365455E-07  0.3211811E+04  0.7818609E-02  0.8185705E-01
       -1   -1    0    0    0  501  0.00000000000E+00  0.00000000000E+00  0.82412274881E+03  0.82412274882E+03  0.50400001928E-02 0. -1.
        1   -1    0    0  501    0  0.00000000000E+00  0.00000000000E+00 -0.31293070035E+04  0.31293070035E+04  0.50400001928E-02 0.  1.
    10030    2    1    2    0    0  0.00000000000E+00  0.00000000000E+00 -0.23051842547E+04  0.39534297523E+04  0.32118113828E+04 0.  0.
        3    1    3    3  502    0 -0.82746997730E+03  0.12136859721E+04 -0.35374348310E+03  0.15109184837E+04  0.10100000352E+00 0.  1.
       -3    1    3    3    0  502  0.82746997730E+03 -0.12136859721E+04 -0.19514407716E+04  0.24425112687E+04  0.10100000352E+00 0. -1.
</event>
<event>
 5   0  0.1317293E-07  0.3188237E+04  0.7818609E-02  0.8191931E-01
        1   -1    0    0  501    0  0.00000000000E+00  0.00000000000E+00  0.16590238519E+04  0.16590238519E+04  0.50400001928E-02 0.  1.
       -1   -1    0    0    0  501  0.00000000000E+00  0.00000000000E+00 -0.15317525635E+04  0.15317525635E+04  0.50400001928E-02 0. -1.
    10030    2    1    2    0    0  0.00000000000E+00  0.00000000000E+00  0.12727128845E+03  0.31907764154E+04  0.31882371543E+04 0.  0.
        1    1    3    3  502    0 -0.95067939605E+03  0.55149627426E+03 -0.10919590916E+04  0.15492947145E+04  0.50400001928E-02 0. -1.
       -1    1    3    3    0  502  0.95067939605E+03 -0.55149627426E+03  0.12192303801E+04  0.16414817009E+04  0.50400001928E-02 0.  1.
</event>
<event>
 5   0  0.1288096E-07  0.3189629E+04  0.7818609E-02  0.8191561E-01
       -1   -1    0    0    0  501  0.00000000000E+00  0.00000000000E+00  0.13085365226E+04  0.13085365226E+04  0.50400001928E-02 0. -1.
        1   -1    0    0  501    0  0.00000000000E+00  0.00000000000E+00 -0.19437240806E+04  0.19437240806E+04  0.50400001928E-02 0.  1.
    10030    2    1    2    0    0  0.00000000000E+00  0.00000000000E+00 -0.63518755804E+03  0.32522606032E+04  0.31896294138E+04 0.  0.
        2    1    3    3  502    0  0.12052699755E+04 -0.85378647256E+03 -0.93090869918E+03  0.17459146774E+04  0.25500000920E-02 0.  1.
       -2    1    3    3    0  502 -0.12052699755E+04  0.85378647256E+03  0.29572114113E+03  0.15063459257E+04  0.25500000920E-02 0. -1.
</event>
<event>
 5   0  0.3942564E-07  0.3199654E+04  0.7818609E-02  0.8188909E-01
       -2   -1    0    0    0  501  0.00000000000E+00  0.00000000000E+00  0.12402154203E+04  0.12402154203E+04  0.25500000920E-02 0. -1.
        2   -1    0    0  501    0  0.00000000000E+00  0.00000000000E+00 -0.20637108789E+04  0.20637108789E+04  0.25500000920E-02 0.  1.
    10030    2    1    2    0    0  0.00000000000E+00  0.00000000000E+00 -0.82349545861E+03  0.33039262992E+04  0.31996537656E+04 0.  0.
        3    1    3    3  502    0  0.20971496848E+03 -0.37817490877E+03 -0.20022190623E+04  0.20483841957E+04  0.10100000352E+00 0.  1.
       -3    1    3    3    0  502 -0.20971496848E+03  0.37817490877E+03  0.11787236036E+04  0.12555421035E+04  0.10100000352E+00 0. -1.
</event>
<event>
 5   0  0.1288096E-07  0.3199165E+04  0.7818609E-02  0.8189038E-01
        1   -1    0    0  501    0  0.00000000000E+00  0.00000000000E+00  0.12425807402E+04  0.12425807402E+04  0.50400001928E-02 0. -1.
       -1   -1    0    0    0  501  0.00000000000E+00  0.00000000000E+00 -0.20591536400E+04  0.20591536400E+04  0.50400001928E-02 0.  1.
    10030    2    1    2    0    0  0.00000000000E+00  0.00000000000E+00 -0.81657289984E+03  0.33017343802E+04  0.31991653000E+04 0.  0.
        2    1    3    3  502    0 -0.46156181344E+03  0.29909048090E+03  0.11419265828E+04  0.12674741591E+04  0.25500000920E-02 0. -1.
       -2    1    3    3    0  502  0.46156181344E+03 -0.29909048090E+03 -0.19584994827E+04  0.20342602211E+04  0.25500000920E-02 0.  1.
</event>
<event>
 5   0  0.3764056E-07  0.3199464E+04  0.7818609E-02  0.8188959E-01
       -2   -1    0    0    0  501  0.00000000000E+00  0.00000000000E+00  0.21601602304E+04  0.21601602304E+04  0.25500000920E-02 0.  1.
        2   -1    0    0  501    0  0.00000000000E+00  0.00000000000E+00 -0.11847004850E+04  0.11847004850E+04  0.25500000920E-02 0. -1.
    10030    2    1    2    0    0  0.00000000000E+00  0.00000000000E+00  0.97545974536E+03  0.33448607154E+04  0.31994642506E+04 0.  0.
        5    1    3    3  502    0  0.26912467265E+03 -0.31893227862E+02  0.21359795263E+04  0.21531084260E+04  0.46999998093E+01 0.  1.
       -5    1    3    3    0  502 -0.26912467265E+03  0.31893227862E+02 -0.11605197809E+04  0.11917522894E+04  0.46999998093E+01 0. -1.
</event>
<event>
 5   0  0.3750285E-07  0.3198357E+04  0.7818609E-02  0.8189251E-01
       -2   -1    0    0    0  501  0.00000000000E+00  0.00000000000E+00  0.13462257569E+04  0.13462257569E+04  0.25500000920E-02 0. -1.
        2   -1    0    0  501    0  0.00000000000E+00  0.00000000000E+00 -0.18996600502E+04  0.18996600502E+04  0.25500000920E-02 0.  1.
    10030    2    1    2    0    0  0.00000000000E+00  0.00000000000E+00 -0.55343429328E+03  0.32458858071E+04  0.31983566336E+04 0.  0.
        1    1    3    3  502    0 -0.43358073395E+03 -0.10505095073E+04  0.86508381883E+03  0.14282620528E+04  0.50400001928E-02 0. -1.
       -1    1    3    3    0  502  0.43358073395E+03  0.10505095073E+04 -0.14185181121E+04  0.18176237543E+04  0.50400001928E-02 0.  1.
</event>
<event>
 5   0  0.1277374E-07  0.3213948E+04  0.7818609E-02  0.8185143E-01
        1   -1    0    0  501    0  0.00000000000E+00  0.00000000000E+00  0.22918206813E+04  0.22918206813E+04  0.50400001928E-02 0.  1.
       -1   -1    0    0    0  501  0.00000000000E+00  0.00000000000E+00 -0.11267747671E+04  0.11267747671E+04  0.50400001928E-02 0. -1.
    10030    2    1    2    0    0  0.00000000000E+00  0.00000000000E+00  0.11650459142E+04  0.34185954484E+04  0.32139481728E+04 0.  0.
        5    1    3    3  502    0  0.56091712745E+03 -0.52604710249E+03 -0.91834810900E+03  0.11978058763E+04  0.46999998093E+01 0. -1.
       -5    1    3    3    0  502 -0.56091712745E+03  0.52604710249E+03  0.20833940232E+04  0.22207895721E+04  0.46999998093E+01 0.  1.
</event>
<event>
 5   0  0.1365455E-07  0.3197893E+04  0.7818609E-02  0.8189374E-01
        1   -1    0    0  501    0  0.00000000000E+00  0.00000000000E+00  0.17475891911E+04  0.17475891911E+04  0.50400001928E-02 0.  1.
       -1   -1    0    0    0  501  0.00000000000E+00  0.00000000000E+00 -0.14629464047E+04  0.14629464047E+04  0.50400001928E-02 0. -1.
    10030    2    1    2    0    0  0.00000000000E+00  0.00000000000E+00  0.28464278636E+03  0.32105355958E+04  0.31978926336E+04 0.  0.
        3    1    3    3  502    0  0.73069881842E+03 -0.73994434943E+03  0.13616976227E+04  0.17133764412E+04  0.10100000352E+00 0.  1.
       -3    1    3    3    0  502 -0.73069881842E+03  0.73994434943E+03 -0.10770548363E+04  0.14971591546E+04  0.10100000352E+00 0. -1.
</event>
<event>
 5   0  0.1317293E-07  0.3199401E+04  0.7818609E-02  0.8188975E-01
       -1   -1    0    0    0  501  0.00000000000E+00  0.00000000000E+00  0.20618687028E+04  0.20618687028E+04  0.50400001928E-02 0.  1.
        1   -1    0    0  501    0  0.00000000000E+00  0.00000000000E+00 -0.12411276720E+04  0.12411276720E+04  0.50400001928E-02 0. -1.
    10030    2    1    2    0    0  0.00000000000E+00  0.00000000000E+00  0.82074103075E+03  0.33029963748E+04  0.31994013834E+04 0.  0.
        1    1    3    3  502    0 -0.35330715767E+01  0.14207439344E+04 -0.34863309897E+03  0.14628980988E+04  0.50400001928E-02 0. -1.
       -1    1    3    3    0  502  0.35330715767E+01 -0.14207439344E+04  0.11693741297E+04  0.18400982759E+04  0.50400001928E-02 0.  1.
</event>
<event>
 5   0  0.1277374E-07  0.3199217E+04  0.7818609E-02  0.8189024E-01
       -1   -1    0    0    0  501  0.00000000000E+00  0.00000000000E+00  0.18358172153E+04  0.18358172153E+04  0.50400001928E-02 0. -1.
        1   -1    0    0  501    0  0.00000000000E+00  0.00000000000E+00 -0.13937920489E+04  0.13937920489E+04  0.50400001928E-02 0.  1.
    10030    2    1    2    0    0  0.00000000000E+00  0.00000000000E+00  0.44202516640E+03  0.32296092642E+04  0.31992170529E+04 0.  0.
        5    1    3    3  502    0 -0.14140066621E+03  0.49989482476E+02 -0.13866717756E+04  0.13947665754E+04  0.46999998093E+01 0.  1.
       -5    1    3    3    0  502  0.14140066621E+03 -0.49989482476E+02  0.18286969420E+04  0.18348426887E+04  0.46999998093E+01 0. -1.
</event>
<event>
 5   0  0.3858721E-07  0.3206201E+04  0.7818609E-02  0.8187182E-01
        2   -1    0    0  501    0  0.00000000000E+00  0.00000000000E+00  0.15436635090E+04  0.15436635090E+04  0.25500000920E-02 0.  1.
       -2   -1    0    0    0  501  0.00000000000E+00  0.00000000000E+00 -0.16648255435E+04  0.16648255435E+04  0.25500000920E-02 0. -1.
    10030    2    1    2    0    0  0.00000000000E+00  0.00000000000E+00 -0.12116203450E+03  0.32084890525E+04  0.32062005180E+04 0.  0.
        2    1    3    3  502    0  0.30138004502E+03 -0.10144015220E+04  0.11444753723E+04  0.15587380335E+04  0.25500000920E-02 0.  1.
       -2    1    3    3    0  502 -0.30138004502E+03  0.10144015220E+04 -0.12656374068E+04  0.16497510190E+04  0.25500000920E-02 0. -1.
</event>
<event>
 5   0  0.1288096E-07  0.3200270E+04  0.7818609E-02  0.8188746E-01
       -1   -1    0    0    0  501  0.00000000000E+00  0.00000000000E+00  0.10592797171E+04  0.10592797172E+04  0.50400001928E-02 0.  1.
        1   -1    0    0  501    0  0.00000000000E+00  0.00000000000E+00 -0.24171437913E+04  0.24171437913E+04  0.50400001928E-02 0. -1.
    10030    2    1    2    0    0  0.00000000000E+00  0.00000000000E+00 -0.13578640742E+04  0.34764235085E+04  0.32002696084E+04 0.  0.
        2    1    3    3  502    0  0.14206647911E+04  0.64249877517E+03 -0.28826242685E+03  0.15856192328E+04  0.25500000920E-02 0. -1.
       -2    1    3    3    0  502 -0.14206647911E+04 -0.64249877517E+03 -0.10696016473E+04  0.18908042756E+04  0.25500000920E-02 0.  1.
</event>
<event>
 5   0  0.3764056E-07  0.3201365E+04  0.7818609E-02  0.8188457E-01
       -2   -1    0    0    0  501  0.00000000000E+00  0.00000000000E+00  0.23666358276E+04  0.23666358276E+04  0.25500000920E-02 0.  1.
        2   -1    0    0  501    0  0.00000000000E+00  0.00000000000E+00 -0.10826274659E+04  0.10826274659E+04  0.25500000920E-02 0. -1.
    10030    2    1    2    0    0  0.00000000000E+00  0.00000000000E+00  0.12840083617E+04  0.34492632934E+04  0.32013653016E+04 0.  0.
        5    1    3    3  502    0  0.71565245528E+03  0.54135822576E+03  0.20701384688E+04  0.22562629579E+04  0.46999998093E+01 0.  1.
       -5    1    3    3    0  502 -0.71565245528E+03 -0.54135822576E+03 -0.78613010705E+03  0.11930003355E+04  0.46999998093E+01 0. -1.
</event>
<event>
 5   0  0.1317293E-07  0.3202928E+04  0.7818609E-02  0.8188044E-01
        1   -1    0    0  501    0  0.00000000000E+00  0.00000000000E+00  0.18793068750E+04  0.18793068750E+04  0.50400001928E-02 0. -1.
       -1   -1    0    0    0  501  0.00000000000E+00  0.00000000000E+00 -0.13646985028E+04  0.13646985028E+04  0.50400001928E-02 0.  1.
    10030    2    1    2    0    0  0.00000000000E+00  0.00000000000E+00  0.51460837226E+03  0.32440053778E+04  0.32029282094E+04 0.  0.
        1    1    3    3  502    0 -0.61235628426E+03 -0.11563032222E+04  0.11925479731E+04  0.17703638125E+04  0.50400001928E-02 0. -1.
       -1    1    3    3    0  502  0.61235628426E+03  0.11563032222E+04 -0.67793960082E+03  0.14736415653E+04  0.50400001928E-02 0.  1.
</event>
<event>
 5   0  0.3942564E-07  0.3206637E+04  0.7818609E-02  0.8187067E-01
        2   -1    0    0  501    0  0.00000000000E+00  0.00000000000E+00  0.25183786314E+04  0.25183786314E+04  0.25500000920E-02 0.  1.
       -2   -1    0    0    0  501  0.00000000000E+00  0.00000000000E+00 -0.10207481637E+04  0.10207481637E+04  0.25500000920E-02 0. -1.
    10030    2    1    2    0    0  0.00000000000E+00  0.00000000000E+00  0.14976304676E+04  0.35391267951E+04  0.32066370942E+04 0.  0.
        3    1    3    3  502    0 -0.34210675561E+03 -0.12398325992E+04  0.18053671741E+04  0.22166579686E+04  0.10100000352E+00 0.  1.
       -3    1    3    3    0  502  0.34210675561E+03  0.12398325992E+04 -0.30773670643E+03  0.13224688265E+04  0.10100000352E+00 0. -1.
</event>
<event>
 5   0  0.3764056E-07  0.3185247E+04  0.7818609E-02  0.8192724E-01
        2   -1    0    0  501    0  0.00000000000E+00  0.00000000000E+00  0.29244985378E+04  0.29244985378E+04  0.25500000920E-02 0.  1.
       -2   -1    0    0    0  501  0.00000000000E+00  0.00000000000E+00 -0.86731079139E+03  0.86731079139E+03  0.25500000920E-02 0. -1.
    10030    2    1    2    0    0  0.00000000000E+00  0.00000000000E+00  0.20571877464E+04  0.37918093292E+04  0.31852467040E+04 0.  0.
        5    1    3    3  502    0  0.11785219223E+04 -0.36374458817E+02  0.23030700704E+04  0.25873520947E+04  0.46999998093E+01 0.  1.
       -5    1    3    3    0  502 -0.11785219223E+04  0.36374458817E+02 -0.24588232398E+03  0.12044572345E+04  0.46999998093E+01 0. -1.
</event>
<event>
 5   0  0.3764056E-07  0.3199414E+04  0.7818609E-02  0.8188972E-01
        2   -1    0    0  501    0  0.00000000000E+00  0.00000000000E+00  0.15422032740E+04  0.15422032740E+04  0.25500000920E-02 0.  1.
       -2   -1    0    0    0  501  0.00000000000E+00  0.00000000000E+00 -0.16593553171E+04  0.16593553171E+04  0.25500000920E-02 0. -1.
    10030    2    1    2    0    0  0.00000000000E+00  0.00000000000E+00 -0.11715204313E+03  0.32015585911E+04  0.31994144482E+04 0.  0.
        5    1    3    3  502    0 -0.48415040363E+03  0.43950364933E+03 -0.15195119853E+04  0.16542381432E+04  0.46999998093E+01 0. -1.
       -5    1    3    3    0  502  0.48415040363E+03 -0.43950364933E+03  0.14023599422E+04  0.15473204479E+04  0.46999998093E+01 0.  1.
</event>
<event>
 5   0  0.3942564E-07  0.3193661E+04  0.7818609E-02  0.8190493E-01
       -2   -1    0    0    0  501  0.00000000000E+00  0.00000000000E+00  0.17411002701E+04  0.17411002701E+04  0.25500000920E-02 0.  1.
        2   -1    0    0  501    0  0.00000000000E+00  0.00000000000E+00 -0.14645150962E+04  0.14645150962E+04  0.25500000920E-02 0. -1.
    10030    2    1    2    0    0  0.00000000000E+00  0.00000000000E+00  0.27658517396E+03  0.32056153663E+04  0.31936609899E+04 0.  0.
        3    1    3    3  502    0  0.72613472933E+03  0.84453176827E+02  0.15632768923E+04  0.17257574095E+04  0.10100000352E+00 0.  1.
       -3    1    3    3    0  502 -0.72613472933E+03 -0.84453176827E+02 -0.12866917183E+04  0.14798579568E+04  0.10100000352E+00 0. -1.
</event>
<event>
 5   0  0.1317293E-07  0.3198490E+04  0.7818609E-02  0.8189216E-01
        1   -1    0    0  501    0  0.00000000000E+00  0.00000000000E+00  0.14310655808E+04  0.14310655808E+04  0.50400001928E-02 0. -1.
       -1   -1    0    0    0  501  0.00000000000E+00  0.00000000000E+00 -0.17871893905E+04  0.17871893905E+04  0.50400001928E-02 0.  1.
    10030    2    1    2    0    0  0.00000000000E+00  0.00000000000E+00 -0.35612380968E+03  0.32182549713E+04  0.31984904084E+04 0.  0.
        1    1    3    3  502    0 -0.17341453777E+03  0.78011045562E+03  0.12157562843E+04  0.14548911532E+04  0.50400001928E-02 0. -1.
       -1    1    3    3    0  502  0.17341453777E+03 -0.78011045562E+03 -0.15718800940E+04  0.17633638181E+04  0.50400001928E-02 0.  1.
</event>
<event>
 5   0  0.1270948E-07  0.3201056E+04  0.7818609E-02  0.8188538E-01
       -1   -1    0    0    0  501  0.00000000000E+00  0.00000000000E+00  0.19891946721E+04  0.19891946721E+04  0.50400001928E-02 0.  1.
        1   -1    0    0  501    0  0.00000000000E+00  0.00000000000E+00 -0.12878021353E+04  0.12878021353E+04  0.50400001928E-02 0. -1.
    10030    2    1    2    0    0  0.00000000000E+00  0.00000000000E+00  0.70139253686E+03  0.32769968074E+04  0.32010555423E+04 0.  0.
        4    1    3    3  502    0  0.13182498354E+04 -0.80974193419E+03 -0.69183909316E+02  0.15486292826E+04  0.12699999809E+01 0. -1.
       -4    1    3    3    0  502 -0.13182498354E+04  0.80974193419E+03  0.77057644617E+03  0.17283675248E+04  0.12699999809E+01 0.  1.
</event>
<event>
 5   0  0.1277374E-07  0.3202560E+04  0.7818609E-02  0.8188141E-01
        1   -1    0    0  501    0  0.00000000000E+00  0.00000000000E+00  0.20953592562E+04  0.20953592562E+04  0.50400001928E-02 0. -1.
       -1   -1    0    0    0  501  0.00000000000E+00  0.00000000000E+00 -0.12237034748E+04  0.12237034748E+04  0.50400001928E-02 0.  1.
    10030    2    1    2    0    0  0.00000000000E+00  0.00000000000E+00  0.87165578144E+03  0.33190627310E+04  0.32025604774E+04 0.  0.
        5    1    3    3  502    0  0.15154753563E+04 -0.10548457378E+03 -0.88832968396E+02  0.15217443732E+04  0.46999998093E+01 0.  1.
       -5    1    3    3    0  502 -0.15154753563E+04  0.10548457378E+03  0.96048874983E+03  0.17973183579E+04  0.46999998093E+01 0. -1.
</event>
<event>
 5   0  0.3858721E-07  0.3197934E+04  0.7818609E-02  0.8189363E-01
        2   -1    0    0  501    0  0.00000000000E+00  0.00000000000E+00  0.26569113529E+04  0.26569113529E+04  0.25500000920E-02 0. -1.
       -2   -1    0    0    0  501  0.00000000000E+00  0.00000000000E+00 -0.96228109062E+03  0.96228109062E+03  0.25500000920E-02 0.  1.
    10030    2    1    2    0    0  0.00000000000E+00  0.00000000000E+00  0.16946302623E+04  0.36191924435E+04  0.31979340546E+04 0.  0.
        2    1    3    3  502    0  0.54086417062E+03 -0.10619829516E+04 -0.35910601386E+03  0.12447083875E+04  0.25500000920E-02 0.  1.
       -2    1    3    3    0  502 -0.54086417062E+03  0.10619829516E+04  0.20537362762E+04  0.23744840561E+04  0.25500000920E-02 0. -1.
</event>
<event>
 5   0  0.1365455E-07  0.3201782E+04  0.7818609E-02  0.8188347E-01
       -1   -1    0    0    0  501  0.00000000000E+00  0.00000000000E+00  0.12505408740E+04  0.12505408740E+04  0.50400001928E-02 0.  1.
        1   -1    0    0  501    0  0.00000000000E+00  0.00000000000E+00 -0.20493954262E+04  0.20493954262E+04  0.50400001928E-02 0. -1.
    10030    2    1    2    0    0  0.00000000000E+00  0.00000000000E+00 -0.79885455220E+03  0.32999363001E+04  0.32017824706E+04 0.  0.
        3    1    3    3  502    0  0.97047974893E+03 -0.11420647744E+04  0.18059478993E+03  0.15095553585E+04  0.10100000352E+00 0.  1.
       -3    1    3    3    0  502 -0.97047974893E+03  0.11420647744E+04 -0.97944934213E+03  0.17903809416E+04  0.10100000352E+00 0. -1.
</event>
<event>
 5   0  0.1270948E-07  0.3207763E+04  0.7818609E-02  0.8186770E-01
       -1   -1    0    0    0  501  0.00000000000E+00  0.00000000000E+00  0.16516818068E+04  0.16516818068E+04  0.50400001928E-02 0. -1.
        1   -1    0    0  501    0  0.00000000000E+00  0.00000000000E+00 -0.15574644759E+04  0.15574644759E+04  0.50400001928E-02 0.  1.
    10030    2    1    2    0    0  0.00000000000E+00  0.00000000000E+00  0.94217330851E+02  0.32091462827E+04  0.32077629211E+04 0.  0.
        4    1    3    3  502    0  0.87871203094E+03 -0.69234103129E+03 -0.11027186162E+04  0.15708153603E+04  0.12699999809E+01 0.  1.
       -4    1    3    3    0  502 -0.87871203094E+03  0.69234103129E+03  0.11969359470E+04  0.16383309223E+04  0.12699999809E+01 0. -1.
</event>
<event>
 5   0  0.3830207E-07  0.3202581E+04  0.7818609E-02  0.8188136E-01
       -2   -1    0    0    0  501  0.00000000000E+00  0.00000000000E+00  0.26508019482E+04  0.26508019482E+04  0.25500000920E-02 0. -1.
        2   -1    0    0  501    0  0.00000000000E+00  0.00000000000E+00 -0.96730382894E+03  0.96730382895E+03  0.25500000920E-02 0.  1.
    10030    2    1    2    0    0  0.00000000000E+00  0.00000000000E+00  0.16834981192E+04  0.36181057771E+04  0.32025807557E+04 0.  0.
        4    1    3    3  502    0  0.61813781533E+03  0.12458501313E+04 -0.54883153951E+02  0.13918515301E+04  0.12699999809E+01 0.  1.
       -4    1    3    3    0  502 -0.61813781533E+03 -0.12458501313E+04  0.17383812732E+04  0.22262542470E+04  0.12699999809E+01 0. -1.
</event>
<event>
 5   0  0.1270948E-07  0.3200091E+04  0.7818609E-02  0.8188793E-01
        1   -1    0    0  501    0  0.00000000000E+00  0.00000000000E+00  0.20339121449E+04  0.20339121449E+04  0.50400001928E-02 0. -1.
       -1   -1    0    0    0  501  0.00000000000E+00  0.00000000000E+00 -0.12587293869E+04  0.12587293869E+04  0.50400001928E-02 0.  1.
    10030    2    1    2    0    0  0.00000000000E+00  0.00000000000E+00  0.77518275803E+03  0.32926415318E+04  0.32000906157E+04 0.  0.
        4    1    3    3  502    0 -0.59713068182E+03  0.12720367480E+04  0.11749016824E+04  0.18316763130E+04  0.12699999809E+01 0. -1.
       -4    1    3    3    0  502  0.59713068182E+03 -0.12720367480E+04 -0.39971892435E+03  0.14609652189E+04  0.12699999809E+01 0.  1.
</event>
<event>
 5   0  0.1270948E-07  0.3201536E+04  0.7818609E-02  0.8188412E-01
        1   -1    0    0  501    0  0.00000000000E+00  0.00000000000E+00  0.24942361043E+04  0.24942361044E+04  0.50400001928E-02 0. -1.
       -1   -1    0    0    0  501  0.00000000000E+00  0.00000000000E+00 -0.10273520152E+04  0.10273520152E+04  0.50400001928E-02 0.  1.
    10030    2    1    2    0    0  0.00000000000E+00  0.00000000000E+00  0.14668840892E+04  0.35215881195E+04  0.32015361864E+04 0.  0.
        4    1    3    3  502    0 -0.14047995058E+04  0.51604394397E+03  0.10859243321E+03  0.15005188879E+04  0.12699999809E+01 0.  1.
       -4    1    3    3    0  502  0.14047995058E+04 -0.51604394397E+03  0.13582916560E+04  0.20210692316E+04  0.12699999809E+01 0. -1.
</event>
<event>
 5   0  0.1317293E-07  0.3200762E+04  0.7818609E-02  0.8188616E-01
        1   -1    0    0  501    0  0.00000000000E+00  0.00000000000E+00  0.25885445437E+04  0.25885445437E+04  0.50400001928E-02 0. -1.
       -1   -1    0    0    0  501  0.00000000000E+00  0.00000000000E+00 -0.98944382236E+03  0.98944382238E+03  0.50400001928E-02 0.  1.
    10030    2    1    2    0    0  0.00000000000E+00  0.00000000000E+00  0.15991007213E+04  0.35779883661E+04  0.32007620391E+04 0.  0.
        1    1    3    3  502    0 -0.12345489737E+04  0.46733364560E+03 -0.21191245539E+03  0.13369438259E+04  0.50400001928E-02 0.  1.
       -1    1    3    3    0  502  0.12345489737E+04 -0.46733364560E+03  0.18110131767E+04  0.22410445402E+04  0.50400001928E-02 0. -1.
</event>
<event>
 5   0  0.3750285E-07  0.3201851E+04  0.7818609E-02  0.8188328E-01
        2   -1    0    0  501    0  0.00000000000E+00  0.00000000000E+00  0.17219022694E+04  0.17219022694E+04  0.25500000920E-02 0. -1.
       -2   -1    0    0    0  501  0.00000000000E+00  0.00000000000E+00 -0.14884485403E+04  0.14884485404E+04  0.25500000920E-02 0.  1.
    10030    2    1    2    0    0  0.00000000000E+00  0.00000000000E+00  0.23345372909E+03  0.32103508098E+04  0.32018512892E+04 0.  0.
        1    1    3    3  502    0 -0.45721514927E+03 -0.93428204796E+03 -0.11034811997E+04  0.15164430078E+04  0.50400001928E-02 0.  1.
       -1    1    3    3    0  502  0.45721514927E+03  0.93428204796E+03  0.13369349288E+04  0.16939078020E+04  0.50400001928E-02 0. -1.
</event>
<event>
 5   0  0.1365455E-07  0.3200231E+04  0.7818609E-02  0.8188756E-01
       -1   -1    0    0    0  501  0.00000000000E+00  0.00000000000E+00  0.19457643269E+04  0.19457643269E+04  0.50400001928E-02 0.  1.
        1   -1    0    0  501    0  0.00000000000E+00  0.00000000000E+00 -0.13158679124E+04  0.13158679124E+04  0.50400001928E-02 0. -1.
    10030    2    1    2    0    0  0.00000000000E+00  0.00000000000E+00  0.62989641451E+03  0.32616322393E+04  0.32002305184E+04 0.  0.
        3    1    3    3  502    0  0.54950755056E+03 -0.14782734399E+04  0.39356816256E+02  0.15775930655E+04  0.10100000352E+00 0. -1.
       -3    1    3    3    0  502 -0.54950755056E+03  0.14782734399E+04  0.59053959825E+03  0.16840391737E+04  0.10100000352E+00 0.  1.
</event>
<event>
 5   0  0.3858721E-07  0.3202521E+04  0.7818609E-02  0.8188152E-01
        2   -1    0    0  501    0  0.00000000000E+00  0.00000000000E+00  0.24725207542E+04  0.24725207542E+04  0.25500000920E-02 0.  1.
       -2   -1    0    0    0  501  0.00000000000E+00  0.00000000000E+00 -0.10370127364E+04  0.10370127364E+04  0.25500000920E-02 0. -1.
    10030    2    1    2    0    0  0.00000000000E+00  0.00000000000E+00  0.14355080178E+04  0.35095334906E+04  0.32025212025E+04 0.  0.
        2    1    3    3  502    0  0.14095079856E+04  0.83752918621E+02 -0.10983018135E+03  0.14162591506E+04  0.25500000920E-02 0. -1.
       -2    1    3    3    0  502 -0.14095079856E+04 -0.83752918621E+02  0.15453381992E+04  0.20932743400E+04  0.25500000920E-02 0.  1.
</event>
<event>
 5   0  0.3942564E-07  0.3196370E+04  0.7818609E-02  0.8189776E-01
        2   -1    0    0  501    0  0.00000000000E+00  0.00000000000E+00  0.16013783834E+04  0.16013783834E+04  0.25500000920E-02 0. -1.
       -2   -1    0    0    0  501  0.00000000000E+00  0.00000000000E+00 -0.15949982873E+04  0.15949982873E+04  0.25500000920E-02 0.  1.
    10030    2    1    2    0    0  0.00000000000E+00  0.00000000000E+00  0.63800961264E+01  0.31963766707E+04  0.31963703032E+04 0.  0.
        3    1    3    3  502    0  0.25297600751E+03  0.15284510606E+04 -0.38928527249E+03  0.15974049389E+04  0.10100000352E+00 0.  1.
       -3    1    3    3    0  502 -0.25297600751E+03 -0.15284510606E+04  0.39566536861E+03  0.15989717318E+04  0.10100000352E+00 0. -1.
</event>
<event>
 5   0  0.1277374E-07  0.3200029E+04  0.7818609E-02  0.8188809E-01
        1   -1    0    0  501    0  0.00000000000E+00  0.00000000000E+00  0.17647944373E+04  0.17647944373E+04  0.50400001928E-02 0.  1.
       -1   -1    0    0    0  501  0.00000000000E+00  0.00000000000E+00 -0.14506203971E+04  0.14506203971E+04  0.50400001928E-02 0. -1.
    10030    2    1    2    0    0  0.00000000000E+00  0.00000000000E+00  0.31417404014E+03  0.32154148344E+04  0.32000292546E+04 0.  0.
        5    1    3    3  502    0 -0.19193808000E+03  0.10753989405E+04  0.13317679419E+04  0.17224839764E+04  0.46999998093E+01 0.  1.
       -5    1    3    3    0  502  0.19193808000E+03 -0.10753989405E+04 -0.10175939018E+04  0.14929308580E+04  0.46999998093E+01 0. -1.
</event>
<event>
 5   0  0.3830207E-07  0.3195535E+04  0.7818609E-02  0.8189997E-01
        2   -1    0    0  501    0  0.00000000000E+00  0.00000000000E+00  0.18109723810E+04  0.18109723810E+04  0.25500000920E-02 0.  1.
       -2   -1    0    0    0  501  0.00000000000E+00  0.00000000000E+00 -0.14096632634E+04  0.14096632634E+04  0.25500000920E-02 0. -1.
    10030    2    1    2    0    0  0.00000000000E+00  0.00000000000E+00  0.40130911757E+03  0.32206356444E+04  0.31955351580E+04 0.  0.
        4    1    3    3  502    0 -0.57519007733E+03  0.65483572080E+02  0.17015558290E+04  0.17973384699E+04  0.12699999809E+01 0.  1.
       -4    1    3    3    0  502  0.57519007733E+03 -0.65483572080E+02 -0.13002467115E+04  0.14232971745E+04  0.12699999809E+01 0. -1.
</event>
<event>
 5   0  0.3830207E-07  0.3199957E+04  0.7818609E-02  0.8188829E-01
        2   -1    0    0  501    0  0.00000000000E+00  0.00000000000E+00  0.14464616056E+04  0.14464616057E+04  0.25500000920E-02 0.  1.
       -2   -1    0    0    0  501  0.00000000000E+00  0.00000000000E+00 -0.17697882719E+04  0.17697882719E+04  0.25500000920E-02 0. -1.
    10030    2    1    2    0    0  0.00000000000E+00  0.00000000000E+00 -0.32332666622E+03  0.32162498775E+04  0.31999567406E+04 0.  0.
        4    1    3    3  502    0 -0.13506582361E+04 -0.67215490117E+03  0.37383390094E+03  0.15542918903E+04  0.12699999809E+01 0.  1.
       -4    1    3    3    0  502  0.13506582361E+04  0.67215490117E+03 -0.69716056716E+03  0.16619579872E+04  0.12699999809E+01 0. -1.
</event>
<event>
 5   0  0.3858721E-07  0.3201786E+04  0.7818609E-02  0.8188346E-01
        2   -1    0    0  501    0  0.00000000000E+00  0.00000000000E+00  0.16864871657E+04  0.16864871657E+04  0.25500000920E-02 0. -1.
       -2   -1    0    0    0  501  0.00000000000E+00  0.00000000000E+00 -0.15196428038E+04  0.15196428038E+04  0.25500000920E-02 0.  1.
    10030    2    1    2    0    0  0.00000000000E+00  0.00000000000E+00  0.16684436197E+03  0.32061299695E+04  0.32017858049E+04 0.  0.
        2    1    3    3  502    0 -0.68838948358E+03  0.13089307768E+04  0.69717974973E+03  0.16350044229E+04  0.25500000920E-02 0.  1.
       -2    1    3    3    0  502  0.68838948358E+03 -0.13089307768E+04 -0.53033538776E+03  0.15711255466E+04  0.25500000920E-02 0. -1.
</event>
<event>
 5   0  0.1277374E-07  0.3206218E+04  0.7818609E-02  0.8187177E-01
       -1   -1    0    0    0  501  0.00000000000E+00  0.00000000000E+00  0.18974754350E+04  0.18974754350E+04  0.50400001928E-02 0. -1.
        1   -1    0    0  501    0  0.00000000000E+00  0.00000000000E+00 -0.13544095693E+04  0.13544095693E+04  0.50400001928E-02 0.  1.
    10030    2    1    2    0    0  0.00000000000E+00  0.00000000000E+00  0.54306586568E+03  0.32518850043E+04  0.32062182625E+04 0.  0.
        5    1    3    3  502    0  0.32652260231E+03 -0.22627124536E+02 -0.13201529193E+04  0.13601304411E+04  0.46999998093E+01 0.  1.
       -5    1    3    3    0  502 -0.32652260231E+03  0.22627124536E+02  0.18632187850E+04  0.18917545632E+04  0.46999998093E+01 0. -1.
</event>
<event>
 5   0  0.3942564E-07  0.3203035E+04  0.7818609E-02  0.8188016E-01
        2   -1    0    0  501    0  0.00000000000E+00  0.00000000000E+00  0.25146564649E+04  0.25146564649E+04  0.25500000920E-02 0. -1.
       -2   -1    0    0    0  501  0.00000000000E+00  0.00000000000E+00 -0.10199638335E+04  0.10199638335E+04  0.25500000920E-02 0.  1.
    10030    2    1    2    0    0  0.00000000000E+00  0.00000000000E+00  0.14946926314E+04  0.35346202984E+04  0.32030352155E+04 0.  0.
        3    1    3    3  502    0 -0.20207569289E+02 -0.30254384212E+03 -0.98799884483E+03  0.10334809383E+04  0.10100000352E+00 0.  1.
       -3    1    3    3    0  502  0.20207569289E+02  0.30254384212E+03  0.24826914763E+04  0.25011393601E+04  0.10100000352E+00 0. -1.
</event>
<event>
 5   0  0.1230450E-07  0.3196509E+04  0.7818609E-02  0.8189740E-01
       -3   -1    0    0    0  501  0.00000000000E+00  0.00000000000E+00  0.75794022569E+03  0.75794023242E+03  0.10100000352E+00 0.  1.
        3   -1    0    0  501    0  0.00000000000E+00  0.00000000000E+00 -0.33702095696E+04  0.33702095712E+04  0.10100000352E+00 0. -1.
    10030    2    1    2    0    0  0.00000000000E+00  0.00000000000E+00 -0.26122693439E+04  0.41281498036E+04  0.31965089825E+04 0.  0.
        3    1    3    3  502    0  0.75245238054E+03  0.81853781420E+03 -0.27889084460E+04  0.30023655788E+04  0.10100000352E+00 0. -1.
       -3    1    3    3    0  502 -0.75245238054E+03 -0.81853781420E+03  0.17663910204E+03  0.11257842248E+04  0.10100000352E+00 0.  1.
</event>
<event>
 5   0  0.1365455E-07  0.3201802E+04  0.7818609E-02  0.8188341E-01
        1   -1    0    0  501    0  0.00000000000E+00  0.00000000000E+00  0.22150264782E+04  0.22150264782E+04  0.50400001928E-02 0. -1.
       -1   -1    0    0    0  501  0.00000000000E+00  0.00000000000E+00 -0.11570442640E+04  0.11570442640E+04  0.50400001928E-02 0.  1.
    10030    2    1    2    0    0  0.00000000000E+00  0.00000000000E+00  0.10579822143E+04  0.33720707422E+04  0.32018017935E+04 0.  0.
        3    1    3    3  502    0 -0.81118491324E+03 -0.12425765451E+04  0.11616583647E+04  0.18845337886E+04  0.10100000352E+00 0. -1.
       -3    1    3    3    0  502  0.81118491324E+03  0.12425765451E+04 -0.10367615046E+03  0.14875369536E+04  0.10100000352E+00 0.  1.
</event>
<event>
 5   0  0.3830207E-07  0.3191680E+04  0.7818609E-02  0.8191018E-01
        2   -1    0    0  501    0  0.00000000000E+00  0.00000000000E+00  0.26598193803E+04  0.26598193803E+04  0.25500000920E-02 0. -1.
       -2   -1    0    0    0  501  0.00000000000E+00  0.00000000000E+00 -0.95747274275E+03  0.95747274275E+03  0.25500000920E-02 0.  1.
    10030    2    1    2    0    0  0.00000000000E+00  0.00000000000E+00  0.17023466375E+04  0.36172921230E+04  0.31916795311E+04 0.  0.
        4    1    3    3  502    0 -0.14249533146E+04  0.52088819791E+03  0.29032333785E+03  0.15447024687E+04  0.12699999809E+01 0.  1.
       -4    1    3    3    0  502  0.14249533146E+04 -0.52088819791E+03  0.14120232997E+04  0.20725896543E+04  0.12699999809E+01 0. -1.
</event>
<event>
 5   0  0.1270948E-07  0.3196506E+04  0.7818609E-02  0.8189741E-01
        1   -1    0    0  501    0  0.00000000000E+00  0.00000000000E+00  0.20718375948E+04  0.20718375949E+04  0.50400001928E-02 0.  1.
       -1   -1    0    0    0  501  0.00000000000E+00  0.00000000000E+00 -0.12329210355E+04  0.12329210355E+04  0.50400001928E-02 0. -1.
    10030    2    1    2    0    0  0.00000000000E+00  0.00000000000E+00  0.83891655931E+03  0.33047586304E+04  0.31965056877E+04 0.  0.
        4    1    3    3  502    0 -0.43715631021E+03  0.12529549250E+04 -0.50144238382E+03  0.14186076839E+04  0.12699999809E+01 0.  1.
       -4    1    3    3    0  502  0.43715631021E+03 -0.12529549250E+04  0.13403589431E+04  0.18861509465E+04  0.12699999809E+01 0. -1.
</event>
<event>
 5   0  0.1365455E-07  0.3200838E+04  0.7818609E-02  0.8188596E-01
       -1   -1    0    0    0  501  0.00000000000E+00  0.00000000000E+00  0.15416988722E+04  0.15416988722E+04  0.50400001928E-02 0. -1.
        1   -1    0    0  501    0  0.00000000000E+00  0.00000000000E+00 -0.16613753715E+04  0.16613753715E+04  0.50400001928E-02 0.  1.
    10030    2    1    2    0    0  0.00000000000E+00  0.00000000000E+00 -0.11967649926E+03  0.32030742437E+04  0.32008377257E+04 0.  0.
        3    1    3    3  502    0  0.86646546812E+03  0.91381941567E+02 -0.14032469278E+04  0.16517309155E+04  0.10100000352E+00 0.  1.
       -3    1    3    3    0  502 -0.86646546812E+03 -0.91381941567E+02  0.12835704285E+04  0.15513433282E+04  0.10100000352E+00 0. -1.
</event>
<event>
 5   0  0.3858721E-07  0.3184519E+04  0.7818609E-02  0.8192918E-01
       -2   -1    0    0    0  501  0.00000000000E+00  0.00000000000E+00  0.11054966065E+04  0.11054966065E+04  0.25500000920E-02 0.  1.
        2   -1    0    0  501    0  0.00000000000E+00  0.00000000000E+00 -0.22933497469E+04  0.22933497469E+04  0.25500000920E-02 0. -1.
    10030    2    1    2    0    0  0.00000000000E+00  0.00000000000E+00 -0.11878531404E+04  0.33988463534E+04  0.31845190298E+04 0.  0.
        2    1    3    3  502    0  0.29506685541E+02  0.11726845930E+04 -0.17430656533E+04  0.21010325249E+04  0.25500000920E-02 0. -1.
       -2    1    3    3    0  502 -0.29506685541E+02 -0.11726845930E+04  0.55521251288E+03  0.12978138285E+04  0.25500000920E-02 0.  1.
</event>
<event>
 5   0  0.1365455E-07  0.3196011E+04  0.7818609E-02  0.8189871E-01
        1   -1    0    0  501    0  0.00000000000E+00  0.00000000000E+00  0.89405520770E+03  0.89405520772E+03  0.50400001928E-02 0. -1.
       -1   -1    0    0    0  501  0.00000000000E+00  0.00000000000E+00 -0.28562236498E+04  0.28562236499E+04  0.50400001928E-02 0.  1.
    10030    2    1    2    0    0  0.00000000000E+00  0.00000000000E+00 -0.19621684421E+04  0.37502788576E+04  0.31960110316E+04 0.  0.
        3    1    3    3  502    0 -0.92586172769E+03  0.62895971902E+03 -0.23194118719E+04  0.25753605007E+04  0.10100000352E+00 0.  1.
       -3    1    3    3    0  502  0.92586172769E+03 -0.62895971902E+03  0.35724342976E+03  0.11749183568E+04  0.10100000352E+00 0. -1.
</event>
<event>
 5   0  0.3830207E-07  0.3174612E+04  0.7818609E-02  0.8195555E-01
        2   -1    0    0  501    0  0.00000000000E+00  0.00000000000E+00  0.25027404325E+04  0.25027404325E+04  0.25500000920E-02 0.  1.
       -2   -1    0    0    0  501  0.00000000000E+00  0.00000000000E+00 -0.10067123784E+04  0.10067123784E+04  0.25500000920E-02 0. -1.
    10030    2    1    2    0    0  0.00000000000E+00  0.00000000000E+00  0.14960280541E+04  0.35094528109E+04  0.31746116445E+04 0.  0.
        4    1    3    3  502    0  0.93769393317E+03  0.23951317513E+03  0.21388495464E+04  0.23476191063E+04  0.12699999809E+01 0.  1.
       -4    1    3    3    0  502 -0.93769393317E+03 -0.23951317513E+03 -0.64282149225E+03  0.11618337046E+04  0.12699999809E+01 0. -1.
</event>
<event>
 5   0  0.3750285E-07  0.3199694E+04  0.7818609E-02  0.8188898E-01
        2   -1    0    0  501    0  0.00000000000E+00  0.00000000000E+00  0.22878882333E+04  0.22878882333E+04  0.25500000920E-02 0. -1.
       -2   -1    0    0    0  501  0.00000000000E+00  0.00000000000E+00 -0.11187220800E+04  0.11187220800E+04  0.25500000920E-02 0.  1.
    10030    2    1    2    0    0  0.00000000000E+00  0.00000000000E+00  0.11691661533E+04  0.34066103134E+04  0.31996944124E+04 0.  0.
        1    1    3    3  502    0  0.20164041452E+03  0.57943184849E+03  0.21576668777E+04  0.22431955954E+04  0.50400001928E-02 0. -1.
       -1    1    3    3    0  502 -0.20164041452E+03 -0.57943184849E+03 -0.98850072441E+03  0.11634147180E+04  0.50400001928E-02 0.  1.
</event>
<event>
 5   0  0.3942564E-07  0.3200926E+04  0.7818609E-02  0.8188573E-01
       -2   -1    0    0    0  501  0.00000000000E+00  0.00000000000E+00  0.17731302623E+04  0.17731302623E+04  0.25500000920E-02 0.  1.
        2   -1    0    0  501    0  0.00000000000E+00  0.00000000000E+00 -0.14446101960E+04  0.14446101960E+04  0.25500000920E-02 0. -1.
    10030    2    1    2    0    0  0.00000000000E+00  0.00000000000E+00  0.32852006634E+03  0.32177404584E+04  0.32009261509E+04 0.  0.
        3    1    3    3  502    0  0.77205326002E+03 -0.20499144289E+02 -0.12448864694E+04  0.14650012912E+04  0.10100000352E+00 0. -1.
       -3    1    3    3    0  502 -0.77205326002E+03  0.20499144289E+02  0.15734065357E+04  0.17527391672E+04  0.10100000352E+00 0.  1.
</event>
<event>
 5   0  0.3942564E-07  0.3204854E+04  0.7818609E-02  0.8187536E-01
       -2   -1    0    0    0  501  0.00000000000E+00  0.00000000000E+00  0.20298653821E+04  0.20298653821E+04  0.25500000920E-02 0. -1.
        2   -1    0    0  501    0  0.00000000000E+00  0.00000000000E+00 -0.12649966967E+04  0.12649966967E+04  0.25500000920E-02 0.  1.
    10030    2    1    2    0    0  0.00000000000E+00  0.00000000000E+00  0.76486868538E+03  0.32948620789E+04  0.32048544449E+04 0.  0.
        3    1    3    3  502    0 -0.10271450676E+04  0.10109388602E+04 -0.33777454315E+03  0.14802418793E+04  0.10100000352E+00 0.  1.
       -3    1    3    3    0  502  0.10271450676E+04 -0.10109388602E+04  0.11026432285E+04  0.18146201996E+04  0.10100000352E+00 0. -1.
</event>
<event>
 5   0  0.3764056E-07  0.3202426E+04  0.7818609E-02  0.8188177E-01
       -2   -1    0    0    0  501  0.00000000000E+00  0.00000000000E+00  0.20287835003E+04  0.20287835003E+04  0.25500000920E-02 0.  1.
        2   -1    0    0  501    0  0.00000000000E+00  0.00000000000E+00 -0.12637542482E+04  0.12637542482E+04  0.25500000920E-02 0. -1.
    10030    2    1    2    0    0  0.00000000000E+00  0.00000000000E+00  0.76502925210E+03  0.32925377484E+04  0.32024264345E+04 0.  0.
        5    1    3    3  502    0  0.12368659964E+04 -0.10484965290E+03 -0.65739582138E+03  0.14046431215E+04  0.46999998093E+01 0. -1.
       -5    1    3    3    0  502 -0.12368659964E+04  0.10484965290E+03  0.14224250735E+04  0.18878946269E+04  0.46999998093E+01 0.  1.
</event>
<event>
 5   0  0.1365455E-07  0.3198369E+04  0.7818609E-02  0.8189248E-01
        1   -1    0    0  501    0  0.00000000000E+00  0.00000000000E+00  0.13868605737E+04  0.13868605737E+04  0.50400001928E-02 0. -1.
       -1   -1    0    0    0  501  0.00000000000E+00  0.00000000000E+00 -0.18440147726E+04  0.18440147726E+04  0.50400001928E-02 0.  1.
    10030    2    1    2    0    0  0.00000000000E+00  0.00000000000E+00 -0.45715419886E+03  0.32308753463E+04  0.31983692003E+04 0.  0.
        3    1    3    3  502    0  0.57120515016E+03  0.11649738803E+04 -0.11729322986E+04  0.17490596481E+04  0.10100000352E+00 0. -1.
       -3    1    3    3    0  502 -0.57120515016E+03 -0.11649738803E+04  0.71577809973E+03  0.14818156982E+04  0.10100000352E+00 0.  1.
</event>
<event>
 5   0  0.1270948E-07  0.3199123E+04  0.7818609E-02  0.8189049E-01
        1   -1    0    0  501    0  0.00000000000E+00  0.00000000000E+00  0.15400265486E+04  0.15400265486E+04  0.50400001928E-02 0.  1.
       -1   -1    0    0    0  501  0.00000000000E+00  0.00000000000E+00 -0.16613976827E+04  0.16613976827E+04  0.50400001928E-02 0. -1.
    10030    2    1    2    0    0  0.00000000000E+00  0.00000000000E+00 -0.12137113409E+03  0.32014242314E+04  0.31991227168E+04 0.  0.
        4    1    3    3  502    0  0.30207375465E+03  0.37858759200E+03 -0.15862552650E+04  0.16585489130E+04  0.12699999809E+01 0. -1.
       -4    1    3    3    0  502 -0.30207375465E+03 -0.37858759200E+03  0.14648841309E+04  0.15428753184E+04  0.12699999809E+01 0.  1.
</event>
<event>
 5   0  0.3830207E-07  0.3201306E+04  0.7818609E-02  0.8188472E-01
       -2   -1    0    0    0  501  0.00000000000E+00  0.00000000000E+00  0.14381761405E+04  0.14381761405E+04  0.25500000920E-02 0. -1.
        2   -1    0    0  501    0  0.00000000000E+00  0.00000000000E+00 -0.17814856555E+04  0.17814856555E+04  0.25500000920E-02 0.  1.
    10030    2    1    2    0    0  0.00000000000E+00  0.00000000000E+00 -0.34330951502E+03  0.32196617960E+04  0.32013060862E+04 0.  0.
        4    1    3    3  502    0 -0.14522955007E+04  0.47576501401E+03 -0.65038192300E+03  0.16608771263E+04  0.12699999809E+01 0.  1.
       -4    1    3    3    0  502  0.14522955007E+04 -0.47576501401E+03  0.30707240798E+03  0.15587846697E+04  0.12699999809E+01 0. -1.
</event>
<event>
 5   0  0.1365455E-07  0.3198501E+04  0.7818609E-02  0.8189213E-01
       -1   -1    0    0    0  501  0.00000000000E+00  0.00000000000E+00  0.20958479362E+04  0.20958479362E+04  0.50400001928E-02 0.  1.
        1   -1    0    0  501    0  0.00000000000E+00  0.00000000000E+00 -0.12203188627E+04  0.12203188627E+04  0.50400001928E-02 0. -1.
    10030    2    1    2    0    0  0.00000000000E+00  0.00000000000E+00  0.87552907348E+03  0.33161667989E+04  0.31985013803E+04 0.  0.
        3    1    3    3  502    0  0.70904629857E+03  0.10697123108E+04 -0.55157848194E+03  0.13968786323E+04  0.10100000352E+00 0. -1.
       -3    1    3    3    0  502 -0.70904629857E+03 -0.10697123108E+04  0.14271075554E+04  0.19192881666E+04  0.10100000352E+00 0.  1.
</event>
<event>
 5   0  0.1288096E-07  0.3197090E+04  0.7818609E-02  0.8189586E-01
       -1   -1    0    0    0  501  0.00000000000E+00  0.00000000000E+00  0.20509553303E+04  0.20509553303E+04  0.50400001928E-02 0.  1.
        1   -1    0    0  501    0  0.00000000000E+00  0.00000000000E+00 -0.12459296282E+04  0.12459296282E+04  0.50400001928E-02 0. -1.
    10030    2    1    2    0    0  0.00000000000E+00  0.00000000000E+00  0.80502570203E+03  0.32968849585E+04  0.31970899344E+04 0.  0.
        2    1    3    3  502    0  0.59604092658E+03 -0.14621389442E+04  0.14526479670E+03  0.15856282476E+04  0.25500000920E-02 0.  1.
       -2    1    3    3    0  502 -0.59604092658E+03  0.14621389442E+04  0.65976090533E+03  0.17112567109E+04  0.25500000920E-02 0. -1.
</event>
<event>
 5   0  0.1277374E-07  0.3196163E+04  0.7818609E-02  0.8189831E-01
       -1   -1    0    0    0  501  0.00000000000E+00  0.00000000000E+00  0.13836106791E+04  0.13836106791E+04  0.50400001928E-02 0.  1.
        1   -1    0    0  501    0  0.00000000000E+00  0.00000000000E+00 -0.18457967276E+04  0.18457967276E+04  0.50400001928E-02 0. -1.
    10030    2    1    2    0    0  0.00000000000E+00  0.00000000000E+00 -0.46218604850E+03  0.32294074067E+04  0.31961627392E+04 0.  0.
        5    1    3    3  502    0  0.51434124154E+03 -0.77207973228E+03 -0.15458531888E+04  0.18028694343E+04  0.46999998093E+01 0. -1.
       -5    1    3    3    0  502 -0.51434124154E+03  0.77207973228E+03  0.10836671403E+04  0.14265379724E+04  0.46999998093E+01 0.  1.
</event>
<event>
 5   0  0.1365455E-07  0.3157530E+04  0.7818609E-02  0.8200124E-01
       -1   -1    0    0    0  501  0.00000000000E+00  0.00000000000E+00  0.12367387673E+04  0.12367387673E+04  0.50400001928E-02 0.  1.
        1   -1    0    0  501    0  0.00000000000E+00  0.00000000000E+00 -0.20153801306E+04  0.20153801306E+04  0.50400001928E-02 0. -1.
    10030    2    1    2    0    0  0.00000000000E+00  0.00000000000E+00 -0.77864136333E+03  0.32521188979E+04  0.31575298816E+04 0.  0.
        3    1    3    3  502    0 -0.12786190684E+04 -0.47380478058E+03 -0.12088588356E+04  0.18222780761E+04  0.10100000352E+00 0. -1.
       -3    1    3    3    0  502  0.12786190684E+04  0.47380478058E+03  0.43021747225E+03  0.14298408218E+04  0.10100000352E+00 0.  1.
</event>
<event>
 5   0  0.1277374E-07  0.3190399E+04  0.7818609E-02  0.8191357E-01
        1   -1    0    0  501    0  0.00000000000E+00  0.00000000000E+00  0.19926088600E+04  0.19926088600E+04  0.50400001928E-02 0. -1.
       -1   -1    0    0    0  501  0.00000000000E+00  0.00000000000E+00 -0.12770503728E+04  0.12770503728E+04  0.50400001928E-02 0.  1.
    10030    2    1    2    0    0  0.00000000000E+00  0.00000000000E+00  0.71555848723E+03  0.32696592328E+04  0.31903992775E+04 0.  0.
        5    1    3    3  502    0 -0.15304564421E+04  0.44858939683E+03  0.32362828195E+03  0.16273557457E+04  0.46999998093E+01 0. -1.
       -5    1    3    3    0  502  0.15304564421E+04 -0.44858939683E+03  0.39193020528E+03  0.16423034871E+04  0.46999998093E+01 0.  1.
</event>
<event>
 5   0  0.1288096E-07  0.3200629E+04  0.7818609E-02  0.8188651E-01
        1   -1    0    0  501    0  0.00000000000E+00  0.00000000000E+00  0.18181581259E+04  0.18181581260E+04  0.50400001928E-02 0.  1.
       -1   -1    0    0    0  501  0.00000000000E+00  0.00000000000E+00 -0.14085720943E+04  0.14085720943E+04  0.50400001928E-02 0. -1.
    10030    2    1    2    0    0  0.00000000000E+00  0.00000000000E+00  0.40958603162E+03  0.32267302203E+04  0.32006291877E+04 0.  0.
        2    1    3    3  502    0  0.56282478980E+03  0.11548957770E+04  0.11667497426E+04  0.17354713946E+04  0.25500000920E-02 0.  1.
       -2    1    3    3    0  502 -0.56282478980E+03 -0.11548957770E+04 -0.75716371095E+03  0.14912588256E+04  0.25500000920E-02 0. -1.
</event>
<event>
 5   0  0.1288096E-07  0.3200691E+04  0.7818609E-02  0.8188635E-01
       -1   -1    0    0    0  501  0.00000000000E+00  0.00000000000E+00  0.13615053088E+04  0.13615053088E+04  0.50400001928E-02 0.  1.
        1   -1    0    0  501    0  0.00000000000E+00  0.00000000000E+00 -0.18810843015E+04  0.18810843015E+04  0.50400001928E-02 0. -1.
    10030    2    1    2    0    0  0.00000000000E+00  0.00000000000E+00 -0.51957899268E+03  0.32425896103E+04  0.32006913396E+04 0.  0.
        2    1    3    3  502    0  0.66078070296E+03 -0.16348624890E+03  0.12075303272E+04  0.13861776157E+04  0.25500000920E-02 0.  1.
       -2    1    3    3    0  502 -0.66078070296E+03  0.16348624890E+03 -0.17271093199E+04  0.18564119947E+04  0.25500000920E-02 0. -1.
</event>
<event>
 5   0  0.3764056E-07  0.3201954E+04  0.7818609E-02  0.8188301E-01
        2   -1    0    0  501    0  0.00000000000E+00  0.00000000000E+00  0.18029179809E+04  0.18029179809E+04  0.25500000920E-02 0. -1.
       -2   -1    0    0    0  501  0.00000000000E+00  0.00000000000E+00 -0.14216546177E+04  0.14216546177E+04  0.25500000920E-02 0.  1.
    10030    2    1    2    0    0  0.00000000000E+00  0.00000000000E+00  0.38126336323E+03  0.32245725987E+04  0.32019535743E+04 0.  0.
        5    1    3    3  502    0 -0.99408731484E+02 -0.13143511475E+04 -0.72446968490E+03  0.15040875803E+04  0.46999998093E+01 0.  1.
       -5    1    3    3    0  502  0.99408731484E+02  0.13143511475E+04  0.11057330481E+04  0.17204850184E+04  0.46999998093E+01 0. -1.
</event>
<event>
 5   0  0.1365455E-07  0.3202590E+04  0.7818609E-02  0.8188133E-01
       -1   -1    0    0    0  501  0.00000000000E+00  0.00000000000E+00  0.13561119473E+04  0.13561119473E+04  0.50400001928E-02 0. -1.
        1   -1    0    0  501    0  0.00000000000E+00  0.00000000000E+00 -0.18908069155E+04  0.18908069155E+04  0.50400001928E-02 0.  1.
    10030    2    1    2    0    0  0.00000000000E+00  0.00000000000E+00 -0.53469496818E+03  0.32469188629E+04  0.32025901069E+04 0.  0.
        3    1    3    3  502    0 -0.79276231041E+02  0.12436036224E+04  0.75221178123E+03  0.14555608075E+04  0.10100000352E+00 0. -1.
       -3    1    3    3    0  502  0.79276231041E+02 -0.12436036224E+04 -0.12869067494E+04  0.17913580553E+04  0.10100000352E+00 0.  1.
</event>
<event>
 5   0  0.3764056E-07  0.3198950E+04  0.7818609E-02  0.8189095E-01
        2   -1    0    0  501    0  0.00000000000E+00  0.00000000000E+00  0.19350177545E+04  0.19350177545E+04  0.25500000920E-02 0.  1.
       -2   -1    0    0    0  501  0.00000000000E+00  0.00000000000E+00 -0.13221169411E+04  0.13221169411E+04  0.25500000920E-02 0. -1.
    10030    2    1    2    0    0  0.00000000000E+00  0.00000000000E+00  0.61290081334E+03  0.32571346956E+04  0.31989496743E+04 0.  0.
        5    1    3    3  502    0  0.11370951505E+04  0.88047044983E+03 -0.40634288563E+03  0.14944397696E+04  0.46999998093E+01 0. -1.
       -5    1    3    3    0  502 -0.11370951505E+04 -0.88047044983E+03  0.10192436990E+04  0.17626949260E+04  0.46999998093E+01 0.  1.
</event>
<event>
 5   0  0.1365455E-07  0.3193812E+04  0.7818609E-02  0.8190453E-01
        1   -1    0    0  501    0  0.00000000000E+00  0.00000000000E+00  0.15708001353E+04  0.15708001353E+04  0.50400001928E-02 0.  1.
       -1   -1    0    0    0  501  0.00000000000E+00  0.00000000000E+00 -0.16234454417E+04  0.16234454418E+04  0.50400001928E-02 0. -1.
    10030    2    1    2    0    0  0.00000000000E+00  0.00000000000E+00 -0.52645306409E+02  0.31942455771E+04  0.31938117162E+04 0.  0.
        3    1    3    3  502    0 -0.13638287181E+04 -0.81380608861E+03  0.14043087931E+03  0.15943744742E+04  0.10100000352E+00 0.  1.
       -3    1    3    3    0  502  0.13638287181E+04  0.81380608861E+03 -0.19307618572E+03  0.15998711029E+04  0.10100000352E+00 0. -1.
</event>
<event>
 5   0  0.3830207E-07  0.3195813E+04  0.7818609E-02  0.8189924E-01
        2   -1    0    0  501    0  0.00000000000E+00  0.00000000000E+00  0.24482725127E+04  0.24482725127E+04  0.25500000920E-02 0.  1.
       -2   -1    0    0    0  501  0.00000000000E+00  0.00000000000E+00 -0.10429005778E+04  0.10429005778E+04  0.25500000920E-02 0. -1.
    10030    2    1    2    0    0  0.00000000000E+00  0.00000000000E+00  0.14053719349E+04  0.34911730906E+04  0.31958127719E+04 0.  0.
        4    1    3    3  502    0  0.10687519735E+04 -0.10107703316E+04  0.20980439103E+02  0.14711659444E+04  0.12699999809E+01 0.  1.
       -4    1    3    3    0  502 -0.10687519735E+04  0.10107703316E+04  0.13843914958E+04  0.20200071462E+04  0.12699999809E+01 0. -1.
</event>
<event>
 5   0  0.1270948E-07  0.3212355E+04  0.7818609E-02  0.8185562E-01
       -1   -1    0    0    0  501  0.00000000000E+00  0.00000000000E+00  0.20132570037E+04  0.20132570037E+04  0.50400001928E-02 0.  1.
        1   -1    0    0  501    0  0.00000000000E+00  0.00000000000E+00 -0.12814096328E+04  0.12814096328E+04  0.50400001928E-02 0. -1.
    10030    2    1    2    0    0  0.00000000000E+00  0.00000000000E+00  0.73184737095E+03  0.32946666365E+04  0.32123554709E+04 0.  0.
        4    1    3    3  502    0  0.10571771083E+04  0.11157048294E+04  0.84411564392E+03  0.17535545437E+04  0.12699999809E+01 0.  1.
       -4    1    3    3    0  502 -0.10571771083E+04 -0.11157048294E+04 -0.11226827297E+03  0.15411120928E+04  0.12699999809E+01 0. -1.
</event>
<event>
 5   0  0.3830207E-07  0.3202588E+04  0.7818609E-02  0.8188134E-01
        2   -1    0    0  501    0  0.00000000000E+00  0.00000000000E+00  0.18851234109E+04  0.18851234109E+04  0.25500000920E-02 0.  1.
       -2   -1    0    0    0  501  0.00000000000E+00  0.00000000000E+00 -0.13601984709E+04  0.13601984709E+04  0.25500000920E-02 0. -1.
    10030    2    1    2    0    0  0.00000000000E+00  0.00000000000E+00  0.52492494005E+03  0.32453218818E+04  0.32025876918E+04 0.  0.
        4    1    3    3  502    0 -0.13709771161E+04 -0.67135057160E+03 -0.22757120154E+03  0.15433988815E+04  0.12699999809E+01 0. -1.
       -4    1    3    3    0  502  0.13709771161E+04  0.67135057160E+03  0.75249614159E+03  0.17019230003E+04  0.12699999809E+01 0.  1.
</event>
<event>
 5   0  0.3858721E-07  0.3200790E+04  0.7818609E-02  0.8188609E-01
        2   -1    0    0  501    0  0.00000000000E+00  0.00000000000E+00  0.24968192930E+04  0.24968192930E+04  0.25500000920E-02 0. -1.
       -2   -1    0    0    0  501  0.00000000000E+00  0.00000000000E+00 -0.10258109310E+04  0.10258109310E+04  0.25500000920E-02 0.  1.
    10030    2    1    2    0    0  0.00000000000E+00  0.00000000000E+00  0.14710083619E+04  0.35226302240E+04  0.32007902296E+04 0.  0.
        2    1    3    3  502    0 -0.33556489110E+02 -0.13700345892E+04 -0.17412813582E+03  0.13814635070E+04  0.25500000920E-02 0.  1.
       -2    1    3    3    0  502  0.33556489110E+02  0.13700345892E+04  0.16451364978E+04  0.21411667170E+04  0.25500000920E-02 0. -1.
</event>
<event>
 5   0  0.1317293E-07  0.3199434E+04  0.7818609E-02  0.8188967E-01
        1   -1    0    0  501    0  0.00000000000E+00  0.00000000000E+00  0.15404228882E+04  0.15404228883E+04  0.50400001928E-02 0. -1.
       -1   -1    0    0    0  501  0.00000000000E+00  0.00000000000E+00 -0.16612939409E+04  0.16612939409E+04  0.50400001928E-02 0.  1.
    10030    2    1    2    0    0  0.00000000000E+00  0.00000000000E+00 -0.12087105265E+03  0.32017168292E+04  0.31994344567E+04 0.  0.
        1    1    3    3  502    0 -0.17682874370E+02 -0.91691610542E+02 -0.16585641765E+04  0.16611908870E+04  0.50400001928E-02 0.  1.
       -1    1    3    3    0  502  0.17682874370E+02  0.91691610542E+02  0.15376931238E+04  0.15405259422E+04  0.50400001928E-02 0. -1.
</event>
<event>
 5   0  0.1317293E-07  0.3202161E+04  0.7818609E-02  0.8188247E-01
       -1   -1    0    0    0  501  0.00000000000E+00  0.00000000000E+00  0.15644519459E+04  0.15644519459E+04  0.50400001928E-02 0.  1.
        1   -1    0    0  501    0  0.00000000000E+00  0.00000000000E+00 -0.16385667933E+04  0.16385667933E+04  0.50400001928E-02 0. -1.
    10030    2    1    2    0    0  0.00000000000E+00  0.00000000000E+00 -0.74114847383E+02  0.32030187393E+04  0.32021611505E+04 0.  0.
        1    1    3    3  502    0  0.19903137494E+03  0.11287122125E+04  0.10812107965E+04  0.15756336926E+04  0.50400001928E-02 0.  1.
       -1    1    3    3    0  502 -0.19903137494E+03 -0.11287122125E+04 -0.11553256439E+04  0.16273850467E+04  0.50400001928E-02 0. -1.
</event>
<event>
 5   0  0.3764056E-07  0.3237916E+04  0.7818609E-02  0.8178875E-01
       -2   -1    0    0    0  501  0.00000000000E+00  0.00000000000E+00  0.14326061257E+04  0.14326061257E+04  0.25500000920E-02 0. -1.
        2   -1    0    0  501    0  0.00000000000E+00  0.00000000000E+00 -0.18295508847E+04  0.18295508847E+04  0.25500000920E-02 0.  1.
    10030    2    1    2    0    0  0.00000000000E+00  0.00000000000E+00 -0.39694475899E+03  0.32621570103E+04  0.32379164934E+04 0.  0.
        5    1    3    3  502    0 -0.15973982521E+04  0.19833059337E+03 -0.37293783626E+03  0.16523077558E+04  0.46999998093E+01 0.  1.
       -5    1    3    3    0  502  0.15973982521E+04 -0.19833059337E+03 -0.24006922729E+02  0.16098492546E+04  0.46999998093E+01 0. -1.
</event>
<event>
 5   0  0.3942564E-07  0.3215460E+04  0.7818609E-02  0.8184746E-01
        2   -1    0    0  501    0  0.00000000000E+00  0.00000000000E+00  0.13276764844E+04  0.13276764844E+04  0.25500000920E-02 0.  1.
       -2   -1    0    0    0  501  0.00000000000E+00  0.00000000000E+00 -0.19468565271E+04  0.19468565271E+04  0.25500000920E-02 0. -1.
    10030    2    1    2    0    0  0.00000000000E+00  0.00000000000E+00 -0.61918004270E+03  0.32745330114E+04  0.32154599232E+04 0.  0.
        3    1    3    3  502    0  0.10455253385E+04 -0.77603118054E+03 -0.12700218667E+04  0.18188741514E+04  0.10100000352E+00 0. -1.
       -3    1    3    3    0  502 -0.10455253385E+04  0.77603118054E+03  0.65084182398E+03  0.14556588600E+04  0.10100000352E+00 0.  1.
</event>
<event>
 5   0  0.3764056E-07  0.3199159E+04  0.7818609E-02  0.8189039E-01
       -2   -1    0    0    0  501  0.00000000000E+00  0.00000000000E+00  0.19730989485E+04  0.19730989485E+04  0.25500000920E-02 0.  1.
        2   -1    0    0  501    0  0.00000000000E+00  0.00000000000E+00 -0.12967697430E+04  0.12967697430E+04  0.25500000920E-02 0. -1.
    10030    2    1    2    0    0  0.00000000000E+00  0.00000000000E+00  0.67632920554E+03  0.32698686915E+04  0.31991592748E+04 0.  0.
        5    1    3    3  502    0 -0.13590897709E+04 -0.83938178343E+03  0.25297898022E+03  0.16173148234E+04  0.46999998093E+01 0.  1.
       -5    1    3    3    0  502  0.13590897709E+04  0.83938178343E+03  0.42335022533E+03  0.16525538681E+04  0.46999998093E+01 0. -1.
</event>
<event>
 5   0  0.1288096E-07  0.3202820E+04  0.7818609E-02  0.8188073E-01
        1   -1    0    0  501    0  0.00000000000E+00  0.00000000000E+00  0.18667456317E+04  0.18667456317E+04  0.50400001928E-02 0.  1.
       -1   -1    0    0    0  501  0.00000000000E+00  0.00000000000E+00 -0.13737890878E+04  0.13737890878E+04  0.50400001928E-02 0. -1.
    10030    2    1    2    0    0  0.00000000000E+00  0.00000000000E+00  0.49295654382E+03  0.32405347195E+04  0.32028204936E+04 0.  0.
        2    1    3    3  502    0 -0.43924890127E+03 -0.15157934424E+04  0.52160939700E+03  0.16621208501E+04  0.25500000920E-02 0.  1.
       -2    1    3    3    0  502  0.43924890127E+03  0.15157934424E+04 -0.28652853176E+02  0.15784138694E+04  0.25500000920E-02 0. -1.
</event>
<event>
 5   0  0.3830207E-07  0.3208691E+04  0.7818609E-02  0.8186526E-01
       -2   -1    0    0    0  501  0.00000000000E+00  0.00000000000E+00  0.16729030125E+04  0.16729030125E+04  0.25500000920E-02 0.  1.
        2   -1    0    0  501    0  0.00000000000E+00  0.00000000000E+00 -0.15385979322E+04  0.15385979322E+04  0.25500000920E-02 0. -1.
    10030    2    1    2    0    0  0.00000000000E+00  0.00000000000E+00  0.13430508036E+03  0.32115009447E+04  0.32086913942E+04 0.  0.
        4    1    3    3  502    0 -0.10064311328E+04 -0.11145734924E+04  0.63222266324E+03  0.16293817244E+04  0.12699999809E+01 0.  1.
       -4    1    3    3    0  502  0.10064311328E+04  0.11145734924E+04 -0.49791758288E+03  0.15821192203E+04  0.12699999809E+01 0. -1.
</event>
<event>
 5   0  0.1317293E-07  0.3195952E+04  0.7818609E-02  0.8189887E-01
        1   -1    0    0  501    0  0.00000000000E+00  0.00000000000E+00  0.24878277177E+04  0.24878277177E+04  0.50400001928E-02 0.  1.
       -1   -1    0    0    0  501  0.00000000000E+00  0.00000000000E+00 -0.10264086972E+04  0.10264086972E+04  0.50400001928E-02 0. -1.
    10030    2    1    2    0    0  0.00000000000E+00  0.00000000000E+00  0.14614190205E+04  0.35142364148E+04  0.31959524443E+04 0.  0.
        1    1    3    3  502    0 -0.21391524891E+03 -0.15766847945E+04  0.56823296744E+03  0.16895512364E+04  0.50400001928E-02 0. -1.
       -1    1    3    3    0  502  0.21391524891E+03  0.15766847945E+04  0.89318605307E+03  0.18246851785E+04  0.50400001928E-02 0.  1.
</event>
<event>
 5   0  0.3942564E-07  0.3199808E+04  0.7818609E-02  0.8188868E-01
        2   -1    0    0  501    0  0.00000000000E+00  0.00000000000E+00  0.93082202472E+03  0.93082202472E+03  0.25500000920E-02 0. -1.
       -2   -1    0    0    0  501  0.00000000000E+00  0.00000000000E+00 -0.27499276388E+04  0.27499276388E+04  0.25500000920E-02 0.  1.
    10030    2    1    2    0    0  0.00000000000E+00  0.00000000000E+00 -0.18191056141E+04  0.36807496636E+04  0.31998082521E+04 0.  0.
        3    1    3    3  502    0 -0.71231847740E+03  0.28480842077E+03  0.70545803324E+03  0.10422017543E+04  0.10100000352E+00 0. -1.
       -3    1    3    3    0  502  0.71231847740E+03 -0.28480842077E+03 -0.25245636473E+04  0.26385479093E+04  0.10100000352E+00 0.  1.
</event>
<event>
 5   0  0.1317293E-07  0.3186658E+04  0.7818609E-02  0.8192350E-01
       -1   -1    0    0    0  501  0.00000000000E+00  0.00000000000E+00  0.18484757912E+04  0.18484757913E+04  0.50400001928E-02 0. -1.
        1   -1    0    0  501    0  0.00000000000E+00  0.00000000000E+00 -0.13734007403E+04  0.13734007403E+04  0.50400001928E-02 0.  1.
    10030    2    1    2    0    0  0.00000000000E+00  0.00000000000E+00  0.47507505091E+03  0.32218765316E+04  0.31866584506E+04 0.  0.
        1    1    3    3  502    0  0.26728858038E+03  0.34393359653E+03 -0.13120339159E+04  0.13824494568E+04  0.50400001928E-02 0.  1.
       -1    1    3    3    0  502 -0.26728858038E+03 -0.34393359653E+03  0.17871089669E+04  0.18394270748E+04  0.50400001928E-02 0. -1.
</event>
<event>
 5   0  0.3764056E-07  0.3203115E+04  0.7818609E-02  0.8187995E-01
       -2   -1    0    0    0  501  0.00000000000E+00  0.00000000000E+00  0.11653167481E+04  0.11653167481E+04  0.25500000920E-02 0.  1.
        2   -1    0    0  501    0  0.00000000000E+00  0.00000000000E+00 -0.22011071514E+04  0.22011071514E+04  0.25500000920E-02 0. -1.
    10030    2    1    2    0    0  0.00000000000E+00  0.00000000000E+00 -0.10357904033E+04  0.33664238995E+04  0.32031153759E+04 0.  0.
        5    1    3    3  502    0  0.25761022744E+03 -0.15106786441E+04 -0.10068592895E+04  0.18336577417E+04  0.46999998093E+01 0. -1.
       -5    1    3    3    0  502 -0.25761022744E+03  0.15106786441E+04 -0.28931113771E+02  0.15327661577E+04  0.46999998093E+01 0.  1.
</event>
<event>
 5   0  0.1270948E-07  0.3198728E+04  0.7818609E-02  0.8189153E-01
       -1   -1    0    0    0  501  0.00000000000E+00  0.00000000000E+00  0.19817557752E+04  0.19817557752E+04  0.50400001928E-02 0. -1.
        1   -1    0    0  501    0  0.00000000000E+00  0.00000000000E+00 -0.12907572635E+04  0.12907572635E+04  0.50400001928E-02 0.  1.
    10030    2    1    2    0    0  0.00000000000E+00  0.00000000000E+00  0.69099851169E+03  0.32725130388E+04  0.31987282857E+04 0.  0.
        4    1    3    3  502    0 -0.95234621324E+03 -0.10829456117E+04  0.10529923981E+04  0.17856452926E+04  0.12699999809E+01 0. -1.
       -4    1    3    3    0  502  0.95234621324E+03  0.10829456117E+04 -0.36199388637E+03  0.14868677461E+04  0.12699999809E+01 0.  1.
</event>
<event>
 5   0  0.3858721E-07  0.3202811E+04  0.7818609E-02  0.8188075E-01
        2   -1    0    0  501    0  0.00000000000E+00  0.00000000000E+00  0.31356556387E+04  0.31356556387E+04  0.25500000920E-02 0. -1.
       -2   -1    0    0    0  501  0.00000000000E+00  0.00000000000E+00 -0.81785104199E+03  0.81785104199E+03  0.25500000920E-02 0.  1.
    10030    2    1    2    0    0  0.00000000000E+00  0.00000000000E+00  0.23178045967E+04  0.39535066807E+04  0.32028107852E+04 0.  0.
        2    1    3    3  502    0  0.54739240000E+03  0.83608135294E+03 -0.38572365580E+03  0.10711924229E+04  0.25500000920E-02 0.  1.
       -2    1    3    3    0  502 -0.54739240000E+03 -0.83608135294E+03  0.27035282525E+04  0.28823142578E+04  0.25500000920E-02 0. -1.
</event>
<event>
 5   0  0.3942564E-07  0.3201327E+04  0.7818609E-02  0.8188467E-01
       -2   -1    0    0    0  501  0.00000000000E+00  0.00000000000E+00  0.15546860493E+04  0.15546860493E+04  0.25500000920E-02 0. -1.
        2   -1    0    0  501    0  0.00000000000E+00  0.00000000000E+00 -0.16480004636E+04  0.16480004636E+04  0.25500000920E-02 0.  1.
    10030    2    1    2    0    0  0.00000000000E+00  0.00000000000E+00 -0.93314414334E+02  0.32026865129E+04  0.32013268062E+04 0.  0.
        3    1    3    3  502    0  0.13979791931E+03 -0.97652057633E+02  0.15455727150E+04  0.15549515781E+04  0.10100000352E+00 0. -1.
       -3    1    3    3    0  502 -0.13979791931E+03  0.97652057633E+02 -0.16388871293E+04  0.16477349348E+04  0.10100000352E+00 0.  1.
</event>
<event>
 5   0  0.1277374E-07  0.3186046E+04  0.7818609E-02  0.8192512E-01
        1   -1    0    0  501    0  0.00000000000E+00  0.00000000000E+00  0.20881864746E+04  0.20881864746E+04  0.50400001928E-02 0.  1.
       -1   -1    0    0    0  501  0.00000000000E+00  0.00000000000E+00 -0.12152754985E+04  0.12152754985E+04  0.50400001928E-02 0. -1.
    10030    2    1    2    0    0  0.00000000000E+00  0.00000000000E+00  0.87291097619E+03  0.33034619731E+04  0.31860457366E+04 0.  0.
        5    1    3    3  502    0 -0.89777885958E+03  0.31238385619E+03 -0.88897771396E+03  0.13014968383E+04  0.46999998093E+01 0. -1.
       -5    1    3    3    0  502  0.89777885958E+03 -0.31238385619E+03  0.17618886901E+04  0.20019651348E+04  0.46999998093E+01 0.  1.
</event>
<event>
 5   0  0.1288096E-07  0.3200138E+04  0.7818609E-02  0.8188781E-01
       -1   -1    0    0    0  501  0.00000000000E+00  0.00000000000E+00  0.21627954811E+04  0.21627954811E+04  0.50400001928E-02 0. -1.
        1   -1    0    0  501    0  0.00000000000E+00  0.00000000000E+00 -0.11837550831E+04  0.11837550831E+04  0.50400001928E-02 0.  1.
    10030    2    1    2    0    0  0.00000000000E+00  0.00000000000E+00  0.97904039799E+03  0.33465505642E+04  0.32001375873E+04 0.  0.
        2    1    3    3  502    0 -0.11553730362E+04 -0.49255327029E+03  0.15262000249E+04  0.19765581430E+04  0.25500000920E-02 0. -1.
       -2    1    3    3    0  502  0.11553730362E+04  0.49255327029E+03 -0.54715962688E+03  0.13699924212E+04  0.25500000920E-02 0.  1.
</event>
<event>
 5   0  0.3830207E-07  0.3233076E+04  0.7818609E-02  0.8180136E-01
        2   -1    0    0  501    0  0.00000000000E+00  0.00000000000E+00  0.14491360916E+04  0.14491360916E+04  0.25500000920E-02 0.  1.
       -2   -1    0    0    0  501  0.00000000000E+00  0.00000000000E+00 -0.18032774092E+04  0.18032774092E+04  0.25500000920E-02 0. -1.
    10030    2    1    2    0    0  0.00000000000E+00  0.00000000000E+00 -0.35414131756E+03  0.32524135008E+04  0.32330755493E+04 0.  0.
        4    1    3    3  502    0 -0.13217802879E+03  0.87145119588E+03 -0.15402753568E+04  0.17746402469E+04  0.12699999809E+01 0. -1.
       -4    1    3    3    0  502  0.13217802879E+03 -0.87145119588E+03  0.11861340392E+04  0.14777732539E+04  0.12699999809E+01 0.  1.
</event>
<event>
 5   0  0.3858721E-07  0.3198428E+04  0.7818609E-02  0.8189232E-01
        2   -1    0    0  501    0  0.00000000000E+00  0.00000000000E+00  0.23655860279E+04  0.23655860279E+04  0.25500000920E-02 0. -1.
       -2   -1    0    0    0  501  0.00000000000E+00  0.00000000000E+00 -0.10811216005E+04  0.10811216005E+04  0.25500000920E-02 0.  1.
    10030    2    1    2    0    0  0.00000000000E+00  0.00000000000E+00  0.12844644274E+04  0.34467076284E+04  0.31984284594E+04 0.  0.
        2    1    3    3  502    0 -0.73599382051E+03 -0.92673343751E+02 -0.88450505656E+03  0.11543935410E+04  0.25500000920E-02 0.  1.
       -2    1    3    3    0  502  0.73599382051E+03  0.92673343751E+02  0.21689694840E+04  0.22923140873E+04  0.25500000920E-02 0. -1.
</event>
<event>
 5   0  0.1288096E-07  0.3191370E+04  0.7818609E-02  0.8191100E-01
        1   -1    0    0  501    0  0.00000000000E+00  0.00000000000E+00  0.32681763216E+04  0.32681763216E+04  0.50400001928E-02 0. -1.
       -1   -1    0    0    0  501  0.00000000000E+00  0.00000000000E+00 -0.77909226318E+03  0.77909226320E+03  0.50400001928E-02 0.  1.
    10030    2    1    2    0    0  0.00000000000E+00  0.00000000000E+00  0.24890840585E+04  0.40472685848E+04  0.31913701678E+04 0.  0.
        2    1    3    3  502    0 -0.15056231104E+04 -0.48724839375E+03  0.98495298549E+03  0.18639861403E+04  0.25500000920E-02 0.  1.
       -2    1    3    3    0  502  0.15056231104E+04  0.48724839375E+03  0.15041310730E+04  0.21832824445E+04  0.25500000920E-02 0. -1.
</event>
<event>
 5   0  0.3830207E-07  0.3198412E+04  0.7818609E-02  0.8189237E-01
        2   -1    0    0  501    0  0.00000000000E+00  0.00000000000E+00  0.19592845677E+04  0.19592845677E+04  0.25500000920E-02 0. -1.
       -2   -1    0    0    0  501  0.00000000000E+00  0.00000000000E+00 -0.13053031234E+04  0.13053031234E+04  0.25500000920E-02 0.  1.
    10030    2    1    2    0    0  0.00000000000E+00  0.00000000000E+00  0.65398144432E+03  0.32645876911E+04  0.31984122723E+04 0.  0.
        4    1    3    3  502    0 -0.12824071504E+04  0.95126919400E+03  0.41815539871E+03  0.16505564908E+04  0.12699999809E+01 0. -1.
       -4    1    3    3    0  502  0.12824071504E+04 -0.95126919400E+03  0.23582604562E+03  0.16140312003E+04  0.12699999809E+01 0.  1.
</event>
<event>
 5   0  0.3764056E-07  0.3208668E+04  0.7818609E-02  0.8186532E-01
        2   -1    0    0  501    0  0.00000000000E+00  0.00000000000E+00  0.18496065062E+04  0.18496065062E+04  0.25500000920E-02 0.  1.
       -2   -1    0    0    0  501  0.00000000000E+00  0.00000000000E+00 -0.13915864430E+04  0.13915864430E+04  0.25500000920E-02 0. -1.
    10030    2    1    2    0    0  0.00000000000E+00  0.00000000000E+00  0.45802006325E+03  0.32411929492E+04  0.32086678475E+04 0.  0.
        5    1    3    3  502    0 -0.66765123610E+03 -0.49638089966E+03 -0.11566504291E+04  0.14247857648E+04  0.46999998093E+01 0. -1.
       -5    1    3    3    0  502  0.66765123610E+03  0.49638089966E+03  0.16146704923E+04  0.18164071844E+04  0.46999998093E+01 0.  1.
</event>
<event>
 5   0  0.3830207E-07  0.3207622E+04  0.7818609E-02  0.8186807E-01
        2   -1    0    0  501    0  0.00000000000E+00  0.00000000000E+00  0.17311498570E+04  0.17311498570E+04  0.25500000920E-02 0.  1.
       -2   -1    0    0    0  501  0.00000000000E+00  0.00000000000E+00 -0.14858392633E+04  0.14858392633E+04  0.25500000920E-02 0. -1.
    10030    2    1    2    0    0  0.00000000000E+00  0.00000000000E+00  0.24531059371E+03  0.32169891203E+04  0.32076224392E+04 0.  0.
        4    1    3    3  502    0 -0.83032163110E+03 -0.23391959663E+02 -0.12532939671E+04  0.15035719390E+04  0.12699999809E+01 0. -1.
       -4    1    3    3    0  502  0.83032163110E+03  0.23391959663E+02  0.14986045608E+04  0.17134171813E+04  0.12699999809E+01 0.  1.
</event>
<event>
 5   0  0.3858721E-07  0.3202573E+04  0.7818609E-02  0.8188138E-01
       -2   -1    0    0    0  501  0.00000000000E+00  0.00000000000E+00  0.14164362387E+04  0.14164362387E+04  0.25500000920E-02 0. -1.
        2   -1    0    0  501    0  0.00000000000E+00  0.00000000000E+00 -0.18102601053E+04  0.18102601053E+04  0.25500000920E-02 0.  1.
    10030    2    1    2    0    0  0.00000000000E+00  0.00000000000E+00 -0.39382386656E+03  0.32266963440E+04  0.32025727250E+04 0.  0.
        2    1    3    3  502    0  0.10058354977E+04  0.38190057715E+03 -0.13918323636E+04  0.17591902761E+04  0.25500000920E-02 0.  1.
       -2    1    3    3    0  502 -0.10058354977E+04 -0.38190057715E+03  0.99800849706E+03  0.14675060679E+04  0.25500000920E-02 0. -1.
</event>
<event>
 5   0  0.3764056E-07  0.3195990E+04  0.7818609E-02  0.8189877E-01
        2   -1    0    0  501    0  0.00000000000E+00  0.00000000000E+00  0.16150127986E+04  0.16150127986E+04  0.25500000920E-02 0.  1.
       -2   -1    0    0    0  501  0.00000000000E+00  0.00000000000E+00 -0.15811565096E+04  0.15811565096E+04  0.25500000920E-02 0. -1.
    10030    2    1    2    0    0  0.00000000000E+00  0.00000000000E+00  0.33856288952E+02  0.31961693082E+04  0.31959899873E+04 0.  0.
        5    1    3    3  502    0  0.91152292340E+03 -0.85563183685E+03  0.10122658723E+04  0.16086280386E+04  0.46999998093E+01 0.  1.
       -5    1    3    3    0  502 -0.91152292340E+03  0.85563183685E+03 -0.97840958338E+03  0.15875412697E+04  0.46999998093E+01 0. -1.
</event>
<event>
 5   0  0.1317293E-07  0.3204202E+04  0.7818609E-02  0.8187708E-01
       -1   -1    0    0    0  501  0.00000000000E+00  0.00000000000E+00  0.12578214107E+04  0.12578214107E+04  0.50400001928E-02 0.  1.
        1   -1    0    0  501    0  0.00000000000E+00  0.00000000000E+00 -0.20406140827E+04  0.20406140828E+04  0.50400001928E-02 0. -1.
    10030    2    1    2    0    0  0.00000000000E+00  0.00000000000E+00 -0.78279267206E+03  0.32984354934E+04  0.32042022934E+04 0.  0.
        1    1    3    3  502    0  0.65172231336E+03 -0.89442310944E+03  0.80111704276E+03  0.13662075935E+04  0.50400001928E-02 0.  1.
       -1    1    3    3    0  502 -0.65172231336E+03  0.89442310944E+03 -0.15839097148E+04  0.19322278999E+04  0.50400001928E-02 0. -1.
</event>
<event>
 5   0  0.3942564E-07  0.3200129E+04  0.7818609E-02  0.8188783E-01
       -2   -1    0    0    0  501  0.00000000000E+00  0.00000000000E+00  0.10642255763E+04  0.10642255763E+04  0.25500000920E-02 0. -1.
        2   -1    0    0  501    0  0.00000000000E+00  0.00000000000E+00 -0.24056990839E+04  0.24056990839E+04  0.25500000920E-02 0.  1.
    10030    2    1    2    0    0  0.00000000000E+00  0.00000000000E+00 -0.13414735076E+04  0.34699246602E+04  0.32001290561E+04 0.  0.
        3    1    3    3  502    0  0.14759203538E+04 -0.58085084777E+03 -0.89941487693E+03  0.18233693343E+04  0.10100000352E+00 0. -1.
       -3    1    3    3    0  502 -0.14759203538E+04  0.58085084777E+03 -0.44205863068E+03  0.16465553259E+04  0.10100000352E+00 0.  1.
</event>
<event>
 5   0  0.1317293E-07  0.3206667E+04  0.7818609E-02  0.8187059E-01
        1   -1    0    0  501    0  0.00000000000E+00  0.00000000000E+00  0.16721853410E+04  0.16721853410E+04  0.50400001928E-02 0.  1.
       -1   -1    0    0    0  501  0.00000000000E+00  0.00000000000E+00 -0.15373166984E+04  0.15373166985E+04  0.50400001928E-02 0. -1.
    10030    2    1    2    0    0  0.00000000000E+00  0.00000000000E+00  0.13486864253E+03  0.32095020394E+04  0.32066670844E+04 0.  0.
        1    1    3    3  502    0  0.12482489607E+04  0.96349097908E+02  0.10699534282E+04  0.16468785490E+04  0.50400001928E-02 0.  1.
       -1    1    3    3    0  502 -0.12482489607E+04 -0.96349097908E+02 -0.93508478571E+03  0.15626234905E+04  0.50400001928E-02 0. -1.
</event>
<event>
 5   0  0.3858721E-07  0.3205151E+04  0.7818609E-02  0.8187458E-01
        2   -1    0    0  501    0  0.00000000000E+00  0.00000000000E+00  0.22211356095E+04  0.22211356095E+04  0.25500000920E-02 0. -1.
       -2   -1    0    0    0  501  0.00000000000E+00  0.00000000000E+00 -0.11562772136E+04  0.11562772136E+04  0.25500000920E-02 0.  1.
    10030    2    1    2    0    0  0.00000000000E+00  0.00000000000E+00  0.10648583958E+04  0.33774128231E+04  0.32051511625E+04 0.  0.
        2    1    3    3  502    0  0.79191147536E+03 -0.52023881704E+03  0.18943623392E+04  0.21181078546E+04  0.25500000920E-02 0. -1.
       -2    1    3    3    0  502 -0.79191147536E+03  0.52023881704E+03 -0.82950394339E+03  0.12593049685E+04  0.25500000920E-02 0.  1.
</event>
<event>
 5   0  0.3764056E-07  0.3201797E+04  0.7818609E-02  0.8188343E-01
        2   -1    0    0  501    0  0.00000000000E+00  0.00000000000E+00  0.14446421286E+04  0.14446421286E+04  0.25500000920E-02 0.  1.
       -2   -1    0    0    0  501  0.00000000000E+00  0.00000000000E+00 -0.17740555781E+04  0.17740555781E+04  0.25500000920E-02 0. -1.
    10030    2    1    2    0    0  0.00000000000E+00  0.00000000000E+00 -0.32941344952E+03  0.32186977067E+04  0.32017966373E+04 0.  0.
        5    1    3    3  502    0 -0.15087125212E+04 -0.38714363357E+03  0.20705568238E+03  0.15713013111E+04  0.46999998093E+01 0.  1.
       -5    1    3    3    0  502  0.15087125212E+04  0.38714363357E+03 -0.53646913190E+03  0.16473963956E+04  0.46999998093E+01 0. -1.
</event>
<event>
 5   0  0.1365455E-07  0.3200988E+04  0.7818609E-02  0.8188556E-01
        1   -1    0    0  501    0  0.00000000000E+00  0.00000000000E+00  0.20692681535E+04  0.20692681536E+04  0.50400001928E-02 0.  1.
       -1   -1    0    0    0  501  0.00000000000E+00  0.00000000000E+00 -0.12379163411E+04  0.12379163411E+04  0.50400001928E-02 0. -1.
    10030    2    1    2    0    0  0.00000000000E+00  0.00000000000E+00  0.83135181249E+03  0.33071844946E+04  0.32009878858E+04 0.  0.
        3    1    3    3  502    0 -0.85111361288E+03  0.12004039769E+03  0.18105696789E+04  0.20042371744E+04  0.10100000352E+00 0.  1.
       -3    1    3    3    0  502  0.85111361288E+03 -0.12004039769E+03 -0.97921786639E+03  0.13029473202E+04  0.10100000352E+00 0. -1.
</event>
<event>
 5   0  0.1317293E-07  0.3203361E+04  0.7818609E-02  0.8187930E-01
        1   -1    0    0  501    0  0.00000000000E+00  0.00000000000E+00  0.17584488033E+04  0.17584488033E+04  0.50400001928E-02 0.  1.
       -1   -1    0    0    0  501  0.00000000000E+00  0.00000000000E+00 -0.14588883217E+04  0.14588883217E+04  0.50400001928E-02 0. -1.
    10030    2    1    2    0    0  0.00000000000E+00  0.00000000000E+00  0.29956048160E+03  0.32173371249E+04  0.32033609995E+04 0.  0.
        1    1    3    3  502    0 -0.30409386178E+03 -0.15694618315E+04  0.24868274359E+03  0.16178771969E+04  0.50400001928E-02 0.  1.
       -1    1    3    3    0  502  0.30409386178E+03  0.15694618315E+04  0.50877738018E+02  0.15994599280E+04  0.50400001928E-02 0. -1.
</event>
<event>
 5   0  0.1277374E-07  0.3200854E+04  0.7818609E-02  0.8188592E-01
        1   -1    0    0  501    0  0.00000000000E+00  0.00000000000E+00  0.15736519623E+04  0.15736519623E+04  0.50400001928E-02 0.  1.
       -1   -1    0    0    0  501  0.00000000000E+00  0.00000000000E+00 -0.16276578343E+04  0.16276578343E+04  0.50400001928E-02 0. -1.
    10030    2    1    2    0    0  0.00000000000E+00  0.00000000000E+00 -0.54005871959E+02  0.32013097966E+04  0.32008542265E+04 0.  0.
        5    1    3    3  502    0  0.17444128135E+02  0.12953881363E+04  0.91281699621E+03  0.15848002019E+04  0.46999998093E+01 0.  1.
       -5    1    3    3    0  502 -0.17444128135E+02 -0.12953881363E+04 -0.96682286817E+03  0.16165095947E+04  0.46999998093E+01 0. -1.
</event>
<event>
 5   0  0.1230450E-07  0.3200450E+04  0.7818609E-02  0.8188698E-01
       -3   -1    0    0    0  501  0.00000000000E+00  0.00000000000E+00  0.25557496801E+04  0.25557496821E+04  0.10100000352E+00 0. -1.
        3   -1    0    0  501    0  0.00000000000E+00  0.00000000000E+00 -0.10019450155E+04  0.10019450206E+04  0.10100000352E+00 0.  1.
    10030    2    1    2    0    0  0.00000000000E+00  0.00000000000E+00  0.15538046646E+04  0.35576947027E+04  0.32004503842E+04 0.  0.
        3    1    3    3  502    0  0.12552577812E+03 -0.40516207610E+03 -0.93831726790E+03  0.10297341086E+04  0.10100000352E+00 0.  1.
       -3    1    3    3    0  502 -0.12552577812E+03  0.40516207610E+03  0.24921219325E+04  0.25279605942E+04  0.10100000352E+00 0. -1.
</event>
<event>
 5   0  0.1365455E-07  0.3200881E+04  0.7818609E-02  0.8188585E-01
        1   -1    0    0  501    0  0.00000000000E+00  0.00000000000E+00  0.10933185190E+04  0.10933185190E+04  0.50400001928E-02 0.  1.
       -1   -1    0    0    0  501  0.00000000000E+00  0.00000000000E+00 -0.23427844555E+04  0.23427844555E+04  0.50400001928E-02 0. -1.
    10030    2    1    2    0    0  0.00000000000E+00  0.00000000000E+00 -0.12494659365E+04  0.34361029745E+04  0.32008808983E+04 0.  0.
        3    1    3    3  502    0  0.13428352359E+04 -0.35722089946E+03 -0.14771897931E+04  0.20280293234E+04  0.10100000352E+00 0. -1.
       -3    1    3    3    0  502 -0.13428352359E+04  0.35722089946E+03  0.22772385654E+03  0.14080736511E+04  0.10100000352E+00 0.  1.
</event>
<event>
 5   0  0.3764056E-07  0.3201423E+04  0.7818609E-02  0.8188441E-01
       -2   -1    0    0    0  501  0.00000000000E+00  0.00000000000E+00  0.83380947689E+03  0.83380947689E+03  0.25500000920E-02 0.  1.
        2   -1    0    0  501    0  0.00000000000E+00  0.00000000000E+00 -0.30729772738E+04  0.30729772738E+04  0.25500000920E-02 0. -1.
    10030    2    1    2    0    0  0.00000000000E+00  0.00000000000E+00 -0.22391677969E+04  0.39067867507E+04  0.32014231667E+04 0.  0.
        5    1    3    3  502    0  0.24319476131E+03  0.13603301657E+04 -0.21054199439E+04  0.25184235310E+04  0.46999998093E+01 0. -1.
       -5    1    3    3    0  502 -0.24319476131E+03 -0.13603301657E+04 -0.13374785302E+03  0.13883632197E+04  0.46999998093E+01 0.  1.
</event>
<event>
 5   0  0.1230450E-07  0.3192517E+04  0.7818609E-02  0.8190796E-01
       -3   -1    0    0    0  501  0.00000000000E+00  0.00000000000E+00  0.16921034238E+04  0.16921034268E+04  0.10100000352E+00 0. -1.
        3   -1    0    0  501    0  0.00000000000E+00  0.00000000000E+00 -0.15058420787E+04  0.15058420821E+04  0.10100000352E+00 0.  1.
    10030    2    1    2    0    0  0.00000000000E+00  0.00000000000E+00  0.18626134509E+03  0.31979455089E+04  0.31925165918E+04 0.  0.
        3    1    3    3  502    0  0.45826124915E+03  0.43445160964E+03 -0.13754077055E+04  0.15134391102E+04  0.10100000352E+00 0.  1.
       -3    1    3    3    0  502 -0.45826124915E+03 -0.43445160964E+03  0.15616690506E+04  0.16845063987E+04  0.10100000352E+00 0. -1.
</event>
<event>
 5   0  0.3764056E-07  0.3191821E+04  0.7818609E-02  0.8190981E-01
        2   -1    0    0  501    0  0.00000000000E+00  0.00000000000E+00  0.21703140802E+04  0.21703140802E+04  0.25500000920E-02 0.  1.
       -2   -1    0    0    0  501  0.00000000000E+00  0.00000000000E+00 -0.11735308948E+04  0.11735308948E+04  0.25500000920E-02 0. -1.
    10030    2    1    2    0    0  0.00000000000E+00  0.00000000000E+00  0.99678318539E+03  0.33438449750E+04  0.31918211883E+04 0.  0.
        5    1    3    3  502    0  0.94639590754E+03 -0.11799811144E+04  0.10314360719E+04  0.18308203365E+04  0.46999998093E+01 0.  1.
       -5    1    3    3    0  502 -0.94639590754E+03  0.11799811144E+04 -0.34652886496E+02  0.15130246385E+04  0.46999998093E+01 0. -1.
</event>
<event>
 5   0  0.1317293E-07  0.3203416E+04  0.7818609E-02  0.8187916E-01
        1   -1    0    0  501    0  0.00000000000E+00  0.00000000000E+00  0.20531280618E+04  0.20531280618E+04  0.50400001928E-02 0. -1.
       -1   -1    0    0    0  501  0.00000000000E+00  0.00000000000E+00 -0.12495411980E+04  0.12495411980E+04  0.50400001928E-02 0.  1.
    10030    2    1    2    0    0  0.00000000000E+00  0.00000000000E+00  0.80358686383E+03  0.33026692598E+04  0.32034157382E+04 0.  0.
        1    1    3    3  502    0  0.22078970184E+03  0.13551060618E+04 -0.44863221023E+03  0.14444138574E+04  0.50400001928E-02 0.  1.
       -1    1    3    3    0  502 -0.22078970184E+03 -0.13551060618E+04  0.12522190741E+04  0.18582554024E+04  0.50400001928E-02 0. -1.
</event>
<event>
 5   0  0.1277374E-07  0.3215051E+04  0.7818609E-02  0.8184853E-01
       -1   -1    0    0    0  501  0.00000000000E+00  0.00000000000E+00  0.14873164232E+04  0.14873164232E+04  0.50400001928E-02 0.  1.
        1   -1    0    0  501    0  0.00000000000E+00  0.00000000000E+00 -0.17374505737E+04  0.17374505737E+04  0.50400001928E-02 0. -1.
    10030    2    1    2    0    0  0.00000000000E+00  0.00000000000E+00 -0.25013415050E+03  0.32247669968E+04  0.32150513356E+04 0.  0.
        5    1    3    3  502    0 -0.16192455562E+03  0.25093526406E+03  0.14592404704E+04  0.14894941788E+04  0.46999998093E+01 0.  1.
       -5    1    3    3    0  502  0.16192455562E+03 -0.25093526406E+03 -0.17093746209E+04  0.17352728180E+04  0.46999998093E+01 0. -1.
</event>
<event>
 5   0  0.3942564E-07  0.3194563E+04  0.7818609E-02  0.8190254E-01
       -2   -1    0    0    0  501  0.00000000000E+00  0.00000000000E+00  0.15227469632E+04  0.15227469632E+04  0.25500000920E-02 0. -1.
        2   -1    0    0  501    0  0.00000000000E+00  0.00000000000E+00 -0.16754645313E+04  0.16754645313E+04  0.25500000920E-02 0.  1.
    10030    2    1    2    0    0  0.00000000000E+00  0.00000000000E+00 -0.15271756810E+03  0.31982114945E+04  0.31945632108E+04 0.  0.
        3    1    3    3  502    0  0.23154157710E+03 -0.12231483609E+04  0.92558639029E+03  0.15512619350E+04  0.10100000352E+00 0. -1.
       -3    1    3    3    0  502 -0.23154157710E+03  0.12231483609E+04 -0.10783039584E+04  0.16469495595E+04  0.10100000352E+00 0.  1.
</event>
<event>
 5   0  0.3764056E-07  0.3201207E+04  0.7818609E-02  0.8188498E-01
       -2   -1    0    0    0  501  0.00000000000E+00  0.00000000000E+00  0.97629880175E+03  0.97629880175E+03  0.25500000920E-02 0.  1.
        2   -1    0    0  501    0  0.00000000000E+00  0.00000000000E+00 -0.26241265234E+04  0.26241265234E+04  0.25500000920E-02 0. -1.
    10030    2    1    2    0    0  0.00000000000E+00  0.00000000000E+00 -0.16478277216E+04  0.36004253251E+04  0.32012070101E+04 0.  0.
        5    1    3    3  502    0  0.33378504077E+03  0.12398391807E+03  0.93118134733E+03  0.99694797106E+03  0.46999998093E+01 0.  1.
       -5    1    3    3    0  502 -0.33378504077E+03 -0.12398391807E+03 -0.25790090690E+04  0.26034773541E+04  0.46999998093E+01 0. -1.
</event>
<event>
 5   0  0.3830207E-07  0.3193796E+04  0.7818609E-02  0.8190458E-01
        2   -1    0    0  501    0  0.00000000000E+00  0.00000000000E+00  0.23888869750E+04  0.23888869750E+04  0.25500000920E-02 0.  1.
       -2   -1    0    0    0  501  0.00000000000E+00  0.00000000000E+00 -0.10674776225E+04  0.10674776225E+04  0.25500000920E-02 0. -1.
    10030    2    1    2    0    0  0.00000000000E+00  0.00000000000E+00  0.13214093526E+04  0.34563645975E+04  0.31937961040E+04 0.  0.
        4    1    3    3  502    0  0.14723594593E+04  0.34860116468E+03  0.10812268744E+03  0.15169236229E+04  0.12699999809E+01 0. -1.
       -4    1    3    3    0  502 -0.14723594593E+04 -0.34860116468E+03  0.12132866651E+04  0.19394409746E+04  0.12699999809E+01 0.  1.
</event>
<event>
 5   0  0.1365455E-07  0.3193108E+04  0.7818609E-02  0.8190640E-01
        1   -1    0    0  501    0  0.00000000000E+00  0.00000000000E+00  0.25032680664E+04  0.25032680664E+04  0.50400001928E-02 0. -1.
       -1   -1    0    0    0  501  0.00000000000E+00  0.00000000000E+00 -0.10182625443E+04  0.10182625444E+04  0.50400001928E-02 0.  1.
    10030    2    1    2    0    0  0.00000000000E+00  0.00000000000E+00  0.14850055220E+04  0.35215306107E+04  0.31931076465E+04 0.  0.
        3    1    3    3  502    0 -0.83657738435E+03  0.43348052518E+03  0.21639511426E+04  0.23601804260E+04  0.10100000352E+00 0. -1.
       -3    1    3    3    0  502  0.83657738435E+03 -0.43348052518E+03 -0.67894562053E+03  0.11613501847E+04  0.10100000352E+00 0.  1.
</event>
<event>
 5   0  0.1270948E-07  0.3187798E+04  0.7818609E-02  0.8192047E-01
       -1   -1    0    0    0  501  0.00000000000E+00  0.00000000000E+00  0.98187244898E+03  0.98187244899E+03  0.50400001928E-02 0.  1.
        1   -1    0    0  501    0  0.00000000000E+00  0.00000000000E+00 -0.25874183574E+04  0.25874183574E+04  0.50400001928E-02 0. -1.
    10030    2    1    2    0    0  0.00000000000E+00  0.00000000000E+00 -0.16055459084E+04  0.35692908064E+04  0.31877984874E+04 0.  0.
        4    1    3    3  502    0 -0.12664474460E+04  0.37520609887E+02  0.28002417798E+03  0.12975793165E+04  0.12699999809E+01 0.  1.
       -4    1    3    3    0  502  0.12664474460E+04 -0.37520609887E+02 -0.18855700864E+04  0.22717114899E+04  0.12699999809E+01 0. -1.
</event>
<event>
 5   0  0.1270948E-07  0.3169886E+04  0.7818609E-02  0.8196816E-01
        1   -1    0    0  501    0  0.00000000000E+00  0.00000000000E+00  0.18488170839E+04  0.18488170839E+04  0.50400001928E-02 0.  1.
       -1   -1    0    0    0  501  0.00000000000E+00  0.00000000000E+00 -0.13587302833E+04  0.13587302833E+04  0.50400001928E-02 0. -1.
    10030    2    1    2    0    0  0.00000000000E+00  0.00000000000E+00  0.49008680060E+03  0.32075473673E+04  0.31698856511E+04 0.  0.
        4    1    3    3  502    0  0.18831676766E+03  0.15725559489E+04  0.30614903920E+03  0.16131101216E+04  0.12699999809E+01 0.  1.
       -4    1    3    3    0  502 -0.18831676766E+03 -0.15725559489E+04  0.18393776140E+03  0.15944372457E+04  0.12699999809E+01 0. -1.
</event>
<event>
 5   0  0.1270948E-07  0.3198307E+04  0.7818609E-02  0.8189264E-01
       -1   -1    0    0    0  501  0.00000000000E+00  0.00000000000E+00  0.14752023348E+04  0.14752023348E+04  0.50400001928E-02 0.  1.
        1   -1    0    0  501    0  0.00000000000E+00  0.00000000000E+00 -0.17335194739E+04  0.17335194739E+04  0.50400001928E-02 0. -1.
    10030    2    1    2    0    0  0.00000000000E+00  0.00000000000E+00 -0.25831713907E+03  0.32087218087E+04  0.31983070368E+04 0.  0.
        4    1    3    3  502    0 -0.17906319933E+03  0.77225400045E+03  0.12641945541E+04  0.14921894498E+04  0.12699999809E+01 0.  1.
       -4    1    3    3    0  502  0.17906319933E+03 -0.77225400045E+03 -0.15225116932E+04  0.17165323589E+04  0.12699999809E+01 0. -1.
</event>
<event>
 5   0  0.1317293E-07  0.3202579E+04  0.7818609E-02  0.8188137E-01
        1   -1    0    0  501    0  0.00000000000E+00  0.00000000000E+00  0.25729778983E+04  0.25729778983E+04  0.50400001928E-02 0.  1.
       -1   -1    0    0    0  501  0.00000000000E+00  0.00000000000E+00 -0.99656020016E+03  0.99656020017E+03  0.50400001928E-02 0. -1.
    10030    2    1    2    0    0  0.00000000000E+00  0.00000000000E+00  0.15764176981E+04  0.35695380985E+04  0.32025785669E+04 0.  0.
        1    1    3    3  502    0 -0.77402302062E+03 -0.82008003261E+03  0.20553497112E+04  0.23443773868E+04  0.50400001928E-02 0.  1.
       -1    1    3    3    0  502  0.77402302062E+03  0.82008003261E+03 -0.47893201304E+03  0.12251607117E+04  0.50400001928E-02 0. -1.
</event>
<event>
 5   0  0.1277374E-07  0.3199173E+04  0.7818609E-02  0.8189036E-01
       -1   -1    0    0    0  501  0.00000000000E+00  0.00000000000E+00  0.10401364347E+04  0.10401364347E+04  0.50400001928E-02 0. -1.
        1   -1    0    0  501    0  0.00000000000E+00  0.00000000000E+00 -0.24599441659E+04  0.24599441659E+04  0.50400001928E-02 0.  1.
    10030    2    1    2    0    0  0.00000000000E+00  0.00000000000E+00 -0.14198077312E+04  0.35000806005E+04  0.31991733646E+04 0.  0.
        5    1    3    3  502    0 -0.71704428341E+03  0.13868748475E+04 -0.32920771986E+03  0.15956109049E+04  0.46999998093E+01 0.  1.
       -5    1    3    3    0  502  0.71704428341E+03 -0.13868748475E+04 -0.10906000113E+04  0.19044696957E+04  0.46999998093E+01 0. -1.
</event>
<event>
 5   0  0.3830207E-07  0.3199933E+04  0.7818609E-02  0.8188835E-01
       -2   -1    0    0    0  501  0.00000000000E+00  0.00000000000E+00  0.19385875688E+04  0.19385875688E+04  0.25500000920E-02 0.  1.
        2   -1    0    0  501    0  0.00000000000E+00  0.00000000000E+00 -0.13204935340E+04  0.13204935340E+04  0.25500000920E-02 0. -1.
    10030    2    1    2    0    0  0.00000000000E+00  0.00000000000E+00  0.61809403480E+03  0.32590811027E+04  0.31999327178E+04 0.  0.
        4    1    3    3  502    0 -0.29572303220E+03 -0.55849256062E+03 -0.11879948196E+04  0.13456222934E+04  0.12699999809E+01 0. -1.
       -4    1    3    3    0  502  0.29572303220E+03  0.55849256062E+03  0.18060888544E+04  0.19134588094E+04  0.12699999809E+01 0.  1.
</event>
<event>
 5   0  0.1277374E-07  0.3184981E+04  0.7818609E-02  0.8192795E-01
        1   -1    0    0  501    0  0.00000000000E+00  0.00000000000E+00  0.23811004054E+04  0.23811004054E+04  0.50400001928E-02 0. -1.
       -1   -1    0    0    0  501  0.00000000000E+00  0.00000000000E+00 -0.10650648242E+04  0.10650648242E+04  0.50400001928E-02 0.  1.
    10030    2    1    2    0    0  0.00000000000E+00  0.00000000000E+00  0.13160355812E+04  0.34461652297E+04  0.31849811835E+04 0.  0.
        5    1    3    3  502    0 -0.66798108312E+03 -0.13364712509E+04  0.12542506582E+04  0.19507744451E+04  0.46999998093E+01 0. -1.
       -5    1    3    3    0  502  0.66798108312E+03  0.13364712509E+04  0.61784923012E+02  0.14953907846E+04  0.46999998093E+01 0.  1.
</event>
<event>
 5   0  0.3830207E-07  0.3194524E+04  0.7818609E-02  0.8190265E-01
       -2   -1    0    0    0  501  0.00000000000E+00  0.00000000000E+00  0.11878922543E+04  0.11878922543E+04  0.25500000920E-02 0. -1.
        2   -1    0    0  501    0  0.00000000000E+00  0.00000000000E+00 -0.21477086543E+04  0.21477086543E+04  0.25500000920E-02 0.  1.
    10030    2    1    2    0    0  0.00000000000E+00  0.00000000000E+00 -0.95981639994E+03  0.33356009086E+04  0.31945243621E+04 0.  0.
        4    1    3    3  502    0  0.85906471829E+03  0.43424013202E+03  0.85101467466E+03  0.12848284990E+04  0.12699999809E+01 0. -1.
       -4    1    3    3    0  502 -0.85906471829E+03 -0.43424013202E+03 -0.18108310746E+04  0.20507724096E+04  0.12699999809E+01 0.  1.
</event>
<event>
 5   0  0.1317293E-07  0.3184763E+04  0.7818609E-02  0.8192853E-01
       -1   -1    0    0    0  501  0.00000000000E+00  0.00000000000E+00  0.19055060052E+04  0.19055060052E+04  0.50400001928E-02 0.  1.
        1   -1    0    0  501    0  0.00000000000E+00  0.00000000000E+00 -0.13307114964E+04  0.13307114964E+04  0.50400001928E-02 0. -1.
    10030    2    1    2    0    0  0.00000000000E+00  0.00000000000E+00  0.57479450881E+03  0.32362175016E+04  0.31847629410E+04 0.  0.
        1    1    3    3  502    0  0.42337169101E+00  0.69513498150E+03 -0.11683922003E+04  0.13595415240E+04  0.50400001928E-02 0. -1.
       -1    1    3    3    0  502 -0.42337169101E+00 -0.69513498150E+03  0.17431867091E+04  0.18766759775E+04  0.50400001928E-02 0.  1.
</event>
<event>
 5   0  0.3750285E-07  0.3196814E+04  0.7818609E-02  0.8189659E-01
       -2   -1    0    0    0  501  0.00000000000E+00  0.00000000000E+00  0.13026651523E+04  0.13026651523E+04  0.25500000920E-02 0. -1.
        2   -1    0    0  501    0  0.00000000000E+00  0.00000000000E+00 -0.19612900598E+04  0.19612900598E+04  0.25500000920E-02 0.  1.
    10030    2    1    2    0    0  0.00000000000E+00  0.00000000000E+00 -0.65862490751E+03  0.32639552120E+04  0.31968135475E+04 0.  0.
        1    1    3    3  502    0  0.10679639236E+03  0.86986823308E+03  0.10354851730E+04  0.13565786951E+04  0.50400001928E-02 0. -1.
       -1    1    3    3    0  502 -0.10679639236E+03 -0.86986823308E+03 -0.16941100806E+04  0.19073765169E+04  0.50400001928E-02 0.  1.
</event>
<event>
 5   0  0.1365455E-07  0.3210033E+04  0.7818609E-02  0.8186173E-01
        1   -1    0    0  501    0  0.00000000000E+00  0.00000000000E+00  0.21642643167E+04  0.21642643167E+04  0.50400001928E-02 0.  1.
       -1   -1    0    0    0  501  0.00000000000E+00  0.00000000000E+00 -0.11902784670E+04  0.11902784670E+04  0.50400001928E-02 0. -1.
    10030    2    1    2    0    0  0.00000000000E+00  0.00000000000E+00  0.97398584968E+03  0.33545427837E+04  0.32100325313E+04 0.  0.
        3    1    3    3  502    0 -0.93695202530E+03  0.11789118256E+04  0.10672981083E+04  0.18457620249E+04  0.10100000352E+00 0. -1.
       -3    1    3    3    0  502  0.93695202530E+03 -0.11789118256E+04 -0.93312258601E+02  0.15087807588E+04  0.10100000352E+00 0.  1.
</event>
<event>
 5   0  0.3858721E-07  0.3192974E+04  0.7818609E-02  0.8190675E-01
        2   -1    0    0  501    0  0.00000000000E+00  0.00000000000E+00  0.19737221645E+04  0.19737221645E+04  0.25500000920E-02 0.  1.
       -2   -1    0    0    0  501  0.00000000000E+00  0.00000000000E+00 -0.12913525341E+04  0.12913525341E+04  0.25500000920E-02 0. -1.
    10030    2    1    2    0    0  0.00000000000E+00  0.00000000000E+00  0.68236963043E+03  0.32650746986E+04  0.31929742365E+04 0.  0.
        2    1    3    3  502    0  0.82923595299E+03 -0.17893184354E+03  0.17241749219E+04  0.19215691587E+04  0.25500000920E-02 0.  1.
       -2    1    3    3    0  502 -0.82923595299E+03  0.17893184354E+03 -0.10418052915E+04  0.13435055399E+04  0.25500000920E-02 0. -1.
</event>
<event>
 5   0  0.1317293E-07  0.3234337E+04  0.7818609E-02  0.8179807E-01
       -1   -1    0    0    0  501  0.00000000000E+00  0.00000000000E+00  0.15652795776E+04  0.15652795776E+04  0.50400001928E-02 0.  1.
        1   -1    0    0  501    0  0.00000000000E+00  0.00000000000E+00 -0.16707772333E+04  0.16707772333E+04  0.50400001928E-02 0. -1.
    10030    2    1    2    0    0  0.00000000000E+00  0.00000000000E+00 -0.10549765566E+03  0.32360568109E+04  0.32343367060E+04 0.  0.
        1    1    3    3  502    0  0.74002647189E+03 -0.37254417964E+02  0.13854461245E+04  0.15711422706E+04  0.50400001928E-02 0.  1.
       -1    1    3    3    0  502 -0.74002647189E+03  0.37254417964E+02 -0.14909437801E+04  0.16649145402E+04  0.50400001928E-02 0. -1.
</event>
<event>
 5   0  0.1365455E-07  0.3200096E+04  0.7818609E-02  0.8188792E-01
       -1   -1    0    0    0  501  0.00000000000E+00  0.00000000000E+00  0.11289409237E+04  0.11289409237E+04  0.50400001928E-02 0. -1.
        1   -1    0    0  501    0  0.00000000000E+00  0.00000000000E+00 -0.22677473849E+04  0.22677473849E+04  0.50400001928E-02 0.  1.
    10030    2    1    2    0    0  0.00000000000E+00  0.00000000000E+00 -0.11388064612E+04  0.33966883086E+04  0.32000955157E+04 0.  0.
        3    1    3    3  502    0  0.11426297797E+04 -0.16680000071E+03 -0.17450229235E+04  0.20924937437E+04  0.10100000352E+00 0.  1.
       -3    1    3    3    0  502 -0.11426297797E+04  0.16680000071E+03  0.60621646235E+03  0.13041945649E+04  0.10100000352E+00 0. -1.
</event>
<event>
 5   0  0.1317293E-07  0.3197004E+04  0.7818609E-02  0.8189609E-01
        1   -1    0    0  501    0  0.00000000000E+00  0.00000000000E+00  0.23554952739E+04  0.23554952739E+04  0.50400001928E-02 0.  1.
       -1   -1    0    0    0  501  0.00000000000E+00  0.00000000000E+00 -0.10847861637E+04  0.10847861637E+04  0.50400001928E-02 0. -1.
    10030    2    1    2    0    0  0.00000000000E+00  0.00000000000E+00  0.12707091103E+04  0.34402814376E+04  0.31970040236E+04 0.  0.
        1    1    3    3  502    0  0.90142075536E+03 -0.37167447260E+03 -0.72772640074E+03  0.12166704591E+04  0.50400001928E-02 0. -1.
       -1    1    3    3    0  502 -0.90142075536E+03  0.37167447260E+03  0.19984355110E+04  0.22236109784E+04  0.50400001928E-02 0.  1.
</event>
<event>
 5   0  0.3764056E-07  0.3205054E+04  0.7818609E-02  0.8187484E-01
       -2   -1    0    0    0  501  0.00000000000E+00  0.00000000000E+00  0.13083825109E+04  0.13083825109E+04  0.25500000920E-02 0. -1.
        2   -1    0    0  501    0  0.00000000000E+00  0.00000000000E+00 -0.19628002434E+04  0.19628002434E+04  0.25500000920E-02 0.  1.
    10030    2    1    2    0    0  0.00000000000E+00  0.00000000000E+00 -0.65441773246E+03  0.32711827542E+04  0.32050544524E+04 0.  0.
        5    1    3    3  502    0 -0.94229759068E+03  0.56383366556E+03 -0.15184397212E+04  0.18739035270E+04  0.46999998093E+01 0.  1.
       -5    1    3    3    0  502  0.94229759068E+03 -0.56383366556E+03  0.86402198871E+03  0.13972792272E+04  0.46999998093E+01 0. -1.
</event>
<event>
 5   0  0.3942564E-07  0.3172779E+04  0.7818609E-02  0.8196043E-01
       -2   -1    0    0    0  501  0.00000000000E+00  0.00000000000E+00  0.10126072030E+04  0.10126072030E+04  0.25500000920E-02 0. -1.
        2   -1    0    0  501    0  0.00000000000E+00  0.00000000000E+00 -0.24852986246E+04  0.24852986246E+04  0.25500000920E-02 0.  1.
    10030    2    1    2    0    0  0.00000000000E+00  0.00000000000E+00 -0.14726914216E+04  0.34979058276E+04  0.31727787751E+04 0.  0.
        3    1    3    3  502    0 -0.21456946852E+03  0.13647469731E+03  0.98999110582E+03  0.10221290523E+04  0.10100000352E+00 0. -1.
       -3    1    3    3    0  502  0.21456946852E+03 -0.13647469731E+03 -0.24626825275E+04  0.24757767753E+04  0.10100000352E+00 0.  1.
</event>
<event>
 5   0  0.3750285E-07  0.3199519E+04  0.7818609E-02  0.8188944E-01
        2   -1    0    0  501    0  0.00000000000E+00  0.00000000000E+00  0.24617692104E+04  0.24617692104E+04  0.25500000920E-02 0.  1.
       -2   -1    0    0    0  501  0.00000000000E+00  0.00000000000E+00 -0.10395900450E+04  0.10395900450E+04  0.25500000920E-02 0. -1.
    10030    2    1    2    0    0  0.00000000000E+00  0.00000000000E+00  0.14221791654E+04  0.35013592554E+04  0.31995191915E+04 0.  0.
        1    1    3    3  502    0  0.12696208407E+04  0.76085925764E+03  0.46881695260E+02  0.14808922251E+04  0.50400001928E-02 0. -1.
       -1    1    3    3    0  502 -0.12696208407E+04 -0.76085925764E+03  0.13752974701E+04  0.20204670303E+04  0.50400001928E-02 0.  1.
</event>
<event>
 5   0  0.1288096E-07  0.3200997E+04  0.7818609E-02  0.8188554E-01
        1   -1    0    0  501    0  0.00000000000E+00  0.00000000000E+00  0.17701132833E+04  0.17701132833E+04  0.50400001928E-02 0.  1.
       -1   -1    0    0    0  501  0.00000000000E+00  0.00000000000E+00 -0.14471363203E+04  0.14471363203E+04  0.50400001928E-02 0. -1.
    10030    2    1    2    0    0  0.00000000000E+00  0.00000000000E+00  0.32297696303E+03  0.32172496037E+04  0.32009968594E+04 0.  0.
        2    1    3    3  502    0  0.46423804931E+03  0.13176273670E+04  0.94643808879E+03  0.16874252281E+04  0.25500000920E-02 0.  1.
       -2    1    3    3    0  502 -0.46423804931E+03 -0.13176273670E+04 -0.62346112577E+03  0.15298243755E+04  0.25500000920E-02 0. -1.
</event>
<event>
 5   0  0.1317293E-07  0.3198661E+04  0.7818609E-02  0.8189171E-01
        1   -1    0    0  501    0  0.00000000000E+00  0.00000000000E+00  0.16448710295E+04  0.16448710295E+04  0.50400001928E-02 0.  1.
       -1   -1    0    0    0  501  0.00000000000E+00  0.00000000000E+00 -0.15550504130E+04  0.15550504130E+04  0.50400001928E-02 0. -1.
    10030    2    1    2    0    0  0.00000000000E+00  0.00000000000E+00  0.89820616457E+02  0.31999214425E+04  0.31986605783E+04 0.  0.
        1    1    3    3  502    0 -0.88200825373E+03  0.10091250975E+04 -0.82812226915E+03  0.15754550183E+04  0.50400001928E-02 0. -1.
       -1    1    3    3    0  502  0.88200825373E+03 -0.10091250975E+04  0.91794288560E+03  0.16244664242E+04  0.50400001928E-02 0.  1.
</event>
<event>
 5   0  0.3764056E-07  0.3198276E+04  0.7818609E-02  0.8189273E-01
        2   -1    0    0  501    0  0.00000000000E+00  0.00000000000E+00  0.10148915415E+04  0.10148915415E+04  0.25500000920E-02 0. -1.
       -2   -1    0    0    0  501  0.00000000000E+00  0.00000000000E+00 -0.25197193922E+04  0.25197193922E+04  0.25500000920E-02 0.  1.
    10030    2    1    2    0    0  0.00000000000E+00  0.00000000000E+00 -0.15048278507E+04  0.35346109337E+04  0.31982757217E+04 0.  0.
        5    1    3    3  502    0  0.44048843209E+03 -0.39589091217E+03  0.88921032077E+03  0.10683991565E+04  0.46999998093E+01 0. -1.
       -5    1    3    3    0  502 -0.44048843209E+03  0.39589091217E+03 -0.23940381715E+04  0.24662117772E+04  0.46999998093E+01 0.  1.
</event>
<event>
 5   0  0.1277374E-07  0.3205400E+04  0.7818609E-02  0.8187392E-01
        1   -1    0    0  501    0  0.00000000000E+00  0.00000000000E+00  0.18063885535E+04  0.18063885536E+04  0.50400001928E-02 0. -1.
       -1   -1    0    0    0  501  0.00000000000E+00  0.00000000000E+00 -0.14219795295E+04  0.14219795295E+04  0.50400001928E-02 0.  1.
    10030    2    1    2    0    0  0.00000000000E+00  0.00000000000E+00  0.38440902403E+03  0.32283680831E+04  0.32054001594E+04 0.  0.
        5    1    3    3  502    0  0.15890037122E+04  0.19271222547E+03  0.27374545938E+03  0.16238933049E+04  0.46999998093E+01 0. -1.
       -5    1    3    3    0  502 -0.15890037122E+04 -0.19271222547E+03  0.11066356464E+03  0.16044747782E+04  0.46999998093E+01 0.  1.
</event>
<event>
 5   0  0.1270948E-07  0.3196568E+04  0.7818609E-02  0.8189724E-01
       -1   -1    0    0    0  501  0.00000000000E+00  0.00000000000E+00  0.14360828180E+04  0.14360828180E+04  0.50400001928E-02 0. -1.
        1   -1    0    0  501    0  0.00000000000E+00  0.00000000000E+00 -0.17788058611E+04  0.17788058611E+04  0.50400001928E-02 0.  1.
    10030    2    1    2    0    0  0.00000000000E+00  0.00000000000E+00 -0.34272304314E+03  0.32148886791E+04  0.31965684937E+04 0.  0.
        4    1    3    3  502    0  0.90442038513E+03  0.10222930128E+04 -0.10076629604E+04  0.16965982117E+04  0.12699999809E+01 0.  1.
       -4    1    3    3    0  502 -0.90442038513E+03 -0.10222930128E+04  0.66493991726E+03  0.15182904675E+04  0.12699999809E+01 0. -1.
</event>
<event>
 5   0  0.3764056E-07  0.3197628E+04  0.7818609E-02  0.8189444E-01
       -2   -1    0    0    0  501  0.00000000000E+00  0.00000000000E+00  0.13234980517E+04  0.13234980517E+04  0.25500000920E-02 0. -1.
        2   -1    0    0  501    0  0.00000000000E+00  0.00000000000E+00 -0.19314017057E+04  0.19314017057E+04  0.25500000920E-02 0.  1.
    10030    2    1    2    0    0  0.00000000000E+00  0.00000000000E+00 -0.60790365400E+03  0.32548997574E+04  0.31976281176E+04 0.  0.
        5    1    3    3  502    0  0.82840395389E+03  0.11845947947E+03  0.10827617879E+04  0.13684593302E+04  0.46999998093E+01 0. -1.
       -5    1    3    3    0  502 -0.82840395389E+03 -0.11845947947E+03 -0.16906654419E+04  0.18864404272E+04  0.46999998093E+01 0.  1.
</event>
<event>
 5   0  0.1230450E-07  0.3186540E+04  0.7818609E-02  0.8192381E-01
       -3   -1    0    0    0  501  0.00000000000E+00  0.00000000000E+00  0.96795395904E+03  0.96795396431E+03  0.10100000352E+00 0. -1.
        3   -1    0    0  501    0  0.00000000000E+00  0.00000000000E+00 -0.26225508887E+04  0.26225508906E+04  0.10100000352E+00 0.  1.
    10030    2    1    2    0    0  0.00000000000E+00  0.00000000000E+00 -0.16545969296E+04  0.35905048549E+04  0.31865395202E+04 0.  0.
        4    1    3    3  502    0  0.12938596716E+04  0.44932019599E+02 -0.18736904517E+04  0.22774567521E+04  0.12699999809E+01 0.  1.
       -4    1    3    3    0  502 -0.12938596716E+04 -0.44932019599E+02  0.21909352202E+03  0.13130481029E+04  0.12699999809E+01 0. -1.
</event>
<event>
 5   0  0.3764056E-07  0.3226729E+04  0.7818609E-02  0.8181793E-01
       -2   -1    0    0    0  501  0.00000000000E+00  0.00000000000E+00  0.11013709281E+04  0.11013709281E+04  0.25500000920E-02 0. -1.
        2   -1    0    0  501    0  0.00000000000E+00  0.00000000000E+00 -0.23633689078E+04  0.23633689078E+04  0.25500000920E-02 0.  1.
    10030    2    1    2    0    0  0.00000000000E+00  0.00000000000E+00 -0.12619979796E+04  0.34647398359E+04  0.32267294944E+04 0.  0.
        5    1    3    3  502    0  0.95687288295E+03  0.11864063406E+04 -0.11989348960E+04  0.19392350796E+04  0.46999998093E+01 0.  1.
       -5    1    3    3    0  502 -0.95687288295E+03 -0.11864063406E+04 -0.63063083641E+02  0.15255047563E+04  0.46999998093E+01 0. -1.
</event>
<event>
 5   0  0.3830207E-07  0.3205955E+04  0.7818609E-02  0.8187246E-01
       -2   -1    0    0    0  501  0.00000000000E+00  0.00000000000E+00  0.13294030918E+04  0.13294030918E+04  0.25500000920E-02 0. -1.
        2   -1    0    0  501    0  0.00000000000E+00  0.00000000000E+00 -0.19328506435E+04  0.19328506435E+04  0.25500000920E-02 0.  1.
    10030    2    1    2    0    0  0.00000000000E+00  0.00000000000E+00 -0.60344755171E+03  0.32622537352E+04  0.32059554715E+04 0.  0.
        4    1    3    3  502    0 -0.11461224767E+04  0.89941608052E+03  0.37858982001E+03  0.15052833229E+04  0.12699999809E+01 0. -1.
       -4    1    3    3    0  502  0.11461224767E+04 -0.89941608052E+03 -0.98203737172E+03  0.17569704123E+04  0.12699999809E+01 0.  1.
</event>
<event>
 5   0  0.3750285E-07  0.3231498E+04  0.7818609E-02  0.8180548E-01
        2   -1    0    0  501    0  0.00000000000E+00  0.00000000000E+00  0.19207631324E+04  0.19207631324E+04  0.25500000920E-02 0.  1.
       -2   -1    0    0    0  501  0.00000000000E+00  0.00000000000E+00 -0.13591704337E+04  0.13591704337E+04  0.25500000920E-02 0. -1.
    10030    2    1    2    0    0  0.00000000000E+00  0.00000000000E+00  0.56159269870E+03  0.32799335660E+04  0.32314977701E+04 0.  0.
        1    1    3    3  502    0 -0.79961587515E+03  0.78114009875E+03 -0.90334313505E+03  0.14372175275E+04  0.50400001928E-02 0. -1.
       -1    1    3    3    0  502  0.79961587515E+03 -0.78114009875E+03  0.14649358337E+04  0.18427160385E+04  0.50400001928E-02 0.  1.
</event>
<event>
 5   0  0.3750285E-07  0.3202840E+04  0.7818609E-02  0.8188067E-01
       -2   -1    0    0    0  501  0.00000000000E+00  0.00000000000E+00  0.12279740730E+04  0.12279740730E+04  0.25500000920E-02 0. -1.
        2   -1    0    0  501    0  0.00000000000E+00  0.00000000000E+00 -0.20884370700E+04  0.20884370700E+04  0.25500000920E-02 0.  1.
    10030    2    1    2    0    0  0.00000000000E+00  0.00000000000E+00 -0.86046299707E+03  0.33164111430E+04  0.32028403488E+04 0.  0.
        1    1    3    3  502    0 -0.15651675671E+04 -0.27759670027E+03 -0.22908265874E+03  0.16060162843E+04  0.50400001928E-02 0.  1.
       -1    1    3    3    0  502  0.15651675671E+04  0.27759670027E+03 -0.63138033833E+03  0.17103948587E+04  0.50400001928E-02 0. -1.
</event>
<event>
 5   0  0.1288096E-07  0.3201352E+04  0.7818609E-02  0.8188460E-01
       -1   -1    0    0    0  501  0.00000000000E+00  0.00000000000E+00  0.12905662129E+04  0.12905662129E+04  0.50400001928E-02 0.  1.
        1   -1    0    0  501    0  0.00000000000E+00  0.00000000000E+00 -0.19853022710E+04  0.19853022710E+04  0.50400001928E-02 0. -1.
    10030    2    1    2    0    0  0.00000000000E+00  0.00000000000E+00 -0.69473605802E+03  0.32758684839E+04  0.32013522351E+04 0.  0.
        2    1    3    3  502    0 -0.11532445477E+04 -0.33451687857E+03 -0.14304420296E+04  0.18676292268E+04  0.25500000920E-02 0. -1.
       -2    1    3    3    0  502  0.11532445477E+04  0.33451687857E+03  0.73570597153E+03  0.14082392571E+04  0.25500000920E-02 0.  1.
</event>
<event>
 5   0  0.3750285E-07  0.3197179E+04  0.7818609E-02  0.8189563E-01
        2   -1    0    0  501    0  0.00000000000E+00  0.00000000000E+00  0.12380041972E+04  0.12380041972E+04  0.25500000920E-02 0.  1.
       -2   -1    0    0    0  501  0.00000000000E+00  0.00000000000E+00 -0.20642000536E+04  0.20642000536E+04  0.25500000920E-02 0. -1.
    10030    2    1    2    0    0  0.00000000000E+00  0.00000000000E+00 -0.82619585644E+03  0.33022042508E+04  0.31971789629E+04 0.  0.
        1    1    3    3  502    0 -0.29725438574E+03  0.60518289381E+01  0.12091962776E+04  0.12452118022E+04  0.50400001928E-02 0.  1.
       -1    1    3    3    0  502  0.29725438574E+03 -0.60518289381E+01 -0.20353921340E+04  0.20569924486E+04  0.50400001928E-02 0. -1.
</event>
<event>
 5   0  0.1277374E-07  0.3196403E+04  0.7818609E-02  0.8189768E-01
        1   -1    0    0  501    0  0.00000000000E+00  0.00000000000E+00  0.18142224561E+04  0.18142224561E+04  0.50400001928E-02 0.  1.
       -1   -1    0    0    0  501  0.00000000000E+00  0.00000000000E+00 -0.14079022749E+04  0.14079022749E+04  0.50400001928E-02 0. -1.
    10030    2    1    2    0    0  0.00000000000E+00  0.00000000000E+00  0.40632018120E+03  0.32221247310E+04  0.31964029302E+04 0.  0.
        5    1    3    3  502    0 -0.15643708489E+04  0.90685723434E+02  0.51992721333E+03  0.16510077076E+04  0.46999998093E+01 0.  1.
       -5    1    3    3    0  502  0.15643708489E+04 -0.90685723434E+02 -0.11360703213E+03  0.15711170234E+04  0.46999998093E+01 0. -1.
</event>
<event>
 5   0  0.1365455E-07  0.3203128E+04  0.7818609E-02  0.8187992E-01
       -1   -1    0    0    0  501  0.00000000000E+00  0.00000000000E+00  0.10094458223E+04  0.10094458223E+04  0.50400001928E-02 0.  1.
        1   -1    0    0  501    0  0.00000000000E+00  0.00000000000E+00 -0.25410051393E+04  0.25410051393E+04  0.50400001928E-02 0. -1.
    10030    2    1    2    0    0  0.00000000000E+00  0.00000000000E+00 -0.15315593169E+04  0.35504509616E+04  0.32031278603E+04 0.  0.
        3    1    3    3  502    0  0.40633195950E+03  0.14795088657E+04 -0.12748807390E+04  0.19948365983E+04  0.10100000352E+00 0. -1.
       -3    1    3    3    0  502 -0.40633195950E+03 -0.14795088657E+04 -0.25667857792E+03  0.15556143633E+04  0.10100000352E+00 0.  1.
</event>
<event>
 5   0  0.3830207E-07  0.3200420E+04  0.7818609E-02  0.8188706E-01
        2   -1    0    0  501    0  0.00000000000E+00  0.00000000000E+00  0.20320439984E+04  0.20320439984E+04  0.25500000920E-02 0. -1.
       -2   -1    0    0    0  501  0.00000000000E+00  0.00000000000E+00 -0.12601459208E+04  0.12601459208E+04  0.25500000920E-02 0.  1.
    10030    2    1    2    0    0  0.00000000000E+00  0.00000000000E+00  0.77189807761E+03  0.32921899192E+04  0.32004199446E+04 0.  0.
        4    1    3    3  502    0 -0.22887082190E+03  0.10414864788E+04  0.16133064479E+04  0.19338653640E+04  0.12699999809E+01 0. -1.
       -4    1    3    3    0  502  0.22887082190E+03 -0.10414864788E+04 -0.84140837028E+03  0.13583245551E+04  0.12699999809E+01 0.  1.
</event>
<event>
 5   0  0.1317293E-07  0.3200197E+04  0.7818609E-02  0.8188765E-01
        1   -1    0    0  501    0  0.00000000000E+00  0.00000000000E+00  0.24893875796E+04  0.24893875796E+04  0.50400001928E-02 0. -1.
       -1   -1    0    0    0  501  0.00000000000E+00  0.00000000000E+00 -0.10284922722E+04  0.10284922722E+04  0.50400001928E-02 0.  1.
    10030    2    1    2    0    0  0.00000000000E+00  0.00000000000E+00  0.14608953074E+04  0.35178798518E+04  0.32001974240E+04 0.  0.
        1    1    3    3  502    0 -0.91636751402E+03 -0.12835646712E+04  0.43334331239E+03  0.16355592659E+04  0.50400001928E-02 0.  1.
       -1    1    3    3    0  502  0.91636751402E+03  0.12835646712E+04  0.10275519950E+04  0.18823205860E+04  0.50400001928E-02 0. -1.
</event>
<event>
 5   0  0.3942564E-07  0.3198522E+04  0.7818609E-02  0.8189208E-01
       -2   -1    0    0    0  501  0.00000000000E+00  0.00000000000E+00  0.15032819211E+04  0.15032819211E+04  0.25500000920E-02 0.  1.
        2   -1    0    0  501    0  0.00000000000E+00  0.00000000000E+00 -0.17013679729E+04  0.17013679729E+04  0.25500000920E-02 0. -1.
    10030    2    1    2    0    0  0.00000000000E+00  0.00000000000E+00 -0.19808605177E+03  0.32046498939E+04  0.31985219804E+04 0.  0.
        3    1    3    3  502    0  0.51710743682E+03 -0.60661107585E+02 -0.16140762461E+04  0.16959722903E+04  0.10100000352E+00 0. -1.
       -3    1    3    3    0  502 -0.51710743682E+03  0.60661107585E+02  0.14159901943E+04  0.15086776036E+04  0.10100000352E+00 0.  1.
</event>
<event>
 5   0  0.3942564E-07  0.3198033E+04  0.7818609E-02  0.8189337E-01
       -2   -1    0    0    0  501  0.00000000000E+00  0.00000000000E+00  0.10096225411E+04  0.10096225411E+04  0.25500000920E-02 0. -1.
        2   -1    0    0  501    0  0.00000000000E+00  0.00000000000E+00 -0.25324840537E+04  0.25324840537E+04  0.25500000920E-02 0.  1.
    10030    2    1    2    0    0  0.00000000000E+00  0.00000000000E+00 -0.15228615126E+04  0.35421065948E+04  0.31980325112E+04 0.  0.
        3    1    3    3  502    0  0.15217649543E+04 -0.60040726915E+02 -0.13011797292E+04  0.20031081256E+04  0.10100000352E+00 0.  1.
       -3    1    3    3    0  502 -0.15217649543E+04  0.60040726915E+02 -0.22168178347E+03  0.15389984692E+04  0.10100000352E+00 0. -1.
</event>
<event>
 5   0  0.3942564E-07  0.3205805E+04  0.7818609E-02  0.8187286E-01
        2   -1    0    0  501    0  0.00000000000E+00  0.00000000000E+00  0.18032377496E+04  0.18032377496E+04  0.25500000920E-02 0. -1.
       -2   -1    0    0    0  501  0.00000000000E+00  0.00000000000E+00 -0.14248244225E+04  0.14248244226E+04  0.25500000920E-02 0.  1.
    10030    2    1    2    0    0  0.00000000000E+00  0.00000000000E+00  0.37841332702E+03  0.32280621721E+04  0.32058054746E+04 0.  0.
        3    1    3    3  502    0  0.11993147800E+04 -0.60403498163E+03  0.10705449354E+04  0.17173469858E+04  0.10100000352E+00 0. -1.
       -3    1    3    3    0  502 -0.11993147800E+04  0.60403498163E+03 -0.69213160842E+03  0.15107151863E+04  0.10100000352E+00 0.  1.
</event>
<event>
 5   0  0.1288096E-07  0.3197803E+04  0.7818609E-02  0.8189398E-01
        1   -1    0    0  501    0  0.00000000000E+00  0.00000000000E+00  0.10307802448E+04  0.10307802448E+04  0.50400001928E-02 0.  1.
       -1   -1    0    0    0  501  0.00000000000E+00  0.00000000000E+00 -0.24801465194E+04  0.24801465194E+04  0.50400001928E-02 0. -1.
    10030    2    1    2    0    0  0.00000000000E+00  0.00000000000E+00 -0.14493662745E+04  0.35109267642E+04  0.31978030186E+04 0.  0.
        2    1    3    3  502    0  0.98041895239E+03  0.98943166237E+03 -0.15865943230E+04  0.21112739951E+04  0.25500000920E-02 0. -1.
       -2    1    3    3    0  502 -0.98041895239E+03 -0.98943166237E+03  0.13722804846E+03  0.13996527691E+04  0.25500000920E-02 0.  1.
</event>
<event>
 5   0  0.3764056E-07  0.3155035E+04  0.7818609E-02  0.8200794E-01
       -2   -1    0    0    0  501  0.00000000000E+00  0.00000000000E+00  0.16616363845E+04  0.16616363845E+04  0.25500000920E-02 0.  1.
        2   -1    0    0  501    0  0.00000000000E+00  0.00000000000E+00 -0.14976567776E+04  0.14976567776E+04  0.25500000920E-02 0. -1.
    10030    2    1    2    0    0  0.00000000000E+00  0.00000000000E+00  0.16397960689E+03  0.31592931621E+04  0.31550347022E+04 0.  0.
        5    1    3    3  502    0 -0.84805643596E+02  0.35851041251E+03 -0.14539701030E+04  0.14999242860E+04  0.46999998093E+01 0. -1.
       -5    1    3    3    0  502  0.84805643596E+02 -0.35851041251E+03  0.16179497099E+04  0.16593688761E+04  0.46999998093E+01 0.  1.
</event>
<event>
 5   0  0.3764056E-07  0.3197148E+04  0.7818609E-02  0.8189571E-01
        2   -1    0    0  501    0  0.00000000000E+00  0.00000000000E+00  0.18141478815E+04  0.18141478815E+04  0.25500000920E-02 0. -1.
       -2   -1    0    0    0  501  0.00000000000E+00  0.00000000000E+00 -0.14086165424E+04  0.14086165424E+04  0.25500000920E-02 0.  1.
    10030    2    1    2    0    0  0.00000000000E+00  0.00000000000E+00  0.40553133909E+03  0.32227644239E+04  0.31971479267E+04 0.  0.
        5    1    3    3  502    0  0.35350908721E+03  0.12389638847E+04  0.11566118894E+04  0.17314079054E+04  0.46999998093E+01 0. -1.
       -5    1    3    3    0  502 -0.35350908721E+03 -0.12389638847E+04 -0.75108055027E+03  0.14913565185E+04  0.46999998093E+01 0.  1.
</event>
<event>
 5   0  0.3830207E-07  0.3196491E+04  0.7818609E-02  0.8189745E-01
        2   -1    0    0  501    0  0.00000000000E+00  0.00000000000E+00  0.15428297991E+04  0.15428297991E+04  0.25500000920E-02 0.  1.
       -2   -1    0    0    0  501  0.00000000000E+00  0.00000000000E+00 -0.16556515574E+04  0.16556515574E+04  0.25500000920E-02 0. -1.
    10030    2    1    2    0    0  0.00000000000E+00  0.00000000000E+00 -0.11282175833E+03  0.31984813565E+04  0.31964909258E+04 0.  0.
        4    1    3    3  502    0  0.15184210992E+03  0.72859051208E+03  0.13588555049E+04  0.15493192236E+04  0.12699999809E+01 0.  1.
       -4    1    3    3    0  502 -0.15184210992E+03 -0.72859051208E+03 -0.14716772632E+04  0.16491621329E+04  0.12699999809E+01 0. -1.
</event>
<event>
 5   0  0.3830207E-07  0.3191057E+04  0.7818609E-02  0.8191183E-01
        2   -1    0    0  501    0  0.00000000000E+00  0.00000000000E+00  0.23085193273E+04  0.23085193273E+04  0.25500000920E-02 0. -1.
       -2   -1    0    0    0  501  0.00000000000E+00  0.00000000000E+00 -0.11027462485E+04  0.11027462485E+04  0.25500000920E-02 0.  1.
    10030    2    1    2    0    0  0.00000000000E+00  0.00000000000E+00  0.12057730787E+04  0.34112655758E+04  0.31910568957E+04 0.  0.
        4    1    3    3  502    0 -0.61973741432E+03  0.13595827568E+04  0.46528892891E+01  0.14941763610E+04  0.12699999809E+01 0.  1.
       -4    1    3    3    0  502  0.61973741432E+03 -0.13595827568E+04  0.12011201894E+04  0.19170892149E+04  0.12699999809E+01 0. -1.
</event>
<event>
 5   0  0.1270948E-07  0.3204358E+04  0.7818609E-02  0.8187667E-01
        1   -1    0    0  501    0  0.00000000000E+00  0.00000000000E+00  0.22210749790E+04  0.22210749790E+04  0.50400001928E-02 0. -1.
       -1   -1    0    0    0  501  0.00000000000E+00  0.00000000000E+00 -0.11557368659E+04  0.11557368659E+04  0.50400001928E-02 0.  1.
    10030    2    1    2    0    0  0.00000000000E+00  0.00000000000E+00  0.10653381131E+04  0.33768118449E+04  0.32043584289E+04 0.  0.
        4    1    3    3  502    0  0.10322439356E+04  0.12217779847E+04  0.63100581905E+03  0.17194298308E+04  0.12699999809E+01 0. -1.
       -4    1    3    3    0  502 -0.10322439356E+04 -0.12217779847E+04  0.43433229409E+03  0.16573820142E+04  0.12699999809E+01 0.  1.
</event>
<event>
 5   0  0.3942564E-07  0.3200433E+04  0.7818609E-02  0.8188703E-01
       -2   -1    0    0    0  501  0.00000000000E+00  0.00000000000E+00  0.11569849509E+04  0.11569849509E+04  0.25500000920E-02 0.  1.
        2   -1    0    0  501    0  0.00000000000E+00  0.00000000000E+00 -0.22132461804E+04  0.22132461804E+04  0.25500000920E-02 0. -1.
    10030    2    1    2    0    0  0.00000000000E+00  0.00000000000E+00 -0.10562612294E+04  0.33702311313E+04  0.32004327979E+04 0.  0.
        3    1    3    3  502    0  0.65821872766E+03  0.72046962017E+03  0.80736714899E+03  0.12665583644E+04  0.10100000352E+00 0.  1.
       -3    1    3    3    0  502 -0.65821872766E+03 -0.72046962017E+03 -0.18636283784E+04  0.21036727669E+04  0.10100000352E+00 0. -1.
</event>
<event>
 5   0  0.1270948E-07  0.3207714E+04  0.7818609E-02  0.8186783E-01
        1   -1    0    0  501    0  0.00000000000E+00  0.00000000000E+00  0.14030098128E+04  0.14030098128E+04  0.50400001928E-02 0.  1.
       -1   -1    0    0    0  501  0.00000000000E+00  0.00000000000E+00 -0.18334559427E+04  0.18334559428E+04  0.50400001928E-02 0. -1.
    10030    2    1    2    0    0  0.00000000000E+00  0.00000000000E+00 -0.43044612998E+03  0.32364657555E+04  0.32077136275E+04 0.  0.
        4    1    3    3  502    0  0.57348788781E+03  0.14680329071E+04  0.84671848281E+02  0.15783472078E+04  0.12699999809E+01 0. -1.
       -4    1    3    3    0  502 -0.57348788781E+03 -0.14680329071E+04 -0.51511797826E+03  0.16581185477E+04  0.12699999809E+01 0.  1.
</event>
<event>
 5   0  0.3750285E-07  0.3196025E+04  0.7818609E-02  0.8189868E-01
       -2   -1    0    0    0  501  0.00000000000E+00  0.00000000000E+00  0.15072656185E+04  0.15072656185E+04  0.25500000920E-02 0.  1.
        2   -1    0    0  501    0  0.00000000000E+00  0.00000000000E+00 -0.16942230234E+04  0.16942230234E+04  0.25500000920E-02 0. -1.
    10030    2    1    2    0    0  0.00000000000E+00  0.00000000000E+00 -0.18695740492E+03  0.32014886419E+04  0.31960251021E+04 0.  0.
        1    1    3    3  502    0 -0.12983695896E+04  0.83055235905E+03  0.32921813033E+03  0.15760600844E+04  0.50400001928E-02 0. -1.
       -1    1    3    3    0  502  0.12983695896E+04 -0.83055235905E+03 -0.51617553525E+03  0.16254285575E+04  0.50400001928E-02 0.  1.
</event>
<event>
 5   0  0.3858721E-07  0.3204591E+04  0.7818609E-02  0.8187606E-01
       -2   -1    0    0    0  501  0.00000000000E+00  0.00000000000E+00  0.14461379845E+04  0.14461379845E+04  0.25500000920E-02 0. -1.
        2   -1    0    0  501    0  0.00000000000E+00  0.00000000000E+00 -0.17753151877E+04  0.17753151877E+04  0.25500000920E-02 0.  1.
    10030    2    1    2    0    0  0.00000000000E+00  0.00000000000E+00 -0.32917720316E+03  0.32214531723E+04  0.32045909115E+04 0.  0.
        2    1    3    3  502    0  0.92770321372E+03 -0.94934326340E+03 -0.10667879738E+04  0.17029158716E+04  0.25500000920E-02 0.  1.
       -2    1    3    3    0  502 -0.92770321372E+03  0.94934326340E+03  0.73761077068E+03  0.15185373007E+04  0.25500000920E-02 0. -1.
</event>
<event>
 5   0  0.1270948E-07  0.3221324E+04  0.7818609E-02  0.8183208E-01
       -1   -1    0    0    0  501  0.00000000000E+00  0.00000000000E+00  0.24224146662E+04  0.24224146662E+04  0.50400001928E-02 0. -1.
        1   -1    0    0  501    0  0.00000000000E+00  0.00000000000E+00 -0.10709281393E+04  0.10709281393E+04  0.50400001928E-02 0.  1.
    10030    2    1    2    0    0  0.00000000000E+00  0.00000000000E+00  0.13514865268E+04  0.34933428055E+04  0.32213239707E+04 0.  0.
        4    1    3    3  502    0  0.22777862988E+03  0.56624533857E+03  0.22921506678E+04  0.23720187994E+04  0.12699999809E+01 0. -1.
       -4    1    3    3    0  502 -0.22777862988E+03 -0.56624533857E+03 -0.94066414098E+03  0.11213240061E+04  0.12699999809E+01 0.  1.
</event>
<event>
 5   0  0.1288096E-07  0.3197088E+04  0.7818609E-02  0.8189587E-01
        1   -1    0    0  501    0  0.00000000000E+00  0.00000000000E+00  0.23765118211E+04  0.23765118211E+04  0.50400001928E-02 0.  1.
       -1   -1    0    0    0  501  0.00000000000E+00  0.00000000000E+00 -0.10752496705E+04  0.10752496705E+04  0.50400001928E-02 0. -1.
    10030    2    1    2    0    0  0.00000000000E+00  0.00000000000E+00  0.13012621507E+04  0.34517614916E+04  0.31970883957E+04 0.  0.
        2    1    3    3  502    0 -0.19944193974E+03 -0.11033695706E+04  0.18807504114E+04  0.21896172284E+04  0.25500000920E-02 0.  1.
       -2    1    3    3    0  502  0.19944193974E+03  0.11033695706E+04 -0.57948826078E+03  0.12621442632E+04  0.25500000920E-02 0. -1.
</event>
<event>
 5   0  0.3830207E-07  0.3197778E+04  0.7818609E-02  0.8189404E-01
       -2   -1    0    0    0  501  0.00000000000E+00  0.00000000000E+00  0.10903096786E+04  0.10903096786E+04  0.25500000920E-02 0.  1.
        2   -1    0    0  501    0  0.00000000000E+00  0.00000000000E+00 -0.23446964736E+04  0.23446964736E+04  0.25500000920E-02 0. -1.
    10030    2    1    2    0    0  0.00000000000E+00  0.00000000000E+00 -0.12543867950E+04  0.34350061522E+04  0.31977775148E+04 0.  0.
        4    1    3    3  502    0 -0.86508475691E+03  0.79447025088E+03 -0.17925183129E+04  0.21430534597E+04  0.12699999809E+01 0. -1.
       -4    1    3    3    0  502  0.86508475691E+03 -0.79447025088E+03  0.53813151787E+03  0.12919526925E+04  0.12699999809E+01 0.  1.
</event>
<event>
 5   0  0.3830207E-07  0.3187079E+04  0.7818609E-02  0.8192238E-01
       -2   -1    0    0    0  501  0.00000000000E+00  0.00000000000E+00  0.85238384106E+03  0.85238384106E+03  0.25500000920E-02 0. -1.
        2   -1    0    0  501    0  0.00000000000E+00  0.00000000000E+00 -0.29791360468E+04  0.29791360468E+04  0.25500000920E-02 0.  1.
    10030    2    1    2    0    0  0.00000000000E+00  0.00000000000E+00 -0.21267522057E+04  0.38315198878E+04  0.31870785535E+04 0.  0.
        4    1    3    3  502    0  0.36835109532E+03 -0.13744448595E+04 -0.20098014167E+03  0.14370719646E+04  0.12699999809E+01 0. -1.
       -4    1    3    3    0  502 -0.36835109532E+03  0.13744448595E+04 -0.19257720641E+04  0.23944479232E+04  0.12699999809E+01 0.  1.
</event>
<event>
 5   0  0.1270948E-07  0.3199829E+04  0.7818609E-02  0.8188862E-01
       -1   -1    0    0    0  501  0.00000000000E+00  0.00000000000E+00  0.19399432124E+04  0.19399432124E+04  0.50400001928E-02 0.  1.
        1   -1    0    0  501    0  0.00000000000E+00  0.00000000000E+00 -0.13194848813E+04  0.13194848813E+04  0.50400001928E-02 0. -1.
    10030    2    1    2    0    0  0.00000000000E+00  0.00000000000E+00  0.62045833113E+03  0.32594280937E+04  0.31998285825E+04 0.  0.
        4    1    3    3  502    0  0.10007660378E+04  0.94171635341E+03 -0.52439892207E+03  0.14708358831E+04  0.12699999809E+01 0. -1.
       -4    1    3    3    0  502 -0.10007660378E+04 -0.94171635341E+03  0.11448572532E+04  0.17885922106E+04  0.12699999809E+01 0.  1.
</event>
<event>
 5   0  0.1288096E-07  0.3204098E+04  0.7818609E-02  0.8187736E-01
        1   -1    0    0  501    0  0.00000000000E+00  0.00000000000E+00  0.16689419724E+04  0.16689419724E+04  0.50400001928E-02 0. -1.
       -1   -1    0    0    0  501  0.00000000000E+00  0.00000000000E+00 -0.15378374797E+04  0.15378374797E+04  0.50400001928E-02 0.  1.
    10030    2    1    2    0    0  0.00000000000E+00  0.00000000000E+00  0.13110449274E+03  0.32067794521E+04  0.32040983235E+04 0.  0.
        2    1    3    3  502    0 -0.14180794574E+04  0.69432905269E+03  0.33692362718E+03  0.16144843485E+04  0.25500000920E-02 0. -1.
       -2    1    3    3    0  502  0.14180794574E+04 -0.69432905269E+03 -0.20581913443E+03  0.15922951036E+04  0.25500000920E-02 0.  1.
</event>
<event>
 5   0  0.3764056E-07  0.3222036E+04  0.7818609E-02  0.8183022E-01
       -2   -1    0    0    0  501  0.00000000000E+00  0.00000000000E+00  0.34305095997E+04  0.34305095997E+04  0.25500000920E-02 0.  1.
        2   -1    0    0  501    0  0.00000000000E+00  0.00000000000E+00 -0.75655775174E+03  0.75655775174E+03  0.25500000920E-02 0. -1.
    10030    2    1    2    0    0  0.00000000000E+00  0.00000000000E+00  0.26739518479E+04  0.41870673514E+04  0.32220357726E+04 0.  0.
        5    1    3    3  502    0  0.83467632221E+02 -0.75331628180E+03 -0.51038800788E+03  0.91376707899E+03  0.46999998093E+01 0. -1.
       -5    1    3    3    0  502 -0.83467632221E+02  0.75331628180E+03  0.31843398558E+04  0.32733002724E+04  0.46999998093E+01 0.  1.
</event>
<event>
 5   0  0.3764056E-07  0.3105751E+04  0.7818609E-02  0.8214161E-01
       -2   -1    0    0    0  501  0.00000000000E+00  0.00000000000E+00  0.11439482650E+04  0.11439482650E+04  0.25500000920E-02 0. -1.
        2   -1    0    0  501    0  0.00000000000E+00  0.00000000000E+00 -0.21079826368E+04  0.21079826368E+04  0.25500000920E-02 0.  1.
    10030    2    1    2    0    0  0.00000000000E+00  0.00000000000E+00 -0.96403437178E+03  0.32519309019E+04  0.31057514905E+04 0.  0.
        5    1    3    3  502    0  0.24663664820E+03  0.40487772527E+03 -0.20303481008E+04  0.20849678916E+04  0.46999998093E+01 0.  1.
       -5    1    3    3    0  502 -0.24663664820E+03 -0.40487772527E+03  0.10663137290E+04  0.11669630103E+04  0.46999998093E+01 0. -1.
</event>
<event>
 5   0  0.1277374E-07  0.3230984E+04  0.7818609E-02  0.8180682E-01
        1   -1    0    0  501    0  0.00000000000E+00  0.00000000000E+00  0.21951874422E+04  0.21951874422E+04  0.50400001928E-02 0.  1.
       -1   -1    0    0    0  501  0.00000000000E+00  0.00000000000E+00 -0.11888799558E+04  0.11888799559E+04  0.50400001928E-02 0. -1.
    10030    2    1    2    0    0  0.00000000000E+00  0.00000000000E+00  0.10063074864E+04  0.33840673981E+04  0.32309839674E+04 0.  0.
        5    1    3    3  502    0 -0.15332598635E+04 -0.34165096373E+03  0.89808825714E+03  0.18094739008E+04  0.46999998093E+01 0.  1.
       -5    1    3    3    0  502  0.15332598635E+04  0.34165096373E+03  0.10821922923E+03  0.15745934973E+04  0.46999998093E+01 0. -1.
</event>
<event>
 5   0  0.3858721E-07  0.3193772E+04  0.7818609E-02  0.8190464E-01
       -2   -1    0    0    0  501  0.00000000000E+00  0.00000000000E+00  0.15315175524E+04  0.15315175524E+04  0.25500000920E-02 0.  1.
        2   -1    0    0  501    0  0.00000000000E+00  0.00000000000E+00 -0.16650448469E+04  0.16650448469E+04  0.25500000920E-02 0. -1.
    10030    2    1    2    0    0  0.00000000000E+00  0.00000000000E+00 -0.13352729451E+03  0.31965623994E+04  0.31937723204E+04 0.  0.
        2    1    3    3  502    0  0.78073712300E+03 -0.20297370594E+01 -0.14609956005E+04  0.16565212705E+04  0.25500000920E-02 0. -1.
       -2    1    3    3    0  502 -0.78073712300E+03  0.20297370594E+01  0.13274683060E+04  0.15400411288E+04  0.25500000920E-02 0.  1.
</event>
<event>
 5   0  0.1270948E-07  0.3194346E+04  0.7818609E-02  0.8190312E-01
        1   -1    0    0  501    0  0.00000000000E+00  0.00000000000E+00  0.20875739075E+04  0.20875739075E+04  0.50400001928E-02 0. -1.
       -1   -1    0    0    0  501  0.00000000000E+00  0.00000000000E+00 -0.12219745621E+04  0.12219745621E+04  0.50400001928E-02 0.  1.
    10030    2    1    2    0    0  0.00000000000E+00  0.00000000000E+00  0.86559934543E+03  0.33095484696E+04  0.31943463879E+04 0.  0.
        4    1    3    3  502    0 -0.13900445864E+04 -0.77394495924E+03  0.57838734930E+03  0.16928521172E+04  0.12699999809E+01 0.  1.
       -4    1    3    3    0  502  0.13900445864E+04  0.77394495924E+03  0.28721199612E+03  0.16166963523E+04  0.12699999809E+01 0. -1.
</event>
<event>
 5   0  0.3942564E-07  0.3200507E+04  0.7818609E-02  0.8188683E-01
       -2   -1    0    0    0  501  0.00000000000E+00  0.00000000000E+00  0.14317035196E+04  0.14317035196E+04  0.25500000920E-02 0. -1.
        2   -1    0    0  501    0  0.00000000000E+00  0.00000000000E+00 -0.17886459480E+04  0.17886459480E+04  0.25500000920E-02 0.  1.
    10030    2    1    2    0    0  0.00000000000E+00  0.00000000000E+00 -0.35694242840E+03  0.32203494676E+04  0.32005066468E+04 0.  0.
        3    1    3    3  502    0  0.27729069282E+03 -0.15720626294E+04 -0.65796367517E+02  0.15976858925E+04  0.10100000352E+00 0. -1.
       -3    1    3    3    0  502 -0.27729069282E+03  0.15720626294E+04 -0.29114606088E+03  0.16226635751E+04  0.10100000352E+00 0.  1.
</event>
<event>
 5   0  0.1288096E-07  0.3222627E+04  0.7818609E-02  0.8182867E-01
       -1   -1    0    0    0  501  0.00000000000E+00  0.00000000000E+00  0.16464958436E+04  0.16464958436E+04  0.50400001928E-02 0. -1.
        1   -1    0    0  501    0  0.00000000000E+00  0.00000000000E+00 -0.15768828016E+04  0.15768828017E+04  0.50400001928E-02 0.  1.
    10030    2    1    2    0    0  0.00000000000E+00  0.00000000000E+00  0.69613041933E+02  0.32233786452E+04  0.32226268656E+04 0.  0.
        2    1    3    3  502    0 -0.90319139219E+03  0.93235952501E+03  0.98964013171E+03  0.16323101927E+04  0.25500000920E-02 0. -1.
       -2    1    3    3    0  502  0.90319139219E+03 -0.93235952501E+03 -0.92002708978E+03  0.15910684526E+04  0.25500000920E-02 0.  1.
</event>
<event>
 5   0  0.3858721E-07  0.3201410E+04  0.7818609E-02  0.8188445E-01
        2   -1    0    0  501    0  0.00000000000E+00  0.00000000000E+00  0.18162546086E+04  0.18162546086E+04  0.25500000920E-02 0. -1.
       -2   -1    0    0    0  501  0.00000000000E+00  0.00000000000E+00 -0.14107368311E+04  0.14107368311E+04  0.25500000920E-02 0.  1.
    10030    2    1    2    0    0  0.00000000000E+00  0.00000000000E+00  0.40551777751E+03  0.32269914397E+04  0.32014104835E+04 0.  0.
        2    1    3    3  502    0  0.12158016818E+04  0.70742878249E+03 -0.56730105330E+03  0.15167266388E+04  0.25500000920E-02 0. -1.
       -2    1    3    3    0  502 -0.12158016818E+04 -0.70742878249E+03  0.97281883081E+03  0.17102648009E+04  0.25500000920E-02 0.  1.
</event>
<event>
 5   0  0.1365455E-07  0.3194038E+04  0.7818609E-02  0.8190393E-01
       -1   -1    0    0    0  501  0.00000000000E+00  0.00000000000E+00  0.18260905758E+04  0.18260905758E+04  0.50400001928E-02 0.  1.
        1   -1    0    0  501    0  0.00000000000E+00  0.00000000000E+00 -0.13966830286E+04  0.13966830286E+04  0.50400001928E-02 0. -1.
    10030    2    1    2    0    0  0.00000000000E+00  0.00000000000E+00  0.42940754720E+03  0.32227736043E+04  0.31940380184E+04 0.  0.
        3    1    3    3  502    0 -0.79237566994E+03 -0.46376890567E+03 -0.11037768412E+04  0.14357103209E+04  0.10100000352E+00 0. -1.
       -3    1    3    3    0  502  0.79237566994E+03  0.46376890567E+03  0.15331843884E+04  0.17870632835E+04  0.10100000352E+00 0.  1.
</event>
<event>
 5   0  0.3858721E-07  0.3198982E+04  0.7818609E-02  0.8189086E-01
        2   -1    0    0  501    0  0.00000000000E+00  0.00000000000E+00  0.22283451709E+04  0.22283451709E+04  0.25500000920E-02 0.  1.
       -2   -1    0    0    0  501  0.00000000000E+00  0.00000000000E+00 -0.11481038281E+04  0.11481038281E+04  0.25500000920E-02 0. -1.
    10030    2    1    2    0    0  0.00000000000E+00  0.00000000000E+00  0.10802413428E+04  0.33764489991E+04  0.31989821013E+04 0.  0.
        2    1    3    3  502    0  0.41200737879E+01  0.12607577388E+04  0.15790247202E+04  0.20206053840E+04  0.25500000920E-02 0.  1.
       -2    1    3    3    0  502 -0.41200737879E+01 -0.12607577388E+04 -0.49878337743E+03  0.13558436150E+04  0.25500000920E-02 0. -1.
</event>
<event>
 5   0  0.1277374E-07  0.3200803E+04  0.7818609E-02  0.8188605E-01
       -1   -1    0    0    0  501  0.00000000000E+00  0.00000000000E+00  0.23453852915E+04  0.23453852915E+04  0.50400001928E-02 0.  1.
        1   -1    0    0  501    0  0.00000000000E+00  0.00000000000E+00 -0.10920530152E+04  0.10920530152E+04  0.50400001928E-02 0. -1.
    10030    2    1    2    0    0  0.00000000000E+00  0.00000000000E+00  0.12533322763E+04  0.34374383067E+04  0.32008030738E+04 0.  0.
        5    1    3    3  502    0 -0.10651589848E+04  0.27266335047E+03 -0.62221514160E+03  0.12633616814E+04  0.46999998093E+01 0. -1.
       -5    1    3    3    0  502  0.10651589848E+04 -0.27266335047E+03  0.18755474179E+04  0.21740766252E+04  0.46999998093E+01 0.  1.
</event>
<event>
 5   0  0.1270948E-07  0.3199120E+04  0.7818609E-02  0.8189050E-01
       -1   -1    0    0    0  501  0.00000000000E+00  0.00000000000E+00  0.13201780023E+04  0.13201780023E+04  0.50400001928E-02 0. -1.
        1   -1    0    0  501    0  0.00000000000E+00  0.00000000000E+00 -0.19380654723E+04  0.19380654724E+04  0.50400001928E-02 0.  1.
    10030    2    1    2    0    0  0.00000000000E+00  0.00000000000E+00 -0.61788747005E+03  0.32582434747E+04  0.31991195061E+04 0.  0.
        4    1    3    3  502    0  0.20072939369E+03  0.46742299966E+03  0.12355969595E+04  0.13362178001E+04  0.12699999809E+01 0. -1.
       -4    1    3    3    0  502 -0.20072939369E+03 -0.46742299966E+03 -0.18534844296E+04  0.19220256745E+04  0.12699999809E+01 0.  1.
</event>
<event>
 5   0  0.3942564E-07  0.3197667E+04  0.7818609E-02  0.8189434E-01
        2   -1    0    0  501    0  0.00000000000E+00  0.00000000000E+00  0.20924499424E+04  0.20924499424E+04  0.25500000920E-02 0.  1.
       -2   -1    0    0    0  501  0.00000000000E+00  0.00000000000E+00 -0.12216630387E+04  0.12216630387E+04  0.25500000920E-02 0. -1.
    10030    2    1    2    0    0  0.00000000000E+00  0.00000000000E+00  0.87078690371E+03  0.33141129810E+04  0.31976671214E+04 0.  0.
        3    1    3    3  502    0 -0.34918533911E+03 -0.62134002088E+03  0.19186906699E+04  0.20467944986E+04  0.10100000352E+00 0.  1.
       -3    1    3    3    0  502  0.34918533911E+03  0.62134002088E+03 -0.10479037662E+04  0.12673184824E+04  0.10100000352E+00 0. -1.
</event>
<event>
 5   0  0.1365455E-07  0.3203565E+04  0.7818609E-02  0.8187876E-01
       -1   -1    0    0    0  501  0.00000000000E+00  0.00000000000E+00  0.27113429525E+04  0.27113429525E+04  0.50400001928E-02 0.  1.
        1   -1    0    0  501    0  0.00000000000E+00  0.00000000000E+00 -0.94628632767E+03  0.94628632769E+03  0.50400001928E-02 0. -1.
    10030    2    1    2    0    0  0.00000000000E+00  0.00000000000E+00  0.17650566249E+04  0.36576292802E+04  0.32035647430E+04 0.  0.
        3    1    3    3  502    0  0.11004572511E+04 -0.63494154431E+03 -0.23120689255E+03  0.12913611282E+04  0.10100000352E+00 0.  1.
       -3    1    3    3    0  502 -0.11004572511E+04  0.63494154431E+03  0.19962635174E+04  0.23662681520E+04  0.10100000352E+00 0. -1.
</event>
<event>
 5   0  0.1288096E-07  0.3214216E+04  0.7818609E-02  0.8185073E-01
        1   -1    0    0  501    0  0.00000000000E+00  0.00000000000E+00  0.29022708079E+04  0.29022708080E+04  0.50400001928E-02 0. -1.
       -1   -1    0    0    0  501  0.00000000000E+00  0.00000000000E+00 -0.88992270131E+03  0.88992270132E+03  0.50400001928E-02 0.  1.
    10030    2    1    2    0    0  0.00000000000E+00  0.00000000000E+00  0.20123481066E+04  0.37921935093E+04  0.32142163445E+04 0.  0.
        2    1    3    3  502    0 -0.52832491735E+02 -0.93183190275E+03 -0.53740380278E+03  0.10769887717E+04  0.25500000920E-02 0.  1.
       -2    1    3    3    0  502  0.52832491735E+02  0.93183190275E+03  0.25497519094E+04  0.27152047375E+04  0.25500000920E-02 0. -1.
</event>
<event>
 5   0  0.1288096E-07  0.3196304E+04  0.7818609E-02  0.8189794E-01
       -1   -1    0    0    0  501  0.00000000000E+00  0.00000000000E+00  0.10731184815E+04  0.10731184815E+04  0.50400001928E-02 0. -1.
        1   -1    0    0  501    0  0.00000000000E+00  0.00000000000E+00 -0.23800637232E+04  0.23800637232E+04  0.50400001928E-02 0.  1.
    10030    2    1    2    0    0  0.00000000000E+00  0.00000000000E+00 -0.13069452417E+04  0.34531822048E+04  0.31963043463E+04 0.  0.
        2    1    3    3  502    0 -0.76901152581E+03  0.21560285387E+03 -0.21490016667E+04  0.22926123704E+04  0.25500000920E-02 0.  1.
       -2    1    3    3    0  502  0.76901152581E+03 -0.21560285387E+03  0.84205642502E+03  0.11605698343E+04  0.25500000920E-02 0. -1.
</event>
<event>
 5   0  0.3830207E-07  0.3190204E+04  0.7818609E-02  0.8191409E-01
       -2   -1    0    0    0  501  0.00000000000E+00  0.00000000000E+00  0.14945297935E+04  0.14945297935E+04  0.25500000920E-02 0. -1.
        2   -1    0    0  501    0  0.00000000000E+00  0.00000000000E+00 -0.17024421155E+04  0.17024421155E+04  0.25500000920E-02 0.  1.
    10030    2    1    2    0    0  0.00000000000E+00  0.00000000000E+00 -0.20791232204E+03  0.31969719090E+04  0.31902040458E+04 0.  0.
        4    1    3    3  502    0 -0.50674745615E+02 -0.10318968812E+04 -0.13218408164E+04  0.16776900370E+04  0.12699999809E+01 0.  1.
       -4    1    3    3    0  502  0.50674745615E+02  0.10318968812E+04  0.11139284944E+04  0.15192818721E+04  0.12699999809E+01 0. -1.
</event>
<event>
 5   0  0.1317293E-07  0.3202109E+04  0.7818609E-02  0.8188261E-01
       -1   -1    0    0    0  501  0.00000000000E+00  0.00000000000E+00  0.23192270378E+04  0.23192270378E+04  0.50400001928E-02 0.  1.
        1   -1    0    0  501    0  0.00000000000E+00  0.00000000000E+00 -0.11052712379E+04  0.11052712379E+04  0.50400001928E-02 0. -1.
    10030    2    1    2    0    0  0.00000000000E+00  0.00000000000E+00  0.12139557999E+04  0.34244982757E+04  0.32021086422E+04 0.  0.
        1    1    3    3  502    0  0.11089988366E+04 -0.10120708524E+04  0.12292838715E+02  0.15014382917E+04  0.50400001928E-02 0. -1.
       -1    1    3    3    0  502 -0.11089988366E+04  0.10120708524E+04  0.12016629612E+04  0.19230599841E+04  0.50400001928E-02 0.  1.
</event>
<event>
 5   0  0.1317293E-07  0.3199482E+04  0.7818609E-02  0.8188954E-01
       -1   -1    0    0    0  501  0.00000000000E+00  0.00000000000E+00  0.27640423248E+04  0.27640423248E+04  0.50400001928E-02 0.  1.
        1   -1    0    0  501    0  0.00000000000E+00  0.00000000000E+00 -0.92587971012E+03  0.92587971013E+03  0.50400001928E-02 0. -1.
    10030    2    1    2    0    0  0.00000000000E+00  0.00000000000E+00  0.18381626147E+04  0.36899220349E+04  0.31994816496E+04 0.  0.
        1    1    3    3  502    0 -0.33344358548E+03 -0.15450675162E+04  0.63481887214E+03  0.17033535319E+04  0.50400001928E-02 0. -1.
       -1    1    3    3    0  502  0.33344358548E+03  0.15450675162E+04  0.12033437426E+04  0.19865685030E+04  0.50400001928E-02 0.  1.
</event>
<event>
 5   0  0.3764056E-07  0.3199824E+04  0.7818609E-02  0.8188864E-01
       -2   -1    0    0    0  501  0.00000000000E+00  0.00000000000E+00  0.10197545731E+04  0.10197545731E+04  0.25500000920E-02 0. -1.
        2   -1    0    0  501    0  0.00000000000E+00  0.00000000000E+00 -0.25101322600E+04  0.25101322600E+04  0.25500000920E-02 0.  1.
    10030    2    1    2    0    0  0.00000000000E+00  0.00000000000E+00 -0.14903776869E+04  0.35298868331E+04  0.31998242772E+04 0.  0.
        5    1    3    3  502    0 -0.65310622738E+03 -0.14571236749E+04 -0.63520740675E+03  0.17185074012E+04  0.46999998093E+01 0.  1.
       -5    1    3    3    0  502  0.65310622738E+03  0.14571236749E+04 -0.85517028016E+03  0.18113794319E+04  0.46999998093E+01 0. -1.
</event>
<event>
 5   0  0.3750285E-07  0.3200891E+04  0.7818609E-02  0.8188582E-01
        2   -1    0    0  501    0  0.00000000000E+00  0.00000000000E+00  0.17046607595E+04  0.17046607596E+04  0.25500000920E-02 0.  1.
       -2   -1    0    0    0  501  0.00000000000E+00  0.00000000000E+00 -0.15026017101E+04  0.15026017101E+04  0.25500000920E-02 0. -1.
    10030    2    1    2    0    0  0.00000000000E+00  0.00000000000E+00  0.20205904944E+03  0.32072624697E+04  0.32008912337E+04 0.  0.
        1    1    3    3  502    0  0.64238805867E+03  0.13478830472E+04  0.67834912837E+03  0.16400026424E+04  0.50400001928E-02 0.  1.
       -1    1    3    3    0  502 -0.64238805867E+03 -0.13478830472E+04 -0.47629007894E+03  0.15672598273E+04  0.50400001928E-02 0. -1.
</event>
<event>
 5   0  0.3750285E-07  0.3197844E+04  0.7818609E-02  0.8189387E-01
       -2   -1    0    0    0  501  0.00000000000E+00  0.00000000000E+00  0.24332805686E+04  0.24332805686E+04  0.25500000920E-02 0.  1.
        2   -1    0    0  501    0  0.00000000000E+00  0.00000000000E+00 -0.10506607086E+04  0.10506607086E+04  0.25500000920E-02 0. -1.
    10030    2    1    2    0    0  0.00000000000E+00  0.00000000000E+00  0.13826198599E+04  0.34839412772E+04  0.31978444531E+04 0.  0.
        1    1    3    3  502    0  0.83466622219E+03  0.45447060122E+03 -0.70955001038E+03  0.11860322285E+04  0.50400001928E-02 0. -1.
       -1    1    3    3    0  502 -0.83466622219E+03 -0.45447060122E+03  0.20921698703E+04  0.22979090487E+04  0.50400001928E-02 0.  1.
</event>
<event>
 5   0  0.1365455E-07  0.3199931E+04  0.7818609E-02  0.8188835E-01
       -1   -1    0    0    0  501  0.00000000000E+00  0.00000000000E+00  0.17690589446E+04  0.17690589446E+04  0.50400001928E-02 0.  1.
        1   -1    0    0  501    0  0.00000000000E+00  0.00000000000E+00 -0.14470348280E+04  0.14470348280E+04  0.50400001928E-02 0. -1.
    10030    2    1    2    0    0  0.00000000000E+00  0.00000000000E+00  0.32202411660E+03  0.32160937727E+04  0.31999311903E+04 0.  0.
        3    1    3    3  502    0  0.41280395556E+03 -0.48034321160E+03 -0.13156787092E+04  0.14601873793E+04  0.10100000352E+00 0. -1.
       -3    1    3    3    0  502 -0.41280395556E+03  0.48034321160E+03  0.16377028258E+04  0.17559063934E+04  0.10100000352E+00 0.  1.
</event>
<event>
 5   0  0.3764056E-07  0.3135530E+04  0.7818609E-02  0.8206054E-01
       -2   -1    0    0    0  501  0.00000000000E+00  0.00000000000E+00  0.94997438794E+03  0.94997438794E+03  0.25500000920E-02 0. -1.
        2   -1    0    0  501    0  0.00000000000E+00  0.00000000000E+00 -0.25873194850E+04  0.25873194850E+04  0.25500000920E-02 0.  1.
    10030    2    1    2    0    0  0.00000000000E+00  0.00000000000E+00 -0.16373450970E+04  0.35372938729E+04  0.31355300950E+04 0.  0.
        5    1    3    3  502    0 -0.47895920865E+03  0.53211911451E+03 -0.23921294608E+04  0.24969697881E+04  0.46999998093E+01 0.  1.
       -5    1    3    3    0  502  0.47895920865E+03 -0.53211911451E+03  0.75478436378E+03  0.10403240848E+04  0.46999998093E+01 0. -1.
</event>
<event>
 5   0  0.3858721E-07  0.3205624E+04  0.7818609E-02  0.8187333E-01
        2   -1    0    0  501    0  0.00000000000E+00  0.00000000000E+00  0.23482502772E+04  0.23482502772E+04  0.25500000920E-02 0. -1.
       -2   -1    0    0    0  501  0.00000000000E+00  0.00000000000E+00 -0.10940089462E+04  0.10940089462E+04  0.25500000920E-02 0.  1.
    10030    2    1    2    0    0  0.00000000000E+00  0.00000000000E+00  0.12542413310E+04  0.34422592234E+04  0.32056243143E+04 0.  0.
        2    1    3    3  502    0  0.15488819379E+04 -0.35932605409E+03  0.84417111084E+03  0.18002153579E+04  0.25500000920E-02 0. -1.
       -2    1    3    3    0  502 -0.15488819379E+04  0.35932605409E+03  0.41007022012E+03  0.16420438654E+04  0.25500000920E-02 0.  1.
</event>
<event>
 5   0  0.1277374E-07  0.3196863E+04  0.7818609E-02  0.8189646E-01
       -1   -1    0    0    0  501  0.00000000000E+00  0.00000000000E+00  0.15245500067E+04  0.15245500067E+04  0.50400001928E-02 0. -1.
        1   -1    0    0  501    0  0.00000000000E+00  0.00000000000E+00 -0.16758934665E+04  0.16758934665E+04  0.50400001928E-02 0.  1.
    10030    2    1    2    0    0  0.00000000000E+00  0.00000000000E+00 -0.15134345978E+03  0.32004434731E+04  0.31968630846E+04 0.  0.
        5    1    3    3  502    0 -0.10522059070E+04  0.56191232789E+03 -0.11408551774E+04  0.16505924273E+04  0.46999998093E+01 0.  1.
       -5    1    3    3    0  502  0.10522059070E+04 -0.56191232789E+03  0.98951171765E+03  0.15498510459E+04  0.46999998093E+01 0. -1.
</event>
<event>
 5   0  0.3750285E-07  0.3197401E+04  0.7818609E-02  0.8189504E-01
        2   -1    0    0  501    0  0.00000000000E+00  0.00000000000E+00  0.23251750132E+04  0.23251750132E+04  0.25500000920E-02 0.  1.
       -2   -1    0    0    0  501  0.00000000000E+00  0.00000000000E+00 -0.10992045329E+04  0.10992045329E+04  0.25500000920E-02 0. -1.
    10030    2    1    2    0    0  0.00000000000E+00  0.00000000000E+00  0.12259704803E+04  0.34243795461E+04  0.31974007658E+04 0.  0.
        1    1    3    3  502    0  0.15847596189E+04 -0.77948217856E+02  0.40337787336E+03  0.16371477280E+04  0.50400001928E-02 0.  1.
       -1    1    3    3    0  502 -0.15847596189E+04  0.77948217856E+02  0.82259260697E+03  0.17872318181E+04  0.50400001928E-02 0. -1.
</event>
<event>
 5   0  0.3830207E-07  0.3205574E+04  0.7818609E-02  0.8187347E-01
       -2   -1    0    0    0  501  0.00000000000E+00  0.00000000000E+00  0.21222790769E+04  0.21222790769E+04  0.25500000920E-02 0.  1.
        2   -1    0    0  501    0  0.00000000000E+00  0.00000000000E+00 -0.12104564198E+04  0.12104564198E+04  0.25500000920E-02 0. -1.
    10030    2    1    2    0    0  0.00000000000E+00  0.00000000000E+00  0.91182265706E+03  0.33327354967E+04  0.32055741035E+04 0.  0.
        4    1    3    3  502    0  0.36717587332E+03 -0.15377980349E+04  0.72957105150E+03  0.17412399175E+04  0.12699999809E+01 0. -1.
       -4    1    3    3    0  502 -0.36717587332E+03  0.15377980349E+04  0.18225160556E+03  0.15914955792E+04  0.12699999809E+01 0.  1.
</event>
<event>
 5   0  0.3750285E-07  0.3185326E+04  0.7818609E-02  0.8192703E-01
        2   -1    0    0  501    0  0.00000000000E+00  0.00000000000E+00  0.18534043691E+04  0.18534043691E+04  0.25500000920E-02 0. -1.
       -2   -1    0    0    0  501  0.00000000000E+00  0.00000000000E+00 -0.13686035462E+04  0.13686035462E+04  0.25500000920E-02 0.  1.
    10030    2    1    2    0    0  0.00000000000E+00  0.00000000000E+00  0.48480082294E+03  0.32220079153E+04  0.31853262264E+04 0.  0.
        1    1    3    3  502    0  0.34032858022E+03 -0.10736175756E+02 -0.13313560196E+04  0.13742080115E+04  0.50400001928E-02 0.  1.
       -1    1    3    3    0  502 -0.34032858022E+03  0.10736175756E+02  0.18161568425E+04  0.18477999038E+04  0.50400001928E-02 0. -1.
</event>
<event>
 5   0  0.3858721E-07  0.3197997E+04  0.7818609E-02  0.8189346E-01
        2   -1    0    0  501    0  0.00000000000E+00  0.00000000000E+00  0.12315046939E+04  0.12315046939E+04  0.25500000920E-02 0.  1.
       -2   -1    0    0    0  501  0.00000000000E+00  0.00000000000E+00 -0.20761564388E+04  0.20761564388E+04  0.25500000920E-02 0. -1.
    10030    2    1    2    0    0  0.00000000000E+00  0.00000000000E+00 -0.84465174498E+03  0.33076611327E+04  0.31979971230E+04 0.  0.
        2    1    3    3  502    0 -0.23615996987E+03 -0.35779867612E+03 -0.20156064637E+04  0.20606942617E+04  0.25500000920E-02 0. -1.
       -2    1    3    3    0  502  0.23615996987E+03  0.35779867612E+03  0.11709547187E+04  0.12469668709E+04  0.25500000920E-02 0.  1.
</event>
<event>
 5   0  0.1288096E-07  0.3225675E+04  0.7818609E-02  0.8182069E-01
        1   -1    0    0  501    0  0.00000000000E+00  0.00000000000E+00  0.14304071743E+04  0.14304071743E+04  0.50400001928E-02 0.  1.
       -1   -1    0    0    0  501  0.00000000000E+00  0.00000000000E+00 -0.18185346162E+04  0.18185346163E+04  0.50400001928E-02 0. -1.
    10030    2    1    2    0    0  0.00000000000E+00  0.00000000000E+00 -0.38812744199E+03  0.32489417905E+04  0.32256750994E+04 0.  0.
        2    1    3    3  502    0 -0.48543132819E+03  0.96147747617E+03 -0.14032070320E+04  0.17689184510E+04  0.25500000920E-02 0. -1.
       -2    1    3    3    0  502  0.48543132819E+03 -0.96147747617E+03  0.10150795900E+04  0.14800233395E+04  0.25500000920E-02 0.  1.
</event>
<event>
 5   0  0.1288096E-07  0.3269025E+04  0.7818609E-02  0.8170822E-01
        1   -1    0    0  501    0  0.00000000000E+00  0.00000000000E+00  0.25541639674E+04  0.25541639674E+04  0.50400001928E-02 0.  1.
       -1   -1    0    0    0  501  0.00000000000E+00  0.00000000000E+00 -0.10459902906E+04  0.10459902906E+04  0.50400001928E-02 0. -1.
    10030    2    1    2    0    0  0.00000000000E+00  0.00000000000E+00  0.15081736768E+04  0.36001542580E+04  0.32690247539E+04 0.  0.
        2    1    3    3  502    0  0.15192740572E+04  0.28423507093E+01  0.90171545522E+02  0.15219502776E+04  0.25500000920E-02 0. -1.
       -2    1    3    3    0  502 -0.15192740572E+04 -0.28423507093E+01  0.14180021313E+04  0.20782039804E+04  0.25500000920E-02 0.  1.
</event>
<event>
 5   0  0.3750285E-07  0.3196878E+04  0.7818609E-02  0.8189642E-01
       -2   -1    0    0    0  501  0.00000000000E+00  0.00000000000E+00  0.17843414294E+04  0.17843414294E+04  0.25500000920E-02 0. -1.
        2   -1    0    0  501    0  0.00000000000E+00  0.00000000000E+00 -0.14319050982E+04  0.14319050982E+04  0.25500000920E-02 0.  1.
    10030    2    1    2    0    0  0.00000000000E+00  0.00000000000E+00  0.35243633126E+03  0.32162465276E+04  0.31968782208E+04 0.  0.
        1    1    3    3  502    0 -0.77598698093E+03  0.21357466990E+03  0.15656128843E+04  0.17603731530E+04  0.50400001928E-02 0. -1.
       -1    1    3    3    0  502  0.77598698093E+03 -0.21357466990E+03 -0.12131765530E+04  0.14558733746E+04  0.50400001928E-02 0.  1.
</event>
<event>
 5   0  0.1317293E-07  0.3198366E+04  0.7818609E-02  0.8189249E-01
        1   -1    0    0  501    0  0.00000000000E+00  0.00000000000E+00  0.14865875963E+04  0.14865875963E+04  0.50400001928E-02 0. -1.
       -1   -1    0    0    0  501  0.00000000000E+00  0.00000000000E+00 -0.17203066835E+04  0.17203066835E+04  0.50400001928E-02 0.  1.
    10030    2    1    2    0    0  0.00000000000E+00  0.00000000000E+00 -0.23371908728E+03  0.32068942798E+04  0.31983661939E+04 0.  0.
        1    1    3    3  502    0  0.88371901090E+03 -0.37735986674E+03  0.11648394597E+04  0.15100366639E+04  0.50400001928E-02 0. -1.
       -1    1    3    3    0  502 -0.88371901090E+03  0.37735986674E+03 -0.13985585470E+04  0.16968576159E+04  0.50400001928E-02 0.  1.
</event>
<event>
 5   0  0.1277374E-07  0.3198033E+04  0.7818609E-02  0.8189337E-01
       -1   -1    0    0    0  501  0.00000000000E+00  0.00000000000E+00  0.19549004070E+04  0.19549004070E+04  0.50400001928E-02 0.  1.
        1   -1    0    0  501    0  0.00000000000E+00  0.00000000000E+00 -0.13079198396E+04  0.13079198396E+04  0.50400001928E-02 0. -1.
    10030    2    1    2    0    0  0.00000000000E+00  0.00000000000E+00  0.64698056734E+03  0.32628202466E+04  0.31980325369E+04 0.  0.
        5    1    3    3  502    0 -0.37178587016E+03  0.28614404491E+03  0.18830942545E+04  0.19406620543E+04  0.46999998093E+01 0.  1.
       -5    1    3    3    0  502  0.37178587016E+03 -0.28614404491E+03 -0.12361136872E+04  0.13221581923E+04  0.46999998093E+01 0. -1.
</event>
<event>
 5   0  0.3942564E-07  0.3188334E+04  0.7818609E-02  0.8191905E-01
        2   -1    0    0  501    0  0.00000000000E+00  0.00000000000E+00  0.26275180724E+04  0.26275180724E+04  0.25500000920E-02 0. -1.
       -2   -1    0    0    0  501  0.00000000000E+00  0.00000000000E+00 -0.96721227403E+03  0.96721227403E+03  0.25500000920E-02 0.  1.
    10030    2    1    2    0    0  0.00000000000E+00  0.00000000000E+00  0.16603057984E+04  0.35947303464E+04  0.31883335646E+04 0.  0.
        3    1    3    3  502    0 -0.12954306164E+03  0.14983833851E+04  0.14261468308E+04  0.20726381659E+04  0.10100000352E+00 0. -1.
       -3    1    3    3    0  502  0.12954306164E+03 -0.14983833851E+04  0.23415896758E+03  0.15220921805E+04  0.10100000352E+00 0.  1.
</event>
<event>
 5   0  0.1270948E-07  0.3217009E+04  0.7818609E-02  0.8184339E-01
       -1   -1    0    0    0  501  0.00000000000E+00  0.00000000000E+00  0.93375003288E+03  0.93375003290E+03  0.50400001928E-02 0. -1.
        1   -1    0    0  501    0  0.00000000000E+00  0.00000000000E+00 -0.27708562376E+04  0.27708562376E+04  0.50400001928E-02 0.  1.
    10030    2    1    2    0    0  0.00000000000E+00  0.00000000000E+00 -0.18371062047E+04  0.37046062705E+04  0.32170092341E+04 0.  0.
        4    1    3    3  502    0 -0.10844349300E+04  0.23571463181E+02 -0.22863191463E+04  0.25305753462E+04  0.12699999809E+01 0.  1.
       -4    1    3    3    0  502  0.10844349300E+04 -0.23571463181E+02  0.44921294157E+03  0.11740309243E+04  0.12699999809E+01 0. -1.
</event>
<event>
 5   0  0.3858721E-07  0.3201577E+04  0.7818609E-02  0.8188401E-01
        2   -1    0    0  501    0  0.00000000000E+00  0.00000000000E+00  0.19391504049E+04  0.19391504049E+04  0.25500000920E-02 0.  1.
       -2   -1    0    0    0  501  0.00000000000E+00  0.00000000000E+00 -0.13214671624E+04  0.13214671624E+04  0.25500000920E-02 0. -1.
    10030    2    1    2    0    0  0.00000000000E+00  0.00000000000E+00  0.61768324250E+03  0.32606175673E+04  0.32015768509E+04 0.  0.
        2    1    3    3  502    0 -0.12895306554E+04  0.30881714331E+03 -0.60450547737E+03  0.14572865921E+04  0.25500000920E-02 0. -1.
       -2    1    3    3    0  502  0.12895306554E+04 -0.30881714331E+03  0.12221887199E+04  0.18033309752E+04  0.25500000920E-02 0.  1.
</event>
<event>
 5   0  0.1270948E-07  0.3204402E+04  0.7818609E-02  0.8187656E-01
        1   -1    0    0  501    0  0.00000000000E+00  0.00000000000E+00  0.17371137682E+04  0.17371137682E+04  0.50400001928E-02 0.  1.
       -1   -1    0    0    0  501  0.00000000000E+00  0.00000000000E+00 -0.14777657850E+04  0.14777657850E+04  0.50400001928E-02 0. -1.
    10030    2    1    2    0    0  0.00000000000E+00  0.00000000000E+00  0.25934798323E+03  0.32148795532E+04  0.32044015299E+04 0.  0.
        4    1    3    3  502    0 -0.97293031833E+02  0.10937366429E+04  0.13002452939E+04  0.17018710924E+04  0.12699999809E+01 0.  1.
       -4    1    3    3    0  502  0.97293031833E+02 -0.10937366429E+04 -0.10408973106E+04  0.15130084608E+04  0.12699999809E+01 0. -1.
</event>
<event>
 5   0  0.1317293E-07  0.3203298E+04  0.7818609E-02  0.8187947E-01
        1   -1    0    0  501    0  0.00000000000E+00  0.00000000000E+00  0.16441480696E+04  0.16441480696E+04  0.50400001928E-02 0. -1.
       -1   -1    0    0    0  501  0.00000000000E+00  0.00000000000E+00 -0.15602488954E+04  0.15602488954E+04  0.50400001928E-02 0.  1.
    10030    2    1    2    0    0  0.00000000000E+00  0.00000000000E+00  0.83899174228E+02  0.32043969650E+04  0.32032984310E+04 0.  0.
        1    1    3    3  502    0 -0.87103503474E+03 -0.48247155877E+03  0.12968914146E+04  0.16350560168E+04  0.50400001928E-02 0. -1.
       -1    1    3    3    0  502  0.87103503474E+03  0.48247155877E+03 -0.12129922403E+04  0.15693409483E+04  0.50400001928E-02 0.  1.
</event>
<event>
 5   0  0.3764056E-07  0.3212088E+04  0.7818609E-02  0.8185632E-01
       -2   -1    0    0    0  501  0.00000000000E+00  0.00000000000E+00  0.10324961630E+04  0.10324961630E+04  0.25500000920E-02 0.  1.
        2   -1    0    0  501    0  0.00000000000E+00  0.00000000000E+00 -0.24981952655E+04  0.24981952655E+04  0.25500000920E-02 0. -1.
    10030    2    1    2    0    0  0.00000000000E+00  0.00000000000E+00 -0.14656991026E+04  0.35306914285E+04  0.32120878108E+04 0.  0.
        5    1    3    3  502    0 -0.14094856209E+04 -0.39156712746E+03 -0.14614554727E+04  0.20678125445E+04  0.46999998093E+01 0. -1.
       -5    1    3    3    0  502  0.14094856209E+04  0.39156712746E+03 -0.42436298807E+01  0.14628788840E+04  0.46999998093E+01 0.  1.
</event>
<event>
 5   0  0.1365455E-07  0.3196286E+04  0.7818609E-02  0.8189799E-01
        1   -1    0    0  501    0  0.00000000000E+00  0.00000000000E+00  0.12397594538E+04  0.12397594538E+04  0.50400001928E-02 0.  1.
       -1   -1    0    0    0  501  0.00000000000E+00  0.00000000000E+00 -0.20601263371E+04  0.20601263371E+04  0.50400001928E-02 0. -1.
    10030    2    1    2    0    0  0.00000000000E+00  0.00000000000E+00 -0.82036688331E+03  0.32998857909E+04  0.31962860338E+04 0.  0.
        3    1    3    3  502    0  0.43325675421E+03 -0.15356455386E+04 -0.50334376860E+03  0.16731029840E+04  0.10100000352E+00 0. -1.
       -3    1    3    3    0  502 -0.43325675421E+03  0.15356455386E+04 -0.31702311471E+03  0.16267828069E+04  0.10100000352E+00 0.  1.
</event>
<event>
 5   0  0.1277374E-07  0.3150788E+04  0.7818609E-02  0.8201936E-01
        1   -1    0    0  501    0  0.00000000000E+00  0.00000000000E+00  0.18991264544E+04  0.18991264544E+04  0.50400001928E-02 0. -1.
       -1   -1    0    0    0  501  0.00000000000E+00  0.00000000000E+00 -0.13068463163E+04  0.13068463163E+04  0.50400001928E-02 0.  1.
    10030    2    1    2    0    0  0.00000000000E+00  0.00000000000E+00  0.59228013807E+03  0.32059727707E+04  0.31507880990E+04 0.  0.
        5    1    3    3  502    0 -0.15036600389E+04 -0.40723195772E+03  0.53479645847E+03  0.16470764165E+04  0.46999998093E+01 0. -1.
       -5    1    3    3    0  502  0.15036600389E+04  0.40723195772E+03  0.57483679606E+02  0.15588963542E+04  0.46999998093E+01 0.  1.
</event>
<event>
 5   0  0.3858721E-07  0.3207025E+04  0.7818609E-02  0.8186964E-01
        2   -1    0    0  501    0  0.00000000000E+00  0.00000000000E+00  0.16840748125E+04  0.16840748125E+04  0.25500000920E-02 0. -1.
       -2   -1    0    0    0  501  0.00000000000E+00  0.00000000000E+00 -0.15268037311E+04  0.15268037311E+04  0.25500000920E-02 0.  1.
    10030    2    1    2    0    0  0.00000000000E+00  0.00000000000E+00  0.15727108135E+03  0.32108785436E+04  0.32070246068E+04 0.  0.
        2    1    3    3  502    0 -0.27609844475E+03  0.75749584912E+03 -0.13091114459E+04  0.15374664518E+04  0.25500000920E-02 0.  1.
       -2    1    3    3    0  502  0.27609844475E+03 -0.75749584912E+03  0.14663825273E+04  0.16734120918E+04  0.25500000920E-02 0. -1.
</event>
<event>
 5   0  0.3830207E-07  0.3203635E+04  0.7818609E-02  0.8187858E-01
        2   -1    0    0  501    0  0.00000000000E+00  0.00000000000E+00  0.14941432244E+04  0.14941432244E+04  0.25500000920E-02 0. -1.
       -2   -1    0    0    0  501  0.00000000000E+00  0.00000000000E+00 -0.17172508965E+04  0.17172508965E+04  0.25500000920E-02 0.  1.
    10030    2    1    2    0    0  0.00000000000E+00  0.00000000000E+00 -0.22310767203E+03  0.32113941209E+04  0.32036346806E+04 0.  0.
        4    1    3    3  502    0 -0.65820583802E+02 -0.66566860692E+03 -0.15705412455E+04  0.17070584232E+04  0.12699999809E+01 0.  1.
       -4    1    3    3    0  502  0.65820583802E+02  0.66566860692E+03  0.13474335735E+04  0.15043356977E+04  0.12699999809E+01 0. -1.
</event>
<event>
 5   0  0.1365455E-07  0.3197145E+04  0.7818609E-02  0.8189572E-01
       -1   -1    0    0    0  501  0.00000000000E+00  0.00000000000E+00  0.12844813978E+04  0.12844813978E+04  0.50400001928E-02 0. -1.
        1   -1    0    0  501    0  0.00000000000E+00  0.00000000000E+00 -0.19894676027E+04  0.19894676027E+04  0.50400001928E-02 0.  1.
    10030    2    1    2    0    0  0.00000000000E+00  0.00000000000E+00 -0.70498620491E+03  0.32739490005E+04  0.31971450559E+04 0.  0.
        3    1    3    3  502    0 -0.24228743517E+03  0.12480931980E+04 -0.13447886521E+04  0.18506475518E+04  0.10100000352E+00 0.  1.
       -3    1    3    3    0  502  0.24228743517E+03 -0.12480931980E+04  0.63980244717E+03  0.14233014486E+04  0.10100000352E+00 0. -1.
</event>
<event>
 5   0  0.3858721E-07  0.3207289E+04  0.7818609E-02  0.8186895E-01
       -2   -1    0    0    0  501  0.00000000000E+00  0.00000000000E+00  0.18009239362E+04  0.18009239362E+04  0.25500000920E-02 0. -1.
        2   -1    0    0  501    0  0.00000000000E+00  0.00000000000E+00 -0.14279752989E+04  0.14279752989E+04  0.25500000920E-02 0.  1.
    10030    2    1    2    0    0  0.00000000000E+00  0.00000000000E+00  0.37294863724E+03  0.32288992351E+04  0.32072885097E+04 0.  0.
        2    1    3    3  502    0 -0.71120532365E+03 -0.18812434008E+03 -0.12480729792E+04  0.14487546173E+04  0.25500000920E-02 0.  1.
       -2    1    3    3    0  502  0.71120532365E+03  0.18812434008E+03  0.16210216164E+04  0.17801446179E+04  0.25500000920E-02 0. -1.
</event>
<event>
 5   0  0.3830207E-07  0.3194074E+04  0.7818609E-02  0.8190384E-01
       -2   -1    0    0    0  501  0.00000000000E+00  0.00000000000E+00  0.15106192248E+04  0.15106192248E+04  0.25500000920E-02 0. -1.
        2   -1    0    0  501    0  0.00000000000E+00  0.00000000000E+00 -0.16883980366E+04  0.16883980366E+04  0.25500000920E-02 0.  1.
    10030    2    1    2    0    0  0.00000000000E+00  0.00000000000E+00 -0.17777881178E+03  0.31990172613E+04  0.31940735953E+04 0.  0.
        4    1    3    3  502    0 -0.14273950206E+04 -0.71626816803E+03 -0.94216171454E+02  0.15998046547E+04  0.12699999809E+01 0.  1.
       -4    1    3    3    0  502  0.14273950206E+04  0.71626816803E+03 -0.83562640328E+02  0.15992126066E+04  0.12699999809E+01 0. -1.
</event>
<event>
 5   0  0.3942564E-07  0.3188990E+04  0.7818609E-02  0.8191731E-01
       -2   -1    0    0    0  501  0.00000000000E+00  0.00000000000E+00  0.10765440713E+04  0.10765440713E+04  0.25500000920E-02 0. -1.
        2   -1    0    0  501    0  0.00000000000E+00  0.00000000000E+00 -0.23616438484E+04  0.23616438484E+04  0.25500000920E-02 0.  1.
    10030    2    1    2    0    0  0.00000000000E+00  0.00000000000E+00 -0.12850997771E+04  0.34381879197E+04  0.31889896102E+04 0.  0.
        3    1    3    3  502    0  0.91571478973E+03  0.10752648743E+04 -0.14404382792E+04  0.20173226247E+04  0.10100000352E+00 0.  1.
       -3    1    3    3    0  502 -0.91571478973E+03 -0.10752648743E+04  0.15533850203E+03  0.14208652950E+04  0.10100000352E+00 0. -1.
</event>
<event>
 5   0  0.1277374E-07  0.3194382E+04  0.7818609E-02  0.8190303E-01
        1   -1    0    0  501    0  0.00000000000E+00  0.00000000000E+00  0.11145050266E+04  0.11145050266E+04  0.50400001928E-02 0. -1.
       -1   -1    0    0    0  501  0.00000000000E+00  0.00000000000E+00 -0.22889252539E+04  0.22889252539E+04  0.50400001928E-02 0.  1.
    10030    2    1    2    0    0  0.00000000000E+00  0.00000000000E+00 -0.11744202274E+04  0.34034302805E+04  0.31943817561E+04 0.  0.
        5    1    3    3  502    0  0.12900761488E+04  0.52414285292E+03 -0.14206929734E+04  0.19893247132E+04  0.46999998093E+01 0.  1.
       -5    1    3    3    0  502 -0.12900761488E+04 -0.52414285292E+03  0.24627274607E+03  0.14141055673E+04  0.46999998093E+01 0. -1.
</event>
<event>
 5   0  0.3858721E-07  0.3197791E+04  0.7818609E-02  0.8189401E-01
        2   -1    0    0  501    0  0.00000000000E+00  0.00000000000E+00  0.19624311105E+04  0.19624311105E+04  0.25500000920E-02 0. -1.
       -2   -1    0    0    0  501  0.00000000000E+00  0.00000000000E+00 -0.13027043283E+04  0.13027043283E+04  0.25500000920E-02 0.  1.
    10030    2    1    2    0    0  0.00000000000E+00  0.00000000000E+00  0.65972678218E+03  0.32651354388E+04  0.31977914264E+04 0.  0.
        2    1    3    3  502    0 -0.49275121087E+03  0.10721813153E+04 -0.77178886350E+03  0.14099768007E+04  0.25500000920E-02 0.  1.
       -2    1    3    3    0  502  0.49275121087E+03 -0.10721813153E+04  0.14315156457E+04  0.18551586381E+04  0.25500000920E-02 0. -1.
</event>
<event>
 5   0  0.1230450E-07  0.3201703E+04  0.7818609E-02  0.8188368E-01
       -3   -1    0    0    0  501  0.00000000000E+00  0.00000000000E+00  0.12809334758E+04  0.12809334797E+04  0.10100000352E+00 0.  1.
        3   -1    0    0  501    0  0.00000000000E+00  0.00000000000E+00 -0.20006704184E+04  0.20006704209E+04  0.10100000352E+00 0. -1.
    10030    2    1    2    0    0  0.00000000000E+00  0.00000000000E+00 -0.71973694261E+03  0.32816039007E+04  0.32017031240E+04 0.  0.
        1    1    3    3  502    0  0.14465877284E+04  0.24967247844E+03  0.29463884199E+03  0.14972523000E+04  0.50400001928E-02 0.  1.
       -1    1    3    3    0  502 -0.14465877284E+04 -0.24967247844E+03 -0.10143757846E+04  0.17843516007E+04  0.50400001928E-02 0. -1.
</event>
<event>
 5   0  0.1270948E-07  0.3200732E+04  0.7818609E-02  0.8188624E-01
       -1   -1    0    0    0  501  0.00000000000E+00  0.00000000000E+00  0.12682379226E+04  0.12682379227E+04  0.50400001928E-02 0.  1.
        1   -1    0    0  501    0  0.00000000000E+00  0.00000000000E+00 -0.20194717523E+04  0.20194717523E+04  0.50400001928E-02 0. -1.
    10030    2    1    2    0    0  0.00000000000E+00  0.00000000000E+00 -0.75123382969E+03  0.32877096750E+04  0.32007315789E+04 0.  0.
        4    1    3    3  502    0 -0.21576284894E+03 -0.12645216281E+04 -0.13584894821E+04  0.18684388780E+04  0.12699999809E+01 0. -1.
       -4    1    3    3    0  502  0.21576284894E+03  0.12645216281E+04  0.60725565242E+03  0.14192707970E+04  0.12699999809E+01 0.  1.
</event>
<event>
 5   0  0.3858721E-07  0.3186813E+04  0.7818609E-02  0.8192309E-01
        2   -1    0    0  501    0  0.00000000000E+00  0.00000000000E+00  0.15792359774E+04  0.15792359774E+04  0.25500000920E-02 0. -1.
       -2   -1    0    0    0  501  0.00000000000E+00  0.00000000000E+00 -0.16077039975E+04  0.16077039975E+04  0.25500000920E-02 0.  1.
    10030    2    1    2    0    0  0.00000000000E+00  0.00000000000E+00 -0.28468020076E+02  0.31869399750E+04  0.31868128241E+04 0.  0.
        2    1    3    3  502    0 -0.22036880702E+03 -0.14496094557E+03 -0.15857189645E+04  0.16075076115E+04  0.25500000920E-02 0.  1.
       -2    1    3    3    0  502  0.22036880702E+03  0.14496094557E+03  0.15572509444E+04  0.15794323634E+04  0.25500000920E-02 0. -1.
</event>
<event>
 5   0  0.1277374E-07  0.3196113E+04  0.7818609E-02  0.8189845E-01
        1   -1    0    0  501    0  0.00000000000E+00  0.00000000000E+00  0.12523983663E+04  0.12523983663E+04  0.50400001928E-02 0.  1.
       -1   -1    0    0    0  501  0.00000000000E+00  0.00000000000E+00 -0.20391148334E+04  0.20391148334E+04  0.50400001928E-02 0. -1.
    10030    2    1    2    0    0  0.00000000000E+00  0.00000000000E+00 -0.78671646706E+03  0.32915131997E+04  0.31961126927E+04 0.  0.
        5    1    3    3  502    0 -0.15701789012E+04 -0.29711039516E+03 -0.38814476221E+03  0.16445105092E+04  0.46999998093E+01 0.  1.
       -5    1    3    3    0  502  0.15701789012E+04  0.29711039516E+03 -0.39857170485E+03  0.16470026905E+04  0.46999998093E+01 0. -1.
</event>
<event>
 5   0  0.1277374E-07  0.3217339E+04  0.7818609E-02  0.8184253E-01
        1   -1    0    0  501    0  0.00000000000E+00  0.00000000000E+00  0.18891372765E+04  0.18891372765E+04  0.50400001928E-02 0. -1.
       -1   -1    0    0    0  501  0.00000000000E+00  0.00000000000E+00 -0.13698411362E+04  0.13698411362E+04  0.50400001928E-02 0.  1.
    10030    2    1    2    0    0  0.00000000000E+00  0.00000000000E+00  0.51929614029E+03  0.32589784126E+04  0.32173392443E+04 0.  0.
        5    1    3    3  502    0  0.48190359247E+03 -0.14480903355E+04 -0.25545980710E+03  0.15474102544E+04  0.46999998093E+01 0. -1.
       -5    1    3    3    0  502 -0.48190359247E+03  0.14480903355E+04  0.77475594739E+03  0.17115681582E+04  0.46999998093E+01 0.  1.
</event>
<event>
 5   0  0.1365455E-07  0.3202354E+04  0.7818609E-02  0.8188196E-01
       -1   -1    0    0    0  501  0.00000000000E+00  0.00000000000E+00  0.31932644264E+04  0.31932644264E+04  0.50400001928E-02 0. -1.
        1   -1    0    0  501    0  0.00000000000E+00  0.00000000000E+00 -0.80286748678E+03  0.80286748680E+03  0.50400001928E-02 0.  1.
    10030    2    1    2    0    0  0.00000000000E+00  0.00000000000E+00  0.23903969396E+04  0.39961319132E+04  0.32023542494E+04 0.  0.
        3    1    3    3  502    0  0.68308969282E+03  0.12325005238E+04  0.21439917319E+04  0.25656129143E+04  0.10100000352E+00 0. -1.
       -3    1    3    3    0  502 -0.68308969282E+03 -0.12325005238E+04  0.24640520771E+03  0.14305189989E+04  0.10100000352E+00 0.  1.
</event>
<event>
 5   0  0.1288096E-07  0.3199372E+04  0.7818609E-02  0.8188983E-01
        1   -1    0    0  501    0  0.00000000000E+00  0.00000000000E+00  0.24214998515E+04  0.24214998515E+04  0.50400001928E-02 0.  1.
       -1   -1    0    0    0  501  0.00000000000E+00  0.00000000000E+00 -0.10567808192E+04  0.10567808192E+04  0.50400001928E-02 0. -1.
    10030    2    1    2    0    0  0.00000000000E+00  0.00000000000E+00  0.13647190323E+04  0.34782806707E+04  0.31993715613E+04 0.  0.
        2    1    3    3  502    0  0.34370038114E+03  0.22433132760E+03 -0.99856402632E+03  0.10796224392E+04  0.25500000920E-02 0. -1.
       -2    1    3    3    0  502 -0.34370038114E+03 -0.22433132760E+03  0.23632830586E+04  0.23986582316E+04  0.25500000920E-02 0.  1.
</event>
<event>
 5   0  0.3764056E-07  0.3196308E+04  0.7818609E-02  0.8189793E-01
        2   -1    0    0  501    0  0.00000000000E+00  0.00000000000E+00  0.22174948945E+04  0.22174948945E+04  0.25500000920E-02 0. -1.
       -2   -1    0    0    0  501  0.00000000000E+00  0.00000000000E+00 -0.11517932065E+04  0.11517932065E+04  0.25500000920E-02 0.  1.
    10030    2    1    2    0    0  0.00000000000E+00  0.00000000000E+00  0.10657016880E+04  0.33692881011E+04  0.31963075916E+04 0.  0.
        5    1    3    3  502    0 -0.58997552139E+03  0.16199683005E+03  0.20891527852E+04  0.21769004430E+04  0.46999998093E+01 0. -1.
       -5    1    3    3    0  502  0.58997552139E+03 -0.16199683005E+03 -0.10234510972E+04  0.11923876581E+04  0.46999998093E+01 0.  1.
</event>
<event>
 5   0  0.1270948E-07  0.3201781E+04  0.7818609E-02  0.8188347E-01
        1   -1    0    0  501    0  0.00000000000E+00  0.00000000000E+00  0.32060411217E+04  0.32060411217E+04  0.50400001928E-02 0. -1.
       -1   -1    0    0    0  501  0.00000000000E+00  0.00000000000E+00 -0.79938149818E+03  0.79938149820E+03  0.50400001928E-02 0.  1.
    10030    2    1    2    0    0  0.00000000000E+00  0.00000000000E+00  0.24066596235E+04  0.40054226199E+04  0.32017807265E+04 0.  0.
        4    1    3    3  502    0 -0.13516729305E+04 -0.21264380475E+02  0.22761121652E+04  0.26472929733E+04  0.12699999809E+01 0. -1.
       -4    1    3    3    0  502  0.13516729305E+04  0.21264380475E+02  0.13054745824E+03  0.13581296465E+04  0.12699999809E+01 0.  1.
</event>
<event>
 5   0  0.1277374E-07  0.3204354E+04  0.7818609E-02  0.8187668E-01
        1   -1    0    0  501    0  0.00000000000E+00  0.00000000000E+00  0.89629007022E+03  0.89629007023E+03  0.50400001928E-02 0. -1.
       -1   -1    0    0    0  501  0.00000000000E+00  0.00000000000E+00 -0.28639952608E+04  0.28639952608E+04  0.50400001928E-02 0.  1.
    10030    2    1    2    0    0  0.00000000000E+00  0.00000000000E+00 -0.19677051906E+04  0.37602853310E+04  0.32043536094E+04 0.  0.
        5    1    3    3  502    0 -0.14917810876E+04 -0.22070743578E+03 -0.34883601893E+03  0.15478472934E+04  0.46999998093E+01 0.  1.
       -5    1    3    3    0  502  0.14917810876E+04  0.22070743578E+03 -0.16188691717E+04  0.22124380377E+04  0.46999998093E+01 0. -1.
</event>
<event>
 5   0  0.3858721E-07  0.3191418E+04  0.7818609E-02  0.8191087E-01
        2   -1    0    0  501    0  0.00000000000E+00  0.00000000000E+00  0.24365057693E+04  0.24365057693E+04  0.25500000920E-02 0.  1.
       -2   -1    0    0    0  501  0.00000000000E+00  0.00000000000E+00 -0.10450567663E+04  0.10450567663E+04  0.25500000920E-02 0. -1.
    10030    2    1    2    0    0  0.00000000000E+00  0.00000000000E+00  0.13914490030E+04  0.34815625356E+04  0.31914177667E+04 0.  0.
        2    1    3    3  502    0 -0.52116506355E+03  0.15028282555E+04  0.83449396598E+03  0.17962421797E+04  0.25500000920E-02 0.  1.
       -2    1    3    3    0  502  0.52116506355E+03 -0.15028282555E+04  0.55695503701E+03  0.16853203559E+04  0.25500000920E-02 0. -1.
</event>
<event>
 5   0  0.1288096E-07  0.3201309E+04  0.7818609E-02  0.8188471E-01
       -1   -1    0    0    0  501  0.00000000000E+00  0.00000000000E+00  0.13131725865E+04  0.13131725865E+04  0.50400001928E-02 0. -1.
        1   -1    0    0  501    0  0.00000000000E+00  0.00000000000E+00 -0.19510728240E+04  0.19510728240E+04  0.50400001928E-02 0.  1.
    10030    2    1    2    0    0  0.00000000000E+00  0.00000000000E+00 -0.63790023752E+03  0.32642454105E+04  0.32013093239E+04 0.  0.
        2    1    3    3  502    0  0.47156186343E+02  0.10025436303E+04  0.95247077325E+03  0.13836610895E+04  0.25500000920E-02 0. -1.
       -2    1    3    3    0  502 -0.47156186343E+02 -0.10025436303E+04 -0.15903710108E+04  0.18805843210E+04  0.25500000920E-02 0.  1.
</event>
<event>
 5   0  0.3764056E-07  0.3199851E+04  0.7818609E-02  0.8188857E-01
       -2   -1    0    0    0  501  0.00000000000E+00  0.00000000000E+00  0.15268560584E+04  0.15268560584E+04  0.25500000920E-02 0.  1.
        2   -1    0    0  501    0  0.00000000000E+00  0.00000000000E+00 -0.16764913657E+04  0.16764913657E+04  0.25500000920E-02 0. -1.
    10030    2    1    2    0    0  0.00000000000E+00  0.00000000000E+00 -0.14963530723E+03  0.32033474241E+04  0.31998506207E+04 0.  0.
        5    1    3    3  502    0  0.11111205402E+04 -0.27487106323E+02  0.10772633750E+04  0.15478575080E+04  0.46999998093E+01 0.  1.
       -5    1    3    3    0  502 -0.11111205402E+04  0.27487106323E+02 -0.12268986823E+04  0.16554899161E+04  0.46999998093E+01 0. -1.
</event>
<event>
 5   0  0.1317293E-07  0.3197329E+04  0.7818609E-02  0.8189523E-01
       -1   -1    0    0    0  501  0.00000000000E+00  0.00000000000E+00  0.12291151938E+04  0.12291151938E+04  0.50400001928E-02 0.  1.
        1   -1    0    0  501    0  0.00000000000E+00  0.00000000000E+00 -0.20793229149E+04  0.20793229149E+04  0.50400001928E-02 0. -1.
    10030    2    1    2    0    0  0.00000000000E+00  0.00000000000E+00 -0.85020772113E+03  0.33084381087E+04  0.31973285020E+04 0.  0.
        1    1    3    3  502    0  0.92889652376E+03 -0.88810853226E+03 -0.14090108516E+04  0.19070650479E+04  0.50400001928E-02 0. -1.
       -1    1    3    3    0  502 -0.92889652376E+03  0.88810853226E+03  0.55880313044E+03  0.14013730608E+04  0.50400001928E-02 0.  1.
</event>
<event>
 5   0  0.3942564E-07  0.3187334E+04  0.7818609E-02  0.8192170E-01
        2   -1    0    0  501    0  0.00000000000E+00  0.00000000000E+00  0.12085789617E+04  0.12085789617E+04  0.25500000920E-02 0.  1.
       -2   -1    0    0    0  501  0.00000000000E+00  0.00000000000E+00 -0.21014546808E+04  0.21014546808E+04  0.25500000920E-02 0. -1.
    10030    2    1    2    0    0  0.00000000000E+00  0.00000000000E+00 -0.89287571912E+03  0.33100336425E+04  0.31873336293E+04 0.  0.
        3    1    3    3  502    0  0.87977033915E+03  0.53063792344E+03 -0.17116149195E+04  0.19962960949E+04  0.10100000352E+00 0. -1.
       -3    1    3    3    0  502 -0.87977033915E+03 -0.53063792344E+03  0.81873920042E+03  0.13137375476E+04  0.10100000352E+00 0.  1.
</event>
<event>
 5   0  0.3764056E-07  0.3206244E+04  0.7818609E-02  0.8187170E-01
        2   -1    0    0  501    0  0.00000000000E+00  0.00000000000E+00  0.29002750331E+04  0.29002750331E+04  0.25500000920E-02 0. -1.
       -2   -1    0    0    0  501  0.00000000000E+00  0.00000000000E+00 -0.88612274828E+03  0.88612274829E+03  0.25500000920E-02 0.  1.
    10030    2    1    2    0    0  0.00000000000E+00  0.00000000000E+00  0.20141522848E+04  0.37863977814E+04  0.32062437107E+04 0.  0.
        5    1    3    3  502    0  0.73374720838E+03  0.11616227878E+04  0.19825004221E+04  0.24120701649E+04  0.46999998093E+01 0. -1.
       -5    1    3    3    0  502 -0.73374720838E+03 -0.11616227878E+04  0.31651862722E+02  0.13743276165E+04  0.46999998093E+01 0.  1.
</event>
<event>
 5   0  0.1317293E-07  0.3200619E+04  0.7818609E-02  0.8188654E-01
       -1   -1    0    0    0  501  0.00000000000E+00  0.00000000000E+00  0.11596940809E+04  0.11596940809E+04  0.50400001928E-02 0.  1.
        1   -1    0    0  501    0  0.00000000000E+00  0.00000000000E+00 -0.22083331256E+04  0.22083331256E+04  0.50400001928E-02 0. -1.
    10030    2    1    2    0    0  0.00000000000E+00  0.00000000000E+00 -0.10486390447E+04  0.33680272065E+04  0.32006192241E+04 0.  0.
        1    1    3    3  502    0  0.80684145944E+02 -0.82090878618E+03  0.91875449324E+03  0.12347108915E+04  0.50400001928E-02 0.  1.
       -1    1    3    3    0  502 -0.80684145944E+02  0.82090878618E+03 -0.19673935380E+04  0.21333163150E+04  0.50400001928E-02 0. -1.
</event>
<event>
 5   0  0.3858721E-07  0.3196026E+04  0.7818609E-02  0.8189867E-01
       -2   -1    0    0    0  501  0.00000000000E+00  0.00000000000E+00  0.10505931463E+04  0.10505931463E+04  0.25500000920E-02 0. -1.
        2   -1    0    0  501    0  0.00000000000E+00  0.00000000000E+00 -0.24306702223E+04  0.24306702223E+04  0.25500000920E-02 0.  1.
    10030    2    1    2    0    0  0.00000000000E+00  0.00000000000E+00 -0.13800770760E+04  0.34812633686E+04  0.31960259551E+04 0.  0.
        2    1    3    3  502    0 -0.28138475549E+02 -0.14882058200E+03  0.10427574822E+04  0.10536994382E+04  0.25500000920E-02 0. -1.
       -2    1    3    3    0  502  0.28138475549E+02  0.14882058200E+03 -0.24228345582E+04  0.24275639303E+04  0.25500000920E-02 0.  1.
</event>
<event>
 5   0  0.3764056E-07  0.3204931E+04  0.7818609E-02  0.8187516E-01
        2   -1    0    0  501    0  0.00000000000E+00  0.00000000000E+00  0.17172230146E+04  0.17172230146E+04  0.25500000920E-02 0.  1.
       -2   -1    0    0    0  501  0.00000000000E+00  0.00000000000E+00 -0.14953773435E+04  0.14953773435E+04  0.25500000920E-02 0. -1.
    10030    2    1    2    0    0  0.00000000000E+00  0.00000000000E+00  0.22184567106E+03  0.32126003581E+04  0.32049314437E+04 0.  0.
        5    1    3    3  502    0  0.15441426282E+04 -0.26604391220E+03  0.44746193007E+03  0.16295398394E+04  0.46999998093E+01 0. -1.
       -5    1    3    3    0  502 -0.15441426282E+04  0.26604391220E+03 -0.22561625901E+03  0.15830605187E+04  0.46999998093E+01 0.  1.
</event>
<event>
 5   0  0.1288096E-07  0.3205848E+04  0.7818609E-02  0.8187275E-01
        1   -1    0    0  501    0  0.00000000000E+00  0.00000000000E+00  0.13473729981E+04  0.13473729981E+04  0.50400001928E-02 0. -1.
       -1   -1    0    0    0  501  0.00000000000E+00  0.00000000000E+00 -0.19069440215E+04  0.19069440215E+04  0.50400001928E-02 0.  1.
    10030    2    1    2    0    0  0.00000000000E+00  0.00000000000E+00 -0.55957102341E+03  0.32543170197E+04  0.32058477092E+04 0.  0.
        2    1    3    3  502    0  0.76867713480E+02  0.17289920187E+03 -0.18955674420E+04  0.19049878494E+04  0.25500000920E-02 0.  1.
       -2    1    3    3    0  502 -0.76867713480E+02 -0.17289920187E+03  0.13359964185E+04  0.13493291703E+04  0.25500000920E-02 0. -1.
</event>
<event>
 5   0  0.3764056E-07  0.3197111E+04  0.7818609E-02  0.8189581E-01
       -2   -1    0    0    0  501  0.00000000000E+00  0.00000000000E+00  0.14513954781E+04  0.14513954781E+04  0.25500000920E-02 0.  1.
        2   -1    0    0  501    0  0.00000000000E+00  0.00000000000E+00 -0.17606366535E+04  0.17606366535E+04  0.25500000920E-02 0. -1.
    10030    2    1    2    0    0  0.00000000000E+00  0.00000000000E+00 -0.30924117531E+03  0.32120321316E+04  0.31971112445E+04 0.  0.
        5    1    3    3  502    0  0.31795611736E+03  0.13671060409E+04  0.61398772332E+03  0.15320176350E+04  0.46999998093E+01 0.  1.
       -5    1    3    3    0  502 -0.31795611736E+03 -0.13671060409E+04 -0.92322889862E+03  0.16800144966E+04  0.46999998093E+01 0. -1.
</event>
<event>
 5   0  0.1270948E-07  0.3210859E+04  0.7818609E-02  0.8185955E-01
        1   -1    0    0  501    0  0.00000000000E+00  0.00000000000E+00  0.18141766008E+04  0.18141766008E+04  0.50400001928E-02 0.  1.
       -1   -1    0    0    0  501  0.00000000000E+00  0.00000000000E+00 -0.14207017840E+04  0.14207017840E+04  0.50400001928E-02 0. -1.
    10030    2    1    2    0    0  0.00000000000E+00  0.00000000000E+00  0.39347481681E+03  0.32348783847E+04  0.32108590334E+04 0.  0.
        4    1    3    3  502    0 -0.59384180925E+03  0.54036433120E+02  0.16984698104E+04  0.18001025916E+04  0.12699999809E+01 0.  1.
       -4    1    3    3    0  502  0.59384180925E+03 -0.54036433120E+02 -0.13049949936E+04  0.14347757932E+04  0.12699999809E+01 0. -1.
</event>
<event>
 5   0  0.1277374E-07  0.3202132E+04  0.7818609E-02  0.8188254E-01
       -1   -1    0    0    0  501  0.00000000000E+00  0.00000000000E+00  0.14112290714E+04  0.14112290714E+04  0.50400001928E-02 0. -1.
        1   -1    0    0  501    0  0.00000000000E+00  0.00000000000E+00 -0.18164394231E+04  0.18164394231E+04  0.50400001928E-02 0.  1.
    10030    2    1    2    0    0  0.00000000000E+00  0.00000000000E+00 -0.40521035176E+03  0.32276684945E+04  0.32021318651E+04 0.  0.
        5    1    3    3  502    0 -0.10555178493E+04 -0.10729959737E+03 -0.14112334299E+04  0.17655687518E+04  0.46999998093E+01 0.  1.
       -5    1    3    3    0  502  0.10555178493E+04  0.10729959737E+03  0.10060230781E+04  0.14620997427E+04  0.46999998093E+01 0. -1.
</event>
<event>
 5   0  0.1277374E-07  0.3219849E+04  0.7818609E-02  0.8183595E-01
        1   -1    0    0  501    0  0.00000000000E+00  0.00000000000E+00  0.17085856940E+04  0.17085856940E+04  0.50400001928E-02 0. -1.
       -1   -1    0    0    0  501  0.00000000000E+00  0.00000000000E+00 -0.15169607437E+04  0.15169607437E+04  0.50400001928E-02 0.  1.
    10030    2    1    2    0    0  0.00000000000E+00  0.00000000000E+00  0.19162495033E+03  0.32255464377E+04  0.32198493288E+04 0.  0.
        5    1    3    3  502    0 -0.11748601749E+04  0.99294419565E+03  0.57162733187E+03  0.16410406768E+04  0.46999998093E+01 0.  1.
       -5    1    3    3    0  502  0.11748601749E+04 -0.99294419565E+03 -0.38000238154E+03  0.15845057609E+04  0.46999998093E+01 0. -1.
</event>
<event>
 5   0  0.1230450E-07  0.3196204E+04  0.7818609E-02  0.8189820E-01
       -3   -1    0    0    0  501  0.00000000000E+00  0.00000000000E+00  0.90262569919E+03  0.90262570484E+03  0.10100000352E+00 0.  1.
        3   -1    0    0  501    0  0.00000000000E+00  0.00000000000E+00 -0.28294448923E+04  0.28294448941E+04  0.10100000352E+00 0. -1.
    10030    2    1    2    0    0  0.00000000000E+00  0.00000000000E+00 -0.19268191931E+04  0.37320705990E+04  0.31962038034E+04 0.  0.
        5    1    3    3  502    0  0.27885987994E+03  0.12512379992E+03  0.86817120618E+03  0.92041410853E+03  0.46999998093E+01 0.  1.
       -5    1    3    3    0  502 -0.27885987994E+03 -0.12512379992E+03 -0.27949903993E+04  0.28116564904E+04  0.46999998093E+01 0. -1.
</event>
<event>
 5   0  0.3942564E-07  0.3214976E+04  0.7818609E-02  0.8184873E-01
       -2   -1    0    0    0  501  0.00000000000E+00  0.00000000000E+00  0.19555538110E+04  0.19555538110E+04  0.25500000920E-02 0.  1.
        2   -1    0    0  501    0  0.00000000000E+00  0.00000000000E+00 -0.13213741532E+04  0.13213741532E+04  0.25500000920E-02 0. -1.
    10030    2    1    2    0    0  0.00000000000E+00  0.00000000000E+00  0.63417965781E+03  0.32769279643E+04  0.32149763677E+04 0.  0.
        3    1    3    3  502    0  0.41349256968E+03 -0.94698771533E+03  0.15721814635E+04  0.18813602533E+04  0.10100000352E+00 0.  1.
       -3    1    3    3    0  502 -0.41349256968E+03  0.94698771533E+03 -0.93800180574E+03  0.13955677110E+04  0.10100000352E+00 0. -1.
</event>
<event>
 5   0  0.1277374E-07  0.3185463E+04  0.7818609E-02  0.8192667E-01
       -1   -1    0    0    0  501  0.00000000000E+00  0.00000000000E+00  0.36270770572E+04  0.36270770572E+04  0.50400001928E-02 0.  1.
        1   -1    0    0  501    0  0.00000000000E+00  0.00000000000E+00 -0.69940437568E+03  0.69940437570E+03  0.50400001928E-02 0. -1.
    10030    2    1    2    0    0  0.00000000000E+00  0.00000000000E+00  0.29276726815E+04  0.43264814329E+04  0.31854629584E+04 0.  0.
        5    1    3    3  502    0  0.67842515181E+03  0.60151040895E+02 -0.49163155289E+03  0.84000149293E+03  0.46999998093E+01 0. -1.
       -5    1    3    3    0  502 -0.67842515181E+03 -0.60151040895E+02  0.34193042344E+04  0.34864799399E+04  0.46999998093E+01 0.  1.
</event>
<event>
 5   0  0.1277374E-07  0.3195558E+04  0.7818609E-02  0.8189991E-01
        1   -1    0    0  501    0  0.00000000000E+00  0.00000000000E+00  0.13601173188E+04  0.13601173188E+04  0.50400001928E-02 0.  1.
       -1   -1    0    0    0  501  0.00000000000E+00  0.00000000000E+00 -0.18769692519E+04  0.18769692519E+04  0.50400001928E-02 0. -1.
    10030    2    1    2    0    0  0.00000000000E+00  0.00000000000E+00 -0.51685193309E+03  0.32370865706E+04  0.31955584089E+04 0.  0.
        5    1    3    3  502    0  0.12070932336E+04  0.92249871616E+03  0.24277487150E+03  0.15385186655E+04  0.46999998093E+01 0.  1.
       -5    1    3    3    0  502 -0.12070932336E+04 -0.92249871616E+03 -0.75962680459E+03  0.16985679051E+04  0.46999998093E+01 0. -1.
</event>
<event>
 5   0  0.3942564E-07  0.3200409E+04  0.7818609E-02  0.8188709E-01
        2   -1    0    0  501    0  0.00000000000E+00  0.00000000000E+00  0.21480807445E+04  0.21480807445E+04  0.25500000920E-02 0.  1.
       -2   -1    0    0    0  501  0.00000000000E+00  0.00000000000E+00 -0.11920664159E+04  0.11920664159E+04  0.25500000920E-02 0. -1.
    10030    2    1    2    0    0  0.00000000000E+00  0.00000000000E+00  0.95601432866E+03  0.33401471604E+04  0.32004092952E+04 0.  0.
        3    1    3    3  502    0  0.12750220522E+04 -0.27557734218E+03  0.14453144209E+04  0.19469355127E+04  0.10100000352E+00 0.  1.
       -3    1    3    3    0  502 -0.12750220522E+04  0.27557734218E+03 -0.48930009221E+03  0.13932116478E+04  0.10100000352E+00 0. -1.
</event>
<event>
 5   0  0.3750285E-07  0.3189918E+04  0.7818609E-02  0.8191485E-01
        2   -1    0    0  501    0  0.00000000000E+00  0.00000000000E+00  0.22274819876E+04  0.22274819876E+04  0.25500000920E-02 0.  1.
       -2   -1    0    0    0  501  0.00000000000E+00  0.00000000000E+00 -0.11420493948E+04  0.11420493948E+04  0.25500000920E-02 0. -1.
    10030    2    1    2    0    0  0.00000000000E+00  0.00000000000E+00  0.10854325928E+04  0.33695313824E+04  0.31899181531E+04 0.  0.
        1    1    3    3  502    0  0.87813919097E+03 -0.13212706431E+04  0.36911558869E+03  0.16288434145E+04  0.50400001928E-02 0.  1.
       -1    1    3    3    0  502 -0.87813919097E+03  0.13212706431E+04  0.71631700410E+03  0.17406879679E+04  0.50400001928E-02 0. -1.
</event>
<event>
 5   0  0.3830207E-07  0.3195664E+04  0.7818609E-02  0.8189963E-01
       -2   -1    0    0    0  501  0.00000000000E+00  0.00000000000E+00  0.15784943788E+04  0.15784943788E+04  0.25500000920E-02 0. -1.
        2   -1    0    0  501    0  0.00000000000E+00  0.00000000000E+00 -0.16174066672E+04  0.16174066672E+04  0.25500000920E-02 0.  1.
    10030    2    1    2    0    0  0.00000000000E+00  0.00000000000E+00 -0.38912288410E+02  0.31959010460E+04  0.31956641453E+04 0.  0.
        4    1    3    3  502    0  0.15476947735E+04 -0.68792054128E+02 -0.41060437988E+03  0.16027130212E+04  0.12699999809E+01 0.  1.
       -4    1    3    3    0  502 -0.15476947735E+04  0.68792054128E+02  0.37169209147E+03  0.15931880248E+04  0.12699999809E+01 0. -1.
</event>
<event>
 5   0  0.1288096E-07  0.3203473E+04  0.7818609E-02  0.8187901E-01
        1   -1    0    0  501    0  0.00000000000E+00  0.00000000000E+00  0.12071759798E+04  0.12071759799E+04  0.50400001928E-02 0.  1.
       -1   -1    0    0    0  501  0.00000000000E+00  0.00000000000E+00 -0.21252573540E+04  0.21252573540E+04  0.50400001928E-02 0. -1.
    10030    2    1    2    0    0  0.00000000000E+00  0.00000000000E+00 -0.91808137413E+03  0.33324333338E+04  0.32034728834E+04 0.  0.
        2    1    3    3  502    0  0.15335473673E+04  0.27021503836E+03 -0.68735227008E+02  0.15586879823E+04  0.25500000920E-02 0. -1.
       -2    1    3    3    0  502 -0.15335473673E+04 -0.27021503836E+03 -0.84934614712E+03  0.17737453516E+04  0.25500000920E-02 0.  1.
</event>
<event>
 5   0  0.3764056E-07  0.3199347E+04  0.7818609E-02  0.8188990E-01
        2   -1    0    0  501    0  0.00000000000E+00  0.00000000000E+00  0.30192164652E+04  0.30192164652E+04  0.25500000920E-02 0.  1.
       -2   -1    0    0    0  501  0.00000000000E+00  0.00000000000E+00 -0.84755625686E+03  0.84755625686E+03  0.25500000920E-02 0. -1.
    10030    2    1    2    0    0  0.00000000000E+00  0.00000000000E+00  0.21716602083E+04  0.38667727220E+04  0.31993473121E+04 0.  0.
        5    1    3    3  502    0  0.45382841480E+03  0.82919670883E+03  0.26455526858E+04  0.28093590933E+04  0.46999998093E+01 0.  1.
       -5    1    3    3    0  502 -0.45382841480E+03 -0.82919670883E+03 -0.47389247746E+03  0.10574136287E+04  0.46999998093E+01 0. -1.
</event>
<event>
 5   0  0.1270948E-07  0.3195521E+04  0.7818609E-02  0.8190001E-01
        1   -1    0    0  501    0  0.00000000000E+00  0.00000000000E+00  0.18392036969E+04  0.18392036969E+04  0.50400001928E-02 0. -1.
       -1   -1    0    0    0  501  0.00000000000E+00  0.00000000000E+00 -0.13880126655E+04  0.13880126655E+04  0.50400001928E-02 0.  1.
    10030    2    1    2    0    0  0.00000000000E+00  0.00000000000E+00  0.45119103137E+03  0.32272163625E+04  0.31955206310E+04 0.  0.
        4    1    3    3  502    0  0.96199683567E+03  0.68194322838E+03  0.13144134818E+04  0.17658337670E+04  0.12699999809E+01 0. -1.
       -4    1    3    3    0  502 -0.96199683567E+03 -0.68194322838E+03 -0.86322245042E+03  0.14613825955E+04  0.12699999809E+01 0.  1.
</event>
<event>
 5   0  0.3750285E-07  0.3177324E+04  0.7818609E-02  0.8194832E-01
        2   -1    0    0  501    0  0.00000000000E+00  0.00000000000E+00  0.29941733012E+04  0.29941733012E+04  0.25500000920E-02 0. -1.
       -2   -1    0    0    0  501  0.00000000000E+00  0.00000000000E+00 -0.84291948078E+03  0.84291948079E+03  0.25500000920E-02 0.  1.
    10030    2    1    2    0    0  0.00000000000E+00  0.00000000000E+00  0.21512538204E+04  0.38370927820E+04  0.31773240341E+04 0.  0.
        1    1    3    3  502    0 -0.66164122135E+03  0.71003430034E+02 -0.66650338194E+03  0.94182660349E+03  0.50400001928E-02 0.  1.
       -1    1    3    3    0  502  0.66164122135E+03 -0.71003430034E+02  0.28177572023E+04  0.28952661785E+04  0.50400001928E-02 0. -1.
</event>
<event>
 5   0  0.3764056E-07  0.3222272E+04  0.7818609E-02  0.8182960E-01
        2   -1    0    0  501    0  0.00000000000E+00  0.00000000000E+00  0.16666831672E+04  0.16666831672E+04  0.25500000920E-02 0.  1.
       -2   -1    0    0    0  501  0.00000000000E+00  0.00000000000E+00 -0.15574397851E+04  0.15574397851E+04  0.25500000920E-02 0. -1.
    10030    2    1    2    0    0  0.00000000000E+00  0.00000000000E+00  0.10924338212E+03  0.32241229523E+04  0.32222716669E+04 0.  0.
        5    1    3    3  502    0  0.99187123613E+03  0.64357042838E+03  0.11496658957E+04  0.16491650030E+04  0.46999998093E+01 0.  1.
       -5    1    3    3    0  502 -0.99187123613E+03 -0.64357042838E+03 -0.10404225136E+04  0.15749579493E+04  0.46999998093E+01 0. -1.
</event>
<event>
 5   0  0.3858721E-07  0.3220509E+04  0.7818609E-02  0.8183422E-01
       -2   -1    0    0    0  501  0.00000000000E+00  0.00000000000E+00  0.24855985517E+04  0.24855985517E+04  0.25500000920E-02 0.  1.
        2   -1    0    0  501    0  0.00000000000E+00  0.00000000000E+00 -0.10431773552E+04  0.10431773552E+04  0.25500000920E-02 0. -1.
    10030    2    1    2    0    0  0.00000000000E+00  0.00000000000E+00  0.14424211965E+04  0.35287759069E+04  0.32205093530E+04 0.  0.
        2    1    3    3  502    0 -0.12363460506E+04  0.54978011232E+03 -0.23534112259E+03  0.13733882090E+04  0.25500000920E-02 0. -1.
       -2    1    3    3    0  502  0.12363460506E+04 -0.54978011232E+03  0.16777623191E+04  0.21553876978E+04  0.25500000920E-02 0.  1.
</event>
<event>
 5   0  0.1317293E-07  0.3200145E+04  0.7818609E-02  0.8188779E-01
       -1   -1    0    0    0  501  0.00000000000E+00  0.00000000000E+00  0.17273108937E+04  0.17273108937E+04  0.50400001928E-02 0.  1.
        1   -1    0    0  501    0  0.00000000000E+00  0.00000000000E+00 -0.14822072711E+04  0.14822072711E+04  0.50400001928E-02 0. -1.
    10030    2    1    2    0    0  0.00000000000E+00  0.00000000000E+00  0.24510362262E+03  0.32095181647E+04  0.32001454754E+04 0.  0.
        1    1    3    3  502    0  0.10506728271E+04  0.84958842215E+03 -0.73699909201E+03  0.15391171295E+04  0.50400001928E-02 0. -1.
       -1    1    3    3    0  502 -0.10506728271E+04 -0.84958842215E+03  0.98210271463E+03  0.16704010353E+04  0.50400001928E-02 0.  1.
</event>
<event>
 5   0  0.1270948E-07  0.3203398E+04  0.7818609E-02  0.8187920E-01
       -1   -1    0    0    0  501  0.00000000000E+00  0.00000000000E+00  0.13743922173E+04  0.13743922173E+04  0.50400001928E-02 0. -1.
        1   -1    0    0  501    0  0.00000000000E+00  0.00000000000E+00 -0.18665991864E+04  0.18665991864E+04  0.50400001928E-02 0.  1.
    10030    2    1    2    0    0  0.00000000000E+00  0.00000000000E+00 -0.49220696910E+03  0.32409914036E+04  0.32033978176E+04 0.  0.
        4    1    3    3  502    0  0.64270614326E+03  0.28176497521E+03  0.12105761410E+04  0.13992708437E+04  0.12699999809E+01 0. -1.
       -4    1    3    3    0  502 -0.64270614326E+03 -0.28176497521E+03 -0.17027831101E+04  0.18417205599E+04  0.12699999809E+01 0.  1.
</event>
<event>
 5   0  0.3858721E-07  0.3201155E+04  0.7818609E-02  0.8188512E-01
        2   -1    0    0  501    0  0.00000000000E+00  0.00000000000E+00  0.24887847044E+04  0.24887847044E+04  0.25500000920E-02 0.  1.
       -2   -1    0    0    0  501  0.00000000000E+00  0.00000000000E+00 -0.10293574352E+04  0.10293574352E+04  0.25500000920E-02 0. -1.
    10030    2    1    2    0    0  0.00000000000E+00  0.00000000000E+00  0.14594272692E+04  0.35181421396E+04  0.32011554415E+04 0.  0.
        2    1    3    3  502    0  0.86439784546E+03  0.84275548144E+03  0.18846962348E+04  0.22381913086E+04  0.25500000920E-02 0.  1.
       -2    1    3    3    0  502 -0.86439784546E+03 -0.84275548144E+03 -0.42526896554E+03  0.12799508310E+04  0.25500000920E-02 0. -1.
</event>
<event>
 5   0  0.3764056E-07  0.3186858E+04  0.7818609E-02  0.8192297E-01
        2   -1    0    0  501    0  0.00000000000E+00  0.00000000000E+00  0.16368343817E+04  0.16368343817E+04  0.25500000920E-02 0.  1.
       -2   -1    0    0    0  501  0.00000000000E+00  0.00000000000E+00 -0.15511745178E+04  0.15511745178E+04  0.25500000920E-02 0. -1.
    10030    2    1    2    0    0  0.00000000000E+00  0.00000000000E+00  0.85659863889E+02  0.31880088994E+04  0.31868578774E+04 0.  0.
        5    1    3    3  502    0 -0.95886339665E+03 -0.16616470671E+03  0.13050161864E+04  0.16279186282E+04  0.46999998093E+01 0.  1.
       -5    1    3    3    0  502  0.95886339665E+03  0.16616470671E+03 -0.12193563225E+04  0.15600902713E+04  0.46999998093E+01 0. -1.
</event>
<event>
 5   0  0.1317293E-07  0.3200471E+04  0.7818609E-02  0.8188693E-01
       -1   -1    0    0    0  501  0.00000000000E+00  0.00000000000E+00  0.17121023200E+04  0.17121023200E+04  0.50400001928E-02 0.  1.
        1   -1    0    0  501    0  0.00000000000E+00  0.00000000000E+00 -0.14956780673E+04  0.14956780673E+04  0.50400001928E-02 0. -1.
    10030    2    1    2    0    0  0.00000000000E+00  0.00000000000E+00  0.21642425274E+03  0.32077803873E+04  0.32004711460E+04 0.  0.
        1    1    3    3  502    0 -0.13271265775E+04  0.25243409892E+03 -0.75151485737E+03  0.15458856711E+04  0.50400001928E-02 0. -1.
       -1    1    3    3    0  502  0.13271265775E+04 -0.25243409892E+03  0.96793911011E+03  0.16618947163E+04  0.50400001928E-02 0.  1.
</event>
<event>
 5   0  0.1288096E-07  0.3201722E+04  0.7818609E-02  0.8188362E-01
       -1   -1    0    0    0  501  0.00000000000E+00  0.00000000000E+00  0.22429371968E+04  0.22429371968E+04  0.50400001928E-02 0.  1.
        1   -1    0    0  501    0  0.00000000000E+00  0.00000000000E+00 -0.11425894350E+04  0.11425894350E+04  0.50400001928E-02 0. -1.
    10030    2    1    2    0    0  0.00000000000E+00  0.00000000000E+00  0.11003477617E+04  0.33855266318E+04  0.32017222518E+04 0.  0.
        2    1    3    3  502    0  0.11084493240E+04  0.21838284085E+03  0.17494840143E+04  0.20825573906E+04  0.25500000920E-02 0.  1.
       -2    1    3    3    0  502 -0.11084493240E+04 -0.21838284085E+03 -0.64913625254E+03  0.13029692412E+04  0.25500000920E-02 0. -1.
</event>
<event>
 5   0  0.3830207E-07  0.3211252E+04  0.7818609E-02  0.8185852E-01
       -2   -1    0    0    0  501  0.00000000000E+00  0.00000000000E+00  0.15049890706E+04  0.15049890706E+04  0.25500000920E-02 0.  1.
        2   -1    0    0  501    0  0.00000000000E+00  0.00000000000E+00 -0.17129927058E+04  0.17129927058E+04  0.25500000920E-02 0. -1.
    10030    2    1    2    0    0  0.00000000000E+00  0.00000000000E+00 -0.20800363525E+03  0.32179817764E+04  0.32112522793E+04 0.  0.
        4    1    3    3  502    0 -0.41788180107E+03 -0.33115771289E+03 -0.16216864560E+04  0.17070908601E+04  0.12699999809E+01 0. -1.
       -4    1    3    3    0  502  0.41788180107E+03  0.33115771289E+03  0.14136828207E+04  0.15108909163E+04  0.12699999809E+01 0.  1.
</event>
<event>
 5   0  0.1230450E-07  0.3199274E+04  0.7818609E-02  0.8189009E-01
       -3   -1    0    0    0  501  0.00000000000E+00  0.00000000000E+00  0.11104643429E+04  0.11104643475E+04  0.10100000352E+00 0.  1.
        3   -1    0    0  501    0  0.00000000000E+00  0.00000000000E+00 -0.23042963805E+04  0.23042963827E+04  0.10100000352E+00 0. -1.
    10030    2    1    2    0    0  0.00000000000E+00  0.00000000000E+00 -0.11938320377E+04  0.34147607302E+04  0.31992742787E+04 0.  0.
        4    1    3    3  502    0 -0.85717730578E+03 -0.49950772878E+03  0.74242349316E+03  0.12391348436E+04  0.12699999809E+01 0.  1.
       -4    1    3    3    0  502  0.85717730578E+03  0.49950772878E+03 -0.19362555308E+04  0.21756258866E+04  0.12699999809E+01 0. -1.
</event>
<event>
 5   0  0.3830207E-07  0.3200188E+04  0.7818609E-02  0.8188768E-01
       -2   -1    0    0    0  501  0.00000000000E+00  0.00000000000E+00  0.81070912796E+03  0.81070912796E+03  0.25500000920E-02 0.  1.
        2   -1    0    0  501    0  0.00000000000E+00  0.00000000000E+00 -0.31580995659E+04  0.31580995659E+04  0.25500000920E-02 0. -1.
    10030    2    1    2    0    0  0.00000000000E+00  0.00000000000E+00 -0.23473904380E+04  0.39688086939E+04  0.32001875852E+04 0.  0.
        4    1    3    3  502    0 -0.85708410252E+03 -0.12723448434E+04 -0.60966007519E+03  0.16508002845E+04  0.12699999809E+01 0.  1.
       -4    1    3    3    0  502  0.85708410252E+03  0.12723448434E+04 -0.17377303628E+04  0.23180084094E+04  0.12699999809E+01 0. -1.
</event>
<event>
 5   0  0.3830207E-07  0.3207006E+04  0.7818609E-02  0.8186969E-01
        2   -1    0    0  501    0  0.00000000000E+00  0.00000000000E+00  0.12978721935E+04  0.12978721935E+04  0.25500000920E-02 0. -1.
       -2   -1    0    0    0  501  0.00000000000E+00  0.00000000000E+00 -0.19811051082E+04  0.19811051082E+04  0.25500000920E-02 0.  1.
    10030    2    1    2    0    0  0.00000000000E+00  0.00000000000E+00 -0.68323291467E+03  0.32789773017E+04  0.32070056017E+04 0.  0.
        4    1    3    3  502    0  0.14328774274E+04  0.70493097862E+03 -0.49032541455E+03  0.16704747922E+04  0.12699999809E+01 0.  1.
       -4    1    3    3    0  502 -0.14328774274E+04 -0.70493097862E+03 -0.19290750013E+03  0.16085025095E+04  0.12699999809E+01 0. -1.
</event>
<event>
 5   0  0.3942564E-07  0.3206315E+04  0.7818609E-02  0.8187151E-01
       -2   -1    0    0    0  501  0.00000000000E+00  0.00000000000E+00  0.12811262419E+04  0.12811262419E+04  0.25500000920E-02 0.  1.
        2   -1    0    0  501    0  0.00000000000E+00  0.00000000000E+00 -0.20061359631E+04  0.20061359631E+04  0.25500000920E-02 0. -1.
    10030    2    1    2    0    0  0.00000000000E+00  0.00000000000E+00 -0.72500972114E+03  0.32872622050E+04  0.32063146615E+04 0.  0.
        3    1    3    3  502    0 -0.20237875660E+03 -0.14454231038E+04  0.31749572544E+03  0.14936561372E+04  0.10100000352E+00 0.  1.
       -3    1    3    3    0  502  0.20237875660E+03  0.14454231038E+04 -0.10425054466E+04  0.17936060678E+04  0.10100000352E+00 0. -1.
</event>
<event>
 5   0  0.1288096E-07  0.3189466E+04  0.7818609E-02  0.8191605E-01
       -1   -1    0    0    0  501  0.00000000000E+00  0.00000000000E+00  0.13959713394E+04  0.13959713394E+04  0.50400001928E-02 0.  1.
        1   -1    0    0  501    0  0.00000000000E+00  0.00000000000E+00 -0.18217950215E+04  0.18217950215E+04  0.50400001928E-02 0. -1.
    10030    2    1    2    0    0  0.00000000000E+00  0.00000000000E+00 -0.42582368213E+03  0.32177663609E+04  0.31894661850E+04 0.  0.
        2    1    3    3  502    0 -0.15323821645E+04  0.22912345455E+02 -0.65779345489E+03  0.16677566677E+04  0.25500000920E-02 0. -1.
       -2    1    3    3    0  502  0.15323821645E+04 -0.22912345455E+02  0.23196977275E+03  0.15500096932E+04  0.25500000920E-02 0.  1.
</event>
<event>
 5   0  0.1317293E-07  0.3205444E+04  0.7818609E-02  0.8187381E-01
        1   -1    0    0  501    0  0.00000000000E+00  0.00000000000E+00  0.22031874386E+04  0.22031874386E+04  0.50400001928E-02 0. -1.
       -1   -1    0    0    0  501  0.00000000000E+00  0.00000000000E+00 -0.11659101523E+04  0.11659101523E+04  0.50400001928E-02 0.  1.
    10030    2    1    2    0    0  0.00000000000E+00  0.00000000000E+00  0.10372772863E+04  0.33690975909E+04  0.32054444946E+04 0.  0.
        1    1    3    3  502    0  0.48623180030E+03  0.13432156712E+04 -0.24514547777E+03  0.14493950491E+04  0.50400001928E-02 0. -1.
       -1    1    3    3    0  502 -0.48623180030E+03 -0.13432156712E+04  0.12824227640E+04  0.19197025418E+04  0.50400001928E-02 0.  1.
</event>
<event>
 5   0  0.1277374E-07  0.3202586E+04  0.7818609E-02  0.8188135E-01
        1   -1    0    0  501    0  0.00000000000E+00  0.00000000000E+00  0.83636909929E+03  0.83636909931E+03  0.50400001928E-02 0.  1.
       -1   -1    0    0    0  501  0.00000000000E+00  0.00000000000E+00 -0.30657984491E+04  0.30657984491E+04  0.50400001928E-02 0. -1.
    10030    2    1    2    0    0  0.00000000000E+00  0.00000000000E+00 -0.22294293498E+04  0.39021675484E+04  0.32025858849E+04 0.  0.
        5    1    3    3  502    0  0.12228430696E+04 -0.93762434982E+03 -0.58412181408E+03  0.16479396160E+04  0.46999998093E+01 0. -1.
       -5    1    3    3    0  502 -0.12228430696E+04  0.93762434982E+03 -0.16453075357E+04  0.22542279324E+04  0.46999998093E+01 0.  1.
</event>
<event>
 5   0  0.3750285E-07  0.3202236E+04  0.7818609E-02  0.8188227E-01
       -2   -1    0    0    0  501  0.00000000000E+00  0.00000000000E+00  0.17049989262E+04  0.17049989262E+04  0.25500000920E-02 0. -1.
        2   -1    0    0  501    0  0.00000000000E+00  0.00000000000E+00 -0.15035659875E+04  0.15035659875E+04  0.25500000920E-02 0.  1.
    10030    2    1    2    0    0  0.00000000000E+00  0.00000000000E+00  0.20143293869E+03  0.32085649137E+04  0.32022357154E+04 0.  0.
        1    1    3    3  502    0  0.57256447552E+03 -0.52586436445E+03 -0.13017696772E+04  0.15162347117E+04  0.50400001928E-02 0.  1.
       -1    1    3    3    0  502 -0.57256447552E+03  0.52586436445E+03  0.15032026159E+04  0.16923302021E+04  0.50400001928E-02 0. -1.
</event>
<event>
 5   0  0.3764056E-07  0.3202167E+04  0.7818609E-02  0.8188245E-01
        2   -1    0    0  501    0  0.00000000000E+00  0.00000000000E+00  0.16582048296E+04  0.16582048296E+04  0.25500000920E-02 0.  1.
       -2   -1    0    0    0  501  0.00000000000E+00  0.00000000000E+00 -0.15459299494E+04  0.15459299494E+04  0.25500000920E-02 0. -1.
    10030    2    1    2    0    0  0.00000000000E+00  0.00000000000E+00  0.11227488024E+03  0.32041347790E+04  0.32021670839E+04 0.  0.
        5    1    3    3  502    0 -0.86174965272E+03  0.55441043844E+03  0.12871222503E+04  0.16452018647E+04  0.46999998093E+01 0.  1.
       -5    1    3    3    0  502  0.86174965272E+03 -0.55441043844E+03 -0.11748473701E+04  0.15589329143E+04  0.46999998093E+01 0. -1.
</event>
<event>
 5   0  0.3830207E-07  0.3202065E+04  0.7818609E-02  0.8188272E-01
        2   -1    0    0  501    0  0.00000000000E+00  0.00000000000E+00  0.15580800731E+04  0.15580800731E+04  0.25500000920E-02 0. -1.
       -2   -1    0    0    0  501  0.00000000000E+00  0.00000000000E+00 -0.16451692052E+04  0.16451692052E+04  0.25500000920E-02 0.  1.
    10030    2    1    2    0    0  0.00000000000E+00  0.00000000000E+00 -0.87089132115E+02  0.32032492784E+04  0.32020651809E+04 0.  0.
        4    1    3    3  502    0  0.27315095631E+03  0.75738006532E+03  0.13408268975E+04  0.15639866976E+04  0.12699999809E+01 0. -1.
       -4    1    3    3    0  502 -0.27315095631E+03 -0.75738006532E+03 -0.14279160296E+04  0.16392625808E+04  0.12699999809E+01 0.  1.
</event>
<event>
 5   0  0.1277374E-07  0.3197622E+04  0.7818609E-02  0.8189446E-01
        1   -1    0    0  501    0  0.00000000000E+00  0.00000000000E+00  0.15668026879E+04  0.15668026879E+04  0.50400001928E-02 0. -1.
       -1   -1    0    0    0  501  0.00000000000E+00  0.00000000000E+00 -0.16314730164E+04  0.16314730164E+04  0.50400001928E-02 0.  1.
    10030    2    1    2    0    0  0.00000000000E+00  0.00000000000E+00 -0.64670328521E+02  0.31982757043E+04  0.31976218083E+04 0.  0.
        5    1    3    3  502    0 -0.58518162928E+03  0.75852521068E+02  0.14538970538E+04  0.15690856819E+04  0.46999998093E+01 0. -1.
       -5    1    3    3    0  502  0.58518162928E+03 -0.75852521068E+02 -0.15185673823E+04  0.16291900223E+04  0.46999998093E+01 0.  1.
</event>
<event>
 5   0  0.1317293E-07  0.3206108E+04  0.7818609E-02  0.8187206E-01
       -1   -1    0    0    0  501  0.00000000000E+00  0.00000000000E+00  0.10366399052E+04  0.10366399053E+04  0.50400001928E-02 0.  1.
        1   -1    0    0  501    0  0.00000000000E+00  0.00000000000E+00 -0.24789541820E+04  0.24789541820E+04  0.50400001928E-02 0. -1.
    10030    2    1    2    0    0  0.00000000000E+00  0.00000000000E+00 -0.14423142768E+04  0.35155940873E+04  0.32061084376E+04 0.  0.
        1    1    3    3  502    0  0.10104270034E+04 -0.61605769688E+03 -0.19068772758E+04  0.22442528289E+04  0.50400001928E-02 0. -1.
       -1    1    3    3    0  502 -0.10104270034E+04  0.61605769688E+03  0.46456299901E+03  0.12713412584E+04  0.50400001928E-02 0.  1.
</event>
<event>
 5   0  0.1288096E-07  0.3201484E+04  0.7818609E-02  0.8188425E-01
       -1   -1    0    0    0  501  0.00000000000E+00  0.00000000000E+00  0.15188361090E+04  0.15188361090E+04  0.50400001928E-02 0.  1.
        1   -1    0    0  501    0  0.00000000000E+00  0.00000000000E+00 -0.16870647541E+04  0.16870647541E+04  0.50400001928E-02 0. -1.
    10030    2    1    2    0    0  0.00000000000E+00  0.00000000000E+00 -0.16822864505E+03  0.32059008631E+04  0.32014839477E+04 0.  0.
        2    1    3    3  502    0  0.39929971866E+03 -0.14992608703E+04  0.31032179102E+03  0.15822525199E+04  0.25500000920E-02 0.  1.
       -2    1    3    3    0  502 -0.39929971866E+03  0.14992608703E+04 -0.47855043607E+03  0.16236483432E+04  0.25500000920E-02 0. -1.
</event>
<event>
 5   0  0.1288096E-07  0.3203475E+04  0.7818609E-02  0.8187900E-01
       -1   -1    0    0    0  501  0.00000000000E+00  0.00000000000E+00  0.10932730219E+04  0.10932730219E+04  0.50400001928E-02 0.  1.
        1   -1    0    0  501    0  0.00000000000E+00  0.00000000000E+00 -0.23466804269E+04  0.23466804269E+04  0.50400001928E-02 0. -1.
    10030    2    1    2    0    0  0.00000000000E+00  0.00000000000E+00 -0.12534074049E+04  0.34399534488E+04  0.32034746148E+04 0.  0.
        2    1    3    3  502    0  0.11707360512E+04 -0.10238602494E+04 -0.21548595186E+03  0.15701423207E+04  0.25500000920E-02 0. -1.
       -2    1    3    3    0  502 -0.11707360512E+04  0.10238602494E+04 -0.10379214531E+04  0.18698111281E+04  0.25500000920E-02 0.  1.
</event>
<event>
 5   0  0.1277374E-07  0.3195998E+04  0.7818609E-02  0.8189875E-01
        1   -1    0    0  501    0  0.00000000000E+00  0.00000000000E+00  0.17027760280E+04  0.17027760280E+04  0.50400001928E-02 0. -1.
       -1   -1    0    0    0  501  0.00000000000E+00  0.00000000000E+00 -0.14996691235E+04  0.14996691235E+04  0.50400001928E-02 0.  1.
    10030    2    1    2    0    0  0.00000000000E+00  0.00000000000E+00  0.20310690454E+03  0.32024451515E+04  0.31959978933E+04 0.  0.
        5    1    3    3  502    0 -0.42793862099E+03  0.13769850358E+04 -0.58857339354E+03  0.15574530432E+04  0.46999998093E+01 0.  1.
       -5    1    3    3    0  502  0.42793862099E+03 -0.13769850358E+04  0.79168029808E+03  0.16449921083E+04  0.46999998093E+01 0. -1.
</event>
<event>
 5   0  0.3750285E-07  0.3198955E+04  0.7818609E-02  0.8189093E-01
       -2   -1    0    0    0  501  0.00000000000E+00  0.00000000000E+00  0.10751638008E+04  0.10751638008E+04  0.25500000920E-02 0. -1.
        2   -1    0    0  501    0  0.00000000000E+00  0.00000000000E+00 -0.23794777329E+04  0.23794777329E+04  0.25500000920E-02 0.  1.
    10030    2    1    2    0    0  0.00000000000E+00  0.00000000000E+00 -0.13043139321E+04  0.34546415337E+04  0.31989550314E+04 0.  0.
        1    1    3    3  502    0  0.24930920525E+03  0.89623097883E+03 -0.20572855169E+04  0.22578327541E+04  0.50400001928E-02 0.  1.
       -1    1    3    3    0  502 -0.24930920525E+03 -0.89623097883E+03  0.75297158486E+03  0.11968087796E+04  0.50400001928E-02 0. -1.
</event>
<event>
 5   0  0.1270948E-07  0.3207154E+04  0.7818609E-02  0.8186930E-01
        1   -1    0    0  501    0  0.00000000000E+00  0.00000000000E+00  0.11181100915E+04  0.11181100915E+04  0.50400001928E-02 0.  1.
       -1   -1    0    0    0  501  0.00000000000E+00  0.00000000000E+00 -0.22998269906E+04  0.22998269906E+04  0.50400001928E-02 0. -1.
    10030    2    1    2    0    0  0.00000000000E+00  0.00000000000E+00 -0.11817168991E+04  0.34179370821E+04  0.32071543567E+04 0.  0.
        4    1    3    3  502    0 -0.90340164606E+03  0.56427246491E+03 -0.18683573270E+04  0.21506507534E+04  0.12699999809E+01 0. -1.
       -4    1    3    3    0  502  0.90340164606E+03 -0.56427246491E+03  0.68664042796E+03  0.12672863287E+04  0.12699999809E+01 0.  1.
</event>
<event>
 5   0  0.1317293E-07  0.3195906E+04  0.7818609E-02  0.8189899E-01
       -1   -1    0    0    0  501  0.00000000000E+00  0.00000000000E+00  0.12728949625E+04  0.12728949625E+04  0.50400001928E-02 0.  1.
        1   -1    0    0  501    0  0.00000000000E+00  0.00000000000E+00 -0.20060203533E+04  0.20060203533E+04  0.50400001928E-02 0. -1.
    10030    2    1    2    0    0  0.00000000000E+00  0.00000000000E+00 -0.73312539073E+03  0.32789153158E+04  0.31959056322E+04 0.  0.
        1    1    3    3  502    0 -0.28493146590E+03  0.12905027104E+04  0.55502791626E+03  0.14334012605E+04  0.50400001928E-02 0.  1.
       -1    1    3    3    0  502  0.28493146590E+03 -0.12905027104E+04 -0.12881533070E+04  0.18455140553E+04  0.50400001928E-02 0. -1.
</event>
<event>
 5   0  0.3830207E-07  0.3200386E+04  0.7818609E-02  0.8188715E-01
        2   -1    0    0  501    0  0.00000000000E+00  0.00000000000E+00  0.14142861587E+04  0.14142861587E+04  0.25500000920E-02 0. -1.
       -2   -1    0    0    0  501  0.00000000000E+00  0.00000000000E+00 -0.18105375458E+04  0.18105375458E+04  0.25500000920E-02 0.  1.
    10030    2    1    2    0    0  0.00000000000E+00  0.00000000000E+00 -0.39625138710E+03  0.32248237044E+04  0.32003863459E+04 0.  0.
        4    1    3    3  502    0 -0.21820255881E+03 -0.67579785525E+03 -0.16430562078E+04  0.17899582154E+04  0.12699999809E+01 0.  1.
       -4    1    3    3    0  502  0.21820255881E+03  0.67579785525E+03  0.12468048207E+04  0.14348654891E+04  0.12699999809E+01 0. -1.
</event>
<event>
 5   0  0.1277374E-07  0.3199807E+04  0.7818609E-02  0.8188868E-01
        1   -1    0    0  501    0  0.00000000000E+00  0.00000000000E+00  0.10144528043E+04  0.10144528043E+04  0.50400001928E-02 0. -1.
       -1   -1    0    0    0  501  0.00000000000E+00  0.00000000000E+00 -0.25232234868E+04  0.25232234868E+04  0.50400001928E-02 0.  1.
    10030    2    1    2    0    0  0.00000000000E+00  0.00000000000E+00 -0.15087706825E+04  0.35376762911E+04  0.31998069580E+04 0.  0.
        5    1    3    3  502    0  0.49028767501E+03  0.13069916201E+04  0.10985836139E+03  0.14002499951E+04  0.46999998093E+01 0. -1.
       -5    1    3    3    0  502 -0.49028767501E+03 -0.13069916201E+04 -0.16186290439E+04  0.21374262960E+04  0.46999998093E+01 0.  1.
</event>
<event>
 5   0  0.1277374E-07  0.3199074E+04  0.7818609E-02  0.8189062E-01
       -1   -1    0    0    0  501  0.00000000000E+00  0.00000000000E+00  0.20262478480E+04  0.20262478480E+04  0.50400001928E-02 0.  1.
        1   -1    0    0  501    0  0.00000000000E+00  0.00000000000E+00 -0.12626878295E+04  0.12626878295E+04  0.50400001928E-02 0. -1.
    10030    2    1    2    0    0  0.00000000000E+00  0.00000000000E+00  0.76356001851E+03  0.32889356774E+04  0.31990739267E+04 0.  0.
        5    1    3    3  502    0  0.13860333202E+04 -0.20371986817E+03 -0.41185364664E+03  0.14602176775E+04  0.46999998093E+01 0.  1.
       -5    1    3    3    0  502 -0.13860333202E+04  0.20371986817E+03  0.11754136652E+04  0.18287180000E+04  0.46999998093E+01 0. -1.
</event>
<event>
 5   0  0.1270948E-07  0.3161341E+04  0.7818609E-02  0.8199102E-01
       -1   -1    0    0    0  501  0.00000000000E+00  0.00000000000E+00  0.11466645434E+04  0.11466645435E+04  0.50400001928E-02 0. -1.
        1   -1    0    0  501    0  0.00000000000E+00  0.00000000000E+00 -0.21789458909E+04  0.21789458909E+04  0.50400001928E-02 0.  1.
    10030    2    1    2    0    0  0.00000000000E+00  0.00000000000E+00 -0.10322813475E+04  0.33256104344E+04  0.31613414844E+04 0.  0.
        4    1    3    3  502    0 -0.11790418204E+04 -0.28727035043E+03 -0.15816146596E+04  0.19935321449E+04  0.12699999809E+01 0.  1.
       -4    1    3    3    0  502  0.11790418204E+04  0.28727035043E+03  0.54933331212E+03  0.13320782894E+04  0.12699999809E+01 0. -1.
</event>
<event>
 5   0  0.3750285E-07  0.3203546E+04  0.7818609E-02  0.8187881E-01
        2   -1    0    0  501    0  0.00000000000E+00  0.00000000000E+00  0.27791744459E+04  0.27791744459E+04  0.25500000920E-02 0. -1.
       -2   -1    0    0    0  501  0.00000000000E+00  0.00000000000E+00 -0.92317949898E+03  0.92317949899E+03  0.25500000920E-02 0.  1.
    10030    2    1    2    0    0  0.00000000000E+00  0.00000000000E+00  0.18559949469E+04  0.37023539449E+04  0.32035460805E+04 0.  0.
        1    1    3    3  502    0  0.70954028015E+03 -0.11748272817E+04 -0.26428903533E+02  0.13727217628E+04  0.50400001928E-02 0.  1.
       -1    1    3    3    0  502 -0.70954028015E+03  0.11748272817E+04  0.18824238504E+04  0.23296321821E+04  0.50400001928E-02 0. -1.
</event>
<event>
 5   0  0.1270948E-07  0.3171791E+04  0.7818609E-02  0.8196307E-01
        1   -1    0    0  501    0  0.00000000000E+00  0.00000000000E+00  0.22429033478E+04  0.22429033478E+04  0.50400001928E-02 0. -1.
       -1   -1    0    0    0  501  0.00000000000E+00  0.00000000000E+00 -0.11213431054E+04  0.11213431054E+04  0.50400001928E-02 0.  1.
    10030    2    1    2    0    0  0.00000000000E+00  0.00000000000E+00  0.11215602424E+04  0.33642464532E+04  0.31717907908E+04 0.  0.
        4    1    3    3  502    0  0.18287616166E+03  0.12675317819E+04  0.15529427155E+04  0.20128867825E+04  0.12699999809E+01 0. -1.
       -4    1    3    3    0  502 -0.18287616166E+03 -0.12675317819E+04 -0.43138247308E+03  0.13513596707E+04  0.12699999809E+01 0.  1.
</event>
<event>
 5   0  0.3750285E-07  0.3190014E+04  0.7818609E-02  0.8191459E-01
       -2   -1    0    0    0  501  0.00000000000E+00  0.00000000000E+00  0.96428068752E+03  0.96428068752E+03  0.25500000920E-02 0. -1.
        2   -1    0    0  501    0  0.00000000000E+00  0.00000000000E+00 -0.26382856272E+04  0.26382856272E+04  0.25500000920E-02 0.  1.
    10030    2    1    2    0    0  0.00000000000E+00  0.00000000000E+00 -0.16740049396E+04  0.36025663147E+04  0.31900143438E+04 0.  0.
        1    1    3    3  502    0 -0.11851120782E+04  0.99477231399E+03 -0.12743671141E+04  0.20045134412E+04  0.50400001928E-02 0.  1.
       -1    1    3    3    0  502  0.11851120782E+04 -0.99477231399E+03 -0.39963782557E+03  0.15980528734E+04  0.50400001928E-02 0. -1.
</event>
<event>
 5   0  0.3942564E-07  0.3192347E+04  0.7818609E-02  0.8190841E-01
       -2   -1    0    0    0  501  0.00000000000E+00  0.00000000000E+00  0.12672606301E+04  0.12672606301E+04  0.25500000920E-02 0. -1.
        2   -1    0    0  501    0  0.00000000000E+00  0.00000000000E+00 -0.20104546002E+04  0.20104546002E+04  0.25500000920E-02 0.  1.
    10030    2    1    2    0    0  0.00000000000E+00  0.00000000000E+00 -0.74319397009E+03  0.32777152304E+04  0.31923470761E+04 0.  0.
        3    1    3    3  502    0 -0.39576887339E+03 -0.15245706672E+04 -0.10618632668E+03  0.15786780123E+04  0.10100000352E+00 0. -1.
       -3    1    3    3    0  502  0.39576887339E+03  0.15245706672E+04 -0.63700764340E+03  0.16990372181E+04  0.10100000352E+00 0.  1.
</event>
<event>
 5   0  0.3942564E-07  0.3198852E+04  0.7818609E-02  0.8189120E-01
        2   -1    0    0  501    0  0.00000000000E+00  0.00000000000E+00  0.13062959063E+04  0.13062959063E+04  0.25500000920E-02 0. -1.
       -2   -1    0    0    0  501  0.00000000000E+00  0.00000000000E+00 -0.19583338552E+04  0.19583338552E+04  0.25500000920E-02 0.  1.
    10030    2    1    2    0    0  0.00000000000E+00  0.00000000000E+00 -0.65203794894E+03  0.32646297615E+04  0.31988519805E+04 0.  0.
        3    1    3    3  502    0  0.14405405285E+04  0.42350225465E+03 -0.88839667088E+03  0.17446374492E+04  0.10100000352E+00 0.  1.
       -3    1    3    3    0  502 -0.14405405285E+04 -0.42350225465E+03  0.23635872193E+03  0.15199923124E+04  0.10100000352E+00 0. -1.
</event>
<event>
 5   0  0.1317293E-07  0.3198702E+04  0.7818609E-02  0.8189160E-01
       -1   -1    0    0    0  501  0.00000000000E+00  0.00000000000E+00  0.31005195817E+04  0.31005195817E+04  0.50400001928E-02 0.  1.
        1   -1    0    0  501    0  0.00000000000E+00  0.00000000000E+00 -0.82499835585E+03  0.82499835586E+03  0.50400001928E-02 0. -1.
    10030    2    1    2    0    0  0.00000000000E+00  0.00000000000E+00  0.22755212258E+04  0.39255179375E+04  0.31987019600E+04 0.  0.
        1    1    3    3  502    0  0.17505290380E+03 -0.15105020938E+04  0.52949470705E+03  0.16101629542E+04  0.50400001928E-02 0.  1.
       -1    1    3    3    0  502 -0.17505290380E+03  0.15105020938E+04  0.17460265188E+04  0.23153549833E+04  0.50400001928E-02 0. -1.
</event>
<event>
 5   0  0.1277374E-07  0.3209448E+04  0.7818609E-02  0.8186327E-01
        1   -1    0    0  501    0  0.00000000000E+00  0.00000000000E+00  0.21378350376E+04  0.21378350376E+04  0.50400001928E-02 0.  1.
       -1   -1    0    0    0  501  0.00000000000E+00  0.00000000000E+00 -0.12045544469E+04  0.12045544469E+04  0.50400001928E-02 0. -1.
    10030    2    1    2    0    0  0.00000000000E+00  0.00000000000E+00  0.93328059075E+03  0.33423894845E+04  0.32094477415E+04 0.  0.
        5    1    3    3  502    0  0.29167806073E+03 -0.13503526942E+04 -0.38362711376E+03  0.14337783449E+04  0.46999998093E+01 0. -1.
       -5    1    3    3    0  502 -0.29167806073E+03  0.13503526942E+04  0.13169077045E+04  0.19086111396E+04  0.46999998093E+01 0.  1.
</event>
<event>
 5   0  0.3942564E-07  0.3194960E+04  0.7818609E-02  0.8190149E-01
       -2   -1    0    0    0  501  0.00000000000E+00  0.00000000000E+00  0.15545440297E+04  0.15545440297E+04  0.25500000920E-02 0. -1.
        2   -1    0    0  501    0  0.00000000000E+00  0.00000000000E+00 -0.16416019794E+04  0.16416019794E+04  0.25500000920E-02 0.  1.
    10030    2    1    2    0    0  0.00000000000E+00  0.00000000000E+00 -0.87057949771E+02  0.31961460091E+04  0.31949601288E+04 0.  0.
        3    1    3    3  502    0 -0.11291357480E+04 -0.91823796454E+03  0.61537630131E+03  0.15801254695E+04  0.10100000352E+00 0. -1.
       -3    1    3    3    0  502  0.11291357480E+04  0.91823796454E+03 -0.70243425108E+03  0.16160205396E+04  0.10100000352E+00 0.  1.
</event>
<event>
 5   0  0.1277374E-07  0.3286751E+04  0.7818609E-02  0.8166275E-01
        1   -1    0    0  501    0  0.00000000000E+00  0.00000000000E+00  0.22764786488E+04  0.22764786488E+04  0.50400001928E-02 0.  1.
       -1   -1    0    0    0  501  0.00000000000E+00  0.00000000000E+00 -0.11863425721E+04  0.11863425721E+04  0.50400001928E-02 0. -1.
    10030    2    1    2    0    0  0.00000000000E+00  0.00000000000E+00  0.10901360767E+04  0.34628212210E+04  0.32867513053E+04 0.  0.
        5    1    3    3  502    0 -0.21516195405E+03 -0.92100801354E+02  0.22588226815E+04  0.22709203466E+04  0.46999998093E+01 0.  1.
       -5    1    3    3    0  502  0.21516195405E+03  0.92100801354E+02 -0.11686866048E+04  0.11919008744E+04  0.46999998093E+01 0. -1.
</event>
<event>
 5   0  0.3858721E-07  0.3209234E+04  0.7818609E-02  0.8186383E-01
        2   -1    0    0  501    0  0.00000000000E+00  0.00000000000E+00  0.31401791404E+04  0.31401791404E+04  0.25500000920E-02 0. -1.
       -2   -1    0    0    0  501  0.00000000000E+00  0.00000000000E+00 -0.81995194574E+03  0.81995194575E+03  0.25500000920E-02 0.  1.
    10030    2    1    2    0    0  0.00000000000E+00  0.00000000000E+00  0.23202271947E+04  0.39601310862E+04  0.32092341742E+04 0.  0.
        2    1    3    3  502    0 -0.15159322874E+04  0.22554491319E+02  0.51155569281E+03  0.16000776956E+04  0.25500000920E-02 0.  1.
       -2    1    3    3    0  502  0.15159322874E+04 -0.22554491319E+02  0.18086715019E+04  0.23600533906E+04  0.25500000920E-02 0. -1.
</event>
<event>
 5   0  0.1365455E-07  0.3200962E+04  0.7818609E-02  0.8188563E-01
       -1   -1    0    0    0  501  0.00000000000E+00  0.00000000000E+00  0.15349948243E+04  0.15349948243E+04  0.50400001928E-02 0. -1.
        1   -1    0    0  501    0  0.00000000000E+00  0.00000000000E+00 -0.16687606015E+04  0.16687606016E+04  0.50400001928E-02 0.  1.
    10030    2    1    2    0    0  0.00000000000E+00  0.00000000000E+00 -0.13376577727E+03  0.32037554258E+04  0.32009616595E+04 0.  0.
        3    1    3    3  502    0 -0.69237410121E+03 -0.71833080979E+02 -0.15093197621E+04  0.16621034992E+04  0.10100000352E+00 0.  1.
       -3    1    3    3    0  502  0.69237410121E+03  0.71833080979E+02  0.13755539848E+04  0.15416519266E+04  0.10100000352E+00 0. -1.
</event>
<event>
 5   0  0.1317293E-07  0.3200284E+04  0.7818609E-02  0.8188742E-01
        1   -1    0    0  501    0  0.00000000000E+00  0.00000000000E+00  0.19133489702E+04  0.19133489702E+04  0.50400001928E-02 0. -1.
       -1   -1    0    0    0  501  0.00000000000E+00  0.00000000000E+00 -0.13382053036E+04  0.13382053036E+04  0.50400001928E-02 0.  1.
    10030    2    1    2    0    0  0.00000000000E+00  0.00000000000E+00  0.57514366666E+03  0.32515542738E+04  0.32002835747E+04 0.  0.
        1    1    3    3  502    0 -0.10125348758E+04 -0.46770794423E+02 -0.97042398441E+03  0.14032594527E+04  0.50400001928E-02 0.  1.
       -1    1    3    3    0  502  0.10125348758E+04  0.46770794423E+02  0.15455676511E+04  0.18482948212E+04  0.50400001928E-02 0. -1.
</event>
<event>
 5   0  0.1270948E-07  0.3208009E+04  0.7818609E-02  0.8186705E-01
        1   -1    0    0  501    0  0.00000000000E+00  0.00000000000E+00  0.22933013020E+04  0.22933013020E+04  0.50400001928E-02 0. -1.
       -1   -1    0    0    0  501  0.00000000000E+00  0.00000000000E+00 -0.11218891312E+04  0.11218891312E+04  0.50400001928E-02 0.  1.
    10030    2    1    2    0    0  0.00000000000E+00  0.00000000000E+00  0.11714121708E+04  0.34151904333E+04  0.32080086068E+04 0.  0.
        4    1    3    3  502    0 -0.10888997625E+04  0.84808075760E+03 -0.28431562874E+03  0.14091772968E+04  0.12699999809E+01 0.  1.
       -4    1    3    3    0  502  0.10888997625E+04 -0.84808075760E+03  0.14557277996E+04  0.20060131364E+04  0.12699999809E+01 0. -1.
</event>
<event>
 5   0  0.3830207E-07  0.3201571E+04  0.7818609E-02  0.8188403E-01
        2   -1    0    0  501    0  0.00000000000E+00  0.00000000000E+00  0.25292289014E+04  0.25292289014E+04  0.25500000920E-02 0. -1.
       -2   -1    0    0    0  501  0.00000000000E+00  0.00000000000E+00 -0.10131599844E+04  0.10131599844E+04  0.25500000920E-02 0.  1.
    10030    2    1    2    0    0  0.00000000000E+00  0.00000000000E+00  0.15160689171E+04  0.35423888858E+04  0.32015705610E+04 0.  0.
        4    1    3    3  502    0  0.13422502345E+04 -0.87036651052E+03  0.69410531692E+03  0.17438340972E+04  0.12699999809E+01 0. -1.
       -4    1    3    3    0  502 -0.13422502345E+04  0.87036651052E+03  0.82196360013E+03  0.17985547886E+04  0.12699999809E+01 0.  1.
</event>
<event>
 5   0  0.1365455E-07  0.3184398E+04  0.7818609E-02  0.8192950E-01
       -1   -1    0    0    0  501  0.00000000000E+00  0.00000000000E+00  0.11835769749E+04  0.11835769749E+04  0.50400001928E-02 0.  1.
        1   -1    0    0  501    0  0.00000000000E+00  0.00000000000E+00 -0.21418953980E+04  0.21418953980E+04  0.50400001928E-02 0. -1.
    10030    2    1    2    0    0  0.00000000000E+00  0.00000000000E+00 -0.95831842314E+03  0.33254723730E+04  0.31843982639E+04 0.  0.
        3    1    3    3  502    0  0.77107007118E+03 -0.13392575814E+04 -0.87946626023E+03  0.17780947210E+04  0.10100000352E+00 0. -1.
       -3    1    3    3    0  502 -0.77107007118E+03  0.13392575814E+04 -0.78852162910E+02  0.15473776519E+04  0.10100000352E+00 0.  1.
</event>
<event>
 5   0  0.1277374E-07  0.3193968E+04  0.7818609E-02  0.8190412E-01
        1   -1    0    0  501    0  0.00000000000E+00  0.00000000000E+00  0.21706700709E+04  0.21706700709E+04  0.50400001928E-02 0. -1.
       -1   -1    0    0    0  501  0.00000000000E+00  0.00000000000E+00 -0.11749173353E+04  0.11749173353E+04  0.50400001928E-02 0.  1.
    10030    2    1    2    0    0  0.00000000000E+00  0.00000000000E+00  0.99575273563E+03  0.33455874061E+04  0.31939679995E+04 0.  0.
        5    1    3    3  502    0 -0.12940520928E+04 -0.76919901937E+03 -0.60434134661E+02  0.15066228210E+04  0.46999998093E+01 0. -1.
       -5    1    3    3    0  502  0.12940520928E+04  0.76919901937E+03  0.10561868703E+04  0.18389645851E+04  0.46999998093E+01 0.  1.
</event>
<event>
 5   0  0.1270948E-07  0.3211934E+04  0.7818609E-02  0.8185672E-01
        1   -1    0    0  501    0  0.00000000000E+00  0.00000000000E+00  0.17667291358E+04  0.17667291358E+04  0.50400001928E-02 0. -1.
       -1   -1    0    0    0  501  0.00000000000E+00  0.00000000000E+00 -0.14598334570E+04  0.14598334570E+04  0.50400001928E-02 0.  1.
    10030    2    1    2    0    0  0.00000000000E+00  0.00000000000E+00  0.30689567879E+03  0.32265625929E+04  0.32119341849E+04 0.  0.
        4    1    3    3  502    0  0.73367002844E+03  0.62935990536E+03 -0.11348762646E+04  0.14907418790E+04  0.12699999809E+01 0.  1.
       -4    1    3    3    0  502 -0.73367002844E+03 -0.62935990536E+03  0.14417719433E+04  0.17358207139E+04  0.12699999809E+01 0. -1.
</event>
<event>
 5   0  0.3858721E-07  0.3190883E+04  0.7818609E-02  0.8191229E-01
       -2   -1    0    0    0  501  0.00000000000E+00  0.00000000000E+00  0.12586448333E+04  0.12586448333E+04  0.25500000920E-02 0. -1.
        2   -1    0    0  501    0  0.00000000000E+00  0.00000000000E+00 -0.20223600599E+04  0.20223600599E+04  0.25500000920E-02 0.  1.
    10030    2    1    2    0    0  0.00000000000E+00  0.00000000000E+00 -0.76371522667E+03  0.32810048932E+04  0.31908826619E+04 0.  0.
        2    1    3    3  502    0  0.12970168834E+04  0.52109579540E+02 -0.13356692300E+04  0.18625199317E+04  0.25500000920E-02 0.  1.
       -2    1    3    3    0  502 -0.12970168834E+04 -0.52109579540E+02  0.57195400336E+03  0.14184849615E+04  0.25500000920E-02 0. -1.
</event>
<event>
 5   0  0.3830207E-07  0.3199390E+04  0.7818609E-02  0.8188978E-01
        2   -1    0    0  501    0  0.00000000000E+00  0.00000000000E+00  0.14370049001E+04  0.14370049001E+04  0.25500000920E-02 0.  1.
       -2   -1    0    0    0  501  0.00000000000E+00  0.00000000000E+00 -0.17808037901E+04  0.17808037901E+04  0.25500000920E-02 0. -1.
    10030    2    1    2    0    0  0.00000000000E+00  0.00000000000E+00 -0.34379889003E+03  0.32178086903E+04  0.31993897997E+04 0.  0.
        4    1    3    3  502    0 -0.12862987882E+04 -0.45878356129E+03  0.66594819258E+03  0.15193865659E+04  0.12699999809E+01 0. -1.
       -4    1    3    3    0  502  0.12862987882E+04  0.45878356129E+03 -0.10097470826E+04  0.16984221243E+04  0.12699999809E+01 0.  1.
</event>
<event>
 5   0  0.3830207E-07  0.3200700E+04  0.7818609E-02  0.8188632E-01
        2   -1    0    0  501    0  0.00000000000E+00  0.00000000000E+00  0.25512422478E+04  0.25512422478E+04  0.25500000920E-02 0. -1.
       -2   -1    0    0    0  501  0.00000000000E+00  0.00000000000E+00 -0.10038715426E+04  0.10038715426E+04  0.25500000920E-02 0.  1.
    10030    2    1    2    0    0  0.00000000000E+00  0.00000000000E+00  0.15473707051E+04  0.35551137904E+04  0.32006996053E+04 0.  0.
        4    1    3    3  502    0 -0.85767028316E+03 -0.12954495513E+04  0.34734718088E+03  0.15919923152E+04  0.12699999809E+01 0. -1.
       -4    1    3    3    0  502  0.85767028316E+03  0.12954495513E+04  0.12000235243E+04  0.19631214752E+04  0.12699999809E+01 0.  1.
</event>
<event>
 5   0  0.1270948E-07  0.3198546E+04  0.7818609E-02  0.8189201E-01
       -1   -1    0    0    0  501  0.00000000000E+00  0.00000000000E+00  0.33491163446E+04  0.33491163446E+04  0.50400001928E-02 0.  1.
        1   -1    0    0  501    0  0.00000000000E+00  0.00000000000E+00 -0.76368605322E+03  0.76368605323E+03  0.50400001928E-02 0. -1.
    10030    2    1    2    0    0  0.00000000000E+00  0.00000000000E+00  0.25854302914E+04  0.41128023979E+04  0.31985455714E+04 0.  0.
        4    1    3    3  502    0  0.64154716268E+02 -0.99618706067E+03  0.28993235346E+04  0.30663631648E+04  0.12699999809E+01 0.  1.
       -4    1    3    3    0  502 -0.64154716268E+02  0.99618706067E+03 -0.31389324317E+03  0.10464392331E+04  0.12699999809E+01 0. -1.
</event>
<event>
 5   0  0.3858721E-07  0.3200134E+04  0.7818609E-02  0.8188782E-01
       -2   -1    0    0    0  501  0.00000000000E+00  0.00000000000E+00  0.16640533239E+04  0.16640533239E+04  0.25500000920E-02 0.  1.
        2   -1    0    0  501    0  0.00000000000E+00  0.00000000000E+00 -0.15385412770E+04  0.15385412770E+04  0.25500000920E-02 0. -1.
    10030    2    1    2    0    0  0.00000000000E+00  0.00000000000E+00  0.12551204694E+03  0.32025946009E+04  0.32001342009E+04 0.  0.
        2    1    3    3  502    0  0.39877734833E+03  0.70622313061E+03 -0.13175941935E+04  0.15472003563E+04  0.25500000920E-02 0.  1.
       -2    1    3    3    0  502 -0.39877734833E+03 -0.70622313061E+03  0.14431062405E+04  0.16553942446E+04  0.25500000920E-02 0. -1.
</event>
<event>
 5   0  0.3830207E-07  0.3207113E+04  0.7818609E-02  0.8186941E-01
       -2   -1    0    0    0  501  0.00000000000E+00  0.00000000000E+00  0.14526603704E+04  0.14526603704E+04  0.25500000920E-02 0. -1.
        2   -1    0    0  501    0  0.00000000000E+00  0.00000000000E+00 -0.17701275272E+04  0.17701275272E+04  0.25500000920E-02 0.  1.
    10030    2    1    2    0    0  0.00000000000E+00  0.00000000000E+00 -0.31746715681E+03  0.32227878977E+04  0.32071134120E+04 0.  0.
        4    1    3    3  502    0  0.15970145215E+04 -0.13980461416E+03 -0.12124461740E+03  0.16077010239E+04  0.12699999809E+01 0. -1.
       -4    1    3    3    0  502 -0.15970145215E+04  0.13980461416E+03 -0.19622253941E+03  0.16150868738E+04  0.12699999809E+01 0.  1.
</event>
<event>
 5   0  0.3764056E-07  0.3197613E+04  0.7818609E-02  0.8189448E-01
        2   -1    0    0  501    0  0.00000000000E+00  0.00000000000E+00  0.21524860498E+04  0.21524860498E+04  0.25500000920E-02 0.  1.
       -2   -1    0    0    0  501  0.00000000000E+00  0.00000000000E+00 -0.11875488403E+04  0.11875488403E+04  0.25500000920E-02 0. -1.
    10030    2    1    2    0    0  0.00000000000E+00  0.00000000000E+00  0.96493720944E+03  0.33400348901E+04  0.31976130549E+04 0.  0.
        5    1    3    3  502    0 -0.13128724953E+03 -0.34498578566E+03  0.21073609192E+04  0.21394493843E+04  0.46999998093E+01 0.  1.
       -5    1    3    3    0  502  0.13128724953E+03  0.34498578566E+03 -0.11424237097E+04  0.12005855058E+04  0.46999998093E+01 0. -1.
</event>
<event>
 5   0  0.1288096E-07  0.3205944E+04  0.7818609E-02  0.8187249E-01
        1   -1    0    0  501    0  0.00000000000E+00  0.00000000000E+00  0.23350887475E+04  0.23350887475E+04  0.50400001928E-02 0.  1.
       -1   -1    0    0    0  501  0.00000000000E+00  0.00000000000E+00 -0.11003947589E+04  0.11003947589E+04  0.50400001928E-02 0. -1.
    10030    2    1    2    0    0  0.00000000000E+00  0.00000000000E+00  0.12346939885E+04  0.34354835064E+04  0.32059441164E+04 0.  0.
        2    1    3    3  502    0  0.76269161770E+03 -0.11162654452E+02  0.21281468542E+04  0.22607149625E+04  0.25500000920E-02 0.  1.
       -2    1    3    3    0  502 -0.76269161770E+03  0.11162654452E+02 -0.89345286566E+03  0.11747685439E+04  0.25500000920E-02 0. -1.
</event>
<event>
 5   0  0.3764056E-07  0.3204777E+04  0.7818609E-02  0.8187557E-01
       -2   -1    0    0    0  501  0.00000000000E+00  0.00000000000E+00  0.13147076502E+04  0.13147076502E+04  0.25500000920E-02 0.  1.
        2   -1    0    0  501    0  0.00000000000E+00  0.00000000000E+00 -0.19530186235E+04  0.19530186235E+04  0.25500000920E-02 0. -1.
    10030    2    1    2    0    0  0.00000000000E+00  0.00000000000E+00 -0.63831097336E+03  0.32677262737E+04  0.32047767631E+04 0.  0.
        5    1    3    3  502    0  0.18707052549E+03  0.43958245806E+03 -0.18787078944E+04  0.19385029175E+04  0.46999998093E+01 0. -1.
       -5    1    3    3    0  502 -0.18707052549E+03 -0.43958245806E+03  0.12403969210E+04  0.13292233562E+04  0.46999998093E+01 0.  1.
</event>
<event>
 5   0  0.1230450E-07  0.3183863E+04  0.7818609E-02  0.8193092E-01
       -3   -1    0    0    0  501  0.00000000000E+00  0.00000000000E+00  0.19421302003E+04  0.19421302029E+04  0.10100000352E+00 0. -1.
        3   -1    0    0  501    0  0.00000000000E+00  0.00000000000E+00 -0.13048794220E+04  0.13048794259E+04  0.10100000352E+00 0.  1.
    10030    2    1    2    0    0  0.00000000000E+00  0.00000000000E+00  0.63725077835E+03  0.32470096288E+04  0.31838629014E+04 0.  0.
        2    1    3    3  502    0  0.82459109494E+03 -0.12098279000E+04  0.95601041174E+03  0.17485965598E+04  0.25500000920E-02 0. -1.
       -2    1    3    3    0  502 -0.82459109494E+03  0.12098279000E+04 -0.31875963339E+03  0.14984130690E+04  0.25500000920E-02 0.  1.
</event>
<event>
 5   0  0.1288096E-07  0.3198006E+04  0.7818609E-02  0.8189344E-01
        1   -1    0    0  501    0  0.00000000000E+00  0.00000000000E+00  0.13378086892E+04  0.13378086892E+04  0.50400001928E-02 0.  1.
       -1   -1    0    0    0  501  0.00000000000E+00  0.00000000000E+00 -0.19111935343E+04  0.19111935343E+04  0.50400001928E-02 0. -1.
    10030    2    1    2    0    0  0.00000000000E+00  0.00000000000E+00 -0.57338484507E+03  0.32490022235E+04  0.31980064521E+04 0.  0.
        2    1    3    3  502    0 -0.50848170518E+03 -0.11064317083E+04 -0.13395903434E+04  0.18103168391E+04  0.25500000920E-02 0. -1.
       -2    1    3    3    0  502  0.50848170518E+03  0.11064317083E+04  0.76620549834E+03  0.14386853844E+04  0.25500000920E-02 0.  1.
</event>
<event>
 5   0  0.3750285E-07  0.3195962E+04  0.7818609E-02  0.8189884E-01
        2   -1    0    0  501    0  0.00000000000E+00  0.00000000000E+00  0.30154294247E+04  0.30154294247E+04  0.25500000920E-02 0. -1.
       -2   -1    0    0    0  501  0.00000000000E+00  0.00000000000E+00 -0.84682599288E+03  0.84682599288E+03  0.25500000920E-02 0.  1.
    10030    2    1    2    0    0  0.00000000000E+00  0.00000000000E+00  0.21686034318E+04  0.38622554176E+04  0.31959624632E+04 0.  0.
        1    1    3    3  502    0 -0.13424511344E+04  0.52764632351E+03  0.19153968864E+04  0.23977762455E+04  0.50400001928E-02 0. -1.
       -1    1    3    3    0  502  0.13424511344E+04 -0.52764632351E+03  0.25320654545E+03  0.14644791721E+04  0.50400001928E-02 0.  1.
</event>
<event>
 5   0  0.1270948E-07  0.3191573E+04  0.7818609E-02  0.8191046E-01
       -1   -1    0    0    0  501  0.00000000000E+00  0.00000000000E+00  0.16168772615E+04  0.16168772615E+04  0.50400001928E-02 0.  1.
        1   -1    0    0  501    0  0.00000000000E+00  0.00000000000E+00 -0.15749710978E+04  0.15749710978E+04  0.50400001928E-02 0. -1.
    10030    2    1    2    0    0  0.00000000000E+00  0.00000000000E+00  0.41906163725E+02  0.31918483593E+04  0.31915732519E+04 0.  0.
        4    1    3    3  502    0 -0.61703441114E+03  0.73954077518E+03 -0.12515092637E+04  0.15792178674E+04  0.12699999809E+01 0. -1.
       -4    1    3    3    0  502  0.61703441114E+03 -0.73954077518E+03  0.12934154274E+04  0.16126304919E+04  0.12699999809E+01 0.  1.
</event>
<event>
 5   0  0.3942564E-07  0.3201039E+04  0.7818609E-02  0.8188543E-01
       -2   -1    0    0    0  501  0.00000000000E+00  0.00000000000E+00  0.14957222204E+04  0.14957222204E+04  0.25500000920E-02 0. -1.
        2   -1    0    0  501    0  0.00000000000E+00  0.00000000000E+00 -0.17126598113E+04  0.17126598113E+04  0.25500000920E-02 0.  1.
    10030    2    1    2    0    0  0.00000000000E+00  0.00000000000E+00 -0.21693759094E+03  0.32083820317E+04  0.32010394161E+04 0.  0.
        3    1    3    3  502    0 -0.10948656877E+04  0.45648290678E+03 -0.11854360995E+04  0.16770111134E+04  0.10100000352E+00 0.  1.
       -3    1    3    3    0  502  0.10948656877E+04 -0.45648290678E+03  0.96849850858E+03  0.15313709183E+04  0.10100000352E+00 0. -1.
</event>
<event>
 5   0  0.1277374E-07  0.3197509E+04  0.7818609E-02  0.8189475E-01
       -1   -1    0    0    0  501  0.00000000000E+00  0.00000000000E+00  0.19887835559E+04  0.19887835559E+04  0.50400001928E-02 0. -1.
        1   -1    0    0  501    0  0.00000000000E+00  0.00000000000E+00 -0.12852160428E+04  0.12852160428E+04  0.50400001928E-02 0.  1.
    10030    2    1    2    0    0  0.00000000000E+00  0.00000000000E+00  0.70356751309E+03  0.32739995987E+04  0.31975093630E+04 0.  0.
        5    1    3    3  502    0 -0.12362521143E+04 -0.45041815146E+03  0.12816934292E+04  0.18368331274E+04  0.46999998093E+01 0. -1.
       -5    1    3    3    0  502  0.12362521143E+04  0.45041815146E+03 -0.57812591612E+03  0.14371664713E+04  0.46999998093E+01 0.  1.
</event>
<event>
 5   0  0.1365455E-07  0.3199819E+04  0.7818609E-02  0.8188865E-01
       -1   -1    0    0    0  501  0.00000000000E+00  0.00000000000E+00  0.10180523537E+04  0.10180523537E+04  0.50400001928E-02 0. -1.
        1   -1    0    0  501    0  0.00000000000E+00  0.00000000000E+00 -0.25143208583E+04  0.25143208583E+04  0.50400001928E-02 0.  1.
    10030    2    1    2    0    0  0.00000000000E+00  0.00000000000E+00 -0.14962685046E+04  0.35323732120E+04  0.31998189123E+04 0.  0.
        3    1    3    3  502    0  0.70159626661E+03  0.91385873681E+03 -0.19736124774E+04  0.22852836440E+04  0.10100000352E+00 0.  1.
       -3    1    3    3    0  502 -0.70159626661E+03 -0.91385873681E+03  0.47734397285E+03  0.12470895681E+04  0.10100000352E+00 0. -1.
</event>
<event>
 5   0  0.1230450E-07  0.3197003E+04  0.7818609E-02  0.8189609E-01
        3   -1    0    0  501    0  0.00000000000E+00  0.00000000000E+00  0.14693354333E+04  0.14693354368E+04  0.10100000352E+00 0. -1.
       -3   -1    0    0    0  501  0.00000000000E+00  0.00000000000E+00 -0.17390227121E+04  0.17390227150E+04  0.10100000352E+00 0.  1.
    10030    2    1    2    0    0  0.00000000000E+00  0.00000000000E+00 -0.26968727874E+03  0.32083581518E+04  0.31970034097E+04 0.  0.
        5    1    3    3  502    0  0.11472767212E+04  0.92853585956E+03  0.48114656370E+03  0.15524003424E+04  0.46999998093E+01 0. -1.
       -5    1    3    3    0  502 -0.11472767212E+04 -0.92853585956E+03 -0.75083384244E+03  0.16559578093E+04  0.46999998093E+01 0.  1.
</event>
<event>
 5   0  0.3858721E-07  0.3212664E+04  0.7818609E-02  0.8185481E-01
       -2   -1    0    0    0  501  0.00000000000E+00  0.00000000000E+00  0.16331132571E+04  0.16331132571E+04  0.25500000920E-02 0.  1.
        2   -1    0    0  501    0  0.00000000000E+00  0.00000000000E+00 -0.15799901610E+04  0.15799901610E+04  0.25500000920E-02 0. -1.
    10030    2    1    2    0    0  0.00000000000E+00  0.00000000000E+00  0.53123096123E+02  0.32131034181E+04  0.32126642390E+04 0.  0.
        2    1    3    3  502    0  0.93900434299E+03 -0.83718652737E+03  0.10255436465E+04  0.16230681466E+04  0.25500000920E-02 0. -1.
       -2    1    3    3    0  502 -0.93900434299E+03  0.83718652737E+03 -0.97242055038E+03  0.15900352715E+04  0.25500000920E-02 0.  1.
</event>
<event>
 5   0  0.3764056E-07  0.3189757E+04  0.7818609E-02  0.8191527E-01
       -2   -1    0    0    0  501  0.00000000000E+00  0.00000000000E+00  0.16942274416E+04  0.16942274416E+04  0.25500000920E-02 0.  1.
        2   -1    0    0  501    0  0.00000000000E+00  0.00000000000E+00 -0.15013556895E+04  0.15013556895E+04  0.25500000920E-02 0. -1.
    10030    2    1    2    0    0  0.00000000000E+00  0.00000000000E+00  0.19287175217E+03  0.31955831311E+04  0.31897573630E+04 0.  0.
        5    1    3    3  502    0  0.46861006398E+03 -0.66502332400E+03 -0.12778437483E+04  0.15148459158E+04  0.46999998093E+01 0. -1.
       -5    1    3    3    0  502 -0.46861006398E+03  0.66502332400E+03  0.14707155005E+04  0.16807372153E+04  0.46999998093E+01 0.  1.
</event>
<event>
 5   0  0.1270948E-07  0.3203234E+04  0.7818609E-02  0.8187964E-01
       -1   -1    0    0    0  501  0.00000000000E+00  0.00000000000E+00  0.12505587841E+04  0.12505587841E+04  0.50400001928E-02 0. -1.
        1   -1    0    0  501    0  0.00000000000E+00  0.00000000000E+00 -0.20512241893E+04  0.20512241893E+04  0.50400001928E-02 0.  1.
    10030    2    1    2    0    0  0.00000000000E+00  0.00000000000E+00 -0.80066540529E+03  0.33017829734E+04  0.32032336337E+04 0.  0.
        4    1    3    3  502    0 -0.20943259136E+03  0.12699183151E+04 -0.13828746942E+04  0.18891528710E+04  0.12699999809E+01 0.  1.
       -4    1    3    3    0  502  0.20943259136E+03 -0.12699183151E+04  0.58220928889E+03  0.14126301024E+04  0.12699999809E+01 0. -1.
</event>
<event>
 5   0  0.3830207E-07  0.3203638E+04  0.7818609E-02  0.8187857E-01
        2   -1    0    0  501    0  0.00000000000E+00  0.00000000000E+00  0.16680526978E+04  0.16680526978E+04  0.25500000920E-02 0. -1.
       -2   -1    0    0    0  501  0.00000000000E+00  0.00000000000E+00 -0.15382154599E+04  0.15382154599E+04  0.25500000920E-02 0.  1.
    10030    2    1    2    0    0  0.00000000000E+00  0.00000000000E+00  0.12983723794E+03  0.32062681577E+04  0.32036382116E+04 0.  0.
        4    1    3    3  502    0 -0.34715265247E+02  0.11415300906E+04  0.11890177360E+04  0.16486542653E+04  0.12699999809E+01 0. -1.
       -4    1    3    3    0  502  0.34715265247E+02 -0.11415300906E+04 -0.10591804980E+04  0.15576138923E+04  0.12699999809E+01 0.  1.
</event>
<event>
 5   0  0.1277374E-07  0.3201166E+04  0.7818609E-02  0.8188509E-01
        1   -1    0    0  501    0  0.00000000000E+00  0.00000000000E+00  0.28863473258E+04  0.28863473258E+04  0.50400001928E-02 0.  1.
       -1   -1    0    0    0  501  0.00000000000E+00  0.00000000000E+00 -0.88758039114E+03  0.88758039115E+03  0.50400001928E-02 0. -1.
    10030    2    1    2    0    0  0.00000000000E+00  0.00000000000E+00  0.19987669346E+04  0.37739277169E+04  0.32011655930E+04 0.  0.
        5    1    3    3  502    0 -0.34608322127E+03  0.77025566126E+02 -0.84069465356E+03  0.91241225573E+03  0.46999998093E+01 0. -1.
       -5    1    3    3    0  502  0.34608322127E+03 -0.77025566126E+02  0.28394615882E+04  0.28615154612E+04  0.46999998093E+01 0.  1.
</event>
<event>
 5   0  0.3858721E-07  0.3193350E+04  0.7818609E-02  0.8190576E-01
       -2   -1    0    0    0  501  0.00000000000E+00  0.00000000000E+00  0.14361046254E+04  0.14361046254E+04  0.25500000920E-02 0.  1.
        2   -1    0    0  501    0  0.00000000000E+00  0.00000000000E+00 -0.17751990678E+04  0.17751990678E+04  0.25500000920E-02 0. -1.
    10030    2    1    2    0    0  0.00000000000E+00  0.00000000000E+00 -0.33909444240E+03  0.32113036932E+04  0.31933503361E+04 0.  0.
        2    1    3    3  502    0 -0.10939847478E+04 -0.74836744193E+03 -0.10647853992E+04  0.17001836380E+04  0.25500000920E-02 0. -1.
       -2    1    3    3    0  502  0.10939847478E+04  0.74836744193E+03  0.72569095683E+03  0.15111200552E+04  0.25500000920E-02 0.  1.
</event>
<event>
 5   0  0.3942564E-07  0.3197448E+04  0.7818609E-02  0.8189492E-01
       -2   -1    0    0    0  501  0.00000000000E+00  0.00000000000E+00  0.22681725254E+04  0.22681725254E+04  0.25500000920E-02 0. -1.
        2   -1    0    0  501    0  0.00000000000E+00  0.00000000000E+00 -0.11268622679E+04  0.11268622679E+04  0.25500000920E-02 0.  1.
    10030    2    1    2    0    0  0.00000000000E+00  0.00000000000E+00  0.11413102576E+04  0.33950347933E+04  0.31974477547E+04 0.  0.
        3    1    3    3  502    0 -0.10990434443E+04 -0.78254114044E+03  0.14813578974E+04  0.20036687249E+04  0.10100000352E+00 0. -1.
       -3    1    3    3    0  502  0.10990434443E+04  0.78254114044E+03 -0.34004763979E+03  0.13913660684E+04  0.10100000352E+00 0.  1.
</event>
<event>
 5   0  0.1288096E-07  0.3151647E+04  0.7818609E-02  0.8201705E-01
        1   -1    0    0  501    0  0.00000000000E+00  0.00000000000E+00  0.11422800473E+04  0.11422800473E+04  0.50400001928E-02 0.  1.
       -1   -1    0    0    0  501  0.00000000000E+00  0.00000000000E+00 -0.21739150795E+04  0.21739150795E+04  0.50400001928E-02 0. -1.
    10030    2    1    2    0    0  0.00000000000E+00  0.00000000000E+00 -0.10316350321E+04  0.33161951268E+04  0.31516470740E+04 0.  0.
        2    1    3    3  502    0  0.25398119864E+03 -0.11261777657E+04 -0.16444015983E+04  0.20091887481E+04  0.25500000920E-02 0. -1.
       -2    1    3    3    0  502 -0.25398119864E+03  0.11261777657E+04  0.61276656612E+03  0.13070063786E+04  0.25500000920E-02 0.  1.
</event>
<event>
 5   0  0.1277374E-07  0.3200883E+04  0.7818609E-02  0.8188584E-01
       -1   -1    0    0    0  501  0.00000000000E+00  0.00000000000E+00  0.12717772311E+04  0.12717772312E+04  0.50400001928E-02 0.  1.
        1   -1    0    0  501    0  0.00000000000E+00  0.00000000000E+00 -0.20140416943E+04  0.20140416943E+04  0.50400001928E-02 0. -1.
    10030    2    1    2    0    0  0.00000000000E+00  0.00000000000E+00 -0.74226446312E+03  0.32858189254E+04  0.32008826091E+04 0.  0.
        5    1    3    3  502    0 -0.43909547985E+03  0.88173968579E+03  0.92373554796E+03  0.13503996321E+04  0.46999998093E+01 0.  1.
       -5    1    3    3    0  502  0.43909547985E+03 -0.88173968579E+03 -0.16660000111E+04  0.19354192933E+04  0.46999998093E+01 0. -1.
</event>
<event>
 5   0  0.3942564E-07  0.3200081E+04  0.7818609E-02  0.8188796E-01
       -2   -1    0    0    0  501  0.00000000000E+00  0.00000000000E+00  0.10675791445E+04  0.10675791445E+04  0.25500000920E-02 0. -1.
        2   -1    0    0  501    0  0.00000000000E+00  0.00000000000E+00 -0.23980707366E+04  0.23980707366E+04  0.25500000920E-02 0.  1.
    10030    2    1    2    0    0  0.00000000000E+00  0.00000000000E+00 -0.13304915922E+04  0.34656498811E+04  0.32000814398E+04 0.  0.
        3    1    3    3  502    0 -0.15833343089E+02  0.10352544911E+04  0.65587874765E+03  0.12256343247E+04  0.10100000352E+00 0. -1.
       -3    1    3    3    0  502  0.15833343089E+02 -0.10352544911E+04 -0.19863703398E+04  0.22400155564E+04  0.10100000352E+00 0.  1.
</event>
<event>
 5   0  0.3942564E-07  0.3196243E+04  0.7818609E-02  0.8189810E-01
        2   -1    0    0  501    0  0.00000000000E+00  0.00000000000E+00  0.15857234517E+04  0.15857234517E+04  0.25500000920E-02 0. -1.
       -2   -1    0    0    0  501  0.00000000000E+00  0.00000000000E+00 -0.16106168196E+04  0.16106168196E+04  0.25500000920E-02 0.  1.
    10030    2    1    2    0    0  0.00000000000E+00  0.00000000000E+00 -0.24893367953E+02  0.31963402713E+04  0.31962433340E+04 0.  0.
        3    1    3    3  502    0 -0.82763393883E+03  0.57157038016E+03  0.12294936408E+04  0.15884977995E+04  0.10100000352E+00 0. -1.
       -3    1    3    3    0  502  0.82763393883E+03 -0.57157038016E+03 -0.12543870087E+04  0.16078424718E+04  0.10100000352E+00 0.  1.
</event>
<event>
 5   0  0.3858721E-07  0.3231610E+04  0.7818609E-02  0.8180519E-01
        2   -1    0    0  501    0  0.00000000000E+00  0.00000000000E+00  0.22143475174E+04  0.22143475174E+04  0.25500000920E-02 0.  1.
       -2   -1    0    0    0  501  0.00000000000E+00  0.00000000000E+00 -0.11790499541E+04  0.11790499541E+04  0.25500000920E-02 0. -1.
    10030    2    1    2    0    0  0.00000000000E+00  0.00000000000E+00  0.10352975633E+04  0.33933974715E+04  0.32316103346E+04 0.  0.
        2    1    3    3  502    0 -0.60821804938E+03  0.10508439358E+04  0.16371490094E+04  0.20382490161E+04  0.25500000920E-02 0.  1.
       -2    1    3    3    0  502  0.60821804938E+03 -0.10508439358E+04 -0.60185144603E+03  0.13551484553E+04  0.25500000920E-02 0. -1.
</event>
<event>
 5   0  0.1317293E-07  0.3202050E+04  0.7818609E-02  0.8188276E-01
       -1   -1    0    0    0  501  0.00000000000E+00  0.00000000000E+00  0.20706740797E+04  0.20706740797E+04  0.50400001928E-02 0.  1.
        1   -1    0    0  501    0  0.00000000000E+00  0.00000000000E+00 -0.12378969572E+04  0.12378969572E+04  0.50400001928E-02 0. -1.
    10030    2    1    2    0    0  0.00000000000E+00  0.00000000000E+00  0.83277712256E+03  0.33085710369E+04  0.32020500574E+04 0.  0.
        1    1    3    3  502    0  0.63883865545E+02  0.15396611854E+04 -0.32391121233E+02  0.15413263441E+04  0.50400001928E-02 0. -1.
       -1    1    3    3    0  502 -0.63883865545E+02 -0.15396611854E+04  0.86516824379E+03  0.17672446928E+04  0.50400001928E-02 0.  1.
</event>
<event>
 5   0  0.3830207E-07  0.3134758E+04  0.7818609E-02  0.8206263E-01
       -2   -1    0    0    0  501  0.00000000000E+00  0.00000000000E+00  0.19145011684E+04  0.19145011684E+04  0.25500000920E-02 0.  1.
        2   -1    0    0  501    0  0.00000000000E+00  0.00000000000E+00 -0.12831939560E+04  0.12831939560E+04  0.25500000920E-02 0. -1.
    10030    2    1    2    0    0  0.00000000000E+00  0.00000000000E+00  0.63130721241E+03  0.31976951244E+04  0.31347576162E+04 0.  0.
        4    1    3    3  502    0  0.34374838948E+03  0.54714835504E+03  0.17723084491E+04  0.18864286706E+04  0.12699999809E+01 0.  1.
       -4    1    3    3    0  502 -0.34374838948E+03 -0.54714835504E+03 -0.11410012367E+04  0.13112664538E+04  0.12699999809E+01 0. -1.
</event>
<event>
 5   0  0.3942564E-07  0.3202712E+04  0.7818609E-02  0.8188101E-01
       -2   -1    0    0    0  501  0.00000000000E+00  0.00000000000E+00  0.12934415749E+04  0.12934415749E+04  0.25500000920E-02 0. -1.
        2   -1    0    0  501    0  0.00000000000E+00  0.00000000000E+00 -0.19825714015E+04  0.19825714015E+04  0.25500000920E-02 0.  1.
    10030    2    1    2    0    0  0.00000000000E+00  0.00000000000E+00 -0.68912982660E+03  0.32760129765E+04  0.32027115237E+04 0.  0.
        3    1    3    3  502    0 -0.13400596890E+04 -0.60953737957E+03 -0.98910119812E+03  0.17735887284E+04  0.10100000352E+00 0. -1.
       -3    1    3    3    0  502  0.13400596890E+04  0.60953737957E+03  0.29997137153E+03  0.15024242481E+04  0.10100000352E+00 0.  1.
</event>
<event>
 5   0  0.1288096E-07  0.3198287E+04  0.7818609E-02  0.8189270E-01
       -1   -1    0    0    0  501  0.00000000000E+00  0.00000000000E+00  0.13403213701E+04  0.13403213701E+04  0.50400001928E-02 0.  1.
        1   -1    0    0  501    0  0.00000000000E+00  0.00000000000E+00 -0.19079455361E+04  0.19079455361E+04  0.50400001928E-02 0. -1.
    10030    2    1    2    0    0  0.00000000000E+00  0.00000000000E+00 -0.56762416598E+03  0.32482669062E+04  0.31982871510E+04 0.  0.
        2    1    3    3  502    0 -0.69242847121E+03 -0.83478274945E+03  0.90968613974E+03  0.14155734878E+04  0.25500000920E-02 0.  1.
       -2    1    3    3    0  502  0.69242847121E+03  0.83478274945E+03 -0.14773103057E+04  0.18326934184E+04  0.25500000920E-02 0. -1.
</event>
<event>
 5   0  0.1317293E-07  0.3195740E+04  0.7818609E-02  0.8189943E-01
        1   -1    0    0  501    0  0.00000000000E+00  0.00000000000E+00  0.31062818660E+04  0.31062818660E+04  0.50400001928E-02 0.  1.
       -1   -1    0    0    0  501  0.00000000000E+00  0.00000000000E+00 -0.82194345225E+03  0.82194345226E+03  0.50400001928E-02 0. -1.
    10030    2    1    2    0    0  0.00000000000E+00  0.00000000000E+00  0.22843384138E+04  0.39282253183E+04  0.31957396894E+04 0.  0.
        1    1    3    3  502    0  0.10815016405E+04  0.10451098174E+04  0.47875300136E+03  0.15783234032E+04  0.50400001928E-02 0. -1.
       -1    1    3    3    0  502 -0.10815016405E+04 -0.10451098174E+04  0.18055854124E+04  0.23499019150E+04  0.50400001928E-02 0.  1.
</event>
<event>
 5   0  0.3750285E-07  0.3201315E+04  0.7818609E-02  0.8188470E-01
        2   -1    0    0  501    0  0.00000000000E+00  0.00000000000E+00  0.28834607160E+04  0.28834607160E+04  0.25500000920E-02 0.  1.
       -2   -1    0    0    0  501  0.00000000000E+00  0.00000000000E+00 -0.88855162697E+03  0.88855162697E+03  0.25500000920E-02 0. -1.
    10030    2    1    2    0    0  0.00000000000E+00  0.00000000000E+00  0.19949090891E+04  0.37720123430E+04  0.32013145491E+04 0.  0.
        1    1    3    3  502    0  0.15425703536E+04 -0.18744009079E+03  0.54501331091E+03  0.16467229860E+04  0.50400001928E-02 0.  1.
       -1    1    3    3    0  502 -0.15425703536E+04  0.18744009079E+03  0.14498957782E+04  0.21252893570E+04  0.50400001928E-02 0. -1.
</event>
<event>
 5   0  0.1277374E-07  0.3238318E+04  0.7818609E-02  0.8178770E-01
        1   -1    0    0  501    0  0.00000000000E+00  0.00000000000E+00  0.91390412270E+03  0.91390412272E+03  0.50400001928E-02 0. -1.
       -1   -1    0    0    0  501  0.00000000000E+00  0.00000000000E+00 -0.28686546316E+04  0.28686546316E+04  0.50400001928E-02 0.  1.
    10030    2    1    2    0    0  0.00000000000E+00  0.00000000000E+00 -0.19547505089E+04  0.37825587544E+04  0.32383176462E+04 0.  0.
        5    1    3    3  502    0 -0.12548528703E+04  0.25955934807E+03  0.17872762162E+03  0.12938285953E+04  0.46999998093E+01 0. -1.
       -5    1    3    3    0  502  0.12548528703E+04 -0.25955934807E+03 -0.21334781306E+04  0.24887301591E+04  0.46999998093E+01 0.  1.
</event>
<event>
 5   0  0.1317293E-07  0.3204022E+04  0.7818609E-02  0.8187756E-01
       -1   -1    0    0    0  501  0.00000000000E+00  0.00000000000E+00  0.14441722720E+04  0.14441722720E+04  0.50400001928E-02 0.  1.
        1   -1    0    0  501    0  0.00000000000E+00  0.00000000000E+00 -0.17771008140E+04  0.17771008140E+04  0.50400001928E-02 0. -1.
    10030    2    1    2    0    0  0.00000000000E+00  0.00000000000E+00 -0.33292854198E+03  0.32212730860E+04  0.32040222972E+04 0.  0.
        1    1    3    3  502    0 -0.65470158596E+03 -0.14540865515E+04 -0.32038281255E+03  0.16265445006E+04  0.50400001928E-02 0. -1.
       -1    1    3    3    0  502  0.65470158596E+03  0.14540865515E+04 -0.12545729433E+02  0.15947285854E+04  0.50400001928E-02 0.  1.
</event>
<event>
 5   0  0.3942564E-07  0.3192625E+04  0.7818609E-02  0.8190768E-01
        2   -1    0    0  501    0  0.00000000000E+00  0.00000000000E+00  0.14378697596E+04  0.14378697596E+04  0.25500000920E-02 0.  1.
       -2   -1    0    0    0  501  0.00000000000E+00  0.00000000000E+00 -0.17722148372E+04  0.17722148372E+04  0.25500000920E-02 0. -1.
    10030    2    1    2    0    0  0.00000000000E+00  0.00000000000E+00 -0.33434507757E+03  0.32100845968E+04  0.31926253284E+04 0.  0.
        3    1    3    3  502    0 -0.48510779304E+03 -0.45170808260E+03  0.12929549798E+04  0.14529633005E+04  0.10100000352E+00 0.  1.
       -3    1    3    3    0  502  0.48510779304E+03  0.45170808260E+03 -0.16273000574E+04  0.17571212962E+04  0.10100000352E+00 0. -1.
</event>
<event>
 5   0  0.1317293E-07  0.3196800E+04  0.7818609E-02  0.8189663E-01
       -1   -1    0    0    0  501  0.00000000000E+00  0.00000000000E+00  0.19240990523E+04  0.19240990523E+04  0.50400001928E-02 0.  1.
        1   -1    0    0  501    0  0.00000000000E+00  0.00000000000E+00 -0.13278334133E+04  0.13278334133E+04  0.50400001928E-02 0. -1.
    10030    2    1    2    0    0  0.00000000000E+00  0.00000000000E+00  0.59626563903E+03  0.32519324656E+04  0.31968002829E+04 0.  0.
        1    1    3    3  502    0  0.21209055345E+02  0.66423243664E+03  0.17768980755E+04  0.18971086749E+04  0.50400001928E-02 0.  1.
       -1    1    3    3    0  502 -0.21209055345E+02 -0.66423243664E+03 -0.11806324364E+04  0.13548237907E+04  0.50400001928E-02 0. -1.
</event>
<event>
 5   0  0.1317293E-07  0.3198716E+04  0.7818609E-02  0.8189156E-01
        1   -1    0    0  501    0  0.00000000000E+00  0.00000000000E+00  0.10956415549E+04  0.10956415549E+04  0.50400001928E-02 0.  1.
       -1   -1    0    0    0  501  0.00000000000E+00  0.00000000000E+00 -0.23346566209E+04  0.23346566209E+04  0.50400001928E-02 0. -1.
    10030    2    1    2    0    0  0.00000000000E+00  0.00000000000E+00 -0.12390150660E+04  0.34302981758E+04  0.31987164990E+04 0.  0.
        1    1    3    3  502    0  0.99793698512E+03 -0.12225563308E+04 -0.34104593067E+03  0.16145694581E+04  0.50400001928E-02 0. -1.
       -1    1    3    3    0  502 -0.99793698512E+03  0.12225563308E+04 -0.89796913531E+03  0.18157287177E+04  0.50400001928E-02 0.  1.
</event>
<event>
 5   0  0.1288096E-07  0.3205354E+04  0.7818609E-02  0.8187405E-01
       -1   -1    0    0    0  501  0.00000000000E+00  0.00000000000E+00  0.28821998482E+04  0.28821998482E+04  0.50400001928E-02 0. -1.
        1   -1    0    0  501    0  0.00000000000E+00  0.00000000000E+00 -0.89118511958E+03  0.89118511959E+03  0.50400001928E-02 0.  1.
    10030    2    1    2    0    0  0.00000000000E+00  0.00000000000E+00  0.19910147286E+04  0.37733849678E+04  0.32053540312E+04 0.  0.
        2    1    3    3  502    0 -0.76674299057E+03 -0.12725075267E+04  0.28780405563E+03  0.15132750555E+04  0.25500000920E-02 0. -1.
       -2    1    3    3    0  502  0.76674299057E+03  0.12725075267E+04  0.17032106730E+04  0.22601099123E+04  0.25500000920E-02 0.  1.
</event>
<event>
 5   0  0.3750285E-07  0.3201482E+04  0.7818609E-02  0.8188426E-01
        2   -1    0    0  501    0  0.00000000000E+00  0.00000000000E+00  0.11860698003E+04  0.11860698003E+04  0.25500000920E-02 0.  1.
       -2   -1    0    0    0  501  0.00000000000E+00  0.00000000000E+00 -0.21603888831E+04  0.21603888831E+04  0.25500000920E-02 0. -1.
    10030    2    1    2    0    0  0.00000000000E+00  0.00000000000E+00 -0.97431908278E+03  0.33464586834E+04  0.32014821638E+04 0.  0.
        1    1    3    3  502    0 -0.52304149045E+03 -0.19604452933E+03 -0.20552133959E+04  0.21297671143E+04  0.50400001928E-02 0. -1.
       -1    1    3    3    0  502  0.52304149045E+03  0.19604452933E+03  0.10808943132E+04  0.12166915692E+04  0.50400001928E-02 0.  1.
</event>
<event>
 5   0  0.1230450E-07  0.3202009E+04  0.7818609E-02  0.8188287E-01
        3   -1    0    0  501    0  0.00000000000E+00  0.00000000000E+00  0.18079506491E+04  0.18079506519E+04  0.10100000352E+00 0. -1.
       -3   -1    0    0    0  501  0.00000000000E+00  0.00000000000E+00 -0.14177461042E+04  0.14177461078E+04  0.10100000352E+00 0.  1.
    10030    2    1    2    0    0  0.00000000000E+00  0.00000000000E+00  0.39020454485E+03  0.32256967597E+04  0.32020087443E+04 0.  0.
        5    1    3    3  502    0 -0.59973246639E+03 -0.54207276498E+03  0.15872339005E+04  0.17812510937E+04  0.46999998093E+01 0. -1.
       -5    1    3    3    0  502  0.59973246639E+03  0.54207276498E+03 -0.11970293557E+04  0.14444456660E+04  0.46999998093E+01 0.  1.
</event>
<event>
 5   0  0.3942564E-07  0.3197350E+04  0.7818609E-02  0.8189517E-01
       -2   -1    0    0    0  501  0.00000000000E+00  0.00000000000E+00  0.10006984095E+04  0.10006984095E+04  0.25500000920E-02 0. -1.
        2   -1    0    0  501    0  0.00000000000E+00  0.00000000000E+00 -0.25539782275E+04  0.25539782275E+04  0.25500000920E-02 0.  1.
    10030    2    1    2    0    0  0.00000000000E+00  0.00000000000E+00 -0.15532798180E+04  0.35546766371E+04  0.31973501218E+04 0.  0.
        3    1    3    3  502    0  0.11749818446E+04  0.14332144099E+03 -0.19712685822E+04  0.22993527794E+04  0.10100000352E+00 0.  1.
       -3    1    3    3    0  502 -0.11749818446E+04 -0.14332144099E+03  0.41798876421E+03  0.12553238577E+04  0.10100000352E+00 0. -1.
</event>
<event>
 5   0  0.3858721E-07  0.3202798E+04  0.7818609E-02  0.8188079E-01
       -2   -1    0    0    0  501  0.00000000000E+00  0.00000000000E+00  0.13517714575E+04  0.13517714575E+04  0.25500000920E-02 0. -1.
        2   -1    0    0  501    0  0.00000000000E+00  0.00000000000E+00 -0.18971249243E+04  0.18971249243E+04  0.25500000920E-02 0.  1.
    10030    2    1    2    0    0  0.00000000000E+00  0.00000000000E+00 -0.54535346673E+03  0.32488963818E+04  0.32027983539E+04 0.  0.
        2    1    3    3  502    0  0.15103021430E+04 -0.33294619841E+03 -0.69412449928E+03  0.16951915983E+04  0.25500000920E-02 0. -1.
       -2    1    3    3    0  502 -0.15103021430E+04  0.33294619841E+03  0.14877103255E+03  0.15537047835E+04  0.25500000920E-02 0.  1.
</event>
<event>
 5   0  0.3750285E-07  0.3207780E+04  0.7818609E-02  0.8186766E-01
        2   -1    0    0  501    0  0.00000000000E+00  0.00000000000E+00  0.26894840912E+04  0.26894840912E+04  0.25500000920E-02 0.  1.
       -2   -1    0    0    0  501  0.00000000000E+00  0.00000000000E+00 -0.95648940704E+03  0.95648940704E+03  0.25500000920E-02 0. -1.
    10030    2    1    2    0    0  0.00000000000E+00  0.00000000000E+00  0.17329946842E+04  0.36459734982E+04  0.32077799448E+04 0.  0.
        1    1    3    3  502    0  0.59113082832E+03 -0.14904423192E+04  0.82090437693E+03  0.18013156190E+04  0.50400001928E-02 0.  1.
       -1    1    3    3    0  502 -0.59113082832E+03  0.14904423192E+04  0.91209030724E+03  0.18446578793E+04  0.50400001928E-02 0. -1.
</event>
<event>
 5   0  0.3942564E-07  0.3200183E+04  0.7818609E-02  0.8188769E-01
        2   -1    0    0  501    0  0.00000000000E+00  0.00000000000E+00  0.24539751520E+04  0.24539751520E+04  0.25500000920E-02 0. -1.
       -2   -1    0    0    0  501  0.00000000000E+00  0.00000000000E+00 -0.10433245933E+04  0.10433245933E+04  0.25500000920E-02 0.  1.
    10030    2    1    2    0    0  0.00000000000E+00  0.00000000000E+00  0.14106505587E+04  0.34972997454E+04  0.32001828870E+04 0.  0.
        3    1    3    3  502    0 -0.12257224015E+04  0.52986456051E+03 -0.25807751453E+03  0.13600573046E+04  0.10100000352E+00 0.  1.
       -3    1    3    3    0  502  0.12257224015E+04 -0.52986456051E+03  0.16687280732E+04  0.21372424408E+04  0.10100000352E+00 0. -1.
</event>
<event>
 5   0  0.1317293E-07  0.3204606E+04  0.7818609E-02  0.8187602E-01
        1   -1    0    0  501    0  0.00000000000E+00  0.00000000000E+00  0.24465374878E+04  0.24465374878E+04  0.50400001928E-02 0.  1.
       -1   -1    0    0    0  501  0.00000000000E+00  0.00000000000E+00 -0.10493914847E+04  0.10493914847E+04  0.50400001928E-02 0. -1.
    10030    2    1    2    0    0  0.00000000000E+00  0.00000000000E+00  0.13971460031E+04  0.34959289725E+04  0.32046064387E+04 0.  0.
        1    1    3    3  502    0  0.48137284356E+03  0.15156225950E+04  0.48439938876E+03  0.16623701251E+04  0.50400001928E-02 0. -1.
       -1    1    3    3    0  502 -0.48137284356E+03 -0.15156225950E+04  0.91274661432E+03  0.18335588474E+04  0.50400001928E-02 0.  1.
</event>
<event>
 5   0  0.1230450E-07  0.3202536E+04  0.7818609E-02  0.8188148E-01
        3   -1    0    0  501    0  0.00000000000E+00  0.00000000000E+00  0.17265377452E+04  0.17265377481E+04  0.10100000352E+00 0.  1.
       -3   -1    0    0    0  501  0.00000000000E+00  0.00000000000E+00 -0.14850872555E+04  0.14850872589E+04  0.10100000352E+00 0. -1.
    10030    2    1    2    0    0  0.00000000000E+00  0.00000000000E+00  0.24145048973E+03  0.32116250070E+04  0.32025360024E+04 0.  0.
        3    1    3    3  502    0  0.15690761792E+04 -0.13548775356E+03 -0.16940919447E+03  0.15840001492E+04  0.10100000352E+00 0.  1.
       -3    1    3    3    0  502 -0.15690761792E+04  0.13548775356E+03  0.41085968419E+03  0.16276248578E+04  0.10100000352E+00 0. -1.
</event>
<event>
 5   0  0.3830207E-07  0.3188383E+04  0.7818609E-02  0.8191892E-01
       -2   -1    0    0    0  501  0.00000000000E+00  0.00000000000E+00  0.13917778141E+04  0.13917778141E+04  0.25500000920E-02 0. -1.
        2   -1    0    0  501    0  0.00000000000E+00  0.00000000000E+00 -0.18260435225E+04  0.18260435225E+04  0.25500000920E-02 0.  1.
    10030    2    1    2    0    0  0.00000000000E+00  0.00000000000E+00 -0.43426570833E+03  0.32178213366E+04  0.31883832030E+04 0.  0.
        4    1    3    3  502    0 -0.86113047791E+02 -0.72913149815E+03  0.12109931036E+04  0.14161758749E+04  0.12699999809E+01 0. -1.
       -4    1    3    3    0  502  0.86113047791E+02  0.72913149815E+03 -0.16452588120E+04  0.18016454618E+04  0.12699999809E+01 0.  1.
</event>
<event>
 5   0  0.3858721E-07  0.3206869E+04  0.7818609E-02  0.8187005E-01
       -2   -1    0    0    0  501  0.00000000000E+00  0.00000000000E+00  0.17849787490E+04  0.17849787490E+04  0.25500000920E-02 0.  1.
        2   -1    0    0  501    0  0.00000000000E+00  0.00000000000E+00 -0.14403545505E+04  0.14403545505E+04  0.25500000920E-02 0. -1.
    10030    2    1    2    0    0  0.00000000000E+00  0.00000000000E+00  0.34462419844E+03  0.32253332995E+04  0.32068690424E+04 0.  0.
        2    1    3    3  502    0 -0.16590970229E+02 -0.12011891681E+04  0.12404398613E+04  0.17267952187E+04  0.25500000920E-02 0.  1.
       -2    1    3    3    0  502  0.16590970229E+02  0.12011891681E+04 -0.89581566291E+03  0.14985380808E+04  0.25500000920E-02 0. -1.
</event>
<event>
 5   0  0.1288096E-07  0.3207101E+04  0.7818609E-02  0.8186944E-01
       -1   -1    0    0    0  501  0.00000000000E+00  0.00000000000E+00  0.10435725026E+04  0.10435725026E+04  0.50400001928E-02 0. -1.
        1   -1    0    0  501    0  0.00000000000E+00  0.00000000000E+00 -0.24640116345E+04  0.24640116345E+04  0.50400001928E-02 0.  1.
    10030    2    1    2    0    0  0.00000000000E+00  0.00000000000E+00 -0.14204391319E+04  0.35075841371E+04  0.32071013629E+04 0.  0.
        2    1    3    3  502    0  0.13896609931E+04 -0.42983572048E+02  0.16361955549E+03  0.13999202199E+04  0.25500000920E-02 0.  1.
       -2    1    3    3    0  502 -0.13896609931E+04  0.42983572048E+02 -0.15840586874E+04  0.21076639173E+04  0.25500000920E-02 0. -1.
</event>
<event>
 5   0  0.1288096E-07  0.3204922E+04  0.7818609E-02  0.8187519E-01
        1   -1    0    0  501    0  0.00000000000E+00  0.00000000000E+00  0.19876341445E+04  0.19876341445E+04  0.50400001928E-02 0. -1.
       -1   -1    0    0    0  501  0.00000000000E+00  0.00000000000E+00 -0.12919282870E+04  0.12919282870E+04  0.50400001928E-02 0.  1.
    10030    2    1    2    0    0  0.00000000000E+00  0.00000000000E+00  0.69570585753E+03  0.32795624316E+04  0.32049216999E+04 0.  0.
        2    1    3    3  502    0 -0.37265218900E+03 -0.57786285507E+03 -0.11332981849E+04  0.13255790845E+04  0.25500000920E-02 0.  1.
       -2    1    3    3    0  502  0.37265218900E+03  0.57786285507E+03  0.18290040425E+04  0.19539833471E+04  0.25500000920E-02 0. -1.
</event>
<event>
 5   0  0.3750285E-07  0.3202101E+04  0.7818609E-02  0.8188263E-01
       -2   -1    0    0    0  501  0.00000000000E+00  0.00000000000E+00  0.14904955730E+04  0.14904955730E+04  0.25500000920E-02 0.  1.
        2   -1    0    0  501    0  0.00000000000E+00  0.00000000000E+00 -0.17198057078E+04  0.17198057078E+04  0.25500000920E-02 0. -1.
    10030    2    1    2    0    0  0.00000000000E+00  0.00000000000E+00 -0.22931013479E+03  0.32103012808E+04  0.32021010565E+04 0.  0.
        1    1    3    3  502    0  0.96747136293E+03  0.15002644487E+03 -0.13847276053E+04  0.16958712549E+04  0.50400001928E-02 0. -1.
       -1    1    3    3    0  502 -0.96747136293E+03 -0.15002644487E+03  0.11554174705E+04  0.15144300259E+04  0.50400001928E-02 0.  1.
</event>
<event>
 5   0  0.1317293E-07  0.3192032E+04  0.7818609E-02  0.8190925E-01
       -1   -1    0    0    0  501  0.00000000000E+00  0.00000000000E+00  0.12187083456E+04  0.12187083456E+04  0.50400001928E-02 0. -1.
        1   -1    0    0  501    0  0.00000000000E+00  0.00000000000E+00 -0.20901360752E+04  0.20901360752E+04  0.50400001928E-02 0.  1.
    10030    2    1    2    0    0  0.00000000000E+00  0.00000000000E+00 -0.87142772966E+03  0.33088444208E+04  0.31920315025E+04 0.  0.
        1    1    3    3  502    0  0.62043821193E+03  0.53812826411E+03  0.98284708451E+03  0.12808255131E+04  0.50400001928E-02 0. -1.
       -1    1    3    3    0  502 -0.62043821193E+03 -0.53812826411E+03 -0.18542748142E+04  0.20280189077E+04  0.50400001928E-02 0.  1.
</event>
<event>
 5   0  0.1277374E-07  0.3199198E+04  0.7818609E-02  0.8189029E-01
       -1   -1    0    0    0  501  0.00000000000E+00  0.00000000000E+00  0.12082005075E+04  0.12082005075E+04  0.50400001928E-02 0. -1.
        1   -1    0    0  501    0  0.00000000000E+00  0.00000000000E+00 -0.21177912862E+04  0.21177912862E+04  0.50400001928E-02 0.  1.
    10030    2    1    2    0    0  0.00000000000E+00  0.00000000000E+00 -0.90959077871E+03  0.33259917937E+04  0.31991977162E+04 0.  0.
        5    1    3    3  502    0  0.33605998216E+03 -0.92084519563E+03  0.85934451753E+03  0.13036054908E+04  0.46999998093E+01 0. -1.
       -5    1    3    3    0  502 -0.33605998216E+03  0.92084519563E+03 -0.17689352962E+04  0.20223863029E+04  0.46999998093E+01 0.  1.
</event>
<event>
 5   0  0.1317293E-07  0.3197572E+04  0.7818609E-02  0.8189459E-01
       -1   -1    0    0    0  501  0.00000000000E+00  0.00000000000E+00  0.19024975455E+04  0.19024975455E+04  0.50400001928E-02 0.  1.
        1   -1    0    0  501    0  0.00000000000E+00  0.00000000000E+00 -0.13435586643E+04  0.13435586643E+04  0.50400001928E-02 0. -1.
    10030    2    1    2    0    0  0.00000000000E+00  0.00000000000E+00  0.55893888125E+03  0.32460562098E+04  0.31975722422E+04 0.  0.
        1    1    3    3  502    0  0.69995947881E+03  0.14127954891E+04  0.10532356710E+02  0.15767197901E+04  0.50400001928E-02 0.  1.
       -1    1    3    3    0  502 -0.69995947881E+03 -0.14127954891E+04  0.54840652454E+03  0.16693364197E+04  0.50400001928E-02 0. -1.
</event>
<event>
 5   0  0.1365455E-07  0.3203347E+04  0.7818609E-02  0.8187934E-01
       -1   -1    0    0    0  501  0.00000000000E+00  0.00000000000E+00  0.23221979147E+04  0.23221979147E+04  0.50400001928E-02 0. -1.
        1   -1    0    0  501    0  0.00000000000E+00  0.00000000000E+00 -0.11047110597E+04  0.11047110597E+04  0.50400001928E-02 0.  1.
    10030    2    1    2    0    0  0.00000000000E+00  0.00000000000E+00  0.12174868550E+04  0.34269089744E+04  0.32033468242E+04 0.  0.
        3    1    3    3  502    0 -0.12231882461E+04  0.69549313614E+03 -0.20980862453E+03  0.14226453729E+04  0.10100000352E+00 0.  1.
       -3    1    3    3    0  502  0.12231882461E+04 -0.69549313614E+03  0.14272954796E+04  0.20042636015E+04  0.10100000352E+00 0. -1.
</event>
<event>
 5   0  0.3942564E-07  0.3201665E+04  0.7818609E-02  0.8188378E-01
       -2   -1    0    0    0  501  0.00000000000E+00  0.00000000000E+00  0.15507864105E+04  0.15507864105E+04  0.25500000920E-02 0. -1.
        2   -1    0    0  501    0  0.00000000000E+00  0.00000000000E+00 -0.16524934391E+04  0.16524934391E+04  0.25500000920E-02 0.  1.
    10030    2    1    2    0    0  0.00000000000E+00  0.00000000000E+00 -0.10170702858E+03  0.32032798496E+04  0.32016647974E+04 0.  0.
        3    1    3    3  502    0 -0.91092525902E+03 -0.11753586713E+04 -0.64395228118E+03  0.16204713463E+04  0.10100000352E+00 0.  1.
       -3    1    3    3    0  502  0.91092525902E+03  0.11753586713E+04  0.54224525259E+03  0.15828085032E+04  0.10100000352E+00 0. -1.
</event>
<event>
 5   0  0.3750285E-07  0.3197846E+04  0.7818609E-02  0.8189386E-01
        2   -1    0    0  501    0  0.00000000000E+00  0.00000000000E+00  0.19876841858E+04  0.19876841858E+04  0.25500000920E-02 0. -1.
       -2   -1    0    0    0  501  0.00000000000E+00  0.00000000000E+00 -0.12861975481E+04  0.12861975481E+04  0.25500000920E-02 0.  1.
    10030    2    1    2    0    0  0.00000000000E+00  0.00000000000E+00  0.70148663768E+03  0.32738817339E+04  0.31978458538E+04 0.  0.
        1    1    3    3  502    0  0.13651961909E+04  0.12430422090E+03  0.11933202715E+04  0.18174777713E+04  0.50400001928E-02 0. -1.
       -1    1    3    3    0  502 -0.13651961909E+04 -0.12430422090E+03 -0.49183363382E+03  0.14564039626E+04  0.50400001928E-02 0.  1.
</event>
<event>
 5   0  0.3830207E-07  0.3203364E+04  0.7818609E-02  0.8187929E-01
       -2   -1    0    0    0  501  0.00000000000E+00  0.00000000000E+00  0.12502644907E+04  0.12502644907E+04  0.25500000920E-02 0. -1.
        2   -1    0    0  501    0  0.00000000000E+00  0.00000000000E+00 -0.20518734427E+04  0.20518734427E+04  0.25500000920E-02 0.  1.
    10030    2    1    2    0    0  0.00000000000E+00  0.00000000000E+00 -0.80160895207E+03  0.33021379334E+04  0.32033635478E+04 0.  0.
        4    1    3    3  502    0  0.77194870386E+03  0.10046412155E+04 -0.14109035631E+04  0.18962750989E+04  0.12699999809E+01 0.  1.
       -4    1    3    3    0  502 -0.77194870386E+03 -0.10046412155E+04  0.60929461108E+03  0.14058628345E+04  0.12699999809E+01 0. -1.
</event>
<event>
 5   0  0.1288096E-07  0.3191567E+04  0.7818609E-02  0.8191048E-01
       -1   -1    0    0    0  501  0.00000000000E+00  0.00000000000E+00  0.14102288831E+04  0.14102288831E+04  0.50400001928E-02 0.  1.
        1   -1    0    0  501    0  0.00000000000E+00  0.00000000000E+00 -0.18057530885E+04  0.18057530885E+04  0.50400001928E-02 0. -1.
    10030    2    1    2    0    0  0.00000000000E+00  0.00000000000E+00 -0.39552420544E+03  0.32159819716E+04  0.31915671142E+04 0.  0.
        2    1    3    3  502    0  0.14634074301E+04 -0.20807967495E+03  0.40822570696E+03  0.15334623196E+04  0.25500000920E-02 0.  1.
       -2    1    3    3    0  502 -0.14634074301E+04  0.20807967495E+03 -0.80374991240E+03  0.16825196520E+04  0.25500000920E-02 0. -1.
</event>
<event>
 5   0  0.3764056E-07  0.3166119E+04  0.7818609E-02  0.8197823E-01
       -2   -1    0    0    0  501  0.00000000000E+00  0.00000000000E+00  0.29776313825E+04  0.29776313825E+04  0.25500000920E-02 0.  1.
        2   -1    0    0  501    0  0.00000000000E+00  0.00000000000E+00 -0.84163478443E+03  0.84163478444E+03  0.25500000920E-02 0. -1.
    10030    2    1    2    0    0  0.00000000000E+00  0.00000000000E+00  0.21359965981E+04  0.38192661670E+04  0.31661194840E+04 0.  0.
        5    1    3    3  502    0  0.40938510186E+03  0.14778678657E+04  0.15419445664E+04  0.21746964675E+04  0.46999998093E+01 0. -1.
       -5    1    3    3    0  502 -0.40938510186E+03 -0.14778678657E+04  0.59405203166E+03  0.16445696994E+04  0.46999998093E+01 0.  1.
</event>
<event>
 5   0  0.3764056E-07  0.3199794E+04  0.7818609E-02  0.8188872E-01
       -2   -1    0    0    0  501  0.00000000000E+00  0.00000000000E+00  0.12256971398E+04  0.12256971398E+04  0.25500000920E-02 0. -1.
        2   -1    0    0  501    0  0.00000000000E+00  0.00000000000E+00 -0.20883387723E+04  0.20883387723E+04  0.25500000920E-02 0.  1.
    10030    2    1    2    0    0  0.00000000000E+00  0.00000000000E+00 -0.86264163253E+03  0.33140359122E+04  0.31997942810E+04 0.  0.
        5    1    3    3  502    0 -0.96144814231E+03 -0.44235208317E+03  0.81134598192E+03  0.13335525067E+04  0.46999998093E+01 0. -1.
       -5    1    3    3    0  502  0.96144814231E+03  0.44235208317E+03 -0.16739876144E+04  0.19804834054E+04  0.46999998093E+01 0.  1.
</event>
<event>
 5   0  0.3942564E-07  0.3199756E+04  0.7818609E-02  0.8188881E-01
       -2   -1    0    0    0  501  0.00000000000E+00  0.00000000000E+00  0.12541524810E+04  0.12541524810E+04  0.25500000920E-02 0. -1.
        2   -1    0    0  501    0  0.00000000000E+00  0.00000000000E+00 -0.20409084094E+04  0.20409084094E+04  0.25500000920E-02 0.  1.
    10030    2    1    2    0    0  0.00000000000E+00  0.00000000000E+00 -0.78675592840E+03  0.32950608904E+04  0.31997564565E+04 0.  0.
        3    1    3    3  502    0  0.13102953822E+04  0.82351388893E+02  0.54816006281E+03  0.14227210565E+04  0.10100000352E+00 0. -1.
       -3    1    3    3    0  502 -0.13102953822E+04 -0.82351388893E+02 -0.13349159912E+04  0.18723398339E+04  0.10100000352E+00 0.  1.
</event>
<event>
 5   0  0.3764056E-07  0.3245740E+04  0.7818609E-02  0.8176841E-01
        2   -1    0    0  501    0  0.00000000000E+00  0.00000000000E+00  0.12287254714E+04  0.12287254714E+04  0.25500000920E-02 0.  1.
       -2   -1    0    0    0  501  0.00000000000E+00  0.00000000000E+00 -0.21434465383E+04  0.21434465383E+04  0.25500000920E-02 0. -1.
    10030    2    1    2    0    0  0.00000000000E+00  0.00000000000E+00 -0.91472106687E+03  0.33721720096E+04  0.32457401979E+04 0.  0.
        5    1    3    3  502    0  0.13887965743E+04  0.66019038099E+03 -0.99629388940E+03  0.18322747796E+04  0.46999998093E+01 0. -1.
       -5    1    3    3    0  502 -0.13887965743E+04 -0.66019038099E+03  0.81572822523E+02  0.15398972301E+04  0.46999998093E+01 0.  1.
</event>
<event>
 5   0  0.3858721E-07  0.3201122E+04  0.7818609E-02  0.8188521E-01
       -2   -1    0    0    0  501  0.00000000000E+00  0.00000000000E+00  0.17721106589E+04  0.17721106589E+04  0.25500000920E-02 0.  1.
        2   -1    0    0  501    0  0.00000000000E+00  0.00000000000E+00 -0.14456184334E+04  0.14456184334E+04  0.25500000920E-02 0. -1.
    10030    2    1    2    0    0  0.00000000000E+00  0.00000000000E+00  0.32649222553E+03  0.32177290923E+04  0.32011221998E+04 0.  0.
        2    1    3    3  502    0  0.70747088229E+03  0.56178544062E+03 -0.11648493141E+04  0.14741071383E+04  0.25500000920E-02 0. -1.
       -2    1    3    3    0  502 -0.70747088229E+03 -0.56178544062E+03  0.14913415396E+04  0.17436219540E+04  0.25500000920E-02 0.  1.
</event>
<event>
 5   0  0.3764056E-07  0.3199479E+04  0.7818609E-02  0.8188955E-01
       -2   -1    0    0    0  501  0.00000000000E+00  0.00000000000E+00  0.12030788456E+04  0.12030788456E+04  0.25500000920E-02 0. -1.
        2   -1    0    0  501    0  0.00000000000E+00  0.00000000000E+00 -0.21271803941E+04  0.21271803942E+04  0.25500000920E-02 0.  1.
    10030    2    1    2    0    0  0.00000000000E+00  0.00000000000E+00 -0.92410154853E+03  0.33302592398E+04  0.31994785407E+04 0.  0.
        5    1    3    3  502    0 -0.87790995889E+02 -0.14869085863E+04 -0.10694614512E+04  0.18336778039E+04  0.46999998093E+01 0.  1.
       -5    1    3    3    0  502  0.87790995889E+02  0.14869085863E+04  0.14535990268E+03  0.14965814359E+04  0.46999998093E+01 0. -1.
</event>
<event>
 5   0  0.3858721E-07  0.3204417E+04  0.7818609E-02  0.8187652E-01
       -2   -1    0    0    0  501  0.00000000000E+00  0.00000000000E+00  0.14361870394E+04  0.14361870394E+04  0.25500000920E-02 0.  1.
        2   -1    0    0  501    0  0.00000000000E+00  0.00000000000E+00 -0.17874214085E+04  0.17874214085E+04  0.25500000920E-02 0. -1.
    10030    2    1    2    0    0  0.00000000000E+00  0.00000000000E+00 -0.35123436914E+03  0.32236084480E+04  0.32044166152E+04 0.  0.
        2    1    3    3  502    0  0.81570665962E+03  0.96544602337E+03 -0.11662014465E+04  0.17197352100E+04  0.25500000920E-02 0. -1.
       -2    1    3    3    0  502 -0.81570665962E+03 -0.96544602337E+03  0.81496707741E+03  0.15038732380E+04  0.25500000920E-02 0.  1.
</event>
<event>
 5   0  0.3830207E-07  0.3201626E+04  0.7818609E-02  0.8188388E-01
       -2   -1    0    0    0  501  0.00000000000E+00  0.00000000000E+00  0.12492448108E+04  0.12492448108E+04  0.25500000920E-02 0. -1.
        2   -1    0    0  501    0  0.00000000000E+00  0.00000000000E+00 -0.20513209206E+04  0.20513209206E+04  0.25500000920E-02 0.  1.
    10030    2    1    2    0    0  0.00000000000E+00  0.00000000000E+00 -0.80207610980E+03  0.33005657314E+04  0.32016258466E+04 0.  0.
        4    1    3    3  502    0  0.78012909057E+03  0.86428961226E+03  0.73154976921E+03  0.13750507662E+04  0.12699999809E+01 0. -1.
       -4    1    3    3    0  502 -0.78012909057E+03 -0.86428961226E+03 -0.15336258790E+04  0.19255149653E+04  0.12699999809E+01 0.  1.
</event>
<event>
 5   0  0.3750285E-07  0.3192773E+04  0.7818609E-02  0.8190729E-01
        2   -1    0    0  501    0  0.00000000000E+00  0.00000000000E+00  0.16266934837E+04  0.16266934837E+04  0.25500000920E-02 0. -1.
       -2   -1    0    0    0  501  0.00000000000E+00  0.00000000000E+00 -0.15666437191E+04  0.15666437191E+04  0.25500000920E-02 0.  1.
    10030    2    1    2    0    0  0.00000000000E+00  0.00000000000E+00  0.60049764572E+02  0.31933372027E+04  0.31927725438E+04 0.  0.
        1    1    3    3  502    0  0.41596370640E+03 -0.10334533143E+04 -0.11135922095E+04  0.15751632191E+04  0.50400001928E-02 0.  1.
       -1    1    3    3    0  502 -0.41596370640E+03  0.10334533143E+04  0.11736419741E+04  0.16181739836E+04  0.50400001928E-02 0. -1.
</event>
<event>
 5   0  0.1317293E-07  0.3191455E+04  0.7818609E-02  0.8191078E-01
       -1   -1    0    0    0  501  0.00000000000E+00  0.00000000000E+00  0.14213926223E+04  0.14213926223E+04  0.50400001928E-02 0.  1.
        1   -1    0    0  501    0  0.00000000000E+00  0.00000000000E+00 -0.17914444535E+04  0.17914444535E+04  0.50400001928E-02 0. -1.
    10030    2    1    2    0    0  0.00000000000E+00  0.00000000000E+00 -0.37005183112E+03  0.32128370758E+04  0.31914547965E+04 0.  0.
        1    1    3    3  502    0  0.15054822003E+04  0.52378971338E+03 -0.11027473921E+03  0.15978087612E+04  0.50400001928E-02 0.  1.
       -1    1    3    3    0  502 -0.15054822003E+04 -0.52378971338E+03 -0.25977709191E+03  0.16150283146E+04  0.50400001928E-02 0. -1.
</event>
<event>
 5   0  0.1277374E-07  0.3180734E+04  0.7818609E-02  0.8193924E-01
        1   -1    0    0  501    0  0.00000000000E+00  0.00000000000E+00  0.23243504066E+04  0.23243504066E+04  0.50400001928E-02 0. -1.
       -1   -1    0    0    0  501  0.00000000000E+00  0.00000000000E+00 -0.10881607332E+04  0.10881607332E+04  0.50400001928E-02 0.  1.
    10030    2    1    2    0    0  0.00000000000E+00  0.00000000000E+00  0.12361896734E+04  0.34125111399E+04  0.31807337787E+04 0.  0.
        5    1    3    3  502    0  0.13063431069E+04  0.38198221992E+03  0.15007225935E+04  0.20259894180E+04  0.46999998093E+01 0. -1.
       -5    1    3    3    0  502 -0.13063431069E+04 -0.38198221992E+03 -0.26453292006E+03  0.13865217218E+04  0.46999998093E+01 0.  1.
</event>
<event>
 5   0  0.1288096E-07  0.3195275E+04  0.7818609E-02  0.8190066E-01
        1   -1    0    0  501    0  0.00000000000E+00  0.00000000000E+00  0.14499921072E+04  0.14499921072E+04  0.50400001928E-02 0. -1.
       -1   -1    0    0    0  501  0.00000000000E+00  0.00000000000E+00 -0.17603170713E+04  0.17603170714E+04  0.50400001928E-02 0.  1.
    10030    2    1    2    0    0  0.00000000000E+00  0.00000000000E+00 -0.31032496410E+03  0.32103091786E+04  0.31952751742E+04 0.  0.
        2    1    3    3  502    0 -0.37754347089E+02 -0.99627780799E+03  0.10990905832E+04  0.14839120498E+04  0.25500000920E-02 0. -1.
       -2    1    3    3    0  502  0.37754347089E+02  0.99627780799E+03 -0.14094155473E+04  0.17263971288E+04  0.25500000920E-02 0.  1.
</event>
<event>
 5   0  0.1277374E-07  0.3201166E+04  0.7818609E-02  0.8188509E-01
        1   -1    0    0  501    0  0.00000000000E+00  0.00000000000E+00  0.16535478029E+04  0.16535478029E+04  0.50400001928E-02 0. -1.
       -1   -1    0    0    0  501  0.00000000000E+00  0.00000000000E+00 -0.15493148272E+04  0.15493148272E+04  0.50400001928E-02 0.  1.
    10030    2    1    2    0    0  0.00000000000E+00  0.00000000000E+00  0.10423297571E+03  0.32028626301E+04  0.32011661179E+04 0.  0.
        5    1    3    3  502    0 -0.10935843185E+04 -0.79584351160E+03  0.90846171189E+03  0.16292999505E+04  0.46999998093E+01 0. -1.
       -5    1    3    3    0  502  0.10935843185E+04  0.79584351160E+03 -0.80422873618E+03  0.15735626797E+04  0.46999998093E+01 0.  1.
</event>
<event>
 5   0  0.3750285E-07  0.3182963E+04  0.7818609E-02  0.8193331E-01
        2   -1    0    0  501    0  0.00000000000E+00  0.00000000000E+00  0.13953499096E+04  0.13953499096E+04  0.25500000920E-02 0.  1.
       -2   -1    0    0    0  501  0.00000000000E+00  0.00000000000E+00 -0.18151813525E+04  0.18151813525E+04  0.25500000920E-02 0. -1.
    10030    2    1    2    0    0  0.00000000000E+00  0.00000000000E+00 -0.41983144295E+03  0.32105312621E+04  0.31829628563E+04 0.  0.
        1    1    3    3  502    0  0.11732346635E+04 -0.26241323562E+03 -0.12617674983E+04  0.17428131000E+04  0.50400001928E-02 0. -1.
       -1    1    3    3    0  502 -0.11732346635E+04  0.26241323562E+03  0.84193605537E+03  0.14677181621E+04  0.50400001928E-02 0.  1.
</event>
<event>
 5   0  0.3830207E-07  0.3199197E+04  0.7818609E-02  0.8189029E-01
       -2   -1    0    0    0  501  0.00000000000E+00  0.00000000000E+00  0.12652750207E+04  0.12652750207E+04  0.25500000920E-02 0. -1.
        2   -1    0    0  501    0  0.00000000000E+00  0.00000000000E+00 -0.20222606583E+04  0.20222606583E+04  0.25500000920E-02 0.  1.
    10030    2    1    2    0    0  0.00000000000E+00  0.00000000000E+00 -0.75698563757E+03  0.32875356791E+04  0.31991973346E+04 0.  0.
        4    1    3    3  502    0 -0.27573768782E+03 -0.53556319569E+03  0.11442665574E+04  0.12931383438E+04  0.12699999809E+01 0. -1.
       -4    1    3    3    0  502  0.27573768782E+03  0.53556319569E+03 -0.19012521949E+04  0.19943973352E+04  0.12699999809E+01 0.  1.
</event>
<event>
 5   0  0.1270948E-07  0.3197339E+04  0.7818609E-02  0.8189520E-01
       -1   -1    0    0    0  501  0.00000000000E+00  0.00000000000E+00  0.15619703695E+04  0.15619703696E+04  0.50400001928E-02 0. -1.
        1   -1    0    0  501    0  0.00000000000E+00  0.00000000000E+00 -0.16362308370E+04  0.16362308370E+04  0.50400001928E-02 0.  1.
    10030    2    1    2    0    0  0.00000000000E+00  0.00000000000E+00 -0.74260467421E+02  0.31982012065E+04  0.31973389467E+04 0.  0.
        4    1    3    3  502    0 -0.12580107299E+04 -0.65091142154E+03  0.70432927102E+03  0.15818843227E+04  0.12699999809E+01 0. -1.
       -4    1    3    3    0  502  0.12580107299E+04  0.65091142154E+03 -0.77858973845E+03  0.16163168839E+04  0.12699999809E+01 0.  1.
</event>
<event>
 5   0  0.1288096E-07  0.3201843E+04  0.7818609E-02  0.8188331E-01
       -1   -1    0    0    0  501  0.00000000000E+00  0.00000000000E+00  0.14797055885E+04  0.14797055885E+04  0.50400001928E-02 0. -1.
        1   -1    0    0  501    0  0.00000000000E+00  0.00000000000E+00 -0.17320670473E+04  0.17320670474E+04  0.50400001928E-02 0.  1.
    10030    2    1    2    0    0  0.00000000000E+00  0.00000000000E+00 -0.25236145887E+03  0.32117726358E+04  0.32018427754E+04 0.  0.
        2    1    3    3  502    0  0.14245384539E+04  0.20264900458E+03  0.57783122311E+03  0.15505693626E+04  0.25500000920E-02 0.  1.
       -2    1    3    3    0  502 -0.14245384539E+04 -0.20264900458E+03 -0.83019268199E+03  0.16612032732E+04  0.25500000920E-02 0. -1.
</event>
<event>
 5   0  0.1288096E-07  0.3195346E+04  0.7818609E-02  0.8190047E-01
       -1   -1    0    0    0  501  0.00000000000E+00  0.00000000000E+00  0.15720486318E+04  0.15720486318E+04  0.50400001928E-02 0.  1.
        1   -1    0    0  501    0  0.00000000000E+00  0.00000000000E+00 -0.16237151570E+04  0.16237151570E+04  0.50400001928E-02 0. -1.
    10030    2    1    2    0    0  0.00000000000E+00  0.00000000000E+00 -0.51666525186E+02  0.31957637889E+04  0.31953461103E+04 0.  0.
        2    1    3    3  502    0  0.63036648238E+03 -0.10418884906E+04  0.10085483509E+04  0.15811588488E+04  0.25500000920E-02 0.  1.
       -2    1    3    3    0  502 -0.63036648238E+03  0.10418884906E+04 -0.10602148761E+04  0.16146049401E+04  0.25500000920E-02 0. -1.
</event>
<event>
 5   0  0.3858721E-07  0.3211253E+04  0.7818609E-02  0.8185852E-01
        2   -1    0    0  501    0  0.00000000000E+00  0.00000000000E+00  0.26311218398E+04  0.26311218398E+04  0.25500000920E-02 0. -1.
       -2   -1    0    0    0  501  0.00000000000E+00  0.00000000000E+00 -0.97982395616E+03  0.97982395616E+03  0.25500000920E-02 0.  1.
    10030    2    1    2    0    0  0.00000000000E+00  0.00000000000E+00  0.16512978837E+04  0.36109457960E+04  0.32112528460E+04 0.  0.
        2    1    3    3  502    0  0.52518308429E+03 -0.13678181375E+04  0.15641181826E+04  0.21431774118E+04  0.25500000920E-02 0. -1.
       -2    1    3    3    0  502 -0.52518308429E+03  0.13678181375E+04  0.87179701105E+02  0.14677683842E+04  0.25500000920E-02 0.  1.
</event>
<event>
 5   0  0.1317293E-07  0.3194436E+04  0.7818609E-02  0.8190288E-01
       -1   -1    0    0    0  501  0.00000000000E+00  0.00000000000E+00  0.25599835649E+04  0.25599835649E+04  0.50400001928E-02 0.  1.
        1   -1    0    0  501    0  0.00000000000E+00  0.00000000000E+00 -0.99653193311E+03  0.99653193312E+03  0.50400001928E-02 0. -1.
    10030    2    1    2    0    0  0.00000000000E+00  0.00000000000E+00  0.15634516317E+04  0.35565154980E+04  0.31944360195E+04 0.  0.
        1    1    3    3  502    0  0.21119745292E+03 -0.13289410303E+04  0.17397326942E+04  0.21993995711E+04  0.50400001928E-02 0.  1.
       -1    1    3    3    0  502 -0.21119745292E+03  0.13289410303E+04 -0.17628106244E+03  0.13571159269E+04  0.50400001928E-02 0. -1.
</event>
<event>
 5   0  0.1270948E-07  0.3198604E+04  0.7818609E-02  0.8189186E-01
       -1   -1    0    0    0  501  0.00000000000E+00  0.00000000000E+00  0.10142877529E+04  0.10142877529E+04  0.50400001928E-02 0.  1.
        1   -1    0    0  501    0  0.00000000000E+00  0.00000000000E+00 -0.25217362879E+04  0.25217362880E+04  0.50400001928E-02 0. -1.
    10030    2    1    2    0    0  0.00000000000E+00  0.00000000000E+00 -0.15074485350E+04  0.35360240409E+04  0.31986035909E+04 0.  0.
        4    1    3    3  502    0 -0.93365312728E+03  0.10024575166E+04  0.15864681083E+03  0.13790575254E+04  0.12699999809E+01 0.  1.
       -4    1    3    3    0  502  0.93365312728E+03 -0.10024575166E+04 -0.16660953459E+04  0.21569665155E+04  0.12699999809E+01 0. -1.
</event>
<event>
 5   0  0.1365455E-07  0.3198245E+04  0.7818609E-02  0.8189281E-01
        1   -1    0    0  501    0  0.00000000000E+00  0.00000000000E+00  0.23846813970E+04  0.23846813970E+04  0.50400001928E-02 0.  1.
       -1   -1    0    0    0  501  0.00000000000E+00  0.00000000000E+00 -0.10723416419E+04  0.10723416419E+04  0.50400001928E-02 0. -1.
    10030    2    1    2    0    0  0.00000000000E+00  0.00000000000E+00  0.13123397552E+04  0.34570230389E+04  0.31982452468E+04 0.  0.
        3    1    3    3  502    0 -0.10697370929E+04 -0.66774944554E+03  0.17190791582E+04  0.21320084269E+04  0.10100000352E+00 0.  1.
       -3    1    3    3    0  502  0.10697370929E+04  0.66774944554E+03 -0.40673940304E+03  0.13250146120E+04  0.10100000352E+00 0. -1.
</event>
<event>
 5   0  0.1270948E-07  0.3215194E+04  0.7818609E-02  0.8184816E-01
        1   -1    0    0  501    0  0.00000000000E+00  0.00000000000E+00  0.23454095374E+04  0.23454095374E+04  0.50400001928E-02 0.  1.
       -1   -1    0    0    0  501  0.00000000000E+00  0.00000000000E+00 -0.11018832982E+04  0.11018832982E+04  0.50400001928E-02 0. -1.
    10030    2    1    2    0    0  0.00000000000E+00  0.00000000000E+00  0.12435262392E+04  0.34472928356E+04  0.32151936780E+04 0.  0.
        4    1    3    3  502    0  0.10067179105E+04 -0.11890600831E+04  0.19689894085E+03  0.15703870982E+04  0.12699999809E+01 0.  1.
       -4    1    3    3    0  502 -0.10067179105E+04  0.11890600831E+04  0.10466272984E+04  0.18769057374E+04  0.12699999809E+01 0. -1.
</event>
<event>
 5   0  0.3830207E-07  0.3190060E+04  0.7818609E-02  0.8191447E-01
       -2   -1    0    0    0  501  0.00000000000E+00  0.00000000000E+00  0.15673763768E+04  0.15673763768E+04  0.25500000920E-02 0.  1.
        2   -1    0    0  501    0  0.00000000000E+00  0.00000000000E+00 -0.16231716549E+04  0.16231716549E+04  0.25500000920E-02 0. -1.
    10030    2    1    2    0    0  0.00000000000E+00  0.00000000000E+00 -0.55795278128E+02  0.31905480317E+04  0.31900601294E+04 0.  0.
        4    1    3    3  502    0  0.50036338161E+03 -0.94773026157E+03  0.11536225902E+04  0.15746119699E+04  0.12699999809E+01 0.  1.
       -4    1    3    3    0  502 -0.50036338161E+03  0.94773026157E+03 -0.12094178683E+04  0.16159360617E+04  0.12699999809E+01 0. -1.
</event>
<event>
 5   0  0.3858721E-07  0.3199000E+04  0.7818609E-02  0.8189081E-01
        2   -1    0    0  501    0  0.00000000000E+00  0.00000000000E+00  0.10071079954E+04  0.10071079954E+04  0.25500000920E-02 0.  1.
       -2   -1    0    0    0  501  0.00000000000E+00  0.00000000000E+00 -0.25403427132E+04  0.25403427132E+04  0.25500000920E-02 0. -1.
    10030    2    1    2    0    0  0.00000000000E+00  0.00000000000E+00 -0.15332347178E+04  0.35474507086E+04  0.31989995045E+04 0.  0.
        2    1    3    3  502    0 -0.14050949904E+04  0.23715783145E+03  0.39063583425E+02  0.14255040275E+04  0.25500000920E-02 0.  1.
       -2    1    3    3    0  502  0.14050949904E+04 -0.23715783145E+03 -0.15722983013E+04  0.21219466810E+04  0.25500000920E-02 0. -1.
</event>
<event>
 5   0  0.3764056E-07  0.3166833E+04  0.7818609E-02  0.8197632E-01
        2   -1    0    0  501    0  0.00000000000E+00  0.00000000000E+00  0.23817306858E+04  0.23817306858E+04  0.25500000920E-02 0.  1.
       -2   -1    0    0    0  501  0.00000000000E+00  0.00000000000E+00 -0.10526834081E+04  0.10526834081E+04  0.25500000920E-02 0. -1.
    10030    2    1    2    0    0  0.00000000000E+00  0.00000000000E+00  0.13290472776E+04  0.34344140939E+04  0.31668333556E+04 0.  0.
        5    1    3    3  502    0 -0.15313499156E+03  0.15341233978E+04  0.10558464888E+04  0.18686409027E+04  0.46999998093E+01 0. -1.
       -5    1    3    3    0  502  0.15313499156E+03 -0.15341233978E+04  0.27320078888E+03  0.15657731912E+04  0.46999998093E+01 0.  1.
</event>
<event>
 5   0  0.3942564E-07  0.3200827E+04  0.7818609E-02  0.8188599E-01
       -2   -1    0    0    0  501  0.00000000000E+00  0.00000000000E+00  0.17292512725E+04  0.17292512725E+04  0.25500000920E-02 0.  1.
        2   -1    0    0  501    0  0.00000000000E+00  0.00000000000E+00 -0.14811747381E+04  0.14811747381E+04  0.25500000920E-02 0. -1.
    10030    2    1    2    0    0  0.00000000000E+00  0.00000000000E+00  0.24807653434E+03  0.32104260106E+04  0.32008269561E+04 0.  0.
        3    1    3    3  502    0  0.77233777460E+02 -0.93094403061E+03  0.14274358377E+04  0.17059293436E+04  0.10100000352E+00 0.  1.
       -3    1    3    3    0  502 -0.77233777460E+02  0.93094403061E+03 -0.11793593033E+04  0.15044966670E+04  0.10100000352E+00 0. -1.
</event>
<event>
 5   0  0.3750285E-07  0.3201839E+04  0.7818609E-02  0.8188332E-01
        2   -1    0    0  501    0  0.00000000000E+00  0.00000000000E+00  0.12940637939E+04  0.12940637939E+04  0.25500000920E-02 0. -1.
       -2   -1    0    0    0  501  0.00000000000E+00  0.00000000000E+00 -0.19805388968E+04  0.19805388968E+04  0.25500000920E-02 0.  1.
    10030    2    1    2    0    0  0.00000000000E+00  0.00000000000E+00 -0.68647510296E+03  0.32746026907E+04  0.32018392706E+04 0.  0.
        1    1    3    3  502    0  0.12765158193E+04 -0.67348012337E+03  0.36523561475E+03  0.14887797580E+04  0.50400001928E-02 0. -1.
       -1    1    3    3    0  502 -0.12765158193E+04  0.67348012337E+03 -0.10517107177E+04  0.17858229328E+04  0.50400001928E-02 0.  1.
</event>
<event>
 5   0  0.1365455E-07  0.3217135E+04  0.7818609E-02  0.8184306E-01
       -1   -1    0    0    0  501  0.00000000000E+00  0.00000000000E+00  0.12502008124E+04  0.12502008124E+04  0.50400001928E-02 0.  1.
        1   -1    0    0  501    0  0.00000000000E+00  0.00000000000E+00 -0.20696591660E+04  0.20696591660E+04  0.50400001928E-02 0. -1.
    10030    2    1    2    0    0  0.00000000000E+00  0.00000000000E+00 -0.81945835359E+03  0.33198599784E+04  0.32171351049E+04 0.  0.
        3    1    3    3  502    0 -0.71385366385E+03 -0.13482451447E+04 -0.93605172883E+03  0.17898449298E+04  0.10100000352E+00 0. -1.
       -3    1    3    3    0  502  0.71385366385E+03  0.13482451447E+04  0.11659337524E+03  0.15300150486E+04  0.10100000352E+00 0.  1.
</event>
<event>
 5   0  0.1365455E-07  0.3199139E+04  0.7818609E-02  0.8189045E-01
       -1   -1    0    0    0  501  0.00000000000E+00  0.00000000000E+00  0.95176316636E+03  0.95176316637E+03  0.50400001928E-02 0.  1.
        1   -1    0    0  501    0  0.00000000000E+00  0.00000000000E+00 -0.26882980951E+04  0.26882980951E+04  0.50400001928E-02 0. -1.
    10030    2    1    2    0    0  0.00000000000E+00  0.00000000000E+00 -0.17365349287E+04  0.36400612614E+04  0.31991393262E+04 0.  0.
        3    1    3    3  502    0  0.52874894665E+03 -0.33879136556E+03  0.80563852491E+03  0.10214736810E+04  0.10100000352E+00 0.  1.
       -3    1    3    3    0  502 -0.52874894665E+03  0.33879136556E+03 -0.25421734536E+04  0.26185875804E+04  0.10100000352E+00 0. -1.
</event>
<event>
 5   0  0.3764056E-07  0.3171548E+04  0.7818609E-02  0.8196372E-01
       -2   -1    0    0    0  501  0.00000000000E+00  0.00000000000E+00  0.17153352903E+04  0.17153352903E+04  0.25500000920E-02 0. -1.
        2   -1    0    0  501    0  0.00000000000E+00  0.00000000000E+00 -0.14659990456E+04  0.14659990456E+04  0.25500000920E-02 0.  1.
    10030    2    1    2    0    0  0.00000000000E+00  0.00000000000E+00  0.24933624472E+03  0.31813343359E+04  0.31715484536E+04 0.  0.
        5    1    3    3  502    0  0.12527840646E+03  0.31123821914E+03  0.16793192717E+04  0.17125125443E+04  0.46999998093E+01 0. -1.
       -5    1    3    3    0  502 -0.12527840646E+03 -0.31123821914E+03 -0.14299830269E+04  0.14688217916E+04  0.46999998093E+01 0.  1.
</event>
<event>
 5   0  0.1270948E-07  0.3200330E+04  0.7818609E-02  0.8188730E-01
        1   -1    0    0  501    0  0.00000000000E+00  0.00000000000E+00  0.19871010304E+04  0.19871010304E+04  0.50400001928E-02 0. -1.
       -1   -1    0    0    0  501  0.00000000000E+00  0.00000000000E+00 -0.12885745280E+04  0.12885745280E+04  0.50400001928E-02 0.  1.
    10030    2    1    2    0    0  0.00000000000E+00  0.00000000000E+00  0.69852650232E+03  0.32756755584E+04  0.32003298407E+04 0.  0.
        4    1    3    3  502    0  0.11524016069E+04  0.10978787828E+04  0.18058386179E+03  0.16018674818E+04  0.12699999809E+01 0.  1.
       -4    1    3    3    0  502 -0.11524016069E+04 -0.10978787828E+04  0.51794264053E+03  0.16738080766E+04  0.12699999809E+01 0. -1.
</event>
<event>
 5   0  0.3750285E-07  0.3197603E+04  0.7818609E-02  0.8189450E-01
       -2   -1    0    0    0  501  0.00000000000E+00  0.00000000000E+00  0.15994006764E+04  0.15994006764E+04  0.25500000920E-02 0. -1.
        2   -1    0    0  501    0  0.00000000000E+00  0.00000000000E+00 -0.15982030058E+04  0.15982030058E+04  0.25500000920E-02 0.  1.
    10030    2    1    2    0    0  0.00000000000E+00  0.00000000000E+00  0.11976706320E+01  0.31976036822E+04  0.31976034579E+04 0.  0.
        1    1    3    3  502    0 -0.11523021460E+04 -0.81878278528E+03 -0.74636941142E+03  0.15985220622E+04  0.50400001928E-02 0.  1.
       -1    1    3    3    0  502  0.11523021460E+04  0.81878278528E+03  0.74756708206E+03  0.15990816199E+04  0.50400001928E-02 0. -1.
</event>
<event>
 5   0  0.3942564E-07  0.3203099E+04  0.7818609E-02  0.8187999E-01
        2   -1    0    0  501    0  0.00000000000E+00  0.00000000000E+00  0.92354284227E+03  0.92354284228E+03  0.25500000920E-02 0. -1.
       -2   -1    0    0    0  501  0.00000000000E+00  0.00000000000E+00 -0.27773060894E+04  0.27773060894E+04  0.25500000920E-02 0.  1.
    10030    2    1    2    0    0  0.00000000000E+00  0.00000000000E+00 -0.18537632471E+04  0.37008489317E+04  0.32030992240E+04 0.  0.
        3    1    3    3  502    0 -0.17697217743E+03 -0.13030537596E+04 -0.19831014634E+04  0.23794872717E+04  0.10100000352E+00 0.  1.
       -3    1    3    3    0  502  0.17697217743E+03  0.13030537596E+04  0.12933821629E+03  0.13213616599E+04  0.10100000352E+00 0. -1.
</event>
<event>
 5   0  0.1365455E-07  0.3189703E+04  0.7818609E-02  0.8191542E-01
        1   -1    0    0  501    0  0.00000000000E+00  0.00000000000E+00  0.24190771314E+04  0.24190771314E+04  0.50400001928E-02 0.  1.
       -1   -1    0    0    0  501  0.00000000000E+00  0.00000000000E+00 -0.10514554298E+04  0.10514554298E+04  0.50400001928E-02 0. -1.
    10030    2    1    2    0    0  0.00000000000E+00  0.00000000000E+00  0.13676217016E+04  0.34705325612E+04  0.31897032997E+04 0.  0.
        3    1    3    3  502    0  0.29550017355E+03 -0.13846444806E+04 -0.11498651958E+03  0.14204867476E+04  0.10100000352E+00 0. -1.
       -3    1    3    3    0  502 -0.29550017355E+03  0.13846444806E+04  0.14826082212E+04  0.20500458136E+04  0.10100000352E+00 0.  1.
</event>
<event>
 5   0  0.3942564E-07  0.3201600E+04  0.7818609E-02  0.8188395E-01
        2   -1    0    0  501    0  0.00000000000E+00  0.00000000000E+00  0.10665420441E+04  0.10665420441E+04  0.25500000920E-02 0.  1.
       -2   -1    0    0    0  501  0.00000000000E+00  0.00000000000E+00 -0.24026816855E+04  0.24026816855E+04  0.25500000920E-02 0. -1.
    10030    2    1    2    0    0  0.00000000000E+00  0.00000000000E+00 -0.13361396414E+04  0.34692237296E+04  0.32016002475E+04 0.  0.
        3    1    3    3  502    0  0.13041082949E+04 -0.28824990552E+03 -0.16243190214E+04  0.21029024576E+04  0.10100000352E+00 0. -1.
       -3    1    3    3    0  502 -0.13041082949E+04  0.28824990552E+03  0.28817938000E+03  0.13663212719E+04  0.10100000352E+00 0.  1.
</event>
<event>
 5   0  0.3750285E-07  0.3195663E+04  0.7818609E-02  0.8189964E-01
        2   -1    0    0  501    0  0.00000000000E+00  0.00000000000E+00  0.14729312404E+04  0.14729312404E+04  0.25500000920E-02 0.  1.
       -2   -1    0    0    0  501  0.00000000000E+00  0.00000000000E+00 -0.17333228066E+04  0.17333228066E+04  0.25500000920E-02 0. -1.
    10030    2    1    2    0    0  0.00000000000E+00  0.00000000000E+00 -0.26039156617E+03  0.32062540470E+04  0.31956628806E+04 0.  0.
        1    1    3    3  502    0 -0.14421661369E+04  0.40857812639E+03  0.42506958575E+03  0.15580319010E+04  0.50400001928E-02 0.  1.
       -1    1    3    3    0  502  0.14421661369E+04 -0.40857812639E+03 -0.68546115192E+03  0.16482221460E+04  0.50400001928E-02 0. -1.
</event>
<event>
 5   0  0.1288096E-07  0.3198475E+04  0.7818609E-02  0.8189220E-01
        1   -1    0    0  501    0  0.00000000000E+00  0.00000000000E+00  0.11601934820E+04  0.11601934820E+04  0.50400001928E-02 0. -1.
       -1   -1    0    0    0  501  0.00000000000E+00  0.00000000000E+00 -0.22044259076E+04  0.22044259076E+04  0.50400001928E-02 0.  1.
    10030    2    1    2    0    0  0.00000000000E+00  0.00000000000E+00 -0.10442324257E+04  0.33646193896E+04  0.31984749925E+04 0.  0.
        2    1    3    3  502    0 -0.32327484076E+03  0.14334145728E+04  0.14184070349E+03  0.14762461669E+04  0.25500000920E-02 0. -1.
       -2    1    3    3    0  502  0.32327484076E+03 -0.14334145728E+04 -0.11860731291E+04  0.18883732226E+04  0.25500000920E-02 0.  1.
</event>
<event>
 5   0  0.3830207E-07  0.3300284E+04  0.7818609E-02  0.8162823E-01
       -2   -1    0    0    0  501  0.00000000000E+00  0.00000000000E+00  0.95267298094E+03  0.95267298094E+03  0.25500000920E-02 0.  1.
        2   -1    0    0  501    0  0.00000000000E+00  0.00000000000E+00 -0.28582400441E+04  0.28582400441E+04  0.25500000920E-02 0. -1.
    10030    2    1    2    0    0  0.00000000000E+00  0.00000000000E+00 -0.19055670632E+04  0.38109130251E+04  0.33002836624E+04 0.  0.
        4    1    3    3  502    0 -0.49024859653E+03 -0.13120137934E+04  0.54703120396E+02  0.14016839604E+04  0.12699999809E+01 0. -1.
       -4    1    3    3    0  502  0.49024859653E+03  0.13120137934E+04 -0.19602701836E+04  0.24092290647E+04  0.12699999809E+01 0.  1.
</event>
<event>
 5   0  0.3858721E-07  0.3192606E+04  0.7818609E-02  0.8190773E-01
        2   -1    0    0  501    0  0.00000000000E+00  0.00000000000E+00  0.21152537404E+04  0.21152537404E+04  0.25500000920E-02 0.  1.
       -2   -1    0    0    0  501  0.00000000000E+00  0.00000000000E+00 -0.12046706288E+04  0.12046706288E+04  0.25500000920E-02 0. -1.
    10030    2    1    2    0    0  0.00000000000E+00  0.00000000000E+00  0.91058311160E+03  0.33199243693E+04  0.31926064923E+04 0.  0.
        2    1    3    3  502    0  0.81384489662E+03  0.11547526508E+03  0.18782571743E+04  0.20502507323E+04  0.25500000920E-02 0.  1.
       -2    1    3    3    0  502 -0.81384489662E+03 -0.11547526508E+03 -0.96767406271E+03  0.12696736369E+04  0.25500000920E-02 0. -1.
</event>
<event>
 5   0  0.1365455E-07  0.3192178E+04  0.7818609E-02  0.8190886E-01
        1   -1    0    0  501    0  0.00000000000E+00  0.00000000000E+00  0.14827819516E+04  0.14827819516E+04  0.50400001928E-02 0.  1.
       -1   -1    0    0    0  501  0.00000000000E+00  0.00000000000E+00 -0.17180539909E+04  0.17180539909E+04  0.50400001928E-02 0. -1.
    10030    2    1    2    0    0  0.00000000000E+00  0.00000000000E+00 -0.23527203927E+03  0.32008359426E+04  0.31921775951E+04 0.  0.
        3    1    3    3  502    0 -0.13638847534E+04 -0.62092518910E+03  0.43318969446E+03  0.15599304576E+04  0.10100000352E+00 0.  1.
       -3    1    3    3    0  502  0.13638847534E+04  0.62092518910E+03 -0.66846173373E+03  0.16409054850E+04  0.10100000352E+00 0. -1.
</event>
<event>
 5   0  0.1270948E-07  0.3203143E+04  0.7818609E-02  0.8187988E-01
       -1   -1    0    0    0  501  0.00000000000E+00  0.00000000000E+00  0.12193908512E+04  0.12193908512E+04  0.50400001928E-02 0. -1.
        1   -1    0    0  501    0  0.00000000000E+00  0.00000000000E+00 -0.21035351481E+04  0.21035351481E+04  0.50400001928E-02 0.  1.
    10030    2    1    2    0    0  0.00000000000E+00  0.00000000000E+00 -0.88414429691E+03  0.33229259993E+04  0.32031431531E+04 0.  0.
        4    1    3    3  502    0 -0.66965451707E+03  0.41219362374E+03  0.10053413722E+04  0.12763438577E+04  0.12699999809E+01 0. -1.
       -4    1    3    3    0  502  0.66965451707E+03 -0.41219362374E+03 -0.18894856691E+04  0.20465821416E+04  0.12699999809E+01 0.  1.
</event>
<event>
 5   0  0.1277374E-07  0.3187709E+04  0.7818609E-02  0.8192071E-01
        1   -1    0    0  501    0  0.00000000000E+00  0.00000000000E+00  0.23803913077E+04  0.23803913078E+04  0.50400001928E-02 0. -1.
       -1   -1    0    0    0  501  0.00000000000E+00  0.00000000000E+00 -0.10672075248E+04  0.10672075248E+04  0.50400001928E-02 0.  1.
    10030    2    1    2    0    0  0.00000000000E+00  0.00000000000E+00  0.13131837830E+04  0.34475988325E+04  0.31877085912E+04 0.  0.
        5    1    3    3  502    0 -0.19883982546E+03  0.29087654079E+03 -0.10245517431E+04  0.10834550302E+04  0.46999998093E+01 0.  1.
       -5    1    3    3    0  502  0.19883982546E+03 -0.29087654079E+03  0.23377355261E+04  0.23641438023E+04  0.46999998093E+01 0. -1.
</event>
<event>
 5   0  0.1270948E-07  0.3201303E+04  0.7818609E-02  0.8188473E-01
        1   -1    0    0  501    0  0.00000000000E+00  0.00000000000E+00  0.12822787278E+04  0.12822787278E+04  0.50400001928E-02 0.  1.
       -1   -1    0    0    0  501  0.00000000000E+00  0.00000000000E+00 -0.19980720989E+04  0.19980720989E+04  0.50400001928E-02 0. -1.
    10030    2    1    2    0    0  0.00000000000E+00  0.00000000000E+00 -0.71579337112E+03  0.32803508267E+04  0.32013030779E+04 0.  0.
        4    1    3    3  502    0  0.15682333221E+04 -0.13882271094E+03 -0.65391794646E+03  0.17047691314E+04  0.12699999809E+01 0. -1.
       -4    1    3    3    0  502 -0.15682333221E+04  0.13882271094E+03 -0.61875424657E+02  0.15755816954E+04  0.12699999809E+01 0.  1.
</event>
<event>
 5   0  0.1317293E-07  0.3192875E+04  0.7818609E-02  0.8190701E-01
        1   -1    0    0  501    0  0.00000000000E+00  0.00000000000E+00  0.22746665426E+04  0.22746665426E+04  0.50400001928E-02 0. -1.
       -1   -1    0    0    0  501  0.00000000000E+00  0.00000000000E+00 -0.11204337760E+04  0.11204337761E+04  0.50400001928E-02 0.  1.
    10030    2    1    2    0    0  0.00000000000E+00  0.00000000000E+00  0.11542327666E+04  0.33951003187E+04  0.31928753334E+04 0.  0.
        1    1    3    3  502    0  0.10679750543E+04  0.62889479982E+03 -0.49286303178E+03  0.13337890965E+04  0.50400001928E-02 0.  1.
       -1    1    3    3    0  502 -0.10679750543E+04 -0.62889479982E+03  0.16470957983E+04  0.20613112222E+04  0.50400001928E-02 0. -1.
</event>
<event>
 5   0  0.3764056E-07  0.3154561E+04  0.7818609E-02  0.8200922E-01
        2   -1    0    0  501    0  0.00000000000E+00  0.00000000000E+00  0.30298606494E+04  0.30298606495E+04  0.25500000920E-02 0.  1.
       -2   -1    0    0    0  501  0.00000000000E+00  0.00000000000E+00 -0.82109831902E+03  0.82109831902E+03  0.25500000920E-02 0. -1.
    10030    2    1    2    0    0  0.00000000000E+00  0.00000000000E+00  0.22087623304E+04  0.38509589685E+04  0.31545608164E+04 0.  0.
        5    1    3    3  502    0  0.56404485474E+03 -0.52516426947E+03  0.27843547958E+04  0.28890479101E+04  0.46999998093E+01 0.  1.
       -5    1    3    3    0  502 -0.56404485474E+03  0.52516426947E+03 -0.57559246534E+03  0.96191105838E+03  0.46999998093E+01 0. -1.
</event>
<event>
 5   0  0.1270948E-07  0.3191718E+04  0.7818609E-02  0.8191008E-01
       -1   -1    0    0    0  501  0.00000000000E+00  0.00000000000E+00  0.16344650593E+04  0.16344650594E+04  0.50400001928E-02 0.  1.
        1   -1    0    0  501    0  0.00000000000E+00  0.00000000000E+00 -0.15581644550E+04  0.15581644550E+04  0.50400001928E-02 0. -1.
    10030    2    1    2    0    0  0.00000000000E+00  0.00000000000E+00  0.76300604373E+02  0.31926295143E+04  0.31917176306E+04 0.  0.
        4    1    3    3  502    0  0.46733666618E+03 -0.13912375919E+04  0.66508143043E+03  0.16112977747E+04  0.12699999809E+01 0. -1.
       -4    1    3    3    0  502 -0.46733666618E+03  0.13912375919E+04 -0.58878082606E+03  0.15813317396E+04  0.12699999809E+01 0.  1.
</event>
<event>
 5   0  0.1288096E-07  0.3197353E+04  0.7818609E-02  0.8189517E-01
       -1   -1    0    0    0  501  0.00000000000E+00  0.00000000000E+00  0.11271407944E+04  0.11271407944E+04  0.50400001928E-02 0.  1.
        1   -1    0    0  501    0  0.00000000000E+00  0.00000000000E+00 -0.22674772949E+04  0.22674772950E+04  0.50400001928E-02 0. -1.
    10030    2    1    2    0    0  0.00000000000E+00  0.00000000000E+00 -0.11403365006E+04  0.33946180893E+04  0.31973527547E+04 0.  0.
        2    1    3    3  502    0 -0.12942992638E+04  0.40749445394E+03  0.32726602637E+03  0.13958385889E+04  0.25500000920E-02 0.  1.
       -2    1    3    3    0  502  0.12942992638E+04 -0.40749445394E+03 -0.14676025269E+04  0.19987795004E+04  0.25500000920E-02 0. -1.
</event>
<event>
 5   0  0.3942564E-07  0.3204414E+04  0.7818609E-02  0.8187653E-01
        2   -1    0    0  501    0  0.00000000000E+00  0.00000000000E+00  0.27561601831E+04  0.27561601831E+04  0.25500000920E-02 0.  1.
       -2   -1    0    0    0  501  0.00000000000E+00  0.00000000000E+00 -0.93139243227E+03  0.93139243227E+03  0.25500000920E-02 0. -1.
    10030    2    1    2    0    0  0.00000000000E+00  0.00000000000E+00  0.18247677508E+04  0.36875526153E+04  0.32044136666E+04 0.  0.
        3    1    3    3  502    0  0.10688807351E+03 -0.14517162017E+03 -0.91968386261E+03  0.93718636189E+03  0.10100000352E+00 0. -1.
       -3    1    3    3    0  502 -0.10688807351E+03  0.14517162017E+03  0.27444516134E+04  0.27503662534E+04  0.10100000352E+00 0.  1.
</event>
<event>
 5   0  0.3942564E-07  0.3198884E+04  0.7818609E-02  0.8189112E-01
        2   -1    0    0  501    0  0.00000000000E+00  0.00000000000E+00  0.20610882947E+04  0.20610882947E+04  0.25500000920E-02 0.  1.
       -2   -1    0    0    0  501  0.00000000000E+00  0.00000000000E+00 -0.12411963768E+04  0.12411963768E+04  0.25500000920E-02 0. -1.
    10030    2    1    2    0    0  0.00000000000E+00  0.00000000000E+00  0.81989191784E+03  0.33022846715E+04  0.31988843828E+04 0.  0.
        3    1    3    3  502    0 -0.21941375602E+03  0.10233384641E+04 -0.83863312878E+03  0.13411448629E+04  0.10100000352E+00 0. -1.
       -3    1    3    3    0  502  0.21941375602E+03 -0.10233384641E+04  0.16585250466E+04  0.19611398086E+04  0.10100000352E+00 0.  1.
</event>
<event>
 5   0  0.1277374E-07  0.3207944E+04  0.7818609E-02  0.8186722E-01
       -1   -1    0    0    0  501  0.00000000000E+00  0.00000000000E+00  0.22143110204E+04  0.22143110204E+04  0.50400001928E-02 0.  1.
        1   -1    0    0  501    0  0.00000000000E+00  0.00000000000E+00 -0.11618632137E+04  0.11618632137E+04  0.50400001928E-02 0. -1.
    10030    2    1    2    0    0  0.00000000000E+00  0.00000000000E+00  0.10524478067E+04  0.33761742341E+04  0.32079442130E+04 0.  0.
        5    1    3    3  502    0  0.82206348727E+03  0.13279587338E+04  0.91067734222E+03  0.18079319919E+04  0.46999998093E+01 0.  1.
       -5    1    3    3    0  502 -0.82206348727E+03 -0.13279587338E+04  0.14177046445E+03  0.15682422422E+04  0.46999998093E+01 0. -1.
</event>
<event>
 5   0  0.3764056E-07  0.3201821E+04  0.7818609E-02  0.8188337E-01
       -2   -1    0    0    0  501  0.00000000000E+00  0.00000000000E+00  0.15239490544E+04  0.15239490544E+04  0.25500000920E-02 0.  1.
        2   -1    0    0  501    0  0.00000000000E+00  0.00000000000E+00 -0.16817582697E+04  0.16817582697E+04  0.25500000920E-02 0. -1.
    10030    2    1    2    0    0  0.00000000000E+00  0.00000000000E+00 -0.15780921529E+03  0.32057073241E+04  0.32018206851E+04 0.  0.
        5    1    3    3  502    0 -0.10623516941E+04 -0.11720781255E+04 -0.32523899661E+03  0.16149801080E+04  0.46999998093E+01 0. -1.
       -5    1    3    3    0  502  0.10623516941E+04  0.11720781255E+04  0.16742978132E+03  0.15907272161E+04  0.46999998093E+01 0.  1.
</event>
<event>
 5   0  0.3942564E-07  0.3204570E+04  0.7818609E-02  0.8187611E-01
       -2   -1    0    0    0  501  0.00000000000E+00  0.00000000000E+00  0.14472463261E+04  0.14472463261E+04  0.25500000920E-02 0.  1.
        2   -1    0    0  501    0  0.00000000000E+00  0.00000000000E+00 -0.17739321832E+04  0.17739321832E+04  0.25500000920E-02 0. -1.
    10030    2    1    2    0    0  0.00000000000E+00  0.00000000000E+00 -0.32668585707E+03  0.32211785094E+04  0.32045697590E+04 0.  0.
        3    1    3    3  502    0  0.32579535060E+03  0.11163714103E+04 -0.12712756239E+04  0.17229537018E+04  0.10100000352E+00 0. -1.
       -3    1    3    3    0  502 -0.32579535060E+03 -0.11163714103E+04  0.94458976688E+03  0.14982248076E+04  0.10100000352E+00 0.  1.
</event>
<event>
 5   0  0.1365455E-07  0.3200686E+04  0.7818609E-02  0.8188636E-01
        1   -1    0    0  501    0  0.00000000000E+00  0.00000000000E+00  0.19484651109E+04  0.19484651109E+04  0.50400001928E-02 0.  1.
       -1   -1    0    0    0  501  0.00000000000E+00  0.00000000000E+00 -0.13144180424E+04  0.13144180425E+04  0.50400001928E-02 0. -1.
    10030    2    1    2    0    0  0.00000000000E+00  0.00000000000E+00  0.63404706843E+03  0.32628831533E+04  0.32006859870E+04 0.  0.
        3    1    3    3  502    0 -0.19217325282E+03  0.14742431956E+04  0.92079450717E+03  0.17487670209E+04  0.10100000352E+00 0.  1.
       -3    1    3    3    0  502  0.19217325282E+03 -0.14742431956E+04 -0.28674743874E+03  0.15141161325E+04  0.10100000352E+00 0. -1.
</event>
<event>
 5   0  0.1365455E-07  0.3201992E+04  0.7818609E-02  0.8188291E-01
        1   -1    0    0  501    0  0.00000000000E+00  0.00000000000E+00  0.31700109241E+04  0.31700109241E+04  0.50400001928E-02 0. -1.
       -1   -1    0    0    0  501  0.00000000000E+00  0.00000000000E+00 -0.80857414567E+03  0.80857414569E+03  0.50400001928E-02 0.  1.
    10030    2    1    2    0    0  0.00000000000E+00  0.00000000000E+00  0.23614367784E+04  0.39785850698E+04  0.32019924264E+04 0.  0.
        3    1    3    3  502    0  0.18877763395E+03 -0.14816933794E+04  0.46462986267E+03  0.15642676194E+04  0.10100000352E+00 0.  1.
       -3    1    3    3    0  502 -0.18877763395E+03  0.14816933794E+04  0.18968069157E+04  0.24143174504E+04  0.10100000352E+00 0. -1.
</event>
<event>
 5   0  0.1270948E-07  0.3196820E+04  0.7818609E-02  0.8189658E-01
        1   -1    0    0  501    0  0.00000000000E+00  0.00000000000E+00  0.17103192068E+04  0.17103192068E+04  0.50400001928E-02 0.  1.
       -1   -1    0    0    0  501  0.00000000000E+00  0.00000000000E+00 -0.14938229301E+04  0.14938229301E+04  0.50400001928E-02 0. -1.
    10030    2    1    2    0    0  0.00000000000E+00  0.00000000000E+00  0.21649627671E+03  0.32041421369E+04  0.31968197003E+04 0.  0.
        4    1    3    3  502    0  0.12328576349E+04  0.54251940226E+03  0.97082800886E+03  0.16603535423E+04  0.12699999809E+01 0. -1.
       -4    1    3    3    0  502 -0.12328576349E+04 -0.54251940226E+03 -0.75433173215E+03  0.15437885946E+04  0.12699999809E+01 0.  1.
</event>
<event>
 5   0  0.3750285E-07  0.3242838E+04  0.7818609E-02  0.8177595E-01
       -2   -1    0    0    0  501  0.00000000000E+00  0.00000000000E+00  0.17087941607E+04  0.17087941607E+04  0.25500000920E-02 0.  1.
        2   -1    0    0  501    0  0.00000000000E+00  0.00000000000E+00 -0.15385110991E+04  0.15385110991E+04  0.25500000920E-02 0. -1.
    10030    2    1    2    0    0  0.00000000000E+00  0.00000000000E+00  0.17028306164E+03  0.32473052598E+04  0.32428375121E+04 0.  0.
        1    1    3    3  502    0 -0.63682566855E+03 -0.11777967757E+04  0.10008666169E+04  0.16716716669E+04  0.50400001928E-02 0.  1.
       -1    1    3    3    0  502  0.63682566855E+03  0.11777967757E+04 -0.83058355524E+03  0.15756335930E+04  0.50400001928E-02 0. -1.
</event>
<event>
 5   0  0.1230450E-07  0.3202991E+04  0.7818609E-02  0.8188028E-01
        4   -1    0    0  501    0  0.00000000000E+00  0.00000000000E+00  0.14171336663E+04  0.14171342353E+04  0.12699999809E+01 0. -1.
       -4   -1    0    0    0  501  0.00000000000E+00  0.00000000000E+00 -0.18098408930E+04  0.18098413386E+04  0.12699999809E+01 0.  1.
    10030    2    1    2    0    0  0.00000000000E+00  0.00000000000E+00 -0.39270722673E+03  0.32269755739E+04  0.32029911628E+04 0.  0.
        5    1    3    3  502    0  0.66154034054E+03  0.32422923434E+03  0.12362667995E+04  0.14391448530E+04  0.46999998093E+01 0. -1.
       -5    1    3    3    0  502 -0.66154034054E+03 -0.32422923434E+03 -0.16289740262E+04  0.17878307209E+04  0.46999998093E+01 0.  1.
</event>
<event>
 5   0  0.3858721E-07  0.3198884E+04  0.7818609E-02  0.8189112E-01
       -2   -1    0    0    0  501  0.00000000000E+00  0.00000000000E+00  0.14120414219E+04  0.14120414219E+04  0.25500000920E-02 0.  1.
        2   -1    0    0  501    0  0.00000000000E+00  0.00000000000E+00 -0.18117135974E+04  0.18117135974E+04  0.25500000920E-02 0. -1.
    10030    2    1    2    0    0  0.00000000000E+00  0.00000000000E+00 -0.39967217551E+03  0.32237550194E+04  0.31988839580E+04 0.  0.
        2    1    3    3  502    0 -0.12546862040E+04  0.67548533989E+03  0.53223919939E+03  0.15211168530E+04  0.25500000920E-02 0.  1.
       -2    1    3    3    0  502  0.12546862040E+04 -0.67548533989E+03 -0.93191137490E+03  0.17026381664E+04  0.25500000920E-02 0. -1.
</event>
<event>
 5   0  0.3942564E-07  0.3202669E+04  0.7818609E-02  0.8188113E-01
        2   -1    0    0  501    0  0.00000000000E+00  0.00000000000E+00  0.24601318264E+04  0.24601318264E+04  0.25500000920E-02 0. -1.
       -2   -1    0    0    0  501  0.00000000000E+00  0.00000000000E+00 -0.10423312450E+04  0.10423312451E+04  0.25500000920E-02 0.  1.
    10030    2    1    2    0    0  0.00000000000E+00  0.00000000000E+00  0.14178005813E+04  0.35024630714E+04  0.32026690554E+04 0.  0.
        3    1    3    3  502    0  0.41268172587E+03  0.14767987027E+04  0.12136586974E+04  0.19555582475E+04  0.10100000352E+00 0. -1.
       -3    1    3    3    0  502 -0.41268172587E+03 -0.14767987027E+04  0.20414188386E+03  0.15469048239E+04  0.10100000352E+00 0.  1.
</event>
<event>
 5   0  0.1270948E-07  0.3199840E+04  0.7818609E-02  0.8188859E-01
        1   -1    0    0  501    0  0.00000000000E+00  0.00000000000E+00  0.19999297070E+04  0.19999297070E+04  0.50400001928E-02 0. -1.
       -1   -1    0    0    0  501  0.00000000000E+00  0.00000000000E+00 -0.12799169083E+04  0.12799169083E+04  0.50400001928E-02 0.  1.
    10030    2    1    2    0    0  0.00000000000E+00  0.00000000000E+00  0.72001279867E+03  0.32798466153E+04  0.31998399006E+04 0.  0.
        4    1    3    3  502    0 -0.45023168172E+03 -0.35147822620E+03 -0.11718496091E+04  0.13036405295E+04  0.12699999809E+01 0.  1.
       -4    1    3    3    0  502  0.45023168172E+03  0.35147822620E+03  0.18918624078E+04  0.19762060858E+04  0.12699999809E+01 0. -1.
</event>
<event>
 5   0  0.1317293E-07  0.3221344E+04  0.7818609E-02  0.8183203E-01
        1   -1    0    0  501    0  0.00000000000E+00  0.00000000000E+00  0.14756499270E+04  0.14756499270E+04  0.50400001928E-02 0.  1.
       -1   -1    0    0    0  501  0.00000000000E+00  0.00000000000E+00 -0.17580490495E+04  0.17580490495E+04  0.50400001928E-02 0. -1.
    10030    2    1    2    0    0  0.00000000000E+00  0.00000000000E+00 -0.28239912249E+03  0.32336989765E+04  0.32213444098E+04 0.  0.
        1    1    3    3  502    0  0.32190978184E+03  0.91623061448E+03 -0.14311026280E+04  0.17294967992E+04  0.50400001928E-02 0. -1.
       -1    1    3    3    0  502 -0.32190978184E+03 -0.91623061448E+03  0.11487035055E+04  0.15042021773E+04  0.50400001928E-02 0.  1.
</event>
<event>
 5   0  0.3942564E-07  0.3214264E+04  0.7818609E-02  0.8185060E-01
       -2   -1    0    0    0  501  0.00000000000E+00  0.00000000000E+00  0.15802142949E+04  0.15802142949E+04  0.25500000920E-02 0.  1.
        2   -1    0    0  501    0  0.00000000000E+00  0.00000000000E+00 -0.16345084452E+04  0.16345084452E+04  0.25500000920E-02 0. -1.
    10030    2    1    2    0    0  0.00000000000E+00  0.00000000000E+00 -0.54294150338E+02  0.32147227402E+04  0.32142642146E+04 0.  0.
        3    1    3    3  502    0  0.14035870489E+04  0.68800042401E+03 -0.40066040581E+03  0.16136697178E+04  0.10100000352E+00 0. -1.
       -3    1    3    3    0  502 -0.14035870489E+04 -0.68800042401E+03  0.34636625547E+03  0.16010530223E+04  0.10100000352E+00 0.  1.
</event>
<event>
 5   0  0.3764056E-07  0.3202934E+04  0.7818609E-02  0.8188043E-01
        2   -1    0    0  501    0  0.00000000000E+00  0.00000000000E+00  0.16907050606E+04  0.16907050606E+04  0.25500000920E-02 0. -1.
       -2   -1    0    0    0  501  0.00000000000E+00  0.00000000000E+00 -0.15169388771E+04  0.15169388771E+04  0.25500000920E-02 0.  1.
    10030    2    1    2    0    0  0.00000000000E+00  0.00000000000E+00  0.17376618348E+03  0.32076439377E+04  0.32029338027E+04 0.  0.
        5    1    3    3  502    0 -0.10907130249E+04  0.81450164187E+03  0.93169122970E+03  0.16495873620E+04  0.46999998093E+01 0. -1.
       -5    1    3    3    0  502  0.10907130249E+04 -0.81450164187E+03 -0.75792504622E+03  0.15580565757E+04  0.46999998093E+01 0.  1.
</event>
<event>
 5   0  0.1365455E-07  0.3191893E+04  0.7818609E-02  0.8190962E-01
        1   -1    0    0  501    0  0.00000000000E+00  0.00000000000E+00  0.24027878406E+04  0.24027878406E+04  0.50400001928E-02 0.  1.
       -1   -1    0    0    0  501  0.00000000000E+00  0.00000000000E+00 -0.10600374474E+04  0.10600374474E+04  0.50400001928E-02 0. -1.
    10030    2    1    2    0    0  0.00000000000E+00  0.00000000000E+00  0.13427503932E+04  0.34628252880E+04  0.31918929113E+04 0.  0.
        3    1    3    3  502    0 -0.13524403045E+04  0.45046054512E+03 -0.10720058842E+03  0.14295109151E+04  0.10100000352E+00 0. -1.
       -3    1    3    3    0  502  0.13524403045E+04 -0.45046054512E+03  0.14499509816E+04  0.20333143729E+04  0.10100000352E+00 0.  1.
</event>
<event>
 5   0  0.1270948E-07  0.3210455E+04  0.7818609E-02  0.8186062E-01
        1   -1    0    0  501    0  0.00000000000E+00  0.00000000000E+00  0.14172818823E+04  0.14172818823E+04  0.50400001928E-02 0. -1.
       -1   -1    0    0    0  501  0.00000000000E+00  0.00000000000E+00 -0.18180962555E+04  0.18180962555E+04  0.50400001928E-02 0.  1.
    10030    2    1    2    0    0  0.00000000000E+00  0.00000000000E+00 -0.40081437322E+03  0.32353781378E+04  0.32104547237E+04 0.  0.
        4    1    3    3  502    0 -0.48078711715E+03  0.15192614503E+04 -0.54065331643E+01  0.15935314399E+04  0.12699999809E+01 0.  1.
       -4    1    3    3    0  502  0.48078711715E+03 -0.15192614503E+04 -0.39540784006E+03  0.16418466979E+04  0.12699999809E+01 0. -1.
</event>
<event>
 5   0  0.1288096E-07  0.3200765E+04  0.7818609E-02  0.8188615E-01
        1   -1    0    0  501    0  0.00000000000E+00  0.00000000000E+00  0.17435807669E+04  0.17435807669E+04  0.50400001928E-02 0. -1.
       -1   -1    0    0    0  501  0.00000000000E+00  0.00000000000E+00 -0.14689449668E+04  0.14689449668E+04  0.50400001928E-02 0.  1.
    10030    2    1    2    0    0  0.00000000000E+00  0.00000000000E+00  0.27463580010E+03  0.32125257336E+04  0.32007650283E+04 0.  0.
        2    1    3    3  502    0  0.15061767842E+04 -0.38469207925E+03 -0.24443170494E+03  0.15736274525E+04  0.25500000920E-02 0.  1.
       -2    1    3    3    0  502 -0.15061767842E+04  0.38469207925E+03  0.51906750504E+03  0.16388982811E+04  0.25500000920E-02 0. -1.
</event>
<event>
 5   0  0.3830207E-07  0.3208893E+04  0.7818609E-02  0.8186473E-01
        2   -1    0    0  501    0  0.00000000000E+00  0.00000000000E+00  0.22285954993E+04  0.22285954993E+04  0.25500000920E-02 0.  1.
       -2   -1    0    0    0  501  0.00000000000E+00  0.00000000000E+00 -0.11550990069E+04  0.11550990069E+04  0.25500000920E-02 0. -1.
    10030    2    1    2    0    0  0.00000000000E+00  0.00000000000E+00  0.10734964924E+04  0.33836945062E+04  0.32088929231E+04 0.  0.
        4    1    3    3  502    0 -0.96792650625E+03  0.32196561522E+03  0.18426382293E+04  0.21061483414E+04  0.12699999809E+01 0.  1.
       -4    1    3    3    0  502  0.96792650625E+03 -0.32196561522E+03 -0.76914173690E+03  0.12775461648E+04  0.12699999809E+01 0. -1.
</event>
<event>
 5   0  0.1277374E-07  0.3203426E+04  0.7818609E-02  0.8187913E-01
        1   -1    0    0  501    0  0.00000000000E+00  0.00000000000E+00  0.18361417530E+04  0.18361417530E+04  0.50400001928E-02 0.  1.
       -1   -1    0    0    0  501  0.00000000000E+00  0.00000000000E+00 -0.13972144360E+04  0.13972144360E+04  0.50400001928E-02 0. -1.
    10030    2    1    2    0    0  0.00000000000E+00  0.00000000000E+00  0.43892731699E+03  0.32333561889E+04  0.32034255189E+04 0.  0.
        5    1    3    3  502    0 -0.34209982067E+03  0.14376822396E+04 -0.40396349484E+03  0.15320480099E+04  0.46999998093E+01 0. -1.
       -5    1    3    3    0  502  0.34209982067E+03 -0.14376822396E+04  0.84289081183E+03  0.17013081790E+04  0.46999998093E+01 0.  1.
</event>
<event>
 5   0  0.3764056E-07  0.3263571E+04  0.7818609E-02  0.8172227E-01
        2   -1    0    0  501    0  0.00000000000E+00  0.00000000000E+00  0.28846544620E+04  0.28846544620E+04  0.25500000920E-02 0.  1.
       -2   -1    0    0    0  501  0.00000000000E+00  0.00000000000E+00 -0.92306516726E+03  0.92306516726E+03  0.25500000920E-02 0. -1.
    10030    2    1    2    0    0  0.00000000000E+00  0.00000000000E+00  0.19615892947E+04  0.38077196292E+04  0.32635710830E+04 0.  0.
        5    1    3    3  502    0  0.37751859789E+02 -0.10769290246E+04 -0.44887154273E+03  0.11673513091E+04  0.46999998093E+01 0. -1.
       -5    1    3    3    0  502 -0.37751859789E+02  0.10769290246E+04  0.24104608375E+04  0.26403683201E+04  0.46999998093E+01 0.  1.
</event>
<event>
 5   0  0.1288096E-07  0.3212488E+04  0.7818609E-02  0.8185527E-01
       -1   -1    0    0    0  501  0.00000000000E+00  0.00000000000E+00  0.10548817349E+04  0.10548817349E+04  0.50400001928E-02 0. -1.
        1   -1    0    0  501    0  0.00000000000E+00  0.00000000000E+00 -0.24457905994E+04  0.24457905994E+04  0.50400001928E-02 0.  1.
    10030    2    1    2    0    0  0.00000000000E+00  0.00000000000E+00 -0.13909088646E+04  0.35006723343E+04  0.32124880269E+04 0.  0.
        2    1    3    3  502    0 -0.72722624904E+03 -0.14046350655E+04 -0.10001093427E+04  0.18713835475E+04  0.25500000920E-02 0. -1.
       -2    1    3    3    0  502  0.72722624904E+03  0.14046350655E+04 -0.39079952187E+03  0.16292887868E+04  0.25500000920E-02 0.  1.
</event>
<event>
 5   0  0.3750285E-07  0.3201001E+04  0.7818609E-02  0.8188553E-01
        2   -1    0    0  501    0  0.00000000000E+00  0.00000000000E+00  0.13191003240E+04  0.13191003240E+04  0.25500000920E-02 0. -1.
       -2   -1    0    0    0  501  0.00000000000E+00  0.00000000000E+00 -0.19419313931E+04  0.19419313931E+04  0.25500000920E-02 0.  1.
    10030    2    1    2    0    0  0.00000000000E+00  0.00000000000E+00 -0.62283106911E+03  0.32610317171E+04  0.32010012995E+04 0.  0.
        1    1    3    3  502    0 -0.27706263542E+03  0.15496445101E+04 -0.17137620454E+02  0.15743111222E+04  0.50400001928E-02 0. -1.
       -1    1    3    3    0  502  0.27706263542E+03 -0.15496445101E+04 -0.60569344865E+03  0.16867205949E+04  0.50400001928E-02 0.  1.
</event>
<event>
 5   0  0.1277374E-07  0.3194567E+04  0.7818609E-02  0.8190254E-01
       -1   -1    0    0    0  501  0.00000000000E+00  0.00000000000E+00  0.10909095621E+04  0.10909095621E+04  0.50400001928E-02 0.  1.
        1   -1    0    0  501    0  0.00000000000E+00  0.00000000000E+00 -0.23387036628E+04  0.23387036628E+04  0.50400001928E-02 0. -1.
    10030    2    1    2    0    0  0.00000000000E+00  0.00000000000E+00 -0.12477941007E+04  0.34296132250E+04  0.31945667554E+04 0.  0.
        5    1    3    3  502    0 -0.12848449050E+04  0.81711746900E+03 -0.10592013675E+03  0.15263513860E+04  0.46999998093E+01 0. -1.
       -5    1    3    3    0  502  0.12848449050E+04 -0.81711746900E+03 -0.11418739640E+04  0.19032618390E+04  0.46999998093E+01 0.  1.
</event>
<event>
 5   0  0.1288096E-07  0.3200268E+04  0.7818609E-02  0.8188746E-01
        1   -1    0    0  501    0  0.00000000000E+00  0.00000000000E+00  0.14419488642E+04  0.14419488642E+04  0.50400001928E-02 0.  1.
       -1   -1    0    0    0  501  0.00000000000E+00  0.00000000000E+00 -0.17756720413E+04  0.17756720413E+04  0.50400001928E-02 0. -1.
    10030    2    1    2    0    0  0.00000000000E+00  0.00000000000E+00 -0.33372317708E+03  0.32176209055E+04  0.32002676658E+04 0.  0.
        2    1    3    3  502    0  0.14100831775E+04 -0.76402422902E+02 -0.92344206057E+03  0.16872809893E+04  0.25500000920E-02 0. -1.
       -2    1    3    3    0  502 -0.14100831775E+04  0.76402422902E+02  0.58971888349E+03  0.15303399162E+04  0.25500000920E-02 0.  1.
</event>
<event>
 5   0  0.3858721E-07  0.3198866E+04  0.7818609E-02  0.8189117E-01
       -2   -1    0    0    0  501  0.00000000000E+00  0.00000000000E+00  0.83841260158E+03  0.83841260158E+03  0.25500000920E-02 0. -1.
        2   -1    0    0  501    0  0.00000000000E+00  0.00000000000E+00 -0.30512257270E+04  0.30512257270E+04  0.25500000920E-02 0.  1.
    10030    2    1    2    0    0  0.00000000000E+00  0.00000000000E+00 -0.22128131254E+04  0.38896383286E+04  0.31988661115E+04 0.  0.
        2    1    3    3  502    0 -0.57845948223E+03  0.66323058533E+03 -0.27303599791E+04  0.28686853779E+04  0.25500000920E-02 0.  1.
       -2    1    3    3    0  502  0.57845948223E+03 -0.66323058533E+03  0.51754685363E+03  0.10209529507E+04  0.25500000920E-02 0. -1.
</event>
<event>
 5   0  0.3858721E-07  0.3217595E+04  0.7818609E-02  0.8184186E-01
        2   -1    0    0  501    0  0.00000000000E+00  0.00000000000E+00  0.16448833223E+04  0.16448833223E+04  0.25500000920E-02 0.  1.
       -2   -1    0    0    0  501  0.00000000000E+00  0.00000000000E+00 -0.15735037488E+04  0.15735037488E+04  0.25500000920E-02 0. -1.
    10030    2    1    2    0    0  0.00000000000E+00  0.00000000000E+00  0.71379573490E+02  0.32183870711E+04  0.32175954214E+04 0.  0.
        2    1    3    3  502    0  0.10062349579E+04 -0.25879295361E+03  0.12643028257E+04  0.16364425497E+04  0.25500000920E-02 0.  1.
       -2    1    3    3    0  502 -0.10062349579E+04  0.25879295361E+03 -0.11929232522E+04  0.15819445215E+04  0.25500000920E-02 0. -1.
</event>
<event>
 5   0  0.3830207E-07  0.3211397E+04  0.7818609E-02  0.8185814E-01
        2   -1    0    0  501    0  0.00000000000E+00  0.00000000000E+00  0.18371224472E+04  0.18371224472E+04  0.25500000920E-02 0.  1.
       -2   -1    0    0    0  501  0.00000000000E+00  0.00000000000E+00 -0.14034273919E+04  0.14034273920E+04  0.25500000920E-02 0. -1.
    10030    2    1    2    0    0  0.00000000000E+00  0.00000000000E+00  0.43369505521E+03  0.32405498391E+04  0.32113971817E+04 0.  0.
        4    1    3    3  502    0 -0.13725137595E+04 -0.70864836432E+02  0.10547167369E+04  0.17324101284E+04  0.12699999809E+01 0.  1.
       -4    1    3    3    0  502  0.13725137595E+04  0.70864836432E+02 -0.62102168164E+03  0.15081397107E+04  0.12699999809E+01 0. -1.
</event>
<event>
 5   0  0.3858721E-07  0.3201121E+04  0.7818609E-02  0.8188521E-01
       -2   -1    0    0    0  501  0.00000000000E+00  0.00000000000E+00  0.14723155752E+04  0.14723155752E+04  0.25500000920E-02 0. -1.
        2   -1    0    0  501    0  0.00000000000E+00  0.00000000000E+00 -0.17399763305E+04  0.17399763305E+04  0.25500000920E-02 0.  1.
    10030    2    1    2    0    0  0.00000000000E+00  0.00000000000E+00 -0.26766075528E+03  0.32122919057E+04  0.32011212110E+04 0.  0.
        2    1    3    3  502    0 -0.27018852337E+03 -0.11424847438E+04  0.95786349518E+03  0.15151817394E+04  0.25500000920E-02 0.  1.
       -2    1    3    3    0  502  0.27018852337E+03  0.11424847438E+04 -0.12255242505E+04  0.16971101663E+04  0.25500000920E-02 0. -1.
</event>
<event>
 5   0  0.3858721E-07  0.3197958E+04  0.7818609E-02  0.8189357E-01
        2   -1    0    0  501    0  0.00000000000E+00  0.00000000000E+00  0.21192693415E+04  0.21192693415E+04  0.25500000920E-02 0. -1.
       -2   -1    0    0    0  501  0.00000000000E+00  0.00000000000E+00 -0.12064226642E+04  0.12064226642E+04  0.25500000920E-02 0.  1.
    10030    2    1    2    0    0  0.00000000000E+00  0.00000000000E+00  0.91284667727E+03  0.33256920058E+04  0.31979584520E+04 0.  0.
        2    1    3    3  502    0 -0.14554764643E+04 -0.66159291659E+03  0.43057831798E+03  0.16557519782E+04  0.25500000920E-02 0.  1.
       -2    1    3    3    0  502  0.14554764643E+04  0.66159291659E+03  0.48226835928E+03  0.16699400276E+04  0.25500000920E-02 0. -1.
</event>
<event>
 5   0  0.3942564E-07  0.3200433E+04  0.7818609E-02  0.8188703E-01
       -2   -1    0    0    0  501  0.00000000000E+00  0.00000000000E+00  0.17222485198E+04  0.17222485198E+04  0.25500000920E-02 0.  1.
        2   -1    0    0  501    0  0.00000000000E+00  0.00000000000E+00 -0.14868309280E+04  0.14868309280E+04  0.25500000920E-02 0. -1.
    10030    2    1    2    0    0  0.00000000000E+00  0.00000000000E+00  0.23541759180E+03  0.32090794478E+04  0.32004326988E+04 0.  0.
        3    1    3    3  502    0 -0.10956109881E+04  0.24385022975E+03  0.12613454041E+04  0.16884367357E+04  0.10100000352E+00 0.  1.
       -3    1    3    3    0  502  0.10956109881E+04 -0.24385022975E+03 -0.10259278123E+04  0.15206427121E+04  0.10100000352E+00 0. -1.
</event>
<event>
 5   0  0.1270948E-07  0.3200080E+04  0.7818609E-02  0.8188796E-01
       -1   -1    0    0    0  501  0.00000000000E+00  0.00000000000E+00  0.15181895036E+04  0.15181895036E+04  0.50400001928E-02 0. -1.
        1   -1    0    0  501    0  0.00000000000E+00  0.00000000000E+00 -0.16863031715E+04  0.16863031715E+04  0.50400001928E-02 0.  1.
    10030    2    1    2    0    0  0.00000000000E+00  0.00000000000E+00 -0.16811366789E+03  0.32044926751E+04  0.32000798583E+04 0.  0.
        4    1    3    3  502    0  0.12239399480E+04 -0.28033829475E+03 -0.10771439062E+04  0.16543455393E+04  0.12699999809E+01 0.  1.
       -4    1    3    3    0  502 -0.12239399480E+04  0.28033829475E+03  0.90903023833E+03  0.15501471359E+04  0.12699999809E+01 0. -1.
</event>
<event>
 5   0  0.1317293E-07  0.3200625E+04  0.7818609E-02  0.8188652E-01
       -1   -1    0    0    0  501  0.00000000000E+00  0.00000000000E+00  0.12489593119E+04  0.12489593119E+04  0.50400001928E-02 0. -1.
        1   -1    0    0  501    0  0.00000000000E+00  0.00000000000E+00 -0.20505068928E+04  0.20505068928E+04  0.50400001928E-02 0.  1.
    10030    2    1    2    0    0  0.00000000000E+00  0.00000000000E+00 -0.80154758095E+03  0.32994662047E+04  0.32006247377E+04 0.  0.
        1    1    3    3  502    0  0.10434158581E+04  0.12083717952E+04 -0.28728015364E+03  0.16221618092E+04  0.50400001928E-02 0.  1.
       -1    1    3    3    0  502 -0.10434158581E+04 -0.12083717952E+04 -0.51426742731E+03  0.16773043955E+04  0.50400001928E-02 0. -1.
</event>
<event>
 5   0  0.1365455E-07  0.3200496E+04  0.7818609E-02  0.8188686E-01
        1   -1    0    0  501    0  0.00000000000E+00  0.00000000000E+00  0.24226048996E+04  0.24226048997E+04  0.50400001928E-02 0.  1.
       -1   -1    0    0    0  501  0.00000000000E+00  0.00000000000E+00 -0.10570412194E+04  0.10570412194E+04  0.50400001928E-02 0. -1.
    10030    2    1    2    0    0  0.00000000000E+00  0.00000000000E+00  0.13655636803E+04  0.34796461191E+04  0.32004957349E+04 0.  0.
        3    1    3    3  502    0  0.46128701914E+03  0.13888320935E+04 -0.21106997685E+02  0.14635866266E+04  0.10100000352E+00 0.  1.
       -3    1    3    3    0  502 -0.46128701914E+03 -0.13888320935E+04  0.13866706779E+04  0.20160594925E+04  0.10100000352E+00 0. -1.
</event>
<event>
 5   0  0.1288096E-07  0.3202749E+04  0.7818609E-02  0.8188092E-01
       -1   -1    0    0    0  501  0.00000000000E+00  0.00000000000E+00  0.12847636434E+04  0.12847636434E+04  0.50400001928E-02 0.  1.
        1   -1    0    0  501    0  0.00000000000E+00  0.00000000000E+00 -0.19960095860E+04  0.19960095860E+04  0.50400001928E-02 0. -1.
    10030    2    1    2    0    0  0.00000000000E+00  0.00000000000E+00 -0.71124594268E+03  0.32807732294E+04  0.32027491615E+04 0.  0.
        2    1    3    3  502    0  0.97614820838E+03 -0.37661179687E+03 -0.15974681423E+04  0.19096089222E+04  0.25500000920E-02 0. -1.
       -2    1    3    3    0  502 -0.97614820838E+03  0.37661179687E+03  0.88622219958E+03  0.13711643072E+04  0.25500000920E-02 0.  1.
</event>
<event>
 5   0  0.1365455E-07  0.3245060E+04  0.7818609E-02  0.8177017E-01
        1   -1    0    0  501    0  0.00000000000E+00  0.00000000000E+00  0.21088507543E+04  0.21088507543E+04  0.50400001928E-02 0.  1.
       -1   -1    0    0    0  501  0.00000000000E+00  0.00000000000E+00 -0.12483593357E+04  0.12483593357E+04  0.50400001928E-02 0. -1.
    10030    2    1    2    0    0  0.00000000000E+00  0.00000000000E+00  0.86049141852E+03  0.33572100900E+04  0.32450599543E+04 0.  0.
        3    1    3    3  502    0  0.42955367713E+03  0.16129659444E+03  0.20403321418E+04  0.20912886487E+04  0.10100000352E+00 0.  1.
       -3    1    3    3    0  502 -0.42955367713E+03 -0.16129659444E+03 -0.11798407233E+04  0.12659214413E+04  0.10100000352E+00 0. -1.
</event>
<event>
 5   0  0.3830207E-07  0.3197101E+04  0.7818609E-02  0.8189583E-01
       -2   -1    0    0    0  501  0.00000000000E+00  0.00000000000E+00  0.13614946220E+04  0.13614946220E+04  0.25500000920E-02 0. -1.
        2   -1    0    0  501    0  0.00000000000E+00  0.00000000000E+00 -0.18768814614E+04  0.18768814614E+04  0.25500000920E-02 0.  1.
    10030    2    1    2    0    0  0.00000000000E+00  0.00000000000E+00 -0.51538683940E+03  0.32383760833E+04  0.31971011969E+04 0.  0.
        4    1    3    3  502    0  0.35652060447E+03 -0.53323313165E+03 -0.17408089218E+04  0.18552255467E+04  0.12699999809E+01 0.  1.
       -4    1    3    3    0  502 -0.35652060447E+03  0.53323313165E+03  0.12254220824E+04  0.13831505366E+04  0.12699999809E+01 0. -1.
</event>
<event>
 5   0  0.3830207E-07  0.3186760E+04  0.7818609E-02  0.8192323E-01
        2   -1    0    0  501    0  0.00000000000E+00  0.00000000000E+00  0.25193413438E+04  0.25193413438E+04  0.25500000920E-02 0. -1.
       -2   -1    0    0    0  501  0.00000000000E+00  0.00000000000E+00 -0.10077473649E+04  0.10077473649E+04  0.25500000920E-02 0.  1.
    10030    2    1    2    0    0  0.00000000000E+00  0.00000000000E+00  0.15115939790E+04  0.35270887087E+04  0.31867598594E+04 0.  0.
        4    1    3    3  502    0  0.12431877252E+04 -0.79231348092E+03  0.14250020529E+04  0.20503435896E+04  0.12699999809E+01 0.  1.
       -4    1    3    3    0  502 -0.12431877252E+04  0.79231348092E+03  0.86591926121E+02  0.14767451191E+04  0.12699999809E+01 0. -1.
</event>
<event>
 5   0  0.3858721E-07  0.3201803E+04  0.7818609E-02  0.8188341E-01
       -2   -1    0    0    0  501  0.00000000000E+00  0.00000000000E+00  0.11075238911E+04  0.11075238911E+04  0.25500000920E-02 0.  1.
        2   -1    0    0  501    0  0.00000000000E+00  0.00000000000E+00 -0.23140676930E+04  0.23140676930E+04  0.25500000920E-02 0. -1.
    10030    2    1    2    0    0  0.00000000000E+00  0.00000000000E+00 -0.12065438019E+04  0.34215915841E+04  0.32018027769E+04 0.  0.
        2    1    3    3  502    0 -0.12733324942E+04 -0.18183482300E+03  0.41527980787E+03  0.13516274866E+04  0.25500000920E-02 0.  1.
       -2    1    3    3    0  502  0.12733324942E+04  0.18183482300E+03 -0.16218236098E+04  0.20699640975E+04  0.25500000920E-02 0. -1.
</event>
<event>
 5   0  0.1230450E-07  0.3206740E+04  0.7818609E-02  0.8187039E-01
       -3   -1    0    0    0  501  0.00000000000E+00  0.00000000000E+00  0.15676134723E+04  0.15676134755E+04  0.10100000352E+00 0.  1.
        3   -1    0    0  501    0  0.00000000000E+00  0.00000000000E+00 -0.16399419705E+04  0.16399419736E+04  0.10100000352E+00 0. -1.
    10030    2    1    2    0    0  0.00000000000E+00  0.00000000000E+00 -0.72328498233E+02  0.32075554491E+04  0.32067398628E+04 0.  0.
        3    1    3    3  502    0 -0.71714200770E+03 -0.14279297756E+04  0.96228862572E+02  0.16007923374E+04  0.10100000352E+00 0.  1.
       -3    1    3    3    0  502  0.71714200770E+03  0.14279297756E+04 -0.16855736080E+03  0.16067631117E+04  0.10100000352E+00 0. -1.
</event>
<event>
 5   0  0.1270948E-07  0.3199130E+04  0.7818609E-02  0.8189047E-01
       -1   -1    0    0    0  501  0.00000000000E+00  0.00000000000E+00  0.13895649037E+04  0.13895649037E+04  0.50400001928E-02 0.  1.
        1   -1    0    0  501    0  0.00000000000E+00  0.00000000000E+00 -0.18413015907E+04  0.18413015907E+04  0.50400001928E-02 0. -1.
    10030    2    1    2    0    0  0.00000000000E+00  0.00000000000E+00 -0.45173668705E+03  0.32308664944E+04  0.31991299239E+04 0.  0.
        4    1    3    3  502    0 -0.15750480921E+04  0.24190524246E+03 -0.85522779820E+02  0.15958102637E+04  0.12699999809E+01 0. -1.
       -4    1    3    3    0  502  0.15750480921E+04 -0.24190524246E+03 -0.36621390723E+03  0.16350562307E+04  0.12699999809E+01 0.  1.
</event>
<event>
 5   0  0.1365455E-07  0.3201017E+04  0.7818609E-02  0.8188549E-01
       -1   -1    0    0    0  501  0.00000000000E+00  0.00000000000E+00  0.12921784804E+04  0.12921784804E+04  0.50400001928E-02 0. -1.
        1   -1    0    0  501    0  0.00000000000E+00  0.00000000000E+00 -0.19824098312E+04  0.19824098312E+04  0.50400001928E-02 0.  1.
    10030    2    1    2    0    0  0.00000000000E+00  0.00000000000E+00 -0.69023135085E+03  0.32745883116E+04  0.32010169154E+04 0.  0.
        3    1    3    3  502    0 -0.48766504142E+03  0.14260348346E+04 -0.89623223236E+03  0.17534607970E+04  0.10100000352E+00 0. -1.
       -3    1    3    3    0  502  0.48766504142E+03 -0.14260348346E+04  0.20600088150E+03  0.15211275146E+04  0.10100000352E+00 0.  1.
</event>
<event>
 5   0  0.1270948E-07  0.3192671E+04  0.7818609E-02  0.8190756E-01
       -1   -1    0    0    0  501  0.00000000000E+00  0.00000000000E+00  0.14041483258E+04  0.14041483258E+04  0.50400001928E-02 0.  1.
        1   -1    0    0  501    0  0.00000000000E+00  0.00000000000E+00 -0.18148271090E+04  0.18148271090E+04  0.50400001928E-02 0. -1.
    10030    2    1    2    0    0  0.00000000000E+00  0.00000000000E+00 -0.41067878319E+03  0.32189754348E+04  0.31926706356E+04 0.  0.
        4    1    3    3  502    0  0.58199328584E+03 -0.36171855730E+03 -0.16589979598E+04  0.17949463343E+04  0.12699999809E+01 0. -1.
       -4    1    3    3    0  502 -0.58199328584E+03  0.36171855730E+03  0.12483191766E+04  0.14240291005E+04  0.12699999809E+01 0.  1.
</event>
<event>
 5   0  0.1270948E-07  0.3198098E+04  0.7818609E-02  0.8189320E-01
        1   -1    0    0  501    0  0.00000000000E+00  0.00000000000E+00  0.17125785869E+04  0.17125785869E+04  0.50400001928E-02 0. -1.
       -1   -1    0    0    0  501  0.00000000000E+00  0.00000000000E+00 -0.14930457055E+04  0.14930457055E+04  0.50400001928E-02 0.  1.
    10030    2    1    2    0    0  0.00000000000E+00  0.00000000000E+00  0.21953288133E+03  0.32056242924E+04  0.31980982502E+04 0.  0.
        4    1    3    3  502    0 -0.14509344852E+03  0.71319442080E+02 -0.14848317583E+04  0.14936082267E+04  0.12699999809E+01 0.  1.
       -4    1    3    3    0  502  0.14509344852E+03 -0.71319442080E+02  0.17043646396E+04  0.17120160657E+04  0.12699999809E+01 0. -1.
</event>
<event>
 5   0  0.3750285E-07  0.3198800E+04  0.7818609E-02  0.8189134E-01
        2   -1    0    0  501    0  0.00000000000E+00  0.00000000000E+00  0.24140934198E+04  0.24140934198E+04  0.25500000920E-02 0. -1.
       -2   -1    0    0    0  501  0.00000000000E+00  0.00000000000E+00 -0.10596440293E+04  0.10596440293E+04  0.25500000920E-02 0.  1.
    10030    2    1    2    0    0  0.00000000000E+00  0.00000000000E+00  0.13544493905E+04  0.34737374490E+04  0.31987995738E+04 0.  0.
        1    1    3    3  502    0 -0.12840899745E+04  0.71074329565E+03 -0.13047382720E+02  0.14677238599E+04  0.50400001928E-02 0.  1.
       -1    1    3    3    0  502  0.12840899745E+04 -0.71074329565E+03  0.13674967732E+04  0.20060135891E+04  0.50400001928E-02 0. -1.
</event>
<event>
 5   0  0.3858721E-07  0.3199333E+04  0.7818609E-02  0.8188993E-01
       -2   -1    0    0    0  501  0.00000000000E+00  0.00000000000E+00  0.14248405855E+04  0.14248405856E+04  0.25500000920E-02 0.  1.
        2   -1    0    0  501    0  0.00000000000E+00  0.00000000000E+00 -0.17959430505E+04  0.17959430505E+04  0.25500000920E-02 0. -1.
    10030    2    1    2    0    0  0.00000000000E+00  0.00000000000E+00 -0.37110246494E+03  0.32207836360E+04  0.31993327727E+04 0.  0.
        2    1    3    3  502    0 -0.48374637242E+03  0.44744996197E+03  0.12818606145E+04  0.14413149054E+04  0.25500000920E-02 0.  1.
       -2    1    3    3    0  502  0.48374637242E+03 -0.44744996197E+03 -0.16529630795E+04  0.17794687307E+04  0.25500000920E-02 0. -1.
</event>
<event>
 5   0  0.3942564E-07  0.3197557E+04  0.7818609E-02  0.8189463E-01
       -2   -1    0    0    0  501  0.00000000000E+00  0.00000000000E+00  0.11016195937E+04  0.11016195937E+04  0.25500000920E-02 0. -1.
        2   -1    0    0  501    0  0.00000000000E+00  0.00000000000E+00 -0.23203047166E+04  0.23203047166E+04  0.25500000920E-02 0.  1.
    10030    2    1    2    0    0  0.00000000000E+00  0.00000000000E+00 -0.12186851228E+04  0.34219243103E+04  0.31975572797E+04 0.  0.
        3    1    3    3  502    0 -0.19498360777E+03 -0.15713324509E+04 -0.84620745158E+03  0.17953192863E+04  0.10100000352E+00 0. -1.
       -3    1    3    3    0  502  0.19498360777E+03  0.15713324509E+04 -0.37247767124E+03  0.16266050240E+04  0.10100000352E+00 0.  1.
</event>
<event>
 5   0  0.3764056E-07  0.3183631E+04  0.7818609E-02  0.8193154E-01
        2   -1    0    0  501    0  0.00000000000E+00  0.00000000000E+00  0.14819716873E+04  0.14819716873E+04  0.25500000920E-02 0.  1.
       -2   -1    0    0    0  501  0.00000000000E+00  0.00000000000E+00 -0.17098010930E+04  0.17098010930E+04  0.25500000920E-02 0. -1.
    10030    2    1    2    0    0  0.00000000000E+00  0.00000000000E+00 -0.22782940572E+03  0.31917727803E+04  0.31836311411E+04 0.  0.
        5    1    3    3  502    0 -0.50303962143E+03  0.56720651691E+03  0.12893370689E+04  0.14957219865E+04  0.46999998093E+01 0.  1.
       -5    1    3    3    0  502  0.50303962143E+03 -0.56720651691E+03 -0.15171664746E+04  0.16960507938E+04  0.46999998093E+01 0. -1.
</event>
<event>
 5   0  0.1277374E-07  0.3197973E+04  0.7818609E-02  0.8189353E-01
        1   -1    0    0  501    0  0.00000000000E+00  0.00000000000E+00  0.23978758237E+04  0.23978758237E+04  0.50400001928E-02 0. -1.
       -1   -1    0    0    0  501  0.00000000000E+00  0.00000000000E+00 -0.10662595034E+04  0.10662595034E+04  0.50400001928E-02 0.  1.
    10030    2    1    2    0    0  0.00000000000E+00  0.00000000000E+00  0.13316163204E+04  0.34641353271E+04  0.31979730361E+04 0.  0.
        5    1    3    3  502    0 -0.24661474247E+03 -0.60589333527E+03 -0.91467009891E+03  0.11245305886E+04  0.46999998093E+01 0.  1.
       -5    1    3    3    0  502  0.24661474247E+03  0.60589333527E+03  0.22462864193E+04  0.23396047385E+04  0.46999998093E+01 0. -1.
</event>
<event>
 5   0  0.1288096E-07  0.3205786E+04  0.7818609E-02  0.8187291E-01
        1   -1    0    0  501    0  0.00000000000E+00  0.00000000000E+00  0.17315203680E+04  0.17315203680E+04  0.50400001928E-02 0.  1.
       -1   -1    0    0    0  501  0.00000000000E+00  0.00000000000E+00 -0.14838205156E+04  0.14838205156E+04  0.50400001928E-02 0. -1.
    10030    2    1    2    0    0  0.00000000000E+00  0.00000000000E+00  0.24769985238E+03  0.32153408837E+04  0.32057856730E+04 0.  0.
        2    1    3    3  502    0  0.43456236580E+03  0.94473306572E+03  0.13472809064E+04  0.17019197560E+04  0.25500000920E-02 0.  1.
       -2    1    3    3    0  502 -0.43456236580E+03 -0.94473306572E+03 -0.10995810540E+04  0.15134211276E+04  0.25500000920E-02 0. -1.
</event>
<event>
 5   0  0.1277374E-07  0.3200343E+04  0.7818609E-02  0.8188726E-01
       -1   -1    0    0    0  501  0.00000000000E+00  0.00000000000E+00  0.13632781647E+04  0.13632781647E+04  0.50400001928E-02 0.  1.
        1   -1    0    0  501    0  0.00000000000E+00  0.00000000000E+00 -0.18782296034E+04  0.18782296034E+04  0.50400001928E-02 0. -1.
    10030    2    1    2    0    0  0.00000000000E+00  0.00000000000E+00 -0.51495143871E+03  0.32415077681E+04  0.32003433607E+04 0.  0.
        5    1    3    3  502    0  0.61333656668E+03 -0.13923088303E+04  0.24470564720E+03  0.15409764978E+04  0.46999998093E+01 0.  1.
       -5    1    3    3    0  502 -0.61333656668E+03  0.13923088303E+04 -0.75965708590E+03  0.17005312703E+04  0.46999998093E+01 0. -1.
</event>
<event>
 5   0  0.3858721E-07  0.3199205E+04  0.7818609E-02  0.8189027E-01
       -2   -1    0    0    0  501  0.00000000000E+00  0.00000000000E+00  0.14756366263E+04  0.14756366263E+04  0.25500000920E-02 0. -1.
        2   -1    0    0  501    0  0.00000000000E+00  0.00000000000E+00 -0.17339826814E+04  0.17339826814E+04  0.25500000920E-02 0.  1.
    10030    2    1    2    0    0  0.00000000000E+00  0.00000000000E+00 -0.25834605513E+03  0.32096193077E+04  0.31992051226E+04 0.  0.
        2    1    3    3  502    0 -0.88105968123E+02 -0.54438665789E+02  0.14722693999E+04  0.14759076583E+04  0.25500000920E-02 0. -1.
       -2    1    3    3    0  502  0.88105968123E+02  0.54438665789E+02 -0.17306154550E+04  0.17337116494E+04  0.25500000920E-02 0.  1.
</event>
<event>
 5   0  0.3750285E-07  0.3198050E+04  0.7818609E-02  0.8189332E-01
       -2   -1    0    0    0  501  0.00000000000E+00  0.00000000000E+00  0.16971901527E+04  0.16971901527E+04  0.25500000920E-02 0. -1.
        2   -1    0    0  501    0  0.00000000000E+00  0.00000000000E+00 -0.15065379357E+04  0.15065379357E+04  0.25500000920E-02 0.  1.
    10030    2    1    2    0    0  0.00000000000E+00  0.00000000000E+00  0.19065221699E+03  0.32037280884E+04  0.31980502493E+04 0.  0.
        1    1    3    3  502    0  0.93585186042E+03  0.59898060995E+03 -0.10566219058E+04  0.15333122081E+04  0.50400001928E-02 0.  1.
       -1    1    3    3    0  502 -0.93585186042E+03 -0.59898060995E+03  0.12472741228E+04  0.16704158803E+04  0.50400001928E-02 0. -1.
</event>
<event>
 5   0  0.3750285E-07  0.3200170E+04  0.7818609E-02  0.8188772E-01
       -2   -1    0    0    0  501  0.00000000000E+00  0.00000000000E+00  0.16470238850E+04  0.16470238850E+04  0.25500000920E-02 0. -1.
        2   -1    0    0  501    0  0.00000000000E+00  0.00000000000E+00 -0.15544835031E+04  0.15544835031E+04  0.25500000920E-02 0.  1.
    10030    2    1    2    0    0  0.00000000000E+00  0.00000000000E+00  0.92540381913E+02  0.32015073881E+04  0.32001696570E+04 0.  0.
        1    1    3    3  502    0  0.56896706804E+02 -0.66016432753E+03  0.15033189451E+04  0.16428700573E+04  0.50400001928E-02 0. -1.
       -1    1    3    3    0  502 -0.56896706804E+02  0.66016432753E+03 -0.14107785632E+04  0.15586373308E+04  0.50400001928E-02 0.  1.
</event>
<event>
 5   0  0.3942564E-07  0.3202533E+04  0.7818609E-02  0.8188149E-01
        2   -1    0    0  501    0  0.00000000000E+00  0.00000000000E+00  0.18138249885E+04  0.18138249885E+04  0.25500000920E-02 0. -1.
       -2   -1    0    0    0  501  0.00000000000E+00  0.00000000000E+00 -0.14136172169E+04  0.14136172169E+04  0.25500000920E-02 0.  1.
    10030    2    1    2    0    0  0.00000000000E+00  0.00000000000E+00  0.40020777164E+03  0.32274422054E+04  0.32025328927E+04 0.  0.
        3    1    3    3  502    0 -0.12921838613E+04  0.41500188709E+03  0.10564712270E+04  0.17199119633E+04  0.10100000352E+00 0. -1.
       -3    1    3    3    0  502  0.12921838613E+04 -0.41500188709E+03 -0.65626345539E+03  0.15075302421E+04  0.10100000352E+00 0.  1.
</event>
<event>
 5   0  0.1270948E-07  0.3215181E+04  0.7818609E-02  0.8184819E-01
       -1   -1    0    0    0  501  0.00000000000E+00  0.00000000000E+00  0.14781913227E+04  0.14781913227E+04  0.50400001928E-02 0. -1.
        1   -1    0    0  501    0  0.00000000000E+00  0.00000000000E+00 -0.17483176455E+04  0.17483176456E+04  0.50400001928E-02 0.  1.
    10030    2    1    2    0    0  0.00000000000E+00  0.00000000000E+00 -0.27012632283E+03  0.32265089683E+04  0.32151814711E+04 0.  0.
        4    1    3    3  502    0  0.70649154638E+03  0.17991138383E+03  0.13027610016E+04  0.14928785119E+04  0.12699999809E+01 0. -1.
       -4    1    3    3    0  502 -0.70649154638E+03 -0.17991138383E+03 -0.15728873244E+04  0.17336304564E+04  0.12699999809E+01 0.  1.
</event>
<event>
 5   0  0.3942564E-07  0.3203095E+04  0.7818609E-02  0.8188000E-01
       -2   -1    0    0    0  501  0.00000000000E+00  0.00000000000E+00  0.12917413154E+04  0.12917413154E+04  0.25500000920E-02 0.  1.
        2   -1    0    0  501    0  0.00000000000E+00  0.00000000000E+00 -0.19856569878E+04  0.19856569878E+04  0.25500000920E-02 0. -1.
    10030    2    1    2    0    0  0.00000000000E+00  0.00000000000E+00 -0.69391567239E+03  0.32773983033E+04  0.32030954837E+04 0.  0.
        3    1    3    3  502    0  0.12146467435E+04  0.96817314285E+03 -0.74617420578E+03  0.17232242749E+04  0.10100000352E+00 0. -1.
       -3    1    3    3    0  502 -0.12146467435E+04 -0.96817314285E+03  0.52258533388E+02  0.15541740284E+04  0.10100000352E+00 0.  1.
</event>
<event>
 5   0  0.1288096E-07  0.3197573E+04  0.7818609E-02  0.8189459E-01
       -1   -1    0    0    0  501  0.00000000000E+00  0.00000000000E+00  0.11985397203E+04  0.11985397203E+04  0.50400001928E-02 0.  1.
        1   -1    0    0  501    0  0.00000000000E+00  0.00000000000E+00 -0.21326932839E+04  0.21326932839E+04  0.50400001928E-02 0. -1.
    10030    2    1    2    0    0  0.00000000000E+00  0.00000000000E+00 -0.93415356357E+03  0.33312330042E+04  0.31975725868E+04 0.  0.
        2    1    3    3  502    0  0.11263673993E+04 -0.78204679077E+03  0.38936752355E+03  0.14254500235E+04  0.25500000920E-02 0.  1.
       -2    1    3    3    0  502 -0.11263673993E+04  0.78204679077E+03 -0.13235210871E+04  0.19057829806E+04  0.25500000920E-02 0. -1.
</event>
<event>
 5   0  0.1230450E-07  0.3199034E+04  0.7818609E-02  0.8189072E-01
       -4   -1    0    0    0  501  0.00000000000E+00  0.00000000000E+00  0.12735834743E+04  0.12735841075E+04  0.12699999809E+01 0.  1.
        4   -1    0    0  501    0  0.00000000000E+00  0.00000000000E+00 -0.20088621258E+04  0.20088625272E+04  0.12699999809E+01 0. -1.
    10030    2    1    2    0    0  0.00000000000E+00  0.00000000000E+00 -0.73527865144E+03  0.32824466348E+04  0.31990344191E+04 0.  0.
        2    1    3    3  502    0  0.40085244398E+03 -0.51048881433E+03  0.11323863101E+04  0.13052127285E+04  0.25500000920E-02 0.  1.
       -2    1    3    3    0  502 -0.40085244398E+03  0.51048881433E+03 -0.18676649615E+04  0.19772339062E+04  0.25500000920E-02 0. -1.
</event>
<event>
 5   0  0.3942564E-07  0.3190651E+04  0.7818609E-02  0.8191291E-01
        2   -1    0    0  501    0  0.00000000000E+00  0.00000000000E+00  0.12261774715E+04  0.12261774715E+04  0.25500000920E-02 0. -1.
       -2   -1    0    0    0  501  0.00000000000E+00  0.00000000000E+00 -0.20756081649E+04  0.20756081649E+04  0.25500000920E-02 0.  1.
    10030    2    1    2    0    0  0.00000000000E+00  0.00000000000E+00 -0.84943069336E+03  0.33017856364E+04  0.31906513263E+04 0.  0.
        3    1    3    3  502    0 -0.14780368972E+04  0.50028125835E+03 -0.76822562784E+03  0.17392656590E+04  0.10100000352E+00 0.  1.
       -3    1    3    3    0  502  0.14780368972E+04 -0.50028125835E+03 -0.81205065523E+02  0.15625199774E+04  0.10100000352E+00 0. -1.
</event>
<event>
 5   0  0.1288096E-07  0.3196855E+04  0.7818609E-02  0.8189648E-01
        1   -1    0    0  501    0  0.00000000000E+00  0.00000000000E+00  0.18225618248E+04  0.18225618248E+04  0.50400001928E-02 0. -1.
       -1   -1    0    0    0  501  0.00000000000E+00  0.00000000000E+00 -0.14018569648E+04  0.14018569648E+04  0.50400001928E-02 0.  1.
    10030    2    1    2    0    0  0.00000000000E+00  0.00000000000E+00  0.42070485993E+03  0.32244187896E+04  0.31968553223E+04 0.  0.
        2    1    3    3  502    0 -0.78012256619E+03 -0.16229137126E+03  0.16079551722E+04  0.17945611004E+04  0.25500000920E-02 0. -1.
       -2    1    3    3    0  502  0.78012256619E+03  0.16229137126E+03 -0.11872503122E+04  0.14298576892E+04  0.25500000920E-02 0.  1.
</event>
<event>
 5   0  0.1288096E-07  0.3202322E+04  0.7818609E-02  0.8188204E-01
       -1   -1    0    0    0  501  0.00000000000E+00  0.00000000000E+00  0.11620478310E+04  0.11620478310E+04  0.50400001928E-02 0. -1.
        1   -1    0    0  501    0  0.00000000000E+00  0.00000000000E+00 -0.22062051834E+04  0.22062051834E+04  0.50400001928E-02 0.  1.
    10030    2    1    2    0    0  0.00000000000E+00  0.00000000000E+00 -0.10441573525E+04  0.33682530144E+04  0.32023216254E+04 0.  0.
        2    1    3    3  502    0 -0.15830204284E+04  0.24638406155E+02 -0.27061937144E+03  0.16061742035E+04  0.25500000920E-02 0. -1.
       -2    1    3    3    0  502  0.15830204284E+04 -0.24638406155E+02 -0.77353798102E+03  0.17620788109E+04  0.25500000920E-02 0.  1.
</event>
<event>
 5   0  0.1230450E-07  0.3201618E+04  0.7818609E-02  0.8188390E-01
       -3   -1    0    0    0  501  0.00000000000E+00  0.00000000000E+00  0.14254925776E+04  0.14254925812E+04  0.10100000352E+00 0. -1.
        3   -1    0    0  501    0  0.00000000000E+00  0.00000000000E+00 -0.17976865197E+04  0.17976865225E+04  0.10100000352E+00 0.  1.
    10030    2    1    2    0    0  0.00000000000E+00  0.00000000000E+00 -0.37219394212E+03  0.32231791037E+04  0.32016175918E+04 0.  0.
        2    1    3    3  502    0 -0.10141644923E+04 -0.81800450170E+03  0.75018123423E+03  0.15034736002E+04  0.25500000920E-02 0. -1.
       -2    1    3    3    0  502  0.10141644923E+04  0.81800450170E+03 -0.11223751763E+04  0.17197055035E+04  0.25500000920E-02 0.  1.
</event>
<event>
 5   0  0.3858721E-07  0.3200422E+04  0.7818609E-02  0.8188706E-01
       -2   -1    0    0    0  501  0.00000000000E+00  0.00000000000E+00  0.10890173445E+04  0.10890173445E+04  0.25500000920E-02 0.  1.
        2   -1    0    0  501    0  0.00000000000E+00  0.00000000000E+00 -0.23513628427E+04  0.23513628427E+04  0.25500000920E-02 0. -1.
    10030    2    1    2    0    0  0.00000000000E+00  0.00000000000E+00 -0.12623454983E+04  0.34403801872E+04  0.32004217965E+04 0.  0.
        2    1    3    3  502    0  0.61223031444E+03  0.11109132369E+04 -0.16798793110E+04  0.21049818711E+04  0.25500000920E-02 0. -1.
       -2    1    3    3    0  502 -0.61223031444E+03 -0.11109132369E+04  0.41753381276E+03  0.13353983161E+04  0.25500000920E-02 0.  1.
</event>
<event>
 5   0  0.3858721E-07  0.3197548E+04  0.7818609E-02  0.8189465E-01
        2   -1    0    0  501    0  0.00000000000E+00  0.00000000000E+00  0.17531862592E+04  0.17531862592E+04  0.25500000920E-02 0.  1.
       -2   -1    0    0    0  501  0.00000000000E+00  0.00000000000E+00 -0.14579612766E+04  0.14579612766E+04  0.25500000920E-02 0. -1.
    10030    2    1    2    0    0  0.00000000000E+00  0.00000000000E+00  0.29522498266E+03  0.32111475358E+04  0.31975476081E+04 0.  0.
        2    1    3    3  502    0 -0.95066525015E+02 -0.12537766555E+04  0.11392758907E+04  0.16967448544E+04  0.25500000920E-02 0.  1.
       -2    1    3    3    0  502  0.95066525015E+02  0.12537766555E+04 -0.84405090799E+03  0.15144026814E+04  0.25500000920E-02 0. -1.
</event>
<event>
 5   0  0.1365455E-07  0.3201371E+04  0.7818609E-02  0.8188455E-01
       -1   -1    0    0    0  501  0.00000000000E+00  0.00000000000E+00  0.12003191900E+04  0.12003191901E+04  0.50400001928E-02 0. -1.
        1   -1    0    0  501    0  0.00000000000E+00  0.00000000000E+00 -0.21345938841E+04  0.21345938842E+04  0.50400001928E-02 0.  1.
    10030    2    1    2    0    0  0.00000000000E+00  0.00000000000E+00 -0.93427469410E+03  0.33349130742E+04  0.32013709577E+04 0.  0.
        3    1    3    3  502    0  0.11829473428E+03  0.15920794604E+04 -0.58809887262E+03  0.17013438648E+04  0.10100000352E+00 0.  1.
       -3    1    3    3    0  502 -0.11829473428E+03 -0.15920794604E+04 -0.34617582148E+03  0.16335692094E+04  0.10100000352E+00 0. -1.
</event>
<event>
 5   0  0.3830207E-07  0.3199461E+04  0.7818609E-02  0.8188959E-01
       -2   -1    0    0    0  501  0.00000000000E+00  0.00000000000E+00  0.87675272600E+03  0.87675272601E+03  0.25500000920E-02 0. -1.
        2   -1    0    0  501    0  0.00000000000E+00  0.00000000000E+00 -0.29188828124E+04  0.29188828124E+04  0.25500000920E-02 0.  1.
    10030    2    1    2    0    0  0.00000000000E+00  0.00000000000E+00 -0.20421300864E+04  0.37956355384E+04  0.31994614939E+04 0.  0.
        4    1    3    3  502    0 -0.13926703252E+04 -0.77684980423E+03 -0.11716437044E+04  0.19788321899E+04  0.12699999809E+01 0. -1.
       -4    1    3    3    0  502  0.13926703252E+04  0.77684980423E+03 -0.87048638206E+03  0.18168033485E+04  0.12699999809E+01 0.  1.
</event>
<event>
 5   0  0.1317293E-07  0.3199776E+04  0.7818609E-02  0.8188876E-01
        1   -1    0    0  501    0  0.00000000000E+00  0.00000000000E+00  0.15519939407E+04  0.15519939407E+04  0.50400001928E-02 0.  1.
       -1   -1    0    0    0  501  0.00000000000E+00  0.00000000000E+00 -0.16492603508E+04  0.16492603508E+04  0.50400001928E-02 0. -1.
    10030    2    1    2    0    0  0.00000000000E+00  0.00000000000E+00 -0.97266410049E+02  0.32012542915E+04  0.31997762867E+04 0.  0.
        1    1    3    3  502    0 -0.11263860083E+03  0.12794572433E+04  0.90571714764E+03  0.15716303138E+04  0.50400001928E-02 0.  1.
       -1    1    3    3    0  502  0.11263860083E+03 -0.12794572433E+04 -0.10029835577E+04  0.16296239777E+04  0.50400001928E-02 0. -1.
</event>
<event>
 5   0  0.3858721E-07  0.3195161E+04  0.7818609E-02  0.8190096E-01
       -2   -1    0    0    0  501  0.00000000000E+00  0.00000000000E+00  0.16189862344E+04  0.16189862344E+04  0.25500000920E-02 0.  1.
        2   -1    0    0  501    0  0.00000000000E+00  0.00000000000E+00 -0.15764577974E+04  0.15764577974E+04  0.25500000920E-02 0. -1.
    10030    2    1    2    0    0  0.00000000000E+00  0.00000000000E+00  0.42528437043E+02  0.31954440318E+04  0.31951610119E+04 0.  0.
        2    1    3    3  502    0  0.85699841301E+03  0.12600783860E+04  0.50091034367E+03  0.16041056671E+04  0.25500000920E-02 0. -1.
       -2    1    3    3    0  502 -0.85699841301E+03 -0.12600783860E+04 -0.45838190663E+03  0.15913383647E+04  0.25500000920E-02 0.  1.
</event>
<event>
 5   0  0.1277374E-07  0.3195049E+04  0.7818609E-02  0.8190126E-01
        1   -1    0    0  501    0  0.00000000000E+00  0.00000000000E+00  0.21487016872E+04  0.21487016872E+04  0.50400001928E-02 0.  1.
       -1   -1    0    0    0  501  0.00000000000E+00  0.00000000000E+00 -0.11877333285E+04  0.11877333285E+04  0.50400001928E-02 0. -1.
    10030    2    1    2    0    0  0.00000000000E+00  0.00000000000E+00  0.96096835869E+03  0.33364350156E+04  0.31950490493E+04 0.  0.
        5    1    3    3  502    0 -0.12653198861E+04 -0.73710404814E+03 -0.18628965007E+03  0.14761716417E+04  0.46999998093E+01 0. -1.
       -5    1    3    3    0  502  0.12653198861E+04  0.73710404814E+03  0.11472580088E+04  0.18602633740E+04  0.46999998093E+01 0.  1.
</event>
<event>
 5   0  0.3750285E-07  0.3205613E+04  0.7818609E-02  0.8187336E-01
       -2   -1    0    0    0  501  0.00000000000E+00  0.00000000000E+00  0.10639662224E+04  0.10639662225E+04  0.25500000920E-02 0. -1.
        2   -1    0    0  501    0  0.00000000000E+00  0.00000000000E+00 -0.24145401600E+04  0.24145401600E+04  0.25500000920E-02 0.  1.
    10030    2    1    2    0    0  0.00000000000E+00  0.00000000000E+00 -0.13505739375E+04  0.34785063824E+04  0.32056133098E+04 0.  0.
        1    1    3    3  502    0 -0.12057155209E+03  0.55247539860E+02 -0.24085756261E+04  0.24122243545E+04  0.50400001928E-02 0.  1.
       -1    1    3    3    0  502  0.12057155209E+03 -0.55247539860E+02  0.10580016886E+04  0.10662820279E+04  0.50400001928E-02 0. -1.
</event>
<event>
 5   0  0.1230450E-07  0.3193813E+04  0.7818609E-02  0.8190453E-01
        4   -1    0    0  501    0  0.00000000000E+00  0.00000000000E+00  0.16038380294E+04  0.16038385322E+04  0.12699999809E+01 0. -1.
       -4   -1    0    0    0  501  0.00000000000E+00  0.00000000000E+00 -0.15900034565E+04  0.15900039637E+04  0.12699999809E+01 0.  1.
    10030    2    1    2    0    0  0.00000000000E+00  0.00000000000E+00  0.13834572831E+02  0.31938424960E+04  0.31938125326E+04 0.  0.
        4    1    3    3  502    0  0.27316720690E+03 -0.13136169690E+04  0.87289200721E+03  0.16006723379E+04  0.12699999809E+01 0. -1.
       -4    1    3    3    0  502 -0.27316720690E+03  0.13136169690E+04 -0.85905743438E+03  0.15931701581E+04  0.12699999809E+01 0.  1.
</event>
<event>
 5   0  0.1317293E-07  0.3202453E+04  0.7818609E-02  0.8188170E-01
        1   -1    0    0  501    0  0.00000000000E+00  0.00000000000E+00  0.20412083653E+04  0.20412083653E+04  0.50400001928E-02 0. -1.
       -1   -1    0    0    0  501  0.00000000000E+00  0.00000000000E+00 -0.12560828165E+04  0.12560828165E+04  0.50400001928E-02 0.  1.
    10030    2    1    2    0    0  0.00000000000E+00  0.00000000000E+00  0.78512554881E+03  0.32972911818E+04  0.32024532800E+04 0.  0.
        1    1    3    3  502    0  0.12544526182E+04  0.96818202480E+03  0.62937167209E+03  0.17050326995E+04  0.50400001928E-02 0.  1.
       -1    1    3    3    0  502 -0.12544526182E+04 -0.96818202480E+03  0.15575387672E+03  0.15922584824E+04  0.50400001928E-02 0. -1.
</event>
<event>
 5   0  0.1270948E-07  0.3200342E+04  0.7818609E-02  0.8188727E-01
        1   -1    0    0  501    0  0.00000000000E+00  0.00000000000E+00  0.15246526608E+04  0.15246526608E+04  0.50400001928E-02 0. -1.
       -1   -1    0    0    0  501  0.00000000000E+00  0.00000000000E+00 -0.16794302810E+04  0.16794302811E+04  0.50400001928E-02 0.  1.
    10030    2    1    2    0    0  0.00000000000E+00  0.00000000000E+00 -0.15477762028E+03  0.32040829418E+04  0.32003423858E+04 0.  0.
        4    1    3    3  502    0 -0.36884068182E+03  0.11138534848E+04 -0.11667015027E+04  0.16546622143E+04  0.12699999809E+01 0.  1.
       -4    1    3    3    0  502  0.36884068182E+03 -0.11138534848E+04  0.10119238824E+04  0.15494207275E+04  0.12699999809E+01 0. -1.
</event>
<event>
 5   0  0.1270948E-07  0.3290463E+04  0.7818609E-02  0.8165326E-01
       -1   -1    0    0    0  501  0.00000000000E+00  0.00000000000E+00  0.13307835087E+04  0.13307835088E+04  0.50400001928E-02 0.  1.
        1   -1    0    0  501    0  0.00000000000E+00  0.00000000000E+00 -0.20339801008E+04  0.20339801008E+04  0.50400001928E-02 0. -1.
    10030    2    1    2    0    0  0.00000000000E+00  0.00000000000E+00 -0.70319659202E+03  0.33647636095E+04  0.32904632958E+04 0.  0.
        4    1    3    3  502    0 -0.12571488834E+04 -0.84852574768E+02 -0.14333909833E+04  0.19084639369E+04  0.12699999809E+01 0. -1.
       -4    1    3    3    0  502  0.12571488834E+04  0.84852574768E+02  0.73019439128E+03  0.14562996726E+04  0.12699999809E+01 0.  1.
</event>
<event>
 5   0  0.3858721E-07  0.3197368E+04  0.7818609E-02  0.8189513E-01
        2   -1    0    0  501    0  0.00000000000E+00  0.00000000000E+00  0.15302296976E+04  0.15302296976E+04  0.25500000920E-02 0.  1.
       -2   -1    0    0    0  501  0.00000000000E+00  0.00000000000E+00 -0.16702007286E+04  0.16702007286E+04  0.25500000920E-02 0. -1.
    10030    2    1    2    0    0  0.00000000000E+00  0.00000000000E+00 -0.13997103101E+03  0.32004304263E+04  0.31973681402E+04 0.  0.
        2    1    3    3  502    0 -0.20826682213E+03  0.25692846993E+03 -0.16355818199E+04  0.16686866684E+04  0.25500000920E-02 0. -1.
       -2    1    3    3    0  502  0.20826682213E+03 -0.25692846993E+03  0.14956107889E+04  0.15317437578E+04  0.25500000920E-02 0.  1.
</event>
<event>
 5   0  0.3858721E-07  0.3198365E+04  0.7818609E-02  0.8189249E-01
       -2   -1    0    0    0  501  0.00000000000E+00  0.00000000000E+00  0.10609446718E+04  0.10609446718E+04  0.25500000920E-02 0. -1.
        2   -1    0    0  501    0  0.00000000000E+00  0.00000000000E+00 -0.24104782103E+04  0.24104782103E+04  0.25500000920E-02 0.  1.
    10030    2    1    2    0    0  0.00000000000E+00  0.00000000000E+00 -0.13495335385E+04  0.34714228821E+04  0.31983645906E+04 0.  0.
        2    1    3    3  502    0  0.30933825348E+03  0.18643907499E+03 -0.23656303328E+04  0.23930433667E+04  0.25500000920E-02 0.  1.
       -2    1    3    3    0  502 -0.30933825348E+03 -0.18643907499E+03  0.10160967943E+04  0.10783795153E+04  0.25500000920E-02 0. -1.
</event>
<event>
 5   0  0.3830207E-07  0.3199367E+04  0.7818609E-02  0.8188984E-01
       -2   -1    0    0    0  501  0.00000000000E+00  0.00000000000E+00  0.24956248889E+04  0.24956248889E+04  0.25500000920E-02 0.  1.
        2   -1    0    0  501    0  0.00000000000E+00  0.00000000000E+00 -0.10253893972E+04  0.10253893972E+04  0.25500000920E-02 0. -1.
    10030    2    1    2    0    0  0.00000000000E+00  0.00000000000E+00  0.14702354917E+04  0.35210142861E+04  0.31993670001E+04 0.  0.
        4    1    3    3  502    0  0.97573087105E+03 -0.12546470391E+04  0.93442017379E+03  0.18437279082E+04  0.12699999809E+01 0. -1.
       -4    1    3    3    0  502 -0.97573087105E+03  0.12546470391E+04  0.53581531793E+03  0.16772863779E+04  0.12699999809E+01 0.  1.
</event>
<event>
 5   0  0.3764056E-07  0.3210119E+04  0.7818609E-02  0.8186150E-01
       -2   -1    0    0    0  501  0.00000000000E+00  0.00000000000E+00  0.11709593770E+04  0.11709593770E+04  0.25500000920E-02 0. -1.
        2   -1    0    0  501    0  0.00000000000E+00  0.00000000000E+00 -0.22000904416E+04  0.22000904416E+04  0.25500000920E-02 0.  1.
    10030    2    1    2    0    0  0.00000000000E+00  0.00000000000E+00 -0.10291310646E+04  0.33710498186E+04  0.32101193329E+04 0.  0.
        5    1    3    3  502    0 -0.98844808759E+03 -0.11805194272E+04 -0.38473624876E+02  0.15401811743E+04  0.46999998093E+01 0. -1.
       -5    1    3    3    0  502  0.98844808759E+03  0.11805194272E+04 -0.99065743975E+03  0.18308686443E+04  0.46999998093E+01 0.  1.
</event>
<event>
 5   0  0.3858721E-07  0.3197536E+04  0.7818609E-02  0.8189468E-01
        2   -1    0    0  501    0  0.00000000000E+00  0.00000000000E+00  0.15565941705E+04  0.15565941705E+04  0.25500000920E-02 0.  1.
       -2   -1    0    0    0  501  0.00000000000E+00  0.00000000000E+00 -0.16420849846E+04  0.16420849846E+04  0.25500000920E-02 0. -1.
    10030    2    1    2    0    0  0.00000000000E+00  0.00000000000E+00 -0.85490814139E+02  0.31986791552E+04  0.31975364984E+04 0.  0.
        2    1    3    3  502    0  0.46250715929E+03 -0.43710987577E+03  0.14244354525E+04  0.15601263648E+04  0.25500000920E-02 0.  1.
       -2    1    3    3    0  502 -0.46250715929E+03  0.43710987577E+03 -0.15099262667E+04  0.16385527903E+04  0.25500000920E-02 0. -1.
</event>
<event>
 5   0  0.3750285E-07  0.3204008E+04  0.7818609E-02  0.8187759E-01
       -2   -1    0    0    0  501  0.00000000000E+00  0.00000000000E+00  0.22224832362E+04  0.22224832362E+04  0.25500000920E-02 0.  1.
        2   -1    0    0  501    0  0.00000000000E+00  0.00000000000E+00 -0.11547522170E+04  0.11547522170E+04  0.25500000920E-02 0. -1.
    10030    2    1    2    0    0  0.00000000000E+00  0.00000000000E+00  0.10677310192E+04  0.33772354532E+04  0.32040083921E+04 0.  0.
        1    1    3    3  502    0  0.53897447079E+03  0.14737803540E+04  0.19411045888E+03  0.15812023534E+04  0.50400001928E-02 0. -1.
       -1    1    3    3    0  502 -0.53897447079E+03 -0.14737803540E+04  0.87362056031E+03  0.17960330998E+04  0.50400001928E-02 0.  1.
</event>
<event>
 5   0  0.3830207E-07  0.3195842E+04  0.7818609E-02  0.8189916E-01
       -2   -1    0    0    0  501  0.00000000000E+00  0.00000000000E+00  0.17419262268E+04  0.17419262268E+04  0.25500000920E-02 0.  1.
        2   -1    0    0  501    0  0.00000000000E+00  0.00000000000E+00 -0.14658203046E+04  0.14658203046E+04  0.25500000920E-02 0. -1.
    10030    2    1    2    0    0  0.00000000000E+00  0.00000000000E+00  0.27610592218E+03  0.32077465314E+04  0.31958415683E+04 0.  0.
        4    1    3    3  502    0  0.15149725469E+04  0.19574077655E+03 -0.33262130651E+03  0.15633601044E+04  0.12699999809E+01 0.  1.
       -4    1    3    3    0  502 -0.15149725469E+04 -0.19574077655E+03  0.60872722869E+03  0.16443864270E+04  0.12699999809E+01 0. -1.
</event>
<event>
 5   0  0.3830207E-07  0.3199862E+04  0.7818609E-02  0.8188854E-01
        2   -1    0    0  501    0  0.00000000000E+00  0.00000000000E+00  0.16269238932E+04  0.16269238932E+04  0.25500000920E-02 0.  1.
       -2   -1    0    0    0  501  0.00000000000E+00  0.00000000000E+00 -0.15733863082E+04  0.15733863082E+04  0.25500000920E-02 0. -1.
    10030    2    1    2    0    0  0.00000000000E+00  0.00000000000E+00  0.53537585044E+02  0.32003102014E+04  0.31998623583E+04 0.  0.
        4    1    3    3  502    0 -0.10047410438E+04 -0.21420064097E+03 -0.11999393289E+04  0.15796336555E+04  0.12699999809E+01 0. -1.
       -4    1    3    3    0  502  0.10047410438E+04  0.21420064097E+03  0.12534769140E+04  0.16206765459E+04  0.12699999809E+01 0.  1.
</event>
<event>
 5   0  0.3764056E-07  0.3209834E+04  0.7818609E-02  0.8186225E-01
       -2   -1    0    0    0  501  0.00000000000E+00  0.00000000000E+00  0.12568418616E+04  0.12568418616E+04  0.25500000920E-02 0. -1.
        2   -1    0    0  501    0  0.00000000000E+00  0.00000000000E+00 -0.20493889894E+04  0.20493889894E+04  0.25500000920E-02 0.  1.
    10030    2    1    2    0    0  0.00000000000E+00  0.00000000000E+00 -0.79254712780E+03  0.33062308509E+04  0.32098335611E+04 0.  0.
        5    1    3    3  502    0  0.11819685979E+04  0.10828196205E+04 -0.31524935969E+03  0.16336928554E+04  0.46999998093E+01 0.  1.
       -5    1    3    3    0  502 -0.11819685979E+04 -0.10828196205E+04 -0.47729776811E+03  0.16725379955E+04  0.46999998093E+01 0. -1.
</event>
<event>
 5   0  0.1270948E-07  0.3203060E+04  0.7818609E-02  0.8188010E-01
        1   -1    0    0  501    0  0.00000000000E+00  0.00000000000E+00  0.18671298083E+04  0.18671298083E+04  0.50400001928E-02 0. -1.
       -1   -1    0    0    0  501  0.00000000000E+00  0.00000000000E+00 -0.13737117576E+04  0.13737117576E+04  0.50400001928E-02 0.  1.
    10030    2    1    2    0    0  0.00000000000E+00  0.00000000000E+00  0.49341805070E+03  0.32408415660E+04  0.32030598937E+04 0.  0.
        4    1    3    3  502    0  0.10149160634E+04 -0.72168993249E+03  0.12655652754E+04  0.17755416226E+04  0.12699999809E+01 0. -1.
       -4    1    3    3    0  502 -0.10149160634E+04  0.72168993249E+03 -0.77214722472E+03  0.14652999433E+04  0.12699999809E+01 0.  1.
</event>
<event>
 5   0  0.3764056E-07  0.3188963E+04  0.7818609E-02  0.8191738E-01
        2   -1    0    0  501    0  0.00000000000E+00  0.00000000000E+00  0.24048281970E+04  0.24048281970E+04  0.25500000920E-02 0. -1.
       -2   -1    0    0    0  501  0.00000000000E+00  0.00000000000E+00 -0.10571945020E+04  0.10571945020E+04  0.25500000920E-02 0.  1.
    10030    2    1    2    0    0  0.00000000000E+00  0.00000000000E+00  0.13476336950E+04  0.34620226991E+04  0.31889629338E+04 0.  0.
        5    1    3    3  502    0 -0.12983360217E+04  0.53819129771E+03 -0.14366983334E+03  0.14127948928E+04  0.46999998093E+01 0.  1.
       -5    1    3    3    0  502  0.12983360217E+04 -0.53819129771E+03  0.14913035284E+04  0.20492278062E+04  0.46999998093E+01 0. -1.
</event>
<event>
 5   0  0.3942564E-07  0.3200521E+04  0.7818609E-02  0.8188680E-01
        2   -1    0    0  501    0  0.00000000000E+00  0.00000000000E+00  0.17048890121E+04  0.17048890121E+04  0.25500000920E-02 0.  1.
       -2   -1    0    0    0  501  0.00000000000E+00  0.00000000000E+00 -0.15020525402E+04  0.15020525402E+04  0.25500000920E-02 0. -1.
    10030    2    1    2    0    0  0.00000000000E+00  0.00000000000E+00  0.20283647190E+03  0.32069415523E+04  0.32005205023E+04 0.  0.
        3    1    3    3  502    0 -0.10386209415E+04  0.10727792852E+04 -0.47527445296E+03  0.15669954278E+04  0.10100000352E+00 0. -1.
       -3    1    3    3    0  502  0.10386209415E+04 -0.10727792852E+04  0.67811092486E+03  0.16399461246E+04  0.10100000352E+00 0.  1.
</event>
<event>
 5   0  0.1288096E-07  0.3199874E+04  0.7818609E-02  0.8188851E-01
        1   -1    0    0  501    0  0.00000000000E+00  0.00000000000E+00  0.10534157550E+04  0.10534157550E+04  0.50400001928E-02 0.  1.
       -1   -1    0    0    0  501  0.00000000000E+00  0.00000000000E+00 -0.24299977866E+04  0.24299977866E+04  0.50400001928E-02 0. -1.
    10030    2    1    2    0    0  0.00000000000E+00  0.00000000000E+00 -0.13765820316E+04  0.34834135416E+04  0.31998737181E+04 0.  0.
        2    1    3    3  502    0  0.37117704109E+03  0.15192185578E+04 -0.32073322448E+03  0.15964545792E+04  0.25500000920E-02 0.  1.
       -2    1    3    3    0  502 -0.37117704109E+03 -0.15192185578E+04 -0.10558488072E+04  0.18869589624E+04  0.25500000920E-02 0. -1.
</event>
<event>
 5   0  0.1317293E-07  0.3207093E+04  0.7818609E-02  0.8186946E-01
       -1   -1    0    0    0  501  0.00000000000E+00  0.00000000000E+00  0.12328035802E+04  0.12328035802E+04  0.50400001928E-02 0.  1.
        1   -1    0    0  501    0  0.00000000000E+00  0.00000000000E+00 -0.20857836400E+04  0.20857836400E+04  0.50400001928E-02 0. -1.
    10030    2    1    2    0    0  0.00000000000E+00  0.00000000000E+00 -0.85298005983E+03  0.33185872202E+04  0.32070931006E+04 0.  0.
        1    1    3    3  502    0 -0.14903930498E+04  0.58797616503E+03 -0.35805361067E+03  0.16417033233E+04  0.50400001928E-02 0.  1.
       -1    1    3    3    0  502  0.14903930498E+04 -0.58797616503E+03 -0.49492644916E+03  0.16768838969E+04  0.50400001928E-02 0. -1.
</event>
<event>
 5   0  0.1277374E-07  0.3205591E+04  0.7818609E-02  0.8187342E-01
        1   -1    0    0  501    0  0.00000000000E+00  0.00000000000E+00  0.18679637937E+04  0.18679637937E+04  0.50400001928E-02 0.  1.
       -1   -1    0    0    0  501  0.00000000000E+00  0.00000000000E+00 -0.13752696851E+04  0.13752696851E+04  0.50400001928E-02 0. -1.
    10030    2    1    2    0    0  0.00000000000E+00  0.00000000000E+00  0.49269410857E+03  0.32432334788E+04  0.32055913515E+04 0.  0.
        5    1    3    3  502    0  0.47121473831E+03 -0.11196561781E+03 -0.12994527681E+04  0.13867873722E+04  0.46999998093E+01 0. -1.
       -5    1    3    3    0  502 -0.47121473831E+03  0.11196561781E+03  0.17921468766E+04  0.18564461066E+04  0.46999998093E+01 0.  1.
</event>
<event>
 5   0  0.1277374E-07  0.3188816E+04  0.7818609E-02  0.8191777E-01
        1   -1    0    0  501    0  0.00000000000E+00  0.00000000000E+00  0.29804653783E+04  0.29804653783E+04  0.50400001928E-02 0. -1.
       -1   -1    0    0    0  501  0.00000000000E+00  0.00000000000E+00 -0.85293293160E+03  0.85293293162E+03  0.50400001928E-02 0.  1.
    10030    2    1    2    0    0  0.00000000000E+00  0.00000000000E+00  0.21275324467E+04  0.38333983099E+04  0.31888161268E+04 0.  0.
        5    1    3    3  502    0  0.22360936300E+03  0.14456590825E+04  0.18261377651E+04  0.23398146416E+04  0.46999998093E+01 0. -1.
       -5    1    3    3    0  502 -0.22360936300E+03 -0.14456590825E+04  0.30139468157E+03  0.14935836683E+04  0.46999998093E+01 0.  1.
</event>
<event>
 5   0  0.3750285E-07  0.3211915E+04  0.7818609E-02  0.8185677E-01
        2   -1    0    0  501    0  0.00000000000E+00  0.00000000000E+00  0.10626561511E+04  0.10626561511E+04  0.25500000920E-02 0. -1.
       -2   -1    0    0    0  501  0.00000000000E+00  0.00000000000E+00 -0.24270313957E+04  0.24270313957E+04  0.25500000920E-02 0.  1.
    10030    2    1    2    0    0  0.00000000000E+00  0.00000000000E+00 -0.13643752447E+04  0.34896875468E+04  0.32119152178E+04 0.  0.
        1    1    3    3  502    0  0.31198305939E+03  0.55395247813E+03  0.92010717730E+03  0.11183890178E+04  0.50400001928E-02 0. -1.
       -1    1    3    3    0  502 -0.31198305939E+03 -0.55395247813E+03 -0.22844824220E+04  0.23712985290E+04  0.50400001928E-02 0.  1.
</event>
<event>
 5   0  0.3750285E-07  0.3203766E+04  0.7818609E-02  0.8187823E-01
        2   -1    0    0  501    0  0.00000000000E+00  0.00000000000E+00  0.18882632989E+04  0.18882632989E+04  0.25500000920E-02 0.  1.
       -2   -1    0    0    0  501  0.00000000000E+00  0.00000000000E+00 -0.13589360674E+04  0.13589360674E+04  0.25500000920E-02 0. -1.
    10030    2    1    2    0    0  0.00000000000E+00  0.00000000000E+00  0.52932723149E+03  0.32471993663E+04  0.32037659725E+04 0.  0.
        1    1    3    3  502    0 -0.11641049734E+04  0.40424349274E+03  0.13020013862E+04  0.17926965165E+04  0.50400001928E-02 0.  1.
       -1    1    3    3    0  502  0.11641049734E+04 -0.40424349274E+03 -0.77267415473E+03  0.14545028498E+04  0.50400001928E-02 0. -1.
</event>
<event>
 5   0  0.1270948E-07  0.3210926E+04  0.7818609E-02  0.8185938E-01
       -1   -1    0    0    0  501  0.00000000000E+00  0.00000000000E+00  0.17874280030E+04  0.17874280030E+04  0.50400001928E-02 0. -1.
        1   -1    0    0  501    0  0.00000000000E+00  0.00000000000E+00 -0.14420226530E+04  0.14420226531E+04  0.50400001928E-02 0.  1.
    10030    2    1    2    0    0  0.00000000000E+00  0.00000000000E+00  0.34540534993E+03  0.32294506560E+04  0.32109261412E+04 0.  0.
        4    1    3    3  502    0  0.15707843646E+04 -0.32460616006E+03  0.10318532899E+03  0.16072901120E+04  0.12699999809E+01 0.  1.
       -4    1    3    3    0  502 -0.15707843646E+04  0.32460616006E+03  0.24222002094E+03  0.16221605440E+04  0.12699999809E+01 0. -1.
</event>
<event>
 5   0  0.3858721E-07  0.3200904E+04  0.7818609E-02  0.8188578E-01
       -2   -1    0    0    0  501  0.00000000000E+00  0.00000000000E+00  0.13060282978E+04  0.13060282978E+04  0.25500000920E-02 0.  1.
        2   -1    0    0  501    0  0.00000000000E+00  0.00000000000E+00 -0.19612490065E+04  0.19612490065E+04  0.25500000920E-02 0. -1.
    10030    2    1    2    0    0  0.00000000000E+00  0.00000000000E+00 -0.65522070869E+03  0.32672773043E+04  0.32009040607E+04 0.  0.
        2    1    3    3  502    0  0.69483294719E+03  0.99432701061E+03 -0.13932739925E+04  0.18473471376E+04  0.25500000920E-02 0.  1.
       -2    1    3    3    0  502 -0.69483294719E+03 -0.99432701061E+03  0.73805328381E+03  0.14199301667E+04  0.25500000920E-02 0. -1.
</event>
<event>
 5   0  0.3764056E-07  0.3197407E+04  0.7818609E-02  0.8189502E-01
        2   -1    0    0  501    0  0.00000000000E+00  0.00000000000E+00  0.26956515346E+04  0.26956515346E+04  0.25500000920E-02 0. -1.
       -2   -1    0    0    0  501  0.00000000000E+00  0.00000000000E+00 -0.94813915142E+03  0.94813915142E+03  0.25500000920E-02 0.  1.
    10030    2    1    2    0    0  0.00000000000E+00  0.00000000000E+00  0.17475123832E+04  0.36437906860E+04  0.31974069235E+04 0.  0.
        5    1    3    3  502    0  0.28250385013E+03  0.34095811229E+03 -0.87685753958E+03  0.98232484158E+03  0.46999998093E+01 0.  1.
       -5    1    3    3    0  502 -0.28250385013E+03 -0.34095811229E+03  0.26243699228E+04  0.26614658445E+04  0.46999998093E+01 0. -1.
</event>
<event>
 5   0  0.3764056E-07  0.3195692E+04  0.7818609E-02  0.8189956E-01
        2   -1    0    0  501    0  0.00000000000E+00  0.00000000000E+00  0.22715166746E+04  0.22715166746E+04  0.25500000920E-02 0. -1.
       -2   -1    0    0    0  501  0.00000000000E+00  0.00000000000E+00 -0.11239675899E+04  0.11239675899E+04  0.25500000920E-02 0.  1.
    10030    2    1    2    0    0  0.00000000000E+00  0.00000000000E+00  0.11475490848E+04  0.33954842645E+04  0.31956915509E+04 0.  0.
        5    1    3    3  502    0 -0.11681134882E+04  0.18611286370E+03  0.17151607104E+04  0.20834887741E+04  0.46999998093E+01 0. -1.
       -5    1    3    3    0  502  0.11681134882E+04 -0.18611286370E+03 -0.56761162560E+03  0.13119954904E+04  0.46999998093E+01 0.  1.
</event>
<event>
 5   0  0.1317293E-07  0.3195315E+04  0.7818609E-02  0.8190055E-01
       -1   -1    0    0    0  501  0.00000000000E+00  0.00000000000E+00  0.15129626827E+04  0.15129626827E+04  0.50400001928E-02 0.  1.
        1   -1    0    0  501    0  0.00000000000E+00  0.00000000000E+00 -0.16870939974E+04  0.16870939974E+04  0.50400001928E-02 0. -1.
    10030    2    1    2    0    0  0.00000000000E+00  0.00000000000E+00 -0.17413131479E+03  0.32000566801E+04  0.31953154838E+04 0.  0.
        1    1    3    3  502    0  0.85740552243E+03  0.10279143646E+03 -0.14332327250E+04  0.16732801180E+04  0.50400001928E-02 0. -1.
       -1    1    3    3    0  502 -0.85740552243E+03 -0.10279143646E+03  0.12591014102E+04  0.15267765621E+04  0.50400001928E-02 0.  1.
</event>
<event>
 5   0  0.1270948E-07  0.3202225E+04  0.7818609E-02  0.8188230E-01
       -1   -1    0    0    0  501  0.00000000000E+00  0.00000000000E+00  0.17050629980E+04  0.17050629981E+04  0.50400001928E-02 0.  1.
        1   -1    0    0  501    0  0.00000000000E+00  0.00000000000E+00 -0.15034995394E+04  0.15034995395E+04  0.50400001928E-02 0. -1.
    10030    2    1    2    0    0  0.00000000000E+00  0.00000000000E+00  0.20156345860E+03  0.32085625375E+04  0.32022251216E+04 0.  0.
        4    1    3    3  502    0  0.14166784911E+04  0.10527317164E+03  0.84082276013E+03  0.16507710061E+04  0.12699999809E+01 0.  1.
       -4    1    3    3    0  502 -0.14166784911E+04 -0.10527317164E+03 -0.63925930153E+03  0.15577915314E+04  0.12699999809E+01 0. -1.
</event>
<event>
 5   0  0.3942564E-07  0.3227176E+04  0.7818609E-02  0.8181677E-01
        2   -1    0    0  501    0  0.00000000000E+00  0.00000000000E+00  0.13346618784E+04  0.13346618784E+04  0.25500000920E-02 0.  1.
       -2   -1    0    0    0  501  0.00000000000E+00  0.00000000000E+00 -0.19508053091E+04  0.19508053091E+04  0.25500000920E-02 0. -1.
    10030    2    1    2    0    0  0.00000000000E+00  0.00000000000E+00 -0.61614343068E+03  0.32854671875E+04  0.32271755317E+04 0.  0.
        3    1    3    3  502    0 -0.99543821399E+03  0.97857005308E+03 -0.11321171863E+04  0.17972717993E+04  0.10100000352E+00 0. -1.
       -3    1    3    3    0  502  0.99543821399E+03 -0.97857005308E+03  0.51597375567E+03  0.14881953882E+04  0.10100000352E+00 0.  1.
</event>
<event>
 5   0  0.3750285E-07  0.3201892E+04  0.7818609E-02  0.8188318E-01
       -2   -1    0    0    0  501  0.00000000000E+00  0.00000000000E+00  0.12916452312E+04  0.12916452313E+04  0.25500000920E-02 0. -1.
        2   -1    0    0  501    0  0.00000000000E+00  0.00000000000E+00 -0.19843124171E+04  0.19843124171E+04  0.25500000920E-02 0.  1.
    10030    2    1    2    0    0  0.00000000000E+00  0.00000000000E+00 -0.69266718581E+03  0.32759576483E+04  0.32018917351E+04 0.  0.
        1    1    3    3  502    0 -0.31248113416E+02 -0.49019027668E+03 -0.19053142945E+04  0.19676090854E+04  0.50400001928E-02 0.  1.
       -1    1    3    3    0  502  0.31248113416E+02  0.49019027668E+03  0.12126471087E+04  0.13083485630E+04  0.50400001928E-02 0. -1.
</event>
<event>
 5   0  0.3764056E-07  0.3200192E+04  0.7818609E-02  0.8188766E-01
        2   -1    0    0  501    0  0.00000000000E+00  0.00000000000E+00  0.17148917746E+04  0.17148917746E+04  0.25500000920E-02 0.  1.
       -2   -1    0    0    0  501  0.00000000000E+00  0.00000000000E+00 -0.14929846580E+04  0.14929846580E+04  0.25500000920E-02 0. -1.
    10030    2    1    2    0    0  0.00000000000E+00  0.00000000000E+00  0.22190711665E+03  0.32078764326E+04  0.32001919377E+04 0.  0.
        5    1    3    3  502    0  0.38745065017E+03 -0.14048976228E+04 -0.55126103067E+03  0.15581290546E+04  0.46999998093E+01 0. -1.
       -5    1    3    3    0  502 -0.38745065017E+03  0.14048976228E+04  0.77316814733E+03  0.16497473779E+04  0.46999998093E+01 0.  1.
</event>
<event>
 5   0  0.1288096E-07  0.3151888E+04  0.7818609E-02  0.8201640E-01
        1   -1    0    0  501    0  0.00000000000E+00  0.00000000000E+00  0.16329104462E+04  0.16329104462E+04  0.50400001928E-02 0.  1.
       -1   -1    0    0    0  501  0.00000000000E+00  0.00000000000E+00 -0.15209645486E+04  0.15209645486E+04  0.50400001928E-02 0. -1.
    10030    2    1    2    0    0  0.00000000000E+00  0.00000000000E+00  0.11194589759E+03  0.31538749948E+04  0.31518876247E+04 0.  0.
        2    1    3    3  502    0 -0.14800826856E+04 -0.42729822323E+03  0.38840279116E+03  0.15887370003E+04  0.25500000920E-02 0.  1.
       -2    1    3    3    0  502  0.14800826856E+04  0.42729822323E+03 -0.27645689357E+03  0.15651379945E+04  0.25500000920E-02 0. -1.
</event>
<event>
 5   0  0.3942564E-07  0.3204574E+04  0.7818609E-02  0.8187610E-01
        2   -1    0    0  501    0  0.00000000000E+00  0.00000000000E+00  0.17791351900E+04  0.17791351900E+04  0.25500000920E-02 0.  1.
       -2   -1    0    0    0  501  0.00000000000E+00  0.00000000000E+00 -0.14430181510E+04  0.14430181510E+04  0.25500000920E-02 0. -1.
    10030    2    1    2    0    0  0.00000000000E+00  0.00000000000E+00  0.33611703902E+03  0.32221533410E+04  0.32045744630E+04 0.  0.
        3    1    3    3  502    0 -0.13993741653E+04  0.11375876238E+03  0.94439186197E+03  0.16920594285E+04  0.10100000352E+00 0.  1.
       -3    1    3    3    0  502  0.13993741653E+04 -0.11375876238E+03 -0.60827482295E+03  0.15300939125E+04  0.10100000352E+00 0. -1.
</event>
<event>
 5   0  0.3830207E-07  0.3202442E+04  0.7818609E-02  0.8188172E-01
        2   -1    0    0  501    0  0.00000000000E+00  0.00000000000E+00  0.16013635532E+04  0.16013635532E+04  0.25500000920E-02 0.  1.
       -2   -1    0    0    0  501  0.00000000000E+00  0.00000000000E+00 -0.16010788477E+04  0.16010788477E+04  0.25500000920E-02 0. -1.
    10030    2    1    2    0    0  0.00000000000E+00  0.00000000000E+00  0.28470552849E+00  0.32024424008E+04  0.32024423882E+04 0.  0.
        4    1    3    3  502    0  0.15920833773E+04  0.39566023719E+02  0.16631319637E+03  0.16012359734E+04  0.12699999809E+01 0.  1.
       -4    1    3    3    0  502 -0.15920833773E+04 -0.39566023719E+02 -0.16602849084E+03  0.16012064274E+04  0.12699999809E+01 0. -1.
</event>
<event>
 5   0  0.1230450E-07  0.3203704E+04  0.7818609E-02  0.8187840E-01
       -3   -1    0    0    0  501  0.00000000000E+00  0.00000000000E+00  0.12785539113E+04  0.12785539153E+04  0.10100000352E+00 0. -1.
        3   -1    0    0  501    0  0.00000000000E+00  0.00000000000E+00 -0.20069002898E+04  0.20069002923E+04  0.10100000352E+00 0.  1.
    10030    2    1    2    0    0  0.00000000000E+00  0.00000000000E+00 -0.72834637843E+03  0.32854542077E+04  0.32037042472E+04 0.  0.
        1    1    3    3  502    0  0.21145184526E+03 -0.14991991877E+04  0.17226171789E+03  0.15238058232E+04  0.50400001928E-02 0. -1.
       -1    1    3    3    0  502 -0.21145184526E+03  0.14991991877E+04 -0.90060809633E+03  0.17616483845E+04  0.50400001928E-02 0.  1.
</event>
<event>
 5   0  0.3942564E-07  0.3214156E+04  0.7818609E-02  0.8185089E-01
        2   -1    0    0  501    0  0.00000000000E+00  0.00000000000E+00  0.24533207710E+04  0.24533207710E+04  0.25500000920E-02 0. -1.
       -2   -1    0    0    0  501  0.00000000000E+00  0.00000000000E+00 -0.10527362260E+04  0.10527362260E+04  0.25500000920E-02 0.  1.
    10030    2    1    2    0    0  0.00000000000E+00  0.00000000000E+00  0.14005845449E+04  0.35060569970E+04  0.32141559699E+04 0.  0.
        3    1    3    3  502    0 -0.86993992722E+03 -0.81265214010E+03  0.18779207160E+04  0.22234624359E+04  0.10100000352E+00 0. -1.
       -3    1    3    3    0  502  0.86993992722E+03  0.81265214010E+03 -0.47733617110E+03  0.12825945611E+04  0.10100000352E+00 0.  1.
</event>
<event>
 5   0  0.3830207E-07  0.3185439E+04  0.7818609E-02  0.8192673E-01
       -2   -1    0    0    0  501  0.00000000000E+00  0.00000000000E+00  0.14471442007E+04  0.14471442007E+04  0.25500000920E-02 0.  1.
        2   -1    0    0  501    0  0.00000000000E+00  0.00000000000E+00 -0.17529389311E+04  0.17529389311E+04  0.25500000920E-02 0. -1.
    10030    2    1    2    0    0  0.00000000000E+00  0.00000000000E+00 -0.30579473039E+03  0.32000831318E+04  0.31854390016E+04 0.  0.
        4    1    3    3  502    0  0.46760371900E+03 -0.10318376052E+04 -0.12776029249E+04  0.17075165968E+04  0.12699999809E+01 0. -1.
       -4    1    3    3    0  502 -0.46760371900E+03  0.10318376052E+04  0.97180819456E+03  0.14925665350E+04  0.12699999809E+01 0.  1.
</event>
<event>
 5   0  0.3750285E-07  0.3193763E+04  0.7818609E-02  0.8190466E-01
        2   -1    0    0  501    0  0.00000000000E+00  0.00000000000E+00  0.13392871796E+04  0.13392871796E+04  0.25500000920E-02 0.  1.
       -2   -1    0    0    0  501  0.00000000000E+00  0.00000000000E+00 -0.19040202708E+04  0.19040202708E+04  0.25500000920E-02 0. -1.
    10030    2    1    2    0    0  0.00000000000E+00  0.00000000000E+00 -0.56473309120E+03  0.32433074503E+04  0.31937626325E+04 0.  0.
        1    1    3    3  502    0  0.33221340721E+03 -0.12761176941E+04 -0.11969981316E+04  0.17809117452E+04  0.50400001928E-02 0. -1.
       -1    1    3    3    0  502 -0.33221340721E+03  0.12761176941E+04  0.63226504042E+03  0.14623957051E+04  0.50400001928E-02 0.  1.
</event>
<event>
 5   0  0.1270948E-07  0.3208757E+04  0.7818609E-02  0.8186508E-01
        1   -1    0    0  501    0  0.00000000000E+00  0.00000000000E+00  0.98684445264E+03  0.98684445266E+03  0.50400001928E-02 0. -1.
       -1   -1    0    0    0  501  0.00000000000E+00  0.00000000000E+00 -0.26083437736E+04  0.26083437736E+04  0.50400001928E-02 0.  1.
    10030    2    1    2    0    0  0.00000000000E+00  0.00000000000E+00 -0.16214993210E+04  0.35951882263E+04  0.32087565091E+04 0.  0.
        4    1    3    3  502    0  0.49615995960E+03 -0.86968756842E+03  0.59381462260E+03  0.11641084963E+04  0.12699999809E+01 0. -1.
       -4    1    3    3    0  502 -0.49615995960E+03  0.86968756842E+03 -0.22153139436E+04  0.24310797300E+04  0.12699999809E+01 0.  1.
</event>
<event>
 5   0  0.3942564E-07  0.3188484E+04  0.7818609E-02  0.8191865E-01
       -2   -1    0    0    0  501  0.00000000000E+00  0.00000000000E+00  0.24442466158E+04  0.24442466158E+04  0.25500000920E-02 0.  1.
        2   -1    0    0  501    0  0.00000000000E+00  0.00000000000E+00 -0.10398326073E+04  0.10398326073E+04  0.25500000920E-02 0. -1.
    10030    2    1    2    0    0  0.00000000000E+00  0.00000000000E+00  0.14044140086E+04  0.34840792231E+04  0.31884838600E+04 0.  0.
        3    1    3    3  502    0 -0.22238395929E+03  0.10862765982E+04 -0.54948220699E+03  0.12374902744E+04  0.10100000352E+00 0. -1.
       -3    1    3    3    0  502  0.22238395929E+03 -0.10862765982E+04  0.19538962156E+04  0.22465889487E+04  0.10100000352E+00 0.  1.
</event>
<event>
 5   0  0.3764056E-07  0.3108336E+04  0.7818609E-02  0.8213454E-01
        2   -1    0    0  501    0  0.00000000000E+00  0.00000000000E+00  0.22471563705E+04  0.22471563705E+04  0.25500000920E-02 0.  1.
       -2   -1    0    0    0  501  0.00000000000E+00  0.00000000000E+00 -0.10748862181E+04  0.10748862181E+04  0.25500000920E-02 0. -1.
    10030    2    1    2    0    0  0.00000000000E+00  0.00000000000E+00  0.11722701525E+04  0.33220425886E+04  0.31083355112E+04 0.  0.
        5    1    3    3  502    0  0.48989293375E+03  0.41548795402E+03  0.20986337847E+04  0.21947462675E+04  0.46999998093E+01 0.  1.
       -5    1    3    3    0  502 -0.48989293375E+03 -0.41548795402E+03 -0.92636363224E+03  0.11272963211E+04  0.46999998093E+01 0. -1.
</event>
<event>
 5   0  0.1365455E-07  0.3195655E+04  0.7818609E-02  0.8189966E-01
        1   -1    0    0  501    0  0.00000000000E+00  0.00000000000E+00  0.93139168574E+03  0.93139168575E+03  0.50400001928E-02 0. -1.
       -1   -1    0    0    0  501  0.00000000000E+00  0.00000000000E+00 -0.27411160914E+04  0.27411160914E+04  0.50400001928E-02 0.  1.
    10030    2    1    2    0    0  0.00000000000E+00  0.00000000000E+00 -0.18097244056E+04  0.36725077771E+04  0.31956550109E+04 0.  0.
        3    1    3    3  502    0  0.17425145143E+03 -0.14265440571E+04 -0.17073934338E+04  0.22317221743E+04  0.10100000352E+00 0.  1.
       -3    1    3    3    0  502 -0.17425145143E+03  0.14265440571E+04 -0.10233097182E+03  0.14407856028E+04  0.10100000352E+00 0. -1.
</event>
<event>
 5   0  0.1270948E-07  0.3204626E+04  0.7818609E-02  0.8187597E-01
        1   -1    0    0  501    0  0.00000000000E+00  0.00000000000E+00  0.13967790018E+04  0.13967790018E+04  0.50400001928E-02 0.  1.
       -1   -1    0    0    0  501  0.00000000000E+00  0.00000000000E+00 -0.18380907025E+04  0.18380907026E+04  0.50400001928E-02 0. -1.
    10030    2    1    2    0    0  0.00000000000E+00  0.00000000000E+00 -0.44131170071E+03  0.32348697044E+04  0.32046257172E+04 0.  0.
        4    1    3    3  502    0  0.20089350646E+03  0.14992005929E+04 -0.75426968388E+03  0.16902322289E+04  0.12699999809E+01 0. -1.
       -4    1    3    3    0  502 -0.20089350646E+03 -0.14992005929E+04  0.31295798317E+03  0.15446374755E+04  0.12699999809E+01 0.  1.
</event>
<event>
 5   0  0.3830207E-07  0.3194139E+04  0.7818609E-02  0.8190367E-01
       -2   -1    0    0    0  501  0.00000000000E+00  0.00000000000E+00  0.22149920493E+04  0.22149920493E+04  0.25500000920E-02 0.  1.
        2   -1    0    0  501    0  0.00000000000E+00  0.00000000000E+00 -0.11515306250E+04  0.11515306250E+04  0.25500000920E-02 0. -1.
    10030    2    1    2    0    0  0.00000000000E+00  0.00000000000E+00  0.10634614243E+04  0.33665226742E+04  0.31941391196E+04 0.  0.
        4    1    3    3  502    0 -0.36158507731E+02  0.15609809336E+04  0.88549488539E+03  0.17950130132E+04  0.12699999809E+01 0. -1.
       -4    1    3    3    0  502  0.36158507731E+02 -0.15609809336E+04  0.17796653890E+03  0.15715096610E+04  0.12699999809E+01 0.  1.
</event>
<event>
 5   0  0.1365455E-07  0.3203825E+04  0.7818609E-02  0.8187808E-01
       -1   -1    0    0    0  501  0.00000000000E+00  0.00000000000E+00  0.19607205561E+04  0.19607205561E+04  0.50400001928E-02 0. -1.
        1   -1    0    0  501    0  0.00000000000E+00  0.00000000000E+00 -0.13087658366E+04  0.13087658366E+04  0.50400001928E-02 0.  1.
    10030    2    1    2    0    0  0.00000000000E+00  0.00000000000E+00  0.65195471953E+03  0.32694863927E+04  0.32038252630E+04 0.  0.
        3    1    3    3  502    0  0.51597760995E+03  0.10153241295E+04 -0.82361245537E+03  0.14055082599E+04  0.10100000352E+00 0.  1.
       -3    1    3    3    0  502 -0.51597760995E+03 -0.10153241295E+04  0.14755671749E+04  0.18639781328E+04  0.10100000352E+00 0. -1.
</event>
<event>
 5   0  0.3764056E-07  0.3201713E+04  0.7818609E-02  0.8188365E-01
       -2   -1    0    0    0  501  0.00000000000E+00  0.00000000000E+00  0.85328863861E+03  0.85328863861E+03  0.25500000920E-02 0. -1.
        2   -1    0    0  501    0  0.00000000000E+00  0.00000000000E+00 -0.30033704902E+04  0.30033704902E+04  0.25500000920E-02 0.  1.
    10030    2    1    2    0    0  0.00000000000E+00  0.00000000000E+00 -0.21500818516E+04  0.38566591288E+04  0.32017132394E+04 0.  0.
        5    1    3    3  502    0 -0.86877132432E+03  0.15731154531E+03 -0.26835739536E+04  0.28250843864E+04  0.46999998093E+01 0.  1.
       -5    1    3    3    0  502  0.86877132432E+03 -0.15731154531E+03  0.53349210198E+03  0.10315747424E+04  0.46999998093E+01 0. -1.
</event>
<event>
 5   0  0.3858721E-07  0.3269023E+04  0.7818609E-02  0.8170822E-01
       -2   -1    0    0    0  501  0.00000000000E+00  0.00000000000E+00  0.13903853113E+04  0.13903853113E+04  0.25500000920E-02 0.  1.
        2   -1    0    0  501    0  0.00000000000E+00  0.00000000000E+00 -0.19215021708E+04  0.19215021708E+04  0.25500000920E-02 0. -1.
    10030    2    1    2    0    0  0.00000000000E+00  0.00000000000E+00 -0.53111685954E+03  0.33118874821E+04  0.32690233366E+04 0.  0.
        2    1    3    3  502    0 -0.13954547936E+04  0.77525814201E+03 -0.62131682947E+03  0.17129955838E+04  0.25500000920E-02 0. -1.
       -2    1    3    3    0  502  0.13954547936E+04 -0.77525814201E+03  0.90199969930E+02  0.15988918982E+04  0.25500000920E-02 0.  1.
</event>
<event>
 5   0  0.3764056E-07  0.3202008E+04  0.7818609E-02  0.8188287E-01
        2   -1    0    0  501    0  0.00000000000E+00  0.00000000000E+00  0.15416230698E+04  0.15416230698E+04  0.25500000920E-02 0.  1.
       -2   -1    0    0    0  501  0.00000000000E+00  0.00000000000E+00 -0.16626724759E+04  0.16626724760E+04  0.25500000920E-02 0. -1.
    10030    2    1    2    0    0  0.00000000000E+00  0.00000000000E+00 -0.12104940620E+03  0.32042955457E+04  0.32020082738E+04 0.  0.
        5    1    3    3  502    0  0.51084123412E+03  0.54103047161E+03  0.13580630949E+04  0.15485574569E+04  0.46999998093E+01 0.  1.
       -5    1    3    3    0  502 -0.51084123412E+03 -0.54103047161E+03 -0.14791125011E+04  0.16557380888E+04  0.46999998093E+01 0. -1.
</event>
<event>
 5   0  0.1277374E-07  0.3200118E+04  0.7818609E-02  0.8188786E-01
       -1   -1    0    0    0  501  0.00000000000E+00  0.00000000000E+00  0.10538488903E+04  0.10538488903E+04  0.50400001928E-02 0. -1.
        1   -1    0    0  501    0  0.00000000000E+00  0.00000000000E+00 -0.24293704812E+04  0.24293704812E+04  0.50400001928E-02 0.  1.
    10030    2    1    2    0    0  0.00000000000E+00  0.00000000000E+00 -0.13755215909E+04  0.34832193715E+04  0.32001183639E+04 0.  0.
        5    1    3    3  502    0 -0.68851277267E+03  0.76551964368E+03  0.64537526336E+03  0.12151549216E+04  0.46999998093E+01 0. -1.
       -5    1    3    3    0  502  0.68851277267E+03 -0.76551964368E+03 -0.20208968543E+04  0.22680644499E+04  0.46999998093E+01 0.  1.
</event>
<event>
 5   0  0.1270948E-07  0.3194093E+04  0.7818609E-02  0.8190379E-01
       -1   -1    0    0    0  501  0.00000000000E+00  0.00000000000E+00  0.11409941731E+04  0.11409941731E+04  0.50400001928E-02 0.  1.
        1   -1    0    0  501    0  0.00000000000E+00  0.00000000000E+00 -0.22353820270E+04  0.22353820270E+04  0.50400001928E-02 0. -1.
    10030    2    1    2    0    0  0.00000000000E+00  0.00000000000E+00 -0.10943878539E+04  0.33763762001E+04  0.31940932156E+04 0.  0.
        4    1    3    3  502    0 -0.66930788796E+03  0.11501748711E+04  0.38619299505E+03  0.13856485577E+04  0.12699999809E+01 0.  1.
       -4    1    3    3    0  502  0.66930788796E+03 -0.11501748711E+04 -0.14805808489E+04  0.19907276424E+04  0.12699999809E+01 0. -1.
</event>
<event>
 5   0  0.3942564E-07  0.3209547E+04  0.7818609E-02  0.8186300E-01
       -2   -1    0    0    0  501  0.00000000000E+00  0.00000000000E+00  0.95411756421E+03  0.95411756422E+03  0.25500000920E-02 0. -1.
        2   -1    0    0  501    0  0.00000000000E+00  0.00000000000E+00 -0.26991414147E+04  0.26991414147E+04  0.25500000920E-02 0.  1.
    10030    2    1    2    0    0  0.00000000000E+00  0.00000000000E+00 -0.17450238505E+04  0.36532589789E+04  0.32095471531E+04 0.  0.
        3    1    3    3  502    0  0.40626354302E+03  0.83135380568E+03 -0.23649184681E+04  0.25394957349E+04  0.10100000352E+00 0.  1.
       -3    1    3    3    0  502 -0.40626354302E+03 -0.83135380568E+03  0.61989461761E+03  0.11137632440E+04  0.10100000352E+00 0. -1.
</event>
<event>
 5   0  0.1288096E-07  0.3200413E+04  0.7818609E-02  0.8188708E-01
        1   -1    0    0  501    0  0.00000000000E+00  0.00000000000E+00  0.16026705125E+04  0.16026705125E+04  0.50400001928E-02 0.  1.
       -1   -1    0    0    0  501  0.00000000000E+00  0.00000000000E+00 -0.15977464591E+04  0.15977464591E+04  0.50400001928E-02 0. -1.
    10030    2    1    2    0    0  0.00000000000E+00  0.00000000000E+00  0.49240534531E+01  0.32004169716E+04  0.32004131836E+04 0.  0.
        2    1    3    3  502    0 -0.11296861244E+03  0.53040025880E+03 -0.15030545490E+04  0.15978921488E+04  0.25500000920E-02 0. -1.
       -2    1    3    3    0  502  0.11296861244E+03 -0.53040025880E+03  0.15079786025E+04  0.16025248228E+04  0.25500000920E-02 0.  1.
</event>
<event>
 5   0  0.3830207E-07  0.3221273E+04  0.7818609E-02  0.8183221E-01
       -2   -1    0    0    0  501  0.00000000000E+00  0.00000000000E+00  0.25747218095E+04  0.25747218095E+04  0.25500000920E-02 0. -1.
        2   -1    0    0  501    0  0.00000000000E+00  0.00000000000E+00 -0.10075458722E+04  0.10075458722E+04  0.25500000920E-02 0.  1.
    10030    2    1    2    0    0  0.00000000000E+00  0.00000000000E+00  0.15671759373E+04  0.35822676818E+04  0.32212732460E+04 0.  0.
        4    1    3    3  502    0  0.85798953076E+03  0.95284548808E+03 -0.30036994959E+03  0.13169222751E+04  0.12699999809E+01 0.  1.
       -4    1    3    3    0  502 -0.85798953076E+03 -0.95284548808E+03  0.18675458869E+04  0.22653454067E+04  0.12699999809E+01 0. -1.
</event>
<event>
 5   0  0.1270948E-07  0.3201718E+04  0.7818609E-02  0.8188364E-01
        1   -1    0    0  501    0  0.00000000000E+00  0.00000000000E+00  0.16842729096E+04  0.16842729096E+04  0.50400001928E-02 0.  1.
       -1   -1    0    0    0  501  0.00000000000E+00  0.00000000000E+00 -0.15215759937E+04  0.15215759937E+04  0.50400001928E-02 0. -1.
    10030    2    1    2    0    0  0.00000000000E+00  0.00000000000E+00  0.16269691586E+03  0.32058489033E+04  0.32017178053E+04 0.  0.
        4    1    3    3  502    0  0.13695580045E+03  0.15945541692E+04  0.44048232011E+02  0.16010314642E+04  0.12699999809E+01 0. -1.
       -4    1    3    3    0  502 -0.13695580045E+03 -0.15945541692E+04  0.11864868385E+03  0.16048174391E+04  0.12699999809E+01 0.  1.
</event>
<event>
 5   0  0.1317293E-07  0.3204753E+04  0.7818609E-02  0.8187563E-01
        1   -1    0    0  501    0  0.00000000000E+00  0.00000000000E+00  0.21724798326E+04  0.21724798326E+04  0.50400001928E-02 0. -1.
       -1   -1    0    0    0  501  0.00000000000E+00  0.00000000000E+00 -0.11818797499E+04  0.11818797499E+04  0.50400001928E-02 0.  1.
    10030    2    1    2    0    0  0.00000000000E+00  0.00000000000E+00  0.99060008270E+03  0.33543595826E+04  0.32047526715E+04 0.  0.
        1    1    3    3  502    0  0.45204555454E+03  0.47671092061E+03  0.20250374425E+04  0.21289375587E+04  0.50400001928E-02 0. -1.
       -1    1    3    3    0  502 -0.45204555454E+03 -0.47671092061E+03 -0.10344373598E+04  0.12254220239E+04  0.50400001928E-02 0.  1.
</event>
<event>
 5   0  0.1277374E-07  0.3198092E+04  0.7818609E-02  0.8189321E-01
        1   -1    0    0  501    0  0.00000000000E+00  0.00000000000E+00  0.12280357682E+04  0.12280357682E+04  0.50400001928E-02 0.  1.
       -1   -1    0    0    0  501  0.00000000000E+00  0.00000000000E+00 -0.20821443965E+04  0.20821443965E+04  0.50400001928E-02 0. -1.
    10030    2    1    2    0    0  0.00000000000E+00  0.00000000000E+00 -0.85410862828E+03  0.33101801647E+04  0.31980918020E+04 0.  0.
        5    1    3    3  502    0 -0.13156896181E+04  0.79584341618E+03 -0.88120334782E+03  0.17722718032E+04  0.46999998093E+01 0. -1.
       -5    1    3    3    0  502  0.13156896181E+04 -0.79584341618E+03  0.27094719536E+02  0.15379083614E+04  0.46999998093E+01 0.  1.
</event>
<event>
 5   0  0.1365455E-07  0.3162419E+04  0.7818609E-02  0.8198813E-01
        1   -1    0    0  501    0  0.00000000000E+00  0.00000000000E+00  0.18039424931E+04  0.18039424931E+04  0.50400001928E-02 0. -1.
       -1   -1    0    0    0  501  0.00000000000E+00  0.00000000000E+00 -0.13859775096E+04  0.13859775097E+04  0.50400001928E-02 0.  1.
    10030    2    1    2    0    0  0.00000000000E+00  0.00000000000E+00  0.41796498342E+03  0.31899200027E+04  0.31624191525E+04 0.  0.
        3    1    3    3  502    0 -0.74899576564E+03 -0.52574815893E+03 -0.10917341890E+04  0.14245312679E+04  0.10100000352E+00 0.  1.
       -3    1    3    3    0  502  0.74899576564E+03  0.52574815893E+03  0.15096991724E+04  0.17653887348E+04  0.10100000352E+00 0. -1.
</event>
<event>
 5   0  0.3858721E-07  0.3197769E+04  0.7818609E-02  0.8189407E-01
        2   -1    0    0  501    0  0.00000000000E+00  0.00000000000E+00  0.13144836965E+04  0.13144836965E+04  0.25500000920E-02 0. -1.
       -2   -1    0    0    0  501  0.00000000000E+00  0.00000000000E+00 -0.19448178083E+04  0.19448178083E+04  0.25500000920E-02 0.  1.
    10030    2    1    2    0    0  0.00000000000E+00  0.00000000000E+00 -0.63033411176E+03  0.32593015048E+04  0.31977687857E+04 0.  0.
        2    1    3    3  502    0 -0.62979366860E+03  0.26831906325E+03 -0.17878915872E+04  0.19144689897E+04  0.25500000920E-02 0.  1.
       -2    1    3    3    0  502  0.62979366860E+03 -0.26831906325E+03  0.11575574755E+04  0.13448325151E+04  0.25500000920E-02 0. -1.
</event>
<event>
 5   0  0.1270948E-07  0.3203240E+04  0.7818609E-02  0.8187962E-01
        1   -1    0    0  501    0  0.00000000000E+00  0.00000000000E+00  0.17549190458E+04  0.17549190458E+04  0.50400001928E-02 0. -1.
       -1   -1    0    0    0  501  0.00000000000E+00  0.00000000000E+00 -0.14617118369E+04  0.14617118369E+04  0.50400001928E-02 0.  1.
    10030    2    1    2    0    0  0.00000000000E+00  0.00000000000E+00  0.29320720891E+03  0.32166308827E+04  0.32032395740E+04 0.  0.
        4    1    3    3  502    0  0.12039983650E+04 -0.10380487353E+04 -0.49216982350E+02  0.15904657067E+04  0.12699999809E+01 0.  1.
       -4    1    3    3    0  502 -0.12039983650E+04  0.10380487353E+04  0.34242419126E+03  0.16261651760E+04  0.12699999809E+01 0. -1.
</event>
<event>
 5   0  0.3764056E-07  0.3199296E+04  0.7818609E-02  0.8189003E-01
       -2   -1    0    0    0  501  0.00000000000E+00  0.00000000000E+00  0.14044077803E+04  0.14044077803E+04  0.25500000920E-02 0.  1.
        2   -1    0    0  501    0  0.00000000000E+00  0.00000000000E+00 -0.18220308489E+04  0.18220308489E+04  0.25500000920E-02 0. -1.
    10030    2    1    2    0    0  0.00000000000E+00  0.00000000000E+00 -0.41762306857E+03  0.32264386292E+04  0.31992963603E+04 0.  0.
        5    1    3    3  502    0  0.87073402011E+03  0.11687313220E+04 -0.87375469456E+03  0.16992880842E+04  0.46999998093E+01 0.  1.
       -5    1    3    3    0  502 -0.87073402011E+03 -0.11687313220E+04  0.45613162599E+03  0.15271505450E+04  0.46999998093E+01 0. -1.
</event>
<event>
 5   0  0.3830207E-07  0.3196863E+04  0.7818609E-02  0.8189646E-01
       -2   -1    0    0    0  501  0.00000000000E+00  0.00000000000E+00  0.30179380926E+04  0.30179380926E+04  0.25500000920E-02 0. -1.
        2   -1    0    0  501    0  0.00000000000E+00  0.00000000000E+00 -0.84659879921E+03  0.84659879921E+03  0.25500000920E-02 0.  1.
    10030    2    1    2    0    0  0.00000000000E+00  0.00000000000E+00  0.21713392934E+04  0.38645368919E+04  0.31968626904E+04 0.  0.
        4    1    3    3  502    0 -0.83555224327E+03  0.11649591367E+04  0.23113474521E+03  0.14521371233E+04  0.12699999809E+01 0.  1.
       -4    1    3    3    0  502  0.83555224327E+03 -0.11649591367E+04  0.19402045482E+04  0.24123997686E+04  0.12699999809E+01 0. -1.
</event>
<event>
 5   0  0.1317293E-07  0.3203880E+04  0.7818609E-02  0.8187793E-01
       -1   -1    0    0    0  501  0.00000000000E+00  0.00000000000E+00  0.12370706570E+04  0.12370706570E+04  0.50400001928E-02 0. -1.
        1   -1    0    0  501    0  0.00000000000E+00  0.00000000000E+00 -0.20744261170E+04  0.20744261170E+04  0.50400001928E-02 0.  1.
    10030    2    1    2    0    0  0.00000000000E+00  0.00000000000E+00 -0.83735546008E+03  0.33114967740E+04  0.32038799475E+04 0.  0.
        1    1    3    3  502    0  0.47228590523E+03  0.41588777137E+03 -0.19413186177E+04  0.20407681373E+04  0.50400001928E-02 0.  1.
       -1    1    3    3    0  502 -0.47228590523E+03 -0.41588777137E+03  0.11039631577E+04  0.12707286367E+04  0.50400001928E-02 0. -1.
</event>
<event>
 5   0  0.3764056E-07  0.3195675E+04  0.7818609E-02  0.8189960E-01
       -2   -1    0    0    0  501  0.00000000000E+00  0.00000000000E+00  0.95231779953E+03  0.95231779953E+03  0.25500000920E-02 0.  1.
        2   -1    0    0  501    0  0.00000000000E+00  0.00000000000E+00 -0.26809159225E+04  0.26809159225E+04  0.25500000920E-02 0. -1.
    10030    2    1    2    0    0  0.00000000000E+00  0.00000000000E+00 -0.17285981230E+04  0.36332337220E+04  0.31956745467E+04 0.  0.
        5    1    3    3  502    0 -0.11105821254E+04 -0.26753571374E+03 -0.21344473107E+04  0.24209203679E+04  0.46999998093E+01 0. -1.
       -5    1    3    3    0  502  0.11105821254E+04  0.26753571374E+03  0.40584918776E+03  0.12123133541E+04  0.46999998093E+01 0.  1.
</event>
<event>
 5   0  0.3750285E-07  0.3202866E+04  0.7818609E-02  0.8188061E-01
        2   -1    0    0  501    0  0.00000000000E+00  0.00000000000E+00  0.17902422203E+04  0.17902422203E+04  0.25500000920E-02 0.  1.
       -2   -1    0    0    0  501  0.00000000000E+00  0.00000000000E+00 -0.14325362703E+04  0.14325362703E+04  0.25500000920E-02 0. -1.
    10030    2    1    2    0    0  0.00000000000E+00  0.00000000000E+00  0.35770594999E+03  0.32227784906E+04  0.32028655377E+04 0.  0.
        1    1    3    3  502    0  0.15897407278E+04  0.17007482600E+03  0.27099679331E+03  0.16216165669E+04  0.50400001928E-02 0.  1.
       -1    1    3    3    0  502 -0.15897407278E+04 -0.17007482600E+03  0.86709156674E+02  0.16011619237E+04  0.50400001928E-02 0. -1.
</event>
<event>
 5   0  0.3942564E-07  0.3200927E+04  0.7818609E-02  0.8188573E-01
       -2   -1    0    0    0  501  0.00000000000E+00  0.00000000000E+00  0.13693234021E+04  0.13693234021E+04  0.25500000920E-02 0. -1.
        2   -1    0    0  501    0  0.00000000000E+00  0.00000000000E+00 -0.18706191910E+04  0.18706191910E+04  0.25500000920E-02 0.  1.
    10030    2    1    2    0    0  0.00000000000E+00  0.00000000000E+00 -0.50129578888E+03  0.32399425932E+04  0.32009265126E+04 0.  0.
        3    1    3    3  502    0 -0.10970670555E+04  0.85639099788E+03 -0.10505468332E+04  0.17437345911E+04  0.10100000352E+00 0.  1.
       -3    1    3    3    0  502  0.10970670555E+04 -0.85639099788E+03  0.54925104428E+03  0.14962080020E+04  0.10100000352E+00 0. -1.
</event>
<event>
 5   0  0.1317293E-07  0.3199214E+04  0.7818609E-02  0.8189025E-01
       -1   -1    0    0    0  501  0.00000000000E+00  0.00000000000E+00  0.12096543462E+04  0.12096543462E+04  0.50400001928E-02 0. -1.
        1   -1    0    0  501    0  0.00000000000E+00  0.00000000000E+00 -0.21152677076E+04  0.21152677076E+04  0.50400001928E-02 0.  1.
    10030    2    1    2    0    0  0.00000000000E+00  0.00000000000E+00 -0.90561336145E+03  0.33249220538E+04  0.31992141384E+04 0.  0.
        1    1    3    3  502    0  0.88848203319E+03 -0.12649899882E+04 -0.25376786581E+02  0.15460413885E+04  0.50400001928E-02 0. -1.
       -1    1    3    3    0  502 -0.88848203319E+03  0.12649899882E+04 -0.88023657487E+03  0.17788806653E+04  0.50400001928E-02 0.  1.
</event>
<event>
 5   0  0.1288096E-07  0.3206717E+04  0.7818609E-02  0.8187045E-01
        1   -1    0    0  501    0  0.00000000000E+00  0.00000000000E+00  0.21179257899E+04  0.21179257899E+04  0.50400001928E-02 0. -1.
       -1   -1    0    0    0  501  0.00000000000E+00  0.00000000000E+00 -0.12138095241E+04  0.12138095241E+04  0.50400001928E-02 0.  1.
    10030    2    1    2    0    0  0.00000000000E+00  0.00000000000E+00  0.90411626574E+03  0.33317353140E+04  0.32067170097E+04 0.  0.
        2    1    3    3  502    0 -0.12352950498E+04  0.98857941816E+03  0.18209082258E+03  0.15926079850E+04  0.25500000920E-02 0. -1.
       -2    1    3    3    0  502  0.12352950498E+04 -0.98857941816E+03  0.72202544315E+03  0.17391273290E+04  0.25500000920E-02 0.  1.
</event>
<event>
 5   0  0.3750285E-07  0.3201498E+04  0.7818609E-02  0.8188422E-01
        2   -1    0    0  501    0  0.00000000000E+00  0.00000000000E+00  0.18461494501E+04  0.18461494501E+04  0.25500000920E-02 0.  1.
       -2   -1    0    0    0  501  0.00000000000E+00  0.00000000000E+00 -0.13879682750E+04  0.13879682750E+04  0.25500000920E-02 0. -1.
    10030    2    1    2    0    0  0.00000000000E+00  0.00000000000E+00  0.45818117512E+03  0.32341177252E+04  0.32014976919E+04 0.  0.
        1    1    3    3  502    0 -0.51034116916E+03 -0.12980922903E+04  0.10225264653E+04  0.17294658353E+04  0.50400001928E-02 0. -1.
       -1    1    3    3    0  502  0.51034116916E+03  0.12980922903E+04 -0.56434529021E+03  0.15046518899E+04  0.50400001928E-02 0.  1.
</event>
<event>
 5   0  0.3942564E-07  0.3180291E+04  0.7818609E-02  0.8194042E-01
        2   -1    0    0  501    0  0.00000000000E+00  0.00000000000E+00  0.20087455964E+04  0.20087455964E+04  0.25500000920E-02 0.  1.
       -2   -1    0    0    0  501  0.00000000000E+00  0.00000000000E+00 -0.12587773530E+04  0.12587773530E+04  0.25500000920E-02 0. -1.
    10030    2    1    2    0    0  0.00000000000E+00  0.00000000000E+00  0.74996824334E+03  0.32675229494E+04  0.31802914739E+04 0.  0.
        3    1    3    3  502    0  0.12106195762E+04  0.85369490172E+01 -0.68425996703E+03  0.13906417045E+04  0.10100000352E+00 0. -1.
       -3    1    3    3    0  502 -0.12106195762E+04 -0.85369490172E+01  0.14342282104E+04  0.18768812449E+04  0.10100000352E+00 0.  1.
</event>
<event>
 5   0  0.1277374E-07  0.3195135E+04  0.7818609E-02  0.8190103E-01
       -1   -1    0    0    0  501  0.00000000000E+00  0.00000000000E+00  0.16348483001E+04  0.16348483001E+04  0.50400001928E-02 0. -1.
        1   -1    0    0  501    0  0.00000000000E+00  0.00000000000E+00 -0.15611365804E+04  0.15611365804E+04  0.50400001928E-02 0.  1.
    10030    2    1    2    0    0  0.00000000000E+00  0.00000000000E+00  0.73711719675E+02  0.31959848805E+04  0.31951347294E+04 0.  0.
        5    1    3    3  502    0 -0.82132628300E+03  0.40959417995E+03  0.13448180787E+04  0.16281590862E+04  0.46999998093E+01 0. -1.
       -5    1    3    3    0  502  0.82132628300E+03 -0.40959417995E+03 -0.12711063590E+04  0.15678257943E+04  0.46999998093E+01 0.  1.
</event>
<event>
 5   0  0.3942564E-07  0.3213386E+04  0.7818609E-02  0.8185291E-01
       -2   -1    0    0    0  501  0.00000000000E+00  0.00000000000E+00  0.14336882550E+04  0.14336882550E+04  0.25500000920E-02 0. -1.
        2   -1    0    0  501    0  0.00000000000E+00  0.00000000000E+00 -0.18005739466E+04  0.18005739466E+04  0.25500000920E-02 0.  1.
    10030    2    1    2    0    0  0.00000000000E+00  0.00000000000E+00 -0.36688569154E+03  0.32342622016E+04  0.32133855788E+04 0.  0.
        3    1    3    3  502    0 -0.13979167815E+04 -0.51637763966E+03 -0.78788125023E+03  0.16856969091E+04  0.10100000352E+00 0.  1.
       -3    1    3    3    0  502  0.13979167815E+04  0.51637763966E+03  0.42099555869E+03  0.15485652925E+04  0.10100000352E+00 0. -1.
</event>
<event>
 5   0  0.1270948E-07  0.3201088E+04  0.7818609E-02  0.8188530E-01
       -1   -1    0    0    0  501  0.00000000000E+00  0.00000000000E+00  0.20008876100E+04  0.20008876100E+04  0.50400001928E-02 0.  1.
        1   -1    0    0  501    0  0.00000000000E+00  0.00000000000E+00 -0.12803021899E+04  0.12803021899E+04  0.50400001928E-02 0. -1.
    10030    2    1    2    0    0  0.00000000000E+00  0.00000000000E+00  0.72058542015E+03  0.32811897999E+04  0.32010878081E+04 0.  0.
        4    1    3    3  502    0 -0.53110019322E+03 -0.97334660945E+03 -0.82282944332E+03  0.13807682438E+04  0.12699999809E+01 0. -1.
       -4    1    3    3    0  502  0.53110019322E+03  0.97334660945E+03  0.15434148635E+04  0.19004215561E+04  0.12699999809E+01 0.  1.
</event>
<event>
 5   0  0.1270948E-07  0.3205865E+04  0.7818609E-02  0.8187270E-01
        1   -1    0    0  501    0  0.00000000000E+00  0.00000000000E+00  0.22042376460E+04  0.22042376460E+04  0.50400001928E-02 0. -1.
       -1   -1    0    0    0  501  0.00000000000E+00  0.00000000000E+00 -0.11656601489E+04  0.11656601489E+04  0.50400001928E-02 0.  1.
    10030    2    1    2    0    0  0.00000000000E+00  0.00000000000E+00  0.10385774971E+04  0.33698977949E+04  0.32058646152E+04 0.  0.
        4    1    3    3  502    0 -0.14953593721E+03  0.15857976884E+04  0.70813358372E+03  0.17431494745E+04  0.12699999809E+01 0.  1.
       -4    1    3    3    0  502  0.14953593721E+03 -0.15857976884E+04  0.33044391339E+03  0.16267483204E+04  0.12699999809E+01 0. -1.
</event>
<event>
 5   0  0.3942564E-07  0.3201378E+04  0.7818609E-02  0.8188453E-01
       -2   -1    0    0    0  501  0.00000000000E+00  0.00000000000E+00  0.18171235817E+04  0.18171235817E+04  0.25500000920E-02 0.  1.
        2   -1    0    0  501    0  0.00000000000E+00  0.00000000000E+00 -0.14100332950E+04  0.14100332950E+04  0.25500000920E-02 0. -1.
    10030    2    1    2    0    0  0.00000000000E+00  0.00000000000E+00  0.40709028670E+03  0.32271568766E+04  0.32013776729E+04 0.  0.
        3    1    3    3  502    0 -0.93711489530E+01  0.74085423633E+03  0.16338619018E+04  0.17940060040E+04  0.10100000352E+00 0.  1.
       -3    1    3    3    0  502  0.93711489530E+01 -0.74085423633E+03 -0.12267716151E+04  0.14331508726E+04  0.10100000352E+00 0. -1.
</event>
<event>
 5   0  0.1277374E-07  0.3196858E+04  0.7818609E-02  0.8189648E-01
       -1   -1    0    0    0  501  0.00000000000E+00  0.00000000000E+00  0.18436633105E+04  0.18436633105E+04  0.50400001928E-02 0. -1.
        1   -1    0    0  501    0  0.00000000000E+00  0.00000000000E+00 -0.13858141562E+04  0.13858141562E+04  0.50400001928E-02 0.  1.
    10030    2    1    2    0    0  0.00000000000E+00  0.00000000000E+00  0.45784915428E+03  0.32294774667E+04  0.31968576539E+04 0.  0.
        5    1    3    3  502    0  0.12753423209E+04  0.48611542561E+03  0.10693669425E+04  0.17338898437E+04  0.46999998093E+01 0. -1.
       -5    1    3    3    0  502 -0.12753423209E+04 -0.48611542561E+03 -0.61151778825E+03  0.14955876229E+04  0.46999998093E+01 0.  1.
</event>
<event>
 5   0  0.1317293E-07  0.3196413E+04  0.7818609E-02  0.8189765E-01
        1   -1    0    0  501    0  0.00000000000E+00  0.00000000000E+00  0.80559964825E+03  0.80559964826E+03  0.50400001928E-02 0. -1.
       -1   -1    0    0    0  501  0.00000000000E+00  0.00000000000E+00 -0.31706360198E+04  0.31706360198E+04  0.50400001928E-02 0.  1.
    10030    2    1    2    0    0  0.00000000000E+00  0.00000000000E+00 -0.23650363715E+04  0.39762356681E+04  0.31964125280E+04 0.  0.
        1    1    3    3  502    0 -0.11684637096E+04 -0.10069956331E+04 -0.17027819574E+04  0.22975669828E+04  0.50400001928E-02 0. -1.
       -1    1    3    3    0  502  0.11684637096E+04  0.10069956331E+04 -0.66225441414E+03  0.16786686853E+04  0.50400001928E-02 0.  1.
</event>
<event>
 5   0  0.1270948E-07  0.3195151E+04  0.7818609E-02  0.8190099E-01
        1   -1    0    0  501    0  0.00000000000E+00  0.00000000000E+00  0.13668705601E+04  0.13668705601E+04  0.50400001928E-02 0. -1.
       -1   -1    0    0    0  501  0.00000000000E+00  0.00000000000E+00 -0.18672191218E+04  0.18672191218E+04  0.50400001928E-02 0.  1.
    10030    2    1    2    0    0  0.00000000000E+00  0.00000000000E+00 -0.50034856168E+03  0.32340896819E+04  0.31951506048E+04 0.  0.
        4    1    3    3  502    0 -0.15386447725E+04 -0.32543176091E+03 -0.53450994312E+03  0.16610346352E+04  0.12699999809E+01 0.  1.
       -4    1    3    3    0  502  0.15386447725E+04  0.32543176091E+03  0.34161381443E+02  0.15730550467E+04  0.12699999809E+01 0. -1.
</event>
<event>
 5   0  0.3858721E-07  0.3201981E+04  0.7818609E-02  0.8188294E-01
        2   -1    0    0  501    0  0.00000000000E+00  0.00000000000E+00  0.19674935482E+04  0.19674935482E+04  0.25500000920E-02 0.  1.
       -2   -1    0    0    0  501  0.00000000000E+00  0.00000000000E+00 -0.13027593869E+04  0.13027593869E+04  0.25500000920E-02 0. -1.
    10030    2    1    2    0    0  0.00000000000E+00  0.00000000000E+00  0.66473416130E+03  0.32702529351E+04  0.32019810671E+04 0.  0.
        2    1    3    3  502    0 -0.74039546195E+03 -0.93264135432E+03 -0.76057383433E+03  0.14129677609E+04  0.25500000920E-02 0. -1.
       -2    1    3    3    0  502  0.74039546195E+03  0.93264135432E+03  0.14253079956E+04  0.18572851742E+04  0.25500000920E-02 0.  1.
</event>
<event>
 5   0  0.3858721E-07  0.3217550E+04  0.7818609E-02  0.8184198E-01
        2   -1    0    0  501    0  0.00000000000E+00  0.00000000000E+00  0.18649709800E+04  0.18649709800E+04  0.25500000920E-02 0.  1.
       -2   -1    0    0    0  501  0.00000000000E+00  0.00000000000E+00 -0.13877734333E+04  0.13877734333E+04  0.25500000920E-02 0. -1.
    10030    2    1    2    0    0  0.00000000000E+00  0.00000000000E+00  0.47719754665E+03  0.32527444133E+04  0.32175501114E+04 0.  0.
        2    1    3    3  502    0 -0.85914703713E+03  0.12886033234E+04 -0.20150784506E+03  0.15618058676E+04  0.25500000920E-02 0.  1.
       -2    1    3    3    0  502  0.85914703713E+03 -0.12886033234E+04  0.67870539171E+03  0.16909385457E+04  0.25500000920E-02 0. -1.
</event>
<event>
 5   0  0.3858721E-07  0.3200591E+04  0.7818609E-02  0.8188661E-01
        2   -1    0    0  501    0  0.00000000000E+00  0.00000000000E+00  0.20746047968E+04  0.20746047968E+04  0.25500000920E-02 0. -1.
       -2   -1    0    0    0  501  0.00000000000E+00  0.00000000000E+00 -0.12344255497E+04  0.12344255497E+04  0.25500000920E-02 0.  1.
    10030    2    1    2    0    0  0.00000000000E+00  0.00000000000E+00  0.84017924702E+03  0.33090303465E+04  0.32005906747E+04 0.  0.
        2    1    3    3  502    0  0.49589243490E+03  0.38690870528E+03 -0.11012753542E+04  0.12682330460E+04  0.25500000920E-02 0.  1.
       -2    1    3    3    0  502 -0.49589243490E+03 -0.38690870528E+03  0.19414546012E+04  0.20407973005E+04  0.25500000920E-02 0. -1.
</event>
<event>
 5   0  0.1288096E-07  0.3199043E+04  0.7818609E-02  0.8189070E-01
       -1   -1    0    0    0  501  0.00000000000E+00  0.00000000000E+00  0.13474902791E+04  0.13474902791E+04  0.50400001928E-02 0. -1.
        1   -1    0    0  501    0  0.00000000000E+00  0.00000000000E+00 -0.18986923616E+04  0.18986923616E+04  0.50400001928E-02 0.  1.
    10030    2    1    2    0    0  0.00000000000E+00  0.00000000000E+00 -0.55120208244E+03  0.32461826407E+04  0.31990432947E+04 0.  0.
        2    1    3    3  502    0 -0.36027269166E+03 -0.30327829976E+03  0.12755492597E+04  0.13597058702E+04  0.25500000920E-02 0. -1.
       -2    1    3    3    0  502  0.36027269166E+03  0.30327829976E+03 -0.18267513422E+04  0.18864767705E+04  0.25500000920E-02 0.  1.
</event>
<event>
 5   0  0.1270948E-07  0.3212149E+04  0.7818609E-02  0.8185616E-01
        1   -1    0    0  501    0  0.00000000000E+00  0.00000000000E+00  0.20394182231E+04  0.20394182231E+04  0.50400001928E-02 0.  1.
       -1   -1    0    0    0  501  0.00000000000E+00  0.00000000000E+00 -0.12648092505E+04  0.12648092505E+04  0.50400001928E-02 0. -1.
    10030    2    1    2    0    0  0.00000000000E+00  0.00000000000E+00  0.77460897258E+03  0.33042274736E+04  0.32121488348E+04 0.  0.
        4    1    3    3  502    0 -0.58625293482E+03  0.11901353703E+04  0.13184366259E+04  0.18703987416E+04  0.12699999809E+01 0.  1.
       -4    1    3    3    0  502  0.58625293482E+03 -0.11901353703E+04 -0.54382765332E+03  0.14338287320E+04  0.12699999809E+01 0. -1.
</event>
<event>
 5   0  0.1365455E-07  0.3205433E+04  0.7818609E-02  0.8187384E-01
        1   -1    0    0  501    0  0.00000000000E+00  0.00000000000E+00  0.14300015780E+04  0.14300015780E+04  0.50400001928E-02 0. -1.
       -1   -1    0    0    0  501  0.00000000000E+00  0.00000000000E+00 -0.17962920379E+04  0.17962920379E+04  0.50400001928E-02 0.  1.
    10030    2    1    2    0    0  0.00000000000E+00  0.00000000000E+00 -0.36629045991E+03  0.32262936160E+04  0.32054331681E+04 0.  0.
        3    1    3    3  502    0  0.13701204480E+04 -0.78229972327E+03 -0.46689751620E+03  0.16453620270E+04  0.10100000352E+00 0.  1.
       -3    1    3    3    0  502 -0.13701204480E+04  0.78229972327E+03  0.10060705629E+03  0.15809315890E+04  0.10100000352E+00 0. -1.
</event>
<event>
 5   0  0.3764056E-07  0.3199760E+04  0.7818609E-02  0.8188881E-01
       -2   -1    0    0    0  501  0.00000000000E+00  0.00000000000E+00  0.11677842279E+04  0.11677842279E+04  0.25500000920E-02 0.  1.
        2   -1    0    0  501    0  0.00000000000E+00  0.00000000000E+00 -0.21918567052E+04  0.21918567052E+04  0.25500000920E-02 0. -1.
    10030    2    1    2    0    0  0.00000000000E+00  0.00000000000E+00 -0.10240724773E+04  0.33596409331E+04  0.31997597973E+04 0.  0.
        5    1    3    3  502    0  0.15220432179E+04 -0.15454708098E+03 -0.20574199728E+02  0.15300149493E+04  0.46999998093E+01 0.  1.
       -5    1    3    3    0  502 -0.15220432179E+04  0.15454708098E+03 -0.10034982776E+04  0.18296259838E+04  0.46999998093E+01 0. -1.
</event>
<event>
 5   0  0.1270948E-07  0.3229121E+04  0.7818609E-02  0.8181168E-01
        1   -1    0    0  501    0  0.00000000000E+00  0.00000000000E+00  0.26139927318E+04  0.26139927318E+04  0.50400001928E-02 0. -1.
       -1   -1    0    0    0  501  0.00000000000E+00  0.00000000000E+00 -0.99725078080E+03  0.99725078081E+03  0.50400001928E-02 0.  1.
    10030    2    1    2    0    0  0.00000000000E+00  0.00000000000E+00  0.16167419510E+04  0.36112435127E+04  0.32291214241E+04 0.  0.
        4    1    3    3  502    0 -0.18843004658E+03 -0.12082814522E+04  0.19873301047E+04  0.23334379160E+04  0.12699999809E+01 0. -1.
       -4    1    3    3    0  502  0.18843004658E+03  0.12082814522E+04 -0.37058815363E+03  0.12778055966E+04  0.12699999809E+01 0.  1.
</event>
<event>
 5   0  0.3764056E-07  0.3201753E+04  0.7818609E-02  0.8188354E-01
       -2   -1    0    0    0  501  0.00000000000E+00  0.00000000000E+00  0.25738168182E+04  0.25738168182E+04  0.25500000920E-02 0. -1.
        2   -1    0    0  501    0  0.00000000000E+00  0.00000000000E+00 -0.99572153621E+03  0.99572153622E+03  0.25500000920E-02 0.  1.
    10030    2    1    2    0    0  0.00000000000E+00  0.00000000000E+00  0.15780952820E+04  0.35695383544E+04  0.32017525427E+04 0.  0.
        5    1    3    3  502    0 -0.10627580930E+04  0.24343293742E+03 -0.51781054826E+03  0.12070063020E+04  0.46999998093E+01 0.  1.
       -5    1    3    3    0  502  0.10627580930E+04 -0.24343293742E+03  0.20959058302E+04  0.23625320524E+04  0.46999998093E+01 0. -1.
</event>
<event>
 5   0  0.1270948E-07  0.3199827E+04  0.7818609E-02  0.8188863E-01
        1   -1    0    0  501    0  0.00000000000E+00  0.00000000000E+00  0.98166497301E+03  0.98166497303E+03  0.50400001928E-02 0. -1.
       -1   -1    0    0    0  501  0.00000000000E+00  0.00000000000E+00 -0.26075326539E+04  0.26075326539E+04  0.50400001928E-02 0.  1.
    10030    2    1    2    0    0  0.00000000000E+00  0.00000000000E+00 -0.16258676809E+04  0.35891976270E+04  0.31998271656E+04 0.  0.
        4    1    3    3  502    0  0.14481089152E+04  0.65217209140E+03 -0.10297819285E+04  0.18928286505E+04  0.12699999809E+01 0. -1.
       -4    1    3    3    0  502 -0.14481089152E+04 -0.65217209140E+03 -0.59608575241E+03  0.16963689764E+04  0.12699999809E+01 0.  1.
</event>
<event>
 5   0  0.1230450E-07  0.3154574E+04  0.7818609E-02  0.8200918E-01
        3   -1    0    0  501    0  0.00000000000E+00  0.00000000000E+00  0.15435413213E+04  0.15435413246E+04  0.10100000352E+00 0. -1.
       -3   -1    0    0    0  501  0.00000000000E+00  0.00000000000E+00 -0.16117703932E+04  0.16117703964E+04  0.10100000352E+00 0.  1.
    10030    2    1    2    0    0  0.00000000000E+00  0.00000000000E+00 -0.68229071957E+02  0.31553117210E+04  0.31545739570E+04 0.  0.
        2    1    3    3  502    0 -0.65935137411E+03  0.58251724674E+03 -0.13435286526E+04  0.16059700550E+04  0.25500000920E-02 0.  1.
       -2    1    3    3    0  502  0.65935137411E+03 -0.58251724674E+03  0.12752995807E+04  0.15493416659E+04  0.25500000920E-02 0. -1.
</event>
<event>
 5   0  0.1365455E-07  0.3189142E+04  0.7818609E-02  0.8191691E-01
        1   -1    0    0  501    0  0.00000000000E+00  0.00000000000E+00  0.22889864311E+04  0.22889864311E+04  0.50400001928E-02 0.  1.
       -1   -1    0    0    0  501  0.00000000000E+00  0.00000000000E+00 -0.11108223436E+04  0.11108223436E+04  0.50400001928E-02 0. -1.
    10030    2    1    2    0    0  0.00000000000E+00  0.00000000000E+00  0.11781640875E+04  0.33998087748E+04  0.31891423750E+04 0.  0.
        3    1    3    3  502    0 -0.89234349301E+03 -0.21591836753E+03 -0.80078844949E+03  0.12182609745E+04  0.10100000352E+00 0. -1.
       -3    1    3    3    0  502  0.89234349301E+03  0.21591836753E+03  0.19789525370E+04  0.21815478003E+04  0.10100000352E+00 0.  1.
</event>
<event>
 5   0  0.1365455E-07  0.3126241E+04  0.7818609E-02  0.8208573E-01
        1   -1    0    0  501    0  0.00000000000E+00  0.00000000000E+00  0.19817104081E+04  0.19817104081E+04  0.50400001928E-02 0. -1.
       -1   -1    0    0    0  501  0.00000000000E+00  0.00000000000E+00 -0.12329479781E+04  0.12329479781E+04  0.50400001928E-02 0.  1.
    10030    2    1    2    0    0  0.00000000000E+00  0.00000000000E+00  0.74876243005E+03  0.32146583862E+04  0.31262410917E+04 0.  0.
        3    1    3    3  502    0  0.86783260641E+03 -0.19681422954E+03 -0.94706218955E+03  0.12995368693E+04  0.10100000352E+00 0.  1.
       -3    1    3    3    0  502 -0.86783260641E+03  0.19681422954E+03  0.16958246196E+04  0.19151215169E+04  0.10100000352E+00 0. -1.
</event>
<event>
 5   0  0.3830207E-07  0.3201087E+04  0.7818609E-02  0.8188530E-01
       -2   -1    0    0    0  501  0.00000000000E+00  0.00000000000E+00  0.11286367804E+04  0.11286367804E+04  0.25500000920E-02 0. -1.
        2   -1    0    0  501    0  0.00000000000E+00  0.00000000000E+00 -0.22697639743E+04  0.22697639743E+04  0.25500000920E-02 0.  1.
    10030    2    1    2    0    0  0.00000000000E+00  0.00000000000E+00 -0.11411271939E+04  0.33984007547E+04  0.32010867556E+04 0.  0.
        4    1    3    3  502    0  0.46980961933E+02  0.81938682508E+03 -0.20293567867E+04  0.21890391866E+04  0.12699999809E+01 0.  1.
       -4    1    3    3    0  502 -0.46980961933E+02 -0.81938682508E+03  0.88822959282E+03  0.12093615681E+04  0.12699999809E+01 0. -1.
</event>
<event>
 5   0  0.3858721E-07  0.3200747E+04  0.7818609E-02  0.8188620E-01
       -2   -1    0    0    0  501  0.00000000000E+00  0.00000000000E+00  0.17006793232E+04  0.17006793232E+04  0.25500000920E-02 0.  1.
        2   -1    0    0  501    0  0.00000000000E+00  0.00000000000E+00 -0.15059840915E+04  0.15059840915E+04  0.25500000920E-02 0. -1.
    10030    2    1    2    0    0  0.00000000000E+00  0.00000000000E+00  0.19469523174E+03  0.32066634147E+04  0.32007474161E+04 0.  0.
        2    1    3    3  502    0  0.10241075272E+04 -0.26230916229E+03 -0.11063695657E+04  0.15302470192E+04  0.25500000920E-02 0. -1.
       -2    1    3    3    0  502 -0.10241075272E+04  0.26230916229E+03  0.13010647974E+04  0.16764163955E+04  0.25500000920E-02 0.  1.
</event>
<event>
 5   0  0.1365455E-07  0.3228141E+04  0.7818609E-02  0.8181425E-01
       -1   -1    0    0    0  501  0.00000000000E+00  0.00000000000E+00  0.11236257932E+04  0.11236257932E+04  0.50400001928E-02 0.  1.
        1   -1    0    0  501    0  0.00000000000E+00  0.00000000000E+00 -0.23185859100E+04  0.23185859100E+04  0.50400001928E-02 0. -1.
    10030    2    1    2    0    0  0.00000000000E+00  0.00000000000E+00 -0.11949601168E+04  0.34422117032E+04  0.32281405993E+04 0.  0.
        3    1    3    3  502    0 -0.90357247516E+03  0.81745550396E+03  0.53127580472E+03  0.13292594591E+04  0.10100000352E+00 0.  1.
       -3    1    3    3    0  502  0.90357247516E+03 -0.81745550396E+03 -0.17262359215E+04  0.21129522441E+04  0.10100000352E+00 0. -1.
</event>
<event>
 5   0  0.3942564E-07  0.3195989E+04  0.7818609E-02  0.8189877E-01
       -2   -1    0    0    0  501  0.00000000000E+00  0.00000000000E+00  0.12862306188E+04  0.12862306189E+04  0.25500000920E-02 0. -1.
        2   -1    0    0  501    0  0.00000000000E+00  0.00000000000E+00 -0.19853249445E+04  0.19853249445E+04  0.25500000920E-02 0.  1.
    10030    2    1    2    0    0  0.00000000000E+00  0.00000000000E+00 -0.69909432563E+03  0.32715555633E+04  0.31959885682E+04 0.  0.
        3    1    3    3  502    0  0.52176186155E+03  0.26724371031E+03  0.11721858010E+04  0.13106007032E+04  0.10100000352E+00 0. -1.
       -3    1    3    3    0  502 -0.52176186155E+03 -0.26724371031E+03 -0.18712801267E+04  0.19609548601E+04  0.10100000352E+00 0.  1.
</event>
<event>
 5   0  0.1317293E-07  0.3196446E+04  0.7818609E-02  0.8189756E-01
       -1   -1    0    0    0  501  0.00000000000E+00  0.00000000000E+00  0.12738663123E+04  0.12738663123E+04  0.50400001928E-02 0.  1.
        1   -1    0    0  501    0  0.00000000000E+00  0.00000000000E+00 -0.20051689423E+04  0.20051689423E+04  0.50400001928E-02 0. -1.
    10030    2    1    2    0    0  0.00000000000E+00  0.00000000000E+00 -0.73130262994E+03  0.32790352546E+04  0.31964462555E+04 0.  0.
        1    1    3    3  502    0  0.90985540454E+03  0.26617925921E+03  0.95430689039E+03  0.13451356423E+04  0.50400001928E-02 0.  1.
       -1    1    3    3    0  502 -0.90985540454E+03 -0.26617925921E+03 -0.16856095203E+04  0.19338996122E+04  0.50400001928E-02 0. -1.
</event>
<event>
 5   0  0.1270948E-07  0.3200746E+04  0.7818609E-02  0.8188620E-01
        1   -1    0    0  501    0  0.00000000000E+00  0.00000000000E+00  0.22558833976E+04  0.22558833976E+04  0.50400001928E-02 0. -1.
       -1   -1    0    0    0  501  0.00000000000E+00  0.00000000000E+00 -0.11353397635E+04  0.11353397635E+04  0.50400001928E-02 0.  1.
    10030    2    1    2    0    0  0.00000000000E+00  0.00000000000E+00  0.11205436341E+04  0.33912231611E+04  0.32007462399E+04 0.  0.
        4    1    3    3  502    0  0.12278965746E+04  0.10105818990E+04  0.37018867321E+03  0.16328034294E+04  0.12699999809E+01 0. -1.
       -4    1    3    3    0  502 -0.12278965746E+04 -0.10105818990E+04  0.75035496093E+03  0.17584197317E+04  0.12699999809E+01 0.  1.
</event>
<event>
 5   0  0.1277374E-07  0.3199557E+04  0.7818609E-02  0.8188934E-01
       -1   -1    0    0    0  501  0.00000000000E+00  0.00000000000E+00  0.15007568707E+04  0.15007568707E+04  0.50400001928E-02 0. -1.
        1   -1    0    0  501    0  0.00000000000E+00  0.00000000000E+00 -0.17053337549E+04  0.17053337550E+04  0.50400001928E-02 0.  1.
    10030    2    1    2    0    0  0.00000000000E+00  0.00000000000E+00 -0.20457688427E+03  0.32060906256E+04  0.31995570628E+04 0.  0.
        5    1    3    3  502    0 -0.15427184975E+04 -0.28637502974E+03  0.21024304981E+03  0.15831030447E+04  0.46999998093E+01 0. -1.
       -5    1    3    3    0  502  0.15427184975E+04  0.28637502974E+03 -0.41481993408E+03  0.16229875809E+04  0.46999998093E+01 0.  1.
</event>
<event>
 5   0  0.3942564E-07  0.3197949E+04  0.7818609E-02  0.8189359E-01
        2   -1    0    0  501    0  0.00000000000E+00  0.00000000000E+00  0.19014574215E+04  0.19014574215E+04  0.25500000920E-02 0. -1.
       -2   -1    0    0    0  501  0.00000000000E+00  0.00000000000E+00 -0.13446103525E+04  0.13446103525E+04  0.25500000920E-02 0.  1.
    10030    2    1    2    0    0  0.00000000000E+00  0.00000000000E+00  0.55684706902E+03  0.32460677740E+04  0.31979489263E+04 0.  0.
        3    1    3    3  502    0  0.49911079285E+03  0.15190385270E+04  0.28998319124E+03  0.16250168896E+04  0.10100000352E+00 0. -1.
       -3    1    3    3    0  502 -0.49911079285E+03 -0.15190385270E+04  0.26686387777E+03  0.16210508844E+04  0.10100000352E+00 0.  1.
</event>
<event>
 5   0  0.1317293E-07  0.3181628E+04  0.7818609E-02  0.8193686E-01
        1   -1    0    0  501    0  0.00000000000E+00  0.00000000000E+00  0.15079447623E+04  0.15079447623E+04  0.50400001928E-02 0. -1.
       -1   -1    0    0    0  501  0.00000000000E+00  0.00000000000E+00 -0.16782375055E+04  0.16782375055E+04  0.50400001928E-02 0.  1.
    10030    2    1    2    0    0  0.00000000000E+00  0.00000000000E+00 -0.17029274320E+03  0.31861822678E+04  0.31816281720E+04 0.  0.
        1    1    3    3  502    0 -0.52536511353E+03 -0.13714087396E+04  0.52721808173E+03  0.15603619257E+04  0.50400001928E-02 0. -1.
       -1    1    3    3    0  502  0.52536511353E+03  0.13714087396E+04 -0.69751082493E+03  0.16258203420E+04  0.50400001928E-02 0.  1.
</event>
<event>
 5   0  0.3750285E-07  0.3199749E+04  0.7818609E-02  0.8188884E-01
        2   -1    0    0  501    0  0.00000000000E+00  0.00000000000E+00  0.16904043311E+04  0.16904043311E+04  0.25500000920E-02 0. -1.
       -2   -1    0    0    0  501  0.00000000000E+00  0.00000000000E+00 -0.15141928675E+04  0.15141928675E+04  0.25500000920E-02 0.  1.
    10030    2    1    2    0    0  0.00000000000E+00  0.00000000000E+00  0.17621146363E+03  0.32045971986E+04  0.31997488535E+04 0.  0.
        1    1    3    3  502    0 -0.40286145494E+03 -0.39155928661E+03  0.15883682389E+04  0.16847936637E+04  0.50400001928E-02 0. -1.
       -1    1    3    3    0  502  0.40286145494E+03  0.39155928661E+03 -0.14121567753E+04  0.15198035349E+04  0.50400001928E-02 0.  1.
</event>
<event>
 5   0  0.1270948E-07  0.3193334E+04  0.7818609E-02  0.8190580E-01
       -1   -1    0    0    0  501  0.00000000000E+00  0.00000000000E+00  0.16272400093E+04  0.16272400093E+04  0.50400001928E-02 0. -1.
        1   -1    0    0  501    0  0.00000000000E+00  0.00000000000E+00 -0.15666684481E+04  0.15666684481E+04  0.50400001928E-02 0.  1.
    10030    2    1    2    0    0  0.00000000000E+00  0.00000000000E+00  0.60571561264E+02  0.31939084574E+04  0.31933340446E+04 0.  0.
        4    1    3    3  502    0  0.36482147111E+03 -0.14296311181E+04 -0.58007322414E+03  0.15853789446E+04  0.12699999809E+01 0.  1.
       -4    1    3    3    0  502 -0.36482147111E+03  0.14296311181E+04  0.64064478540E+03  0.16085295128E+04  0.12699999809E+01 0. -1.
</event>
<event>
 5   0  0.1277374E-07  0.3200965E+04  0.7818609E-02  0.8188562E-01
        1   -1    0    0  501    0  0.00000000000E+00  0.00000000000E+00  0.16429325929E+04  0.16429325929E+04  0.50400001928E-02 0. -1.
       -1   -1    0    0    0  501  0.00000000000E+00  0.00000000000E+00 -0.15591290954E+04  0.15591290954E+04  0.50400001928E-02 0.  1.
    10030    2    1    2    0    0  0.00000000000E+00  0.00000000000E+00  0.83803497453E+02  0.32020616883E+04  0.32009648591E+04 0.  0.
        5    1    3    3  502    0  0.12919332656E+04 -0.81663931181E+03  0.51696508564E+03  0.16134640740E+04  0.46999998093E+01 0.  1.
       -5    1    3    3    0  502 -0.12919332656E+04  0.81663931181E+03 -0.43316158819E+03  0.15885976142E+04  0.46999998093E+01 0. -1.
</event>
<event>
 5   0  0.1288096E-07  0.3194516E+04  0.7818609E-02  0.8190267E-01
        1   -1    0    0  501    0  0.00000000000E+00  0.00000000000E+00  0.16161374570E+04  0.16161374570E+04  0.50400001928E-02 0. -1.
       -1   -1    0    0    0  501  0.00000000000E+00  0.00000000000E+00 -0.15785994496E+04  0.15785994496E+04  0.50400001928E-02 0.  1.
    10030    2    1    2    0    0  0.00000000000E+00  0.00000000000E+00  0.37538007459E+02  0.31947369066E+04  0.31945163641E+04 0.  0.
        2    1    3    3  502    0  0.18237530144E+03  0.34428222295E+03  0.15678894047E+04  0.16155705447E+04  0.25500000920E-02 0. -1.
       -2    1    3    3    0  502 -0.18237530144E+03 -0.34428222295E+03 -0.15303513972E+04  0.15791663619E+04  0.25500000920E-02 0.  1.
</event>
<event>
 5   0  0.1270948E-07  0.3205053E+04  0.7818609E-02  0.8187484E-01
       -1   -1    0    0    0  501  0.00000000000E+00  0.00000000000E+00  0.14920382448E+04  0.14920382448E+04  0.50400001928E-02 0. -1.
        1   -1    0    0  501    0  0.00000000000E+00  0.00000000000E+00 -0.17211964755E+04  0.17211964755E+04  0.50400001928E-02 0.  1.
    10030    2    1    2    0    0  0.00000000000E+00  0.00000000000E+00 -0.22915823071E+03  0.32132347203E+04  0.32050528659E+04 0.  0.
        4    1    3    3  502    0  0.40329202768E+03  0.29758404062E+03  0.14114395062E+04  0.14977863043E+04  0.12699999809E+01 0. -1.
       -4    1    3    3    0  502 -0.40329202768E+03 -0.29758404062E+03 -0.16405977369E+04  0.17154484160E+04  0.12699999809E+01 0.  1.
</event>
<event>
 5   0  0.1277374E-07  0.3188781E+04  0.7818609E-02  0.8191786E-01
       -1   -1    0    0    0  501  0.00000000000E+00  0.00000000000E+00  0.12456179656E+04  0.12456179656E+04  0.50400001928E-02 0. -1.
        1   -1    0    0  501    0  0.00000000000E+00  0.00000000000E+00 -0.20408196920E+04  0.20408196920E+04  0.50400001928E-02 0.  1.
    10030    2    1    2    0    0  0.00000000000E+00  0.00000000000E+00 -0.79520172640E+03  0.32864376575E+04  0.31887813803E+04 0.  0.
        5    1    3    3  502    0  0.54676335752E+03  0.10665024724E+04  0.68611579971E+03  0.13809977094E+04  0.46999998093E+01 0. -1.
       -5    1    3    3    0  502 -0.54676335752E+03 -0.10665024724E+04 -0.14813175261E+04  0.19054399481E+04  0.46999998093E+01 0.  1.
</event>
<event>
 5   0  0.3858721E-07  0.3203628E+04  0.7818609E-02  0.8187860E-01
       -2   -1    0    0    0  501  0.00000000000E+00  0.00000000000E+00  0.96557132956E+03  0.96557132957E+03  0.25500000920E-02 0.  1.
        2   -1    0    0  501    0  0.00000000000E+00  0.00000000000E+00 -0.26572954402E+04  0.26572954402E+04  0.25500000920E-02 0. -1.
    10030    2    1    2    0    0  0.00000000000E+00  0.00000000000E+00 -0.16917241107E+04  0.36228667698E+04  0.32036281253E+04 0.  0.
        2    1    3    3  502    0 -0.10644730093E+04  0.86884955784E+03  0.85166398062E+02  0.13766828455E+04  0.25500000920E-02 0.  1.
       -2    1    3    3    0  502  0.10644730093E+04 -0.86884955784E+03 -0.17768905087E+04  0.22461839243E+04  0.25500000920E-02 0. -1.
</event>
<event>
 5   0  0.1317293E-07  0.3215461E+04  0.7818609E-02  0.8184746E-01
       -1   -1    0    0    0  501  0.00000000000E+00  0.00000000000E+00  0.14792869128E+04  0.14792869128E+04  0.50400001928E-02 0.  1.
        1   -1    0    0  501    0  0.00000000000E+00  0.00000000000E+00 -0.17473266214E+04  0.17473266214E+04  0.50400001928E-02 0. -1.
    10030    2    1    2    0    0  0.00000000000E+00  0.00000000000E+00 -0.26803970864E+03  0.32266135342E+04  0.32154610267E+04 0.  0.
        1    1    3    3  502    0 -0.85890652906E+03  0.13585691306E+04 -0.17111963200E+03  0.16163887023E+04  0.50400001928E-02 0. -1.
       -1    1    3    3    0  502  0.85890652906E+03 -0.13585691306E+04 -0.96920076641E+02  0.16102248320E+04  0.50400001928E-02 0.  1.
</event>
<event>
 5   0  0.1317293E-07  0.3200736E+04  0.7818609E-02  0.8188623E-01
       -1   -1    0    0    0  501  0.00000000000E+00  0.00000000000E+00  0.81779762452E+03  0.81779762454E+03  0.50400001928E-02 0. -1.
        1   -1    0    0  501    0  0.00000000000E+00  0.00000000000E+00 -0.31317998955E+04  0.31317998955E+04  0.50400001928E-02 0.  1.
    10030    2    1    2    0    0  0.00000000000E+00  0.00000000000E+00 -0.23140022710E+04  0.39495975200E+04  0.32007364872E+04 0.  0.
        1    1    3    3  502    0 -0.15177309491E+03  0.14890711306E+04 -0.45808143399E+03  0.15653135484E+04  0.50400001928E-02 0. -1.
       -1    1    3    3    0  502  0.15177309491E+03 -0.14890711306E+04 -0.18559208370E+04  0.23842839717E+04  0.50400001928E-02 0.  1.
</event>
<event>
 5   0  0.1317293E-07  0.3200942E+04  0.7818609E-02  0.8188568E-01
        1   -1    0    0  501    0  0.00000000000E+00  0.00000000000E+00  0.18461304860E+04  0.18461304860E+04  0.50400001928E-02 0. -1.
       -1   -1    0    0    0  501  0.00000000000E+00  0.00000000000E+00 -0.13875010862E+04  0.13875010862E+04  0.50400001928E-02 0.  1.
    10030    2    1    2    0    0  0.00000000000E+00  0.00000000000E+00  0.45862939980E+03  0.32336315722E+04  0.32009423953E+04 0.  0.
        1    1    3    3  502    0  0.98360290133E+03 -0.91591121610E+03 -0.64854765296E+03  0.14923076363E+04  0.50400001928E-02 0.  1.
       -1    1    3    3    0  502 -0.98360290133E+03  0.91591121610E+03  0.11071770528E+04  0.17413239358E+04  0.50400001928E-02 0. -1.
</event>
<event>
 5   0  0.3830207E-07  0.3200342E+04  0.7818609E-02  0.8188727E-01
       -2   -1    0    0    0  501  0.00000000000E+00  0.00000000000E+00  0.12017759964E+04  0.12017759964E+04  0.25500000920E-02 0. -1.
        2   -1    0    0  501    0  0.00000000000E+00  0.00000000000E+00 -0.21306362886E+04  0.21306362886E+04  0.25500000920E-02 0.  1.
    10030    2    1    2    0    0  0.00000000000E+00  0.00000000000E+00 -0.92886029221E+03  0.33324122849E+04  0.32003421996E+04 0.  0.
        4    1    3    3  502    0 -0.59704810562E+03  0.47463065938E+03 -0.19291812491E+04  0.20744836968E+04  0.12699999809E+01 0.  1.
       -4    1    3    3    0  502  0.59704810562E+03 -0.47463065938E+03  0.10003209569E+04  0.12579285882E+04  0.12699999809E+01 0. -1.
</event>
<event>
 5   0  0.1365455E-07  0.3200181E+04  0.7818609E-02  0.8188769E-01
        1   -1    0    0  501    0  0.00000000000E+00  0.00000000000E+00  0.14778875837E+04  0.14778875837E+04  0.50400001928E-02 0.  1.
       -1   -1    0    0    0  501  0.00000000000E+00  0.00000000000E+00 -0.17323978844E+04  0.17323978844E+04  0.50400001928E-02 0. -1.
    10030    2    1    2    0    0  0.00000000000E+00  0.00000000000E+00 -0.25451030067E+03  0.32102854682E+04  0.32001808221E+04 0.  0.
        3    1    3    3  502    0 -0.15425032768E+04 -0.24203480668E+03  0.22369532898E+03  0.15773195038E+04  0.10100000352E+00 0.  1.
       -3    1    3    3    0  502  0.15425032768E+04  0.24203480668E+03 -0.47820562965E+03  0.16329659644E+04  0.10100000352E+00 0. -1.
</event>
<event>
 5   0  0.3830207E-07  0.3190084E+04  0.7818609E-02  0.8191441E-01
       -2   -1    0    0    0  501  0.00000000000E+00  0.00000000000E+00  0.31601061594E+04  0.31601061594E+04  0.25500000920E-02 0. -1.
        2   -1    0    0  501    0  0.00000000000E+00  0.00000000000E+00 -0.80508638510E+03  0.80508638510E+03  0.25500000920E-02 0.  1.
    10030    2    1    2    0    0  0.00000000000E+00  0.00000000000E+00  0.23550197743E+04  0.39651925445E+04  0.31900836631E+04 0.  0.
        4    1    3    3  502    0  0.59122246311E+03 -0.25031727326E+03  0.29924033335E+04  0.30605035634E+04  0.12699999809E+01 0. -1.
       -4    1    3    3    0  502 -0.59122246311E+03  0.25031727326E+03 -0.63738355919E+03  0.90468898114E+03  0.12699999809E+01 0.  1.
</event>
<event>
 5   0  0.3942564E-07  0.3206065E+04  0.7818609E-02  0.8187217E-01
       -2   -1    0    0    0  501  0.00000000000E+00  0.00000000000E+00  0.18237302928E+04  0.18237302928E+04  0.25500000920E-02 0.  1.
        2   -1    0    0  501    0  0.00000000000E+00  0.00000000000E+00 -0.14090427372E+04  0.14090427372E+04  0.25500000920E-02 0. -1.
    10030    2    1    2    0    0  0.00000000000E+00  0.00000000000E+00  0.41468755557E+03  0.32327730301E+04  0.32060654540E+04 0.  0.
        3    1    3    3  502    0  0.51097708774E+03 -0.54297982202E+03  0.16382456042E+04  0.17999370381E+04  0.10100000352E+00 0.  1.
       -3    1    3    3    0  502 -0.51097708774E+03  0.54297982202E+03 -0.12235580486E+04  0.14328359920E+04  0.10100000352E+00 0. -1.
</event>
<event>
 5   0  0.3750285E-07  0.3205097E+04  0.7818609E-02  0.8187472E-01
        2   -1    0    0  501    0  0.00000000000E+00  0.00000000000E+00  0.23566039976E+04  0.23566039976E+04  0.25500000920E-02 0. -1.
       -2   -1    0    0    0  501  0.00000000000E+00  0.00000000000E+00 -0.10897723608E+04  0.10897723608E+04  0.25500000920E-02 0.  1.
    10030    2    1    2    0    0  0.00000000000E+00  0.00000000000E+00  0.12668316368E+04  0.34463763584E+04  0.32050971293E+04 0.  0.
        1    1    3    3  502    0 -0.12407583482E+03  0.11826390974E+04 -0.52176301124E+03  0.12985633167E+04  0.50400001928E-02 0.  1.
       -1    1    3    3    0  502  0.12407583482E+03 -0.11826390974E+04  0.17885946480E+04  0.21478130418E+04  0.50400001928E-02 0. -1.
</event>
<event>
 5   0  0.3830207E-07  0.3204027E+04  0.7818609E-02  0.8187754E-01
       -2   -1    0    0    0  501  0.00000000000E+00  0.00000000000E+00  0.12708998649E+04  0.12708998649E+04  0.25500000920E-02 0.  1.
        2   -1    0    0  501    0  0.00000000000E+00  0.00000000000E+00 -0.20193937808E+04  0.20193937808E+04  0.25500000920E-02 0. -1.
    10030    2    1    2    0    0  0.00000000000E+00  0.00000000000E+00 -0.74849391594E+03  0.32902936457E+04  0.32040270181E+04 0.  0.
        4    1    3    3  502    0  0.10347127168E+04  0.62751368409E+03 -0.14522935494E+04  0.18903867320E+04  0.12699999809E+01 0. -1.
       -4    1    3    3    0  502 -0.10347127168E+04 -0.62751368409E+03  0.70379963348E+03  0.13999069137E+04  0.12699999809E+01 0.  1.
</event>
<event>
 5   0  0.1365455E-07  0.3156192E+04  0.7818609E-02  0.8200483E-01
       -1   -1    0    0    0  501  0.00000000000E+00  0.00000000000E+00  0.16397200150E+04  0.16397200150E+04  0.50400001928E-02 0. -1.
        1   -1    0    0  501    0  0.00000000000E+00  0.00000000000E+00 -0.15187883202E+04  0.15187883202E+04  0.50400001928E-02 0.  1.
    10030    2    1    2    0    0  0.00000000000E+00  0.00000000000E+00  0.12093169480E+03  0.31585083352E+04  0.31561923941E+04 0.  0.
        3    1    3    3  502    0 -0.64178754112E+03  0.14163846782E+04  0.32964424587E+03  0.15895603617E+04  0.10100000352E+00 0. -1.
       -3    1    3    3    0  502  0.64178754112E+03 -0.14163846782E+04 -0.20871255106E+03  0.15689479735E+04  0.10100000352E+00 0.  1.
</event>
<event>
 5   0  0.3942564E-07  0.3198008E+04  0.7818609E-02  0.8189344E-01
        2   -1    0    0  501    0  0.00000000000E+00  0.00000000000E+00  0.13309354400E+04  0.13309354400E+04  0.25500000920E-02 0.  1.
       -2   -1    0    0    0  501  0.00000000000E+00  0.00000000000E+00 -0.19210648575E+04  0.19210648575E+04  0.25500000920E-02 0. -1.
    10030    2    1    2    0    0  0.00000000000E+00  0.00000000000E+00 -0.59012941757E+03  0.32520002975E+04  0.31980076931E+04 0.  0.
        3    1    3    3  502    0 -0.63093442350E+03 -0.99201846046E+03  0.80703892311E+03  0.14260051565E+04  0.10100000352E+00 0.  1.
       -3    1    3    3    0  502  0.63093442350E+03  0.99201846046E+03 -0.13971683407E+04  0.18259951410E+04  0.10100000352E+00 0. -1.
</event>
<event>
 5   0  0.1365455E-07  0.3196171E+04  0.7818609E-02  0.8189829E-01
        1   -1    0    0  501    0  0.00000000000E+00  0.00000000000E+00  0.12110594108E+04  0.12110594108E+04  0.50400001928E-02 0.  1.
       -1   -1    0    0    0  501  0.00000000000E+00  0.00000000000E+00 -0.21087961363E+04  0.21087961363E+04  0.50400001928E-02 0. -1.
    10030    2    1    2    0    0  0.00000000000E+00  0.00000000000E+00 -0.89773672554E+03  0.33198555471E+04  0.31961710883E+04 0.  0.
        3    1    3    3  502    0  0.98952929827E+03  0.12417687600E+04 -0.26098316421E+03  0.16091209115E+04  0.10100000352E+00 0. -1.
       -3    1    3    3    0  502 -0.98952929827E+03 -0.12417687600E+04 -0.63675356133E+03  0.17107346356E+04  0.10100000352E+00 0.  1.
</event>
<event>
 5   0  0.3830207E-07  0.3205569E+04  0.7818609E-02  0.8187348E-01
        2   -1    0    0  501    0  0.00000000000E+00  0.00000000000E+00  0.24237338836E+04  0.24237338836E+04  0.25500000920E-02 0. -1.
       -2   -1    0    0    0  501  0.00000000000E+00  0.00000000000E+00 -0.10599008813E+04  0.10599008813E+04  0.25500000920E-02 0.  1.
    10030    2    1    2    0    0  0.00000000000E+00  0.00000000000E+00  0.13638330023E+04  0.34836347650E+04  0.32055687042E+04 0.  0.
        4    1    3    3  502    0 -0.11797640738E+04  0.10139886426E+04  0.26256845247E+03  0.15776438262E+04  0.12699999809E+01 0. -1.
       -4    1    3    3    0  502  0.11797640738E+04 -0.10139886426E+04  0.11012645498E+04  0.19059909388E+04  0.12699999809E+01 0.  1.
</event>
<event>
 5   0  0.3858721E-07  0.3197022E+04  0.7818609E-02  0.8189604E-01
        2   -1    0    0  501    0  0.00000000000E+00  0.00000000000E+00  0.16622812401E+04  0.16622812401E+04  0.25500000920E-02 0. -1.
       -2   -1    0    0    0  501  0.00000000000E+00  0.00000000000E+00 -0.15371875407E+04  0.15371875408E+04  0.25500000920E-02 0.  1.
    10030    2    1    2    0    0  0.00000000000E+00  0.00000000000E+00  0.12509369933E+03  0.31994687808E+04  0.31970223718E+04 0.  0.
        2    1    3    3  502    0 -0.15449557181E+04 -0.17001586709E+03 -0.31116150884E+03  0.15851230395E+04  0.25500000920E-02 0.  1.
       -2    1    3    3    0  502  0.15449557181E+04  0.17001586709E+03  0.43625520817E+03  0.16143457413E+04  0.25500000920E-02 0. -1.
</event>
<event>
 5   0  0.3750285E-07  0.3205207E+04  0.7818609E-02  0.8187443E-01
        2   -1    0    0  501    0  0.00000000000E+00  0.00000000000E+00  0.15746999948E+04  0.15746999948E+04  0.25500000920E-02 0. -1.
       -2   -1    0    0    0  501  0.00000000000E+00  0.00000000000E+00 -0.16310012006E+04  0.16310012006E+04  0.25500000920E-02 0.  1.
    10030    2    1    2    0    0  0.00000000000E+00  0.00000000000E+00 -0.56301205802E+02  0.32057011953E+04  0.32052067528E+04 0.  0.
        1    1    3    3  502    0 -0.36532856981E+03 -0.47798562800E+03 -0.15137761073E+04  0.16289423954E+04  0.50400001928E-02 0.  1.
       -1    1    3    3    0  502  0.36532856981E+03  0.47798562800E+03  0.14574749015E+04  0.15767587999E+04  0.50400001928E-02 0. -1.
</event>
<event>
 5   0  0.3942564E-07  0.3200708E+04  0.7818609E-02  0.8188630E-01
        2   -1    0    0  501    0  0.00000000000E+00  0.00000000000E+00  0.20679585502E+04  0.20679585502E+04  0.25500000920E-02 0. -1.
       -2   -1    0    0    0  501  0.00000000000E+00  0.00000000000E+00 -0.12384837489E+04  0.12384837489E+04  0.25500000920E-02 0.  1.
    10030    2    1    2    0    0  0.00000000000E+00  0.00000000000E+00  0.82947480128E+03  0.33064422991E+04  0.32007080828E+04 0.  0.
        3    1    3    3  502    0 -0.80751237314E+02  0.31384591361E+03  0.20337083503E+04  0.20593663308E+04  0.10100000352E+00 0. -1.
       -3    1    3    3    0  502  0.80751237314E+02 -0.31384591361E+03 -0.12042335491E+04  0.12470759683E+04  0.10100000352E+00 0.  1.
</event>
<event>
 5   0  0.3858721E-07  0.3198464E+04  0.7818609E-02  0.8189223E-01
       -2   -1    0    0    0  501  0.00000000000E+00  0.00000000000E+00  0.10089205620E+04  0.10089205620E+04  0.25500000920E-02 0. -1.
        2   -1    0    0  501    0  0.00000000000E+00  0.00000000000E+00 -0.25349299591E+04  0.25349299591E+04  0.25500000920E-02 0.  1.
    10030    2    1    2    0    0  0.00000000000E+00  0.00000000000E+00 -0.15260093971E+04  0.35438505210E+04  0.31984639806E+04 0.  0.
        2    1    3    3  502    0  0.10867696700E+04 -0.40178866314E+03 -0.19843242522E+04  0.22978348904E+04  0.25500000920E-02 0.  1.
       -2    1    3    3    0  502 -0.10867696700E+04  0.40178866314E+03  0.45831485510E+03  0.12460156307E+04  0.25500000920E-02 0. -1.
</event>
<event>
 5   0  0.1288096E-07  0.3207279E+04  0.7818609E-02  0.8186897E-01
       -1   -1    0    0    0  501  0.00000000000E+00  0.00000000000E+00  0.11785599071E+04  0.11785599071E+04  0.50400001928E-02 0. -1.
        1   -1    0    0  501    0  0.00000000000E+00  0.00000000000E+00 -0.21820358283E+04  0.21820358283E+04  0.50400001928E-02 0.  1.
    10030    2    1    2    0    0  0.00000000000E+00  0.00000000000E+00 -0.10034759212E+04  0.33605957353E+04  0.32072791852E+04 0.  0.
        2    1    3    3  502    0  0.37895511922E+03 -0.11817130113E+04 -0.15659709413E+04  0.19980784800E+04  0.25500000920E-02 0.  1.
       -2    1    3    3    0  502 -0.37895511922E+03  0.11817130113E+04  0.56249502009E+03  0.13625172553E+04  0.25500000920E-02 0. -1.
</event>
<event>
 5   0  0.1288096E-07  0.3191055E+04  0.7818609E-02  0.8191183E-01
       -1   -1    0    0    0  501  0.00000000000E+00  0.00000000000E+00  0.16612075845E+04  0.16612075845E+04  0.50400001928E-02 0. -1.
        1   -1    0    0  501    0  0.00000000000E+00  0.00000000000E+00 -0.15324443934E+04  0.15324443934E+04  0.50400001928E-02 0.  1.
    10030    2    1    2    0    0  0.00000000000E+00  0.00000000000E+00  0.12876319115E+03  0.31936519779E+04  0.31910551541E+04 0.  0.
        2    1    3    3  502    0 -0.54813759405E+03  0.10445886683E+04  0.11395406805E+04  0.16401747682E+04  0.25500000920E-02 0. -1.
       -2    1    3    3    0  502  0.54813759405E+03 -0.10445886683E+04 -0.10107774893E+04  0.15534772096E+04  0.25500000920E-02 0.  1.
</event>
<event>
 5   0  0.1270948E-07  0.3197694E+04  0.7818609E-02  0.8189426E-01
       -1   -1    0    0    0  501  0.00000000000E+00  0.00000000000E+00  0.14693272582E+04  0.14693272582E+04  0.50400001928E-02 0.  1.
        1   -1    0    0  501    0  0.00000000000E+00  0.00000000000E+00 -0.17397836887E+04  0.17397836887E+04  0.50400001928E-02 0. -1.
    10030    2    1    2    0    0  0.00000000000E+00  0.00000000000E+00 -0.27045643045E+03  0.32091109469E+04  0.31976939173E+04 0.  0.
        4    1    3    3  502    0 -0.47702898917E+03  0.74685904948E+03 -0.14707518877E+04  0.17171103122E+04  0.12699999809E+01 0. -1.
       -4    1    3    3    0  502  0.47702898917E+03 -0.74685904948E+03  0.12002954572E+04  0.14920006347E+04  0.12699999809E+01 0.  1.
</event>
<event>
 5   0  0.1277374E-07  0.3205087E+04  0.7818609E-02  0.8187475E-01
        1   -1    0    0  501    0  0.00000000000E+00  0.00000000000E+00  0.14966072215E+04  0.14966072215E+04  0.50400001928E-02 0. -1.
       -1   -1    0    0    0  501  0.00000000000E+00  0.00000000000E+00 -0.17159788928E+04  0.17159788928E+04  0.50400001928E-02 0.  1.
    10030    2    1    2    0    0  0.00000000000E+00  0.00000000000E+00 -0.21937167133E+03  0.32125861143E+04  0.32050874577E+04 0.  0.
        5    1    3    3  502    0  0.78393926668E+03  0.11638713360E+04  0.66605447546E+03  0.15533215748E+04  0.46999998093E+01 0. -1.
       -5    1    3    3    0  502 -0.78393926668E+03 -0.11638713360E+04 -0.88542614679E+03  0.16592645395E+04  0.46999998093E+01 0.  1.
</event>
<event>
 5   0  0.1277374E-07  0.3199534E+04  0.7818609E-02  0.8188940E-01
       -1   -1    0    0    0  501  0.00000000000E+00  0.00000000000E+00  0.24563900569E+04  0.24563900569E+04  0.50400001928E-02 0. -1.
        1   -1    0    0  501    0  0.00000000000E+00  0.00000000000E+00 -0.10418765081E+04  0.10418765081E+04  0.50400001928E-02 0.  1.
    10030    2    1    2    0    0  0.00000000000E+00  0.00000000000E+00  0.14145135488E+04  0.34982665650E+04  0.31995344005E+04 0.  0.
        5    1    3    3  502    0 -0.77833561443E+03  0.11123049624E+04 -0.21804754964E+03  0.13749892661E+04  0.46999998093E+01 0.  1.
       -5    1    3    3    0  502  0.77833561443E+03 -0.11123049624E+04  0.16325610984E+04  0.21232772989E+04  0.46999998093E+01 0. -1.
</event>
<event>
 5   0  0.3942564E-07  0.3184743E+04  0.7818609E-02  0.8192858E-01
        2   -1    0    0  501    0  0.00000000000E+00  0.00000000000E+00  0.22640619657E+04  0.22640619657E+04  0.25500000920E-02 0. -1.
       -2   -1    0    0    0  501  0.00000000000E+00  0.00000000000E+00 -0.11199549370E+04  0.11199549370E+04  0.25500000920E-02 0.  1.
    10030    2    1    2    0    0  0.00000000000E+00  0.00000000000E+00  0.11441070287E+04  0.33840169027E+04  0.31847432400E+04 0.  0.
        3    1    3    3  502    0 -0.11997561558E+04  0.77116139148E+03  0.13245630894E+04  0.19464254708E+04  0.10100000352E+00 0. -1.
       -3    1    3    3    0  502  0.11997561558E+04 -0.77116139148E+03 -0.18045606071E+03  0.14375914320E+04  0.10100000352E+00 0.  1.
</event>
<event>
 5   0  0.3942564E-07  0.3222146E+04  0.7818609E-02  0.8182993E-01
        2   -1    0    0  501    0  0.00000000000E+00  0.00000000000E+00  0.26744724085E+04  0.26744724085E+04  0.25500000920E-02 0. -1.
       -2   -1    0    0    0  501  0.00000000000E+00  0.00000000000E+00 -0.97049271526E+03  0.97049271526E+03  0.25500000920E-02 0.  1.
    10030    2    1    2    0    0  0.00000000000E+00  0.00000000000E+00  0.17039796933E+04  0.36449651238E+04  0.32221458624E+04 0.  0.
        3    1    3    3  502    0  0.87217027450E+03  0.13409267895E+04  0.10689675278E+04  0.19239171573E+04  0.10100000352E+00 0. -1.
       -3    1    3    3    0  502 -0.87217027450E+03 -0.13409267895E+04  0.63501216549E+03  0.17210479665E+04  0.10100000352E+00 0.  1.
</event>
<event>
 5   0  0.1230450E-07  0.3206332E+04  0.7818609E-02  0.8187147E-01
       -3   -1    0    0    0  501  0.00000000000E+00  0.00000000000E+00  0.14101335736E+04  0.14101335772E+04  0.10100000352E+00 0. -1.
        3   -1    0    0  501    0  0.00000000000E+00  0.00000000000E+00 -0.18226222090E+04  0.18226222118E+04  0.10100000352E+00 0.  1.
    10030    2    1    2    0    0  0.00000000000E+00  0.00000000000E+00 -0.41248863546E+03  0.32327557890E+04  0.32063317229E+04 0.  0.
        2    1    3    3  502    0  0.59318405129E+03 -0.12775944547E+03 -0.17023706609E+04  0.18072785236E+04  0.25500000920E-02 0.  1.
       -2    1    3    3    0  502 -0.59318405129E+03  0.12775944547E+03  0.12898820255E+04  0.14254772654E+04  0.25500000920E-02 0. -1.
</event>
<event>
 5   0  0.3750285E-07  0.3201294E+04  0.7818609E-02  0.8188475E-01
        2   -1    0    0  501    0  0.00000000000E+00  0.00000000000E+00  0.17184567204E+04  0.17184567204E+04  0.25500000920E-02 0.  1.
       -2   -1    0    0    0  501  0.00000000000E+00  0.00000000000E+00 -0.14909141320E+04  0.14909141320E+04  0.25500000920E-02 0. -1.
    10030    2    1    2    0    0  0.00000000000E+00  0.00000000000E+00  0.22754258840E+03  0.32093708523E+04  0.32012943692E+04 0.  0.
        1    1    3    3  502    0  0.81453853226E+03  0.13352546399E+04 -0.22722420914E+03  0.15805090368E+04  0.50400001928E-02 0. -1.
       -1    1    3    3    0  502 -0.81453853226E+03 -0.13352546399E+04  0.45476679754E+03  0.16288618156E+04  0.50400001928E-02 0.  1.
</event>
<event>
 5   0  0.1288096E-07  0.3195490E+04  0.7818609E-02  0.8190009E-01
        1   -1    0    0  501    0  0.00000000000E+00  0.00000000000E+00  0.26565792698E+04  0.26565792698E+04  0.50400001928E-02 0.  1.
       -1   -1    0    0    0  501  0.00000000000E+00  0.00000000000E+00 -0.96093095492E+03  0.96093095493E+03  0.50400001928E-02 0. -1.
    10030    2    1    2    0    0  0.00000000000E+00  0.00000000000E+00  0.16956483148E+04  0.36175102247E+04  0.31954901061E+04 0.  0.
        2    1    3    3  502    0  0.53033810947E+03  0.65583666933E+03 -0.68837464312E+03  0.10886872354E+04  0.25500000920E-02 0. -1.
       -2    1    3    3    0  502 -0.53033810947E+03 -0.65583666933E+03  0.23840229580E+04  0.25288229893E+04  0.25500000920E-02 0.  1.
</event>
<event>
 5   0  0.3942564E-07  0.3183502E+04  0.7818609E-02  0.8193188E-01
       -2   -1    0    0    0  501  0.00000000000E+00  0.00000000000E+00  0.14883287114E+04  0.14883287114E+04  0.25500000920E-02 0. -1.
        2   -1    0    0  501    0  0.00000000000E+00  0.00000000000E+00 -0.17023597545E+04  0.17023597545E+04  0.25500000920E-02 0.  1.
    10030    2    1    2    0    0  0.00000000000E+00  0.00000000000E+00 -0.21403104312E+03  0.31906884659E+04  0.31835017824E+04 0.  0.
        3    1    3    3  502    0 -0.33098895974E+03 -0.13392802590E+04  0.68878296556E+03  0.15419621550E+04  0.10100000352E+00 0. -1.
       -3    1    3    3    0  502  0.33098895974E+03  0.13392802590E+04 -0.90281400867E+03  0.16487263109E+04  0.10100000352E+00 0.  1.
</event>
<event>
 5   0  0.3830207E-07  0.3199031E+04  0.7818609E-02  0.8189073E-01
       -2   -1    0    0    0  501  0.00000000000E+00  0.00000000000E+00  0.12812260306E+04  0.12812260306E+04  0.25500000920E-02 0.  1.
        2   -1    0    0  501    0  0.00000000000E+00  0.00000000000E+00 -0.19968757313E+04  0.19968757313E+04  0.25500000920E-02 0. -1.
    10030    2    1    2    0    0  0.00000000000E+00  0.00000000000E+00 -0.71564970072E+03  0.32781017620E+04  0.31990305825E+04 0.  0.
        4    1    3    3  502    0 -0.77282787724E+02  0.91168154595E+03 -0.17022412379E+04  0.19325534185E+04  0.12699999809E+01 0. -1.
       -4    1    3    3    0  502  0.77282787724E+02 -0.91168154595E+03  0.98659153716E+03  0.13455483435E+04  0.12699999809E+01 0.  1.
</event>
<event>
 5   0  0.3764056E-07  0.3198995E+04  0.7818609E-02  0.8189083E-01
        2   -1    0    0  501    0  0.00000000000E+00  0.00000000000E+00  0.22980227485E+04  0.22980227485E+04  0.25500000920E-02 0. -1.
       -2   -1    0    0    0  501  0.00000000000E+00  0.00000000000E+00 -0.11133015573E+04  0.11133015573E+04  0.25500000920E-02 0.  1.
    10030    2    1    2    0    0  0.00000000000E+00  0.00000000000E+00  0.11847211912E+04  0.34113243057E+04  0.31989950325E+04 0.  0.
        5    1    3    3  502    0  0.13826397247E+04  0.70932072338E+03  0.18834464417E+03  0.15653511721E+04  0.46999998093E+01 0.  1.
       -5    1    3    3    0  502 -0.13826397247E+04 -0.70932072338E+03  0.99637654703E+03  0.18459731337E+04  0.46999998093E+01 0. -1.
</event>
<event>
 5   0  0.1317293E-07  0.3189202E+04  0.7818609E-02  0.8191675E-01
       -1   -1    0    0    0  501  0.00000000000E+00  0.00000000000E+00  0.12912559353E+04  0.12912559354E+04  0.50400001928E-02 0.  1.
        1   -1    0    0  501    0  0.00000000000E+00  0.00000000000E+00 -0.19692080834E+04  0.19692080834E+04  0.50400001928E-02 0. -1.
    10030    2    1    2    0    0  0.00000000000E+00  0.00000000000E+00 -0.67795214802E+03  0.32604640187E+04  0.31892015462E+04 0.  0.
        1    1    3    3  502    0  0.43329479931E+02  0.23585799757E+03 -0.19506681347E+04  0.19653530499E+04  0.50400001928E-02 0. -1.
       -1    1    3    3    0  502 -0.43329479931E+02 -0.23585799757E+03  0.12727159867E+04  0.12951109689E+04  0.50400001928E-02 0.  1.
</event>
<event>
 5   0  0.1365455E-07  0.3195640E+04  0.7818609E-02  0.8189969E-01
        1   -1    0    0  501    0  0.00000000000E+00  0.00000000000E+00  0.20211603309E+04  0.20211603309E+04  0.50400001928E-02 0.  1.
       -1   -1    0    0    0  501  0.00000000000E+00  0.00000000000E+00 -0.12631504224E+04  0.12631504224E+04  0.50400001928E-02 0. -1.
    10030    2    1    2    0    0  0.00000000000E+00  0.00000000000E+00  0.75800990848E+03  0.32843107533E+04  0.31956404840E+04 0.  0.
        3    1    3    3  502    0  0.72561100703E+03  0.11285843356E+04 -0.51271939788E+03  0.14363478434E+04  0.10100000352E+00 0. -1.
       -3    1    3    3    0  502 -0.72561100703E+03 -0.11285843356E+04  0.12707293064E+04  0.18479629099E+04  0.10100000352E+00 0.  1.
</event>
<event>
 5   0  0.1270948E-07  0.3184150E+04  0.7818609E-02  0.8193016E-01
        1   -1    0    0  501    0  0.00000000000E+00  0.00000000000E+00  0.14760302222E+04  0.14760302222E+04  0.50400001928E-02 0. -1.
       -1   -1    0    0    0  501  0.00000000000E+00  0.00000000000E+00 -0.17172434590E+04  0.17172434591E+04  0.50400001928E-02 0.  1.
    10030    2    1    2    0    0  0.00000000000E+00  0.00000000000E+00 -0.24121323683E+03  0.31932736813E+04  0.31841502756E+04 0.  0.
        4    1    3    3  502    0 -0.10454772873E+04 -0.30144694210E+02 -0.13243667065E+04  0.16875663682E+04  0.12699999809E+01 0.  1.
       -4    1    3    3    0  502  0.10454772873E+04  0.30144694210E+02  0.10831534697E+04  0.15057073131E+04  0.12699999809E+01 0. -1.
</event>
<event>
 5   0  0.1277374E-07  0.3201591E+04  0.7818609E-02  0.8188397E-01
        1   -1    0    0  501    0  0.00000000000E+00  0.00000000000E+00  0.18598570997E+04  0.18598570997E+04  0.50400001928E-02 0. -1.
       -1   -1    0    0    0  501  0.00000000000E+00  0.00000000000E+00 -0.13778190773E+04  0.13778190773E+04  0.50400001928E-02 0.  1.
    10030    2    1    2    0    0  0.00000000000E+00  0.00000000000E+00  0.48203802235E+03  0.32376761770E+04  0.32015912250E+04 0.  0.
        5    1    3    3  502    0  0.85216948797E+03  0.16008264245E+03  0.16018099378E+04  0.18214380186E+04  0.46999998093E+01 0. -1.
       -5    1    3    3    0  502 -0.85216948797E+03 -0.16008264245E+03 -0.11197719155E+04  0.14162381584E+04  0.46999998093E+01 0.  1.
</event>
<event>
 5   0  0.3942564E-07  0.3196453E+04  0.7818609E-02  0.8189755E-01
       -2   -1    0    0    0  501  0.00000000000E+00  0.00000000000E+00  0.24329622251E+04  0.24329622251E+04  0.25500000920E-02 0. -1.
        2   -1    0    0  501    0  0.00000000000E+00  0.00000000000E+00 -0.10498838567E+04  0.10498838568E+04  0.25500000920E-02 0.  1.
    10030    2    1    2    0    0  0.00000000000E+00  0.00000000000E+00  0.13830783684E+04  0.34828460819E+04  0.31964528867E+04 0.  0.
        3    1    3    3  502    0  0.96014044763E+02  0.15781728642E+04  0.43721807874E+03  0.16404291953E+04  0.10100000352E+00 0.  1.
       -3    1    3    3    0  502 -0.96014044763E+02 -0.15781728642E+04  0.94586028962E+03  0.18424168866E+04  0.10100000352E+00 0. -1.
</event>
<event>
 5   0  0.1288096E-07  0.3126256E+04  0.7818609E-02  0.8208569E-01
        1   -1    0    0  501    0  0.00000000000E+00  0.00000000000E+00  0.88781264274E+03  0.88781264275E+03  0.50400001928E-02 0. -1.
       -1   -1    0    0    0  501  0.00000000000E+00  0.00000000000E+00 -0.27521219892E+04  0.27521219892E+04  0.50400001928E-02 0.  1.
    10030    2    1    2    0    0  0.00000000000E+00  0.00000000000E+00 -0.18643093465E+04  0.36399346320E+04  0.31262557134E+04 0.  0.
        2    1    3    3  502    0 -0.10146248006E+03  0.12309884679E+04 -0.20475511295E+04  0.23912534100E+04  0.25500000920E-02 0.  1.
       -2    1    3    3    0  502  0.10146248006E+03 -0.12309884679E+04  0.18324178300E+03  0.12486812220E+04  0.25500000920E-02 0. -1.
</event>
<event>
 5   0  0.1270948E-07  0.3199854E+04  0.7818609E-02  0.8188856E-01
        1   -1    0    0  501    0  0.00000000000E+00  0.00000000000E+00  0.23146963804E+04  0.23146963804E+04  0.50400001928E-02 0.  1.
       -1   -1    0    0    0  501  0.00000000000E+00  0.00000000000E+00 -0.11058755913E+04  0.11058755913E+04  0.50400001928E-02 0. -1.
    10030    2    1    2    0    0  0.00000000000E+00  0.00000000000E+00  0.12088207891E+04  0.34205719717E+04  0.31998538894E+04 0.  0.
        4    1    3    3  502    0  0.14691562202E+04 -0.37925579940E+03  0.61953363271E+02  0.15185831531E+04  0.12699999809E+01 0.  1.
       -4    1    3    3    0  502 -0.14691562202E+04  0.37925579940E+03  0.11468674258E+04  0.19019888186E+04  0.12699999809E+01 0. -1.
</event>
<event>
 5   0  0.1365455E-07  0.3199356E+04  0.7818609E-02  0.8188987E-01
       -1   -1    0    0    0  501  0.00000000000E+00  0.00000000000E+00  0.18197085841E+04  0.18197085841E+04  0.50400001928E-02 0.  1.
        1   -1    0    0  501    0  0.00000000000E+00  0.00000000000E+00 -0.14062528328E+04  0.14062528328E+04  0.50400001928E-02 0. -1.
    10030    2    1    2    0    0  0.00000000000E+00  0.00000000000E+00  0.41345575124E+03  0.32259614169E+04  0.31993564048E+04 0.  0.
        3    1    3    3  502    0  0.80211527097E+03  0.13819819481E+04  0.13055278590E+03  0.16032177185E+04  0.10100000352E+00 0. -1.
       -3    1    3    3    0  502 -0.80211527097E+03 -0.13819819481E+04  0.28290296534E+03  0.16227436984E+04  0.10100000352E+00 0.  1.
</event>
<event>
 5   0  0.1270948E-07  0.3193634E+04  0.7818609E-02  0.8190500E-01
       -1   -1    0    0    0  501  0.00000000000E+00  0.00000000000E+00  0.11840383632E+04  0.11840383632E+04  0.50400001928E-02 0. -1.
        1   -1    0    0  501    0  0.00000000000E+00  0.00000000000E+00 -0.21534980918E+04  0.21534980918E+04  0.50400001928E-02 0.  1.
    10030    2    1    2    0    0  0.00000000000E+00  0.00000000000E+00 -0.96945972856E+03  0.33375364550E+04  0.31936338899E+04 0.  0.
        4    1    3    3  502    0 -0.13252256677E+04 -0.73511053579E+03 -0.10106056569E+04  0.18215202379E+04  0.12699999809E+01 0.  1.
       -4    1    3    3    0  502  0.13252256677E+04  0.73511053579E+03  0.41145928380E+02  0.15160162171E+04  0.12699999809E+01 0. -1.
</event>
<event>
 5   0  0.3858721E-07  0.3197192E+04  0.7818609E-02  0.8189559E-01
        2   -1    0    0  501    0  0.00000000000E+00  0.00000000000E+00  0.11632383046E+04  0.11632383046E+04  0.25500000920E-02 0.  1.
       -2   -1    0    0    0  501  0.00000000000E+00  0.00000000000E+00 -0.21968921755E+04  0.21968921755E+04  0.25500000920E-02 0. -1.
    10030    2    1    2    0    0  0.00000000000E+00  0.00000000000E+00 -0.10336538709E+04  0.33601304801E+04  0.31971919740E+04 0.  0.
        2    1    3    3  502    0 -0.13936726201E+04 -0.33472394928E+03 -0.12608208859E+04  0.19089349912E+04  0.25500000920E-02 0. -1.
       -2    1    3    3    0  502  0.13936726201E+04  0.33472394928E+03  0.22716701504E+03  0.14511954889E+04  0.25500000920E-02 0.  1.
</event>
<event>
 5   0  0.3764056E-07  0.3196384E+04  0.7818609E-02  0.8189773E-01
       -2   -1    0    0    0  501  0.00000000000E+00  0.00000000000E+00  0.16281717314E+04  0.16281717314E+04  0.25500000920E-02 0.  1.
        2   -1    0    0  501    0  0.00000000000E+00  0.00000000000E+00 -0.15687638562E+04  0.15687638562E+04  0.25500000920E-02 0. -1.
    10030    2    1    2    0    0  0.00000000000E+00  0.00000000000E+00  0.59407875241E+02  0.31969355876E+04  0.31963835589E+04 0.  0.
        5    1    3    3  502    0  0.57128316968E+03  0.12875780214E+04 -0.72539217765E+03  0.15844360267E+04  0.46999998093E+01 0. -1.
       -5    1    3    3    0  502 -0.57128316968E+03 -0.12875780214E+04  0.78480005289E+03  0.16124995610E+04  0.46999998093E+01 0.  1.
</event>
<event>
 5   0  0.3942564E-07  0.3199625E+04  0.7818609E-02  0.8188916E-01
       -2   -1    0    0    0  501  0.00000000000E+00  0.00000000000E+00  0.12905337924E+04  0.12905337924E+04  0.25500000920E-02 0.  1.
        2   -1    0    0  501    0  0.00000000000E+00  0.00000000000E+00 -0.19832100814E+04  0.19832100814E+04  0.25500000920E-02 0. -1.
    10030    2    1    2    0    0  0.00000000000E+00  0.00000000000E+00 -0.69267628905E+03  0.32737438738E+04  0.31996247451E+04 0.  0.
        3    1    3    3  502    0  0.10730640337E+04 -0.11466943213E+04 -0.34272282505E+02  0.15708433679E+04  0.10100000352E+00 0.  1.
       -3    1    3    3    0  502 -0.10730640337E+04  0.11466943213E+04 -0.65840400654E+03  0.17029005059E+04  0.10100000352E+00 0. -1.
</event>
<event>
 5   0  0.3764056E-07  0.3204036E+04  0.7818609E-02  0.8187752E-01
        2   -1    0    0  501    0  0.00000000000E+00  0.00000000000E+00  0.13147651670E+04  0.13147651670E+04  0.25500000920E-02 0. -1.
       -2   -1    0    0    0  501  0.00000000000E+00  0.00000000000E+00 -0.19520305038E+04  0.19520305038E+04  0.25500000920E-02 0.  1.
    10030    2    1    2    0    0  0.00000000000E+00  0.00000000000E+00 -0.63726533678E+03  0.32667956707E+04  0.32040360243E+04 0.  0.
        5    1    3    3  502    0  0.11144525367E+04 -0.11027028904E+04 -0.65444947098E+03  0.16989068018E+04  0.46999998093E+01 0.  1.
       -5    1    3    3    0  502 -0.11144525367E+04  0.11027028904E+04  0.17184134192E+02  0.15678888690E+04  0.46999998093E+01 0. -1.
</event>
<event>
 5   0  0.1270948E-07  0.3200272E+04  0.7818609E-02  0.8188745E-01
       -1   -1    0    0    0  501  0.00000000000E+00  0.00000000000E+00  0.19139844919E+04  0.19139844919E+04  0.50400001928E-02 0. -1.
        1   -1    0    0  501    0  0.00000000000E+00  0.00000000000E+00 -0.13377511285E+04  0.13377511285E+04  0.50400001928E-02 0.  1.
    10030    2    1    2    0    0  0.00000000000E+00  0.00000000000E+00  0.57623336342E+03  0.32517356204E+04  0.32002718097E+04 0.  0.
        4    1    3    3  502    0  0.11546351169E+04  0.78823553182E+03 -0.50281990726E+03  0.14857075684E+04  0.12699999809E+01 0.  1.
       -4    1    3    3    0  502 -0.11546351169E+04 -0.78823553182E+03  0.10790532707E+04  0.17660280520E+04  0.12699999809E+01 0. -1.
</event>
<event>
 5   0  0.1277374E-07  0.3200472E+04  0.7818609E-02  0.8188693E-01
        1   -1    0    0  501    0  0.00000000000E+00  0.00000000000E+00  0.28766402163E+04  0.28766402163E+04  0.50400001928E-02 0. -1.
       -1   -1    0    0    0  501  0.00000000000E+00  0.00000000000E+00 -0.89018934336E+03  0.89018934337E+03  0.50400001928E-02 0.  1.
    10030    2    1    2    0    0  0.00000000000E+00  0.00000000000E+00  0.19864508729E+04  0.37668295596E+04  0.32004715060E+04 0.  0.
        5    1    3    3  502    0 -0.30718739999E+03 -0.24866836506E+03 -0.83183526793E+03  0.92096257115E+03  0.46999998093E+01 0.  1.
       -5    1    3    3    0  502  0.30718739999E+03  0.24866836506E+03  0.28182861408E+04  0.28458669885E+04  0.46999998093E+01 0. -1.
</event>
<event>
 5   0  0.1365455E-07  0.3207925E+04  0.7818609E-02  0.8186727E-01
        1   -1    0    0  501    0  0.00000000000E+00  0.00000000000E+00  0.13605018664E+04  0.13605018664E+04  0.50400001928E-02 0. -1.
       -1   -1    0    0    0  501  0.00000000000E+00  0.00000000000E+00 -0.18909902843E+04  0.18909902843E+04  0.50400001928E-02 0.  1.
    10030    2    1    2    0    0  0.00000000000E+00  0.00000000000E+00 -0.53048841787E+03  0.32514921507E+04  0.32079250684E+04 0.  0.
        3    1    3    3  502    0 -0.18383539947E+03  0.86895819368E+03  0.10884888529E+04  0.14048814148E+04  0.10100000352E+00 0. -1.
       -3    1    3    3    0  502  0.18383539947E+03 -0.86895819368E+03 -0.16189772708E+04  0.18466107359E+04  0.10100000352E+00 0.  1.
</event>
<event>
 5   0  0.1277374E-07  0.3213718E+04  0.7818609E-02  0.8185204E-01
        1   -1    0    0  501    0  0.00000000000E+00  0.00000000000E+00  0.18021108364E+04  0.18021108364E+04  0.50400001928E-02 0. -1.
       -1   -1    0    0    0  501  0.00000000000E+00  0.00000000000E+00 -0.14327617167E+04  0.14327617167E+04  0.50400001928E-02 0.  1.
    10030    2    1    2    0    0  0.00000000000E+00  0.00000000000E+00  0.36934911972E+03  0.32348725530E+04  0.32137177322E+04 0.  0.
        5    1    3    3  502    0 -0.61302478945E+03  0.30540177276E+03  0.16478260597E+04  0.17844950121E+04  0.46999998093E+01 0. -1.
       -5    1    3    3    0  502  0.61302478945E+03 -0.30540177276E+03 -0.12784769399E+04  0.14503775409E+04  0.46999998093E+01 0.  1.
</event>
<event>
 5   0  0.3858721E-07  0.3207666E+04  0.7818609E-02  0.8186796E-01
       -2   -1    0    0    0  501  0.00000000000E+00  0.00000000000E+00  0.14595532225E+04  0.14595532225E+04  0.25500000920E-02 0.  1.
        2   -1    0    0  501    0  0.00000000000E+00  0.00000000000E+00 -0.17623748457E+04  0.17623748457E+04  0.25500000920E-02 0. -1.
    10030    2    1    2    0    0  0.00000000000E+00  0.00000000000E+00 -0.30282162322E+03  0.32219280682E+04  0.32076657465E+04 0.  0.
        2    1    3    3  502    0  0.13363866272E+04  0.88079296671E+03 -0.25460229966E+03  0.16206627652E+04  0.25500000920E-02 0. -1.
       -2    1    3    3    0  502 -0.13363866272E+04 -0.88079296671E+03 -0.48219323561E+02  0.16012653030E+04  0.25500000920E-02 0.  1.
</event>
<event>
 5   0  0.3942564E-07  0.3203109E+04  0.7818609E-02  0.8187997E-01
        2   -1    0    0  501    0  0.00000000000E+00  0.00000000000E+00  0.21352193480E+04  0.21352193480E+04  0.25500000920E-02 0.  1.
       -2   -1    0    0    0  501  0.00000000000E+00  0.00000000000E+00 -0.12012707661E+04  0.12012707661E+04  0.25500000920E-02 0. -1.
    10030    2    1    2    0    0  0.00000000000E+00  0.00000000000E+00  0.93394858185E+03  0.33364901141E+04  0.32031088536E+04 0.  0.
        3    1    3    3  502    0  0.40093514460E+03 -0.14911980922E+04  0.90958702474E+03  0.17921409839E+04  0.10100000352E+00 0.  1.
       -3    1    3    3    0  502 -0.40093514460E+03  0.14911980922E+04  0.24361557117E+02  0.15443491302E+04  0.10100000352E+00 0. -1.
</event>
<event>
 5   0  0.3942564E-07  0.3198553E+04  0.7818609E-02  0.8189200E-01
        2   -1    0    0  501    0  0.00000000000E+00  0.00000000000E+00  0.21909407246E+04  0.21909407246E+04  0.25500000920E-02 0.  1.
       -2   -1    0    0    0  501  0.00000000000E+00  0.00000000000E+00 -0.11673911773E+04  0.11673911773E+04  0.25500000920E-02 0. -1.
    10030    2    1    2    0    0  0.00000000000E+00  0.00000000000E+00  0.10235495473E+04  0.33583319019E+04  0.31985527176E+04 0.  0.
        3    1    3    3  502    0  0.38667217147E+03 -0.29862215813E+03  0.21106697667E+04  0.21664758102E+04  0.10100000352E+00 0.  1.
       -3    1    3    3    0  502 -0.38667217147E+03  0.29862215813E+03 -0.10871202195E+04  0.11918560917E+04  0.10100000352E+00 0. -1.
</event>
<event>
 5   0  0.1288096E-07  0.3200301E+04  0.7818609E-02  0.8188738E-01
        1   -1    0    0  501    0  0.00000000000E+00  0.00000000000E+00  0.26729850868E+04  0.26729850868E+04  0.50400001928E-02 0.  1.
       -1   -1    0    0    0  501  0.00000000000E+00  0.00000000000E+00 -0.95791096494E+03  0.95791096496E+03  0.50400001928E-02 0. -1.
    10030    2    1    2    0    0  0.00000000000E+00  0.00000000000E+00  0.17150741218E+04  0.36308960517E+04  0.32003010632E+04 0.  0.
        2    1    3    3  502    0  0.96764187443E+03  0.42159251059E+03 -0.50694801568E+03  0.11709258443E+04  0.25500000920E-02 0. -1.
       -2    1    3    3    0  502 -0.96764187443E+03 -0.42159251059E+03  0.22220221375E+04  0.24599702075E+04  0.25500000920E-02 0.  1.
</event>
<event>
 5   0  0.3830207E-07  0.3198867E+04  0.7818609E-02  0.8189116E-01
       -2   -1    0    0    0  501  0.00000000000E+00  0.00000000000E+00  0.14179111928E+04  0.14179111928E+04  0.25500000920E-02 0.  1.
        2   -1    0    0  501    0  0.00000000000E+00  0.00000000000E+00 -0.18041949363E+04  0.18041949363E+04  0.25500000920E-02 0. -1.
    10030    2    1    2    0    0  0.00000000000E+00  0.00000000000E+00 -0.38628374346E+03  0.32221061291E+04  0.31988674210E+04 0.  0.
        4    1    3    3  502    0 -0.42921386358E+03 -0.33544851471E+03 -0.17078738113E+04  0.17926474319E+04  0.12699999809E+01 0. -1.
       -4    1    3    3    0  502  0.42921386358E+03  0.33544851471E+03  0.13215900679E+04  0.14294586972E+04  0.12699999809E+01 0.  1.
</event>
<event>
 5   0  0.3942564E-07  0.3201967E+04  0.7818609E-02  0.8188298E-01
       -2   -1    0    0    0  501  0.00000000000E+00  0.00000000000E+00  0.16116693962E+04  0.16116693962E+04  0.25500000920E-02 0. -1.
        2   -1    0    0  501    0  0.00000000000E+00  0.00000000000E+00 -0.15903681215E+04  0.15903681215E+04  0.25500000920E-02 0.  1.
    10030    2    1    2    0    0  0.00000000000E+00  0.00000000000E+00  0.21301274678E+02  0.32020375177E+04  0.32019666645E+04 0.  0.
        3    1    3    3  502    0 -0.11055632377E+04 -0.70657503876E+03 -0.90677320667E+03  0.15949156769E+04  0.10100000352E+00 0.  1.
       -3    1    3    3    0  502  0.11055632377E+04  0.70657503876E+03  0.92807448135E+03  0.16071218408E+04  0.10100000352E+00 0. -1.
</event>
<event>
 5   0  0.3942564E-07  0.3169037E+04  0.7818609E-02  0.8197043E-01
       -2   -1    0    0    0  501  0.00000000000E+00  0.00000000000E+00  0.11156732056E+04  0.11156732056E+04  0.25500000920E-02 0.  1.
        2   -1    0    0  501    0  0.00000000000E+00  0.00000000000E+00 -0.22503893957E+04  0.22503893957E+04  0.25500000920E-02 0. -1.
    10030    2    1    2    0    0  0.00000000000E+00  0.00000000000E+00 -0.11347161901E+04  0.33660626012E+04  0.31690371729E+04 0.  0.
        3    1    3    3  502    0 -0.13564970227E+04  0.50420658527E+03 -0.12527600821E+04  0.19140836676E+04  0.10100000352E+00 0.  1.
       -3    1    3    3    0  502  0.13564970227E+04 -0.50420658527E+03  0.11804389203E+03  0.14519789336E+04  0.10100000352E+00 0. -1.
</event>
<event>
 5   0  0.3942564E-07  0.3209029E+04  0.7818609E-02  0.8186437E-01
        2   -1    0    0  501    0  0.00000000000E+00  0.00000000000E+00  0.78230904326E+03  0.78230904327E+03  0.25500000920E-02 0. -1.
       -2   -1    0    0    0  501  0.00000000000E+00  0.00000000000E+00 -0.32908572285E+04  0.32908572285E+04  0.25500000920E-02 0.  1.
    10030    2    1    2    0    0  0.00000000000E+00  0.00000000000E+00 -0.25085481853E+04  0.40731662718E+04  0.32090293673E+04 0.  0.
        3    1    3    3  502    0  0.11750582678E+04  0.15953541832E+03 -0.26261886452E+04  0.28815066012E+04  0.10100000352E+00 0.  1.
       -3    1    3    3    0  502 -0.11750582678E+04 -0.15953541832E+03  0.11764045995E+03  0.11916596706E+04  0.10100000352E+00 0. -1.
</event>
<event>
 5   0  0.3764056E-07  0.3192841E+04  0.7818609E-02  0.8190710E-01
       -2   -1    0    0    0  501  0.00000000000E+00  0.00000000000E+00  0.97364352846E+03  0.97364352846E+03  0.25500000920E-02 0. -1.
        2   -1    0    0  501    0  0.00000000000E+00  0.00000000000E+00 -0.26175483922E+04  0.26175483922E+04  0.25500000920E-02 0.  1.
    10030    2    1    2    0    0  0.00000000000E+00  0.00000000000E+00 -0.16439048637E+04  0.35911919207E+04  0.31928414007E+04 0.  0.
        5    1    3    3  502    0  0.10270274014E+04  0.28010371108E+03  0.51613514630E+03  0.11830726738E+04  0.46999998093E+01 0. -1.
       -5    1    3    3    0  502 -0.10270274014E+04 -0.28010371108E+03 -0.21600400100E+04  0.24081192469E+04  0.46999998093E+01 0.  1.
</event>
<event>
 5   0  0.1365455E-07  0.3199346E+04  0.7818609E-02  0.8188990E-01
       -1   -1    0    0    0  501  0.00000000000E+00  0.00000000000E+00  0.13379626779E+04  0.13379626779E+04  0.50400001928E-02 0.  1.
        1   -1    0    0  501    0  0.00000000000E+00  0.00000000000E+00 -0.19125743482E+04  0.19125743482E+04  0.50400001928E-02 0. -1.
    10030    2    1    2    0    0  0.00000000000E+00  0.00000000000E+00 -0.57461167031E+03  0.32505370262E+04  0.31993456185E+04 0.  0.
        3    1    3    3  502    0 -0.97787053927E+03  0.78361263803E+03  0.72292451527E+03  0.14466856684E+04  0.10100000352E+00 0.  1.
       -3    1    3    3    0  502  0.97787053927E+03 -0.78361263803E+03 -0.12975361856E+04  0.18038513578E+04  0.10100000352E+00 0. -1.
</event>
<event>
 5   0  0.1288096E-07  0.3204440E+04  0.7818609E-02  0.8187646E-01
        1   -1    0    0  501    0  0.00000000000E+00  0.00000000000E+00  0.18191187656E+04  0.18191187656E+04  0.50400001928E-02 0.  1.
       -1   -1    0    0    0  501  0.00000000000E+00  0.00000000000E+00 -0.14111827742E+04  0.14111827742E+04  0.50400001928E-02 0. -1.
    10030    2    1    2    0    0  0.00000000000E+00  0.00000000000E+00  0.40793599144E+03  0.32303015399E+04  0.32044400861E+04 0.  0.
        2    1    3    3  502    0 -0.14654854955E+04 -0.58885072490E+03  0.47580360967E+03  0.16494793084E+04  0.25500000920E-02 0.  1.
       -2    1    3    3    0  502  0.14654854955E+04  0.58885072490E+03 -0.67867618232E+02  0.15808222315E+04  0.25500000920E-02 0. -1.
</event>
<event>
 5   0  0.1270948E-07  0.3196423E+04  0.7818609E-02  0.8189763E-01
        1   -1    0    0  501    0  0.00000000000E+00  0.00000000000E+00  0.15571287067E+04  0.15571287068E+04  0.50400001928E-02 0. -1.
       -1   -1    0    0    0  501  0.00000000000E+00  0.00000000000E+00 -0.16403779288E+04  0.16403779288E+04  0.50400001928E-02 0.  1.
    10030    2    1    2    0    0  0.00000000000E+00  0.00000000000E+00 -0.83249222058E+02  0.31975066356E+04  0.31964227273E+04 0.  0.
        4    1    3    3  502    0 -0.80656214590E+03  0.92813135758E+03  0.97965627669E+03  0.15721635874E+04  0.12699999809E+01 0. -1.
       -4    1    3    3    0  502  0.80656214590E+03 -0.92813135758E+03 -0.10629054987E+04  0.16253430482E+04  0.12699999809E+01 0.  1.
</event>
<event>
 5   0  0.3942564E-07  0.3189677E+04  0.7818609E-02  0.8191549E-01
       -2   -1    0    0    0  501  0.00000000000E+00  0.00000000000E+00  0.12686952066E+04  0.12686952066E+04  0.25500000920E-02 0. -1.
        2   -1    0    0  501    0  0.00000000000E+00  0.00000000000E+00 -0.20048232797E+04  0.20048232797E+04  0.25500000920E-02 0.  1.
    10030    2    1    2    0    0  0.00000000000E+00  0.00000000000E+00 -0.73612807317E+03  0.32735184863E+04  0.31896769021E+04 0.  0.
        3    1    3    3  502    0  0.93152166098E+03  0.93177620526E+02  0.95703481910E+03  0.13387794176E+04  0.10100000352E+00 0. -1.
       -3    1    3    3    0  502 -0.93152166098E+03 -0.93177620526E+02 -0.16931628923E+04  0.19347390687E+04  0.10100000352E+00 0.  1.
</event>
<event>
 5   0  0.3942564E-07  0.3204074E+04  0.7818609E-02  0.8187742E-01
        2   -1    0    0  501    0  0.00000000000E+00  0.00000000000E+00  0.18705078313E+04  0.18705078313E+04  0.25500000920E-02 0.  1.
       -2   -1    0    0    0  501  0.00000000000E+00  0.00000000000E+00 -0.13720996921E+04  0.13720996921E+04  0.25500000920E-02 0. -1.
    10030    2    1    2    0    0  0.00000000000E+00  0.00000000000E+00  0.49840813911E+03  0.32426075234E+04  0.32040744183E+04 0.  0.
        3    1    3    3  502    0 -0.12329440933E+04 -0.10221351281E+04  0.28983477524E+03  0.16275489438E+04  0.10100000352E+00 0. -1.
       -3    1    3    3    0  502  0.12329440933E+04  0.10221351281E+04  0.20857336387E+03  0.16150585796E+04  0.10100000352E+00 0.  1.
</event>
<event>
 5   0  0.3750285E-07  0.3198558E+04  0.7818609E-02  0.8189198E-01
       -2   -1    0    0    0  501  0.00000000000E+00  0.00000000000E+00  0.15640531248E+04  0.15640531248E+04  0.25500000920E-02 0.  1.
        2   -1    0    0  501    0  0.00000000000E+00  0.00000000000E+00 -0.16352978331E+04  0.16352978331E+04  0.25500000920E-02 0. -1.
    10030    2    1    2    0    0  0.00000000000E+00  0.00000000000E+00 -0.71244708298E+02  0.31993509580E+04  0.31985576036E+04 0.  0.
        1    1    3    3  502    0 -0.13182887405E+04 -0.59342155278E+03  0.64840276487E+03  0.15844432739E+04  0.50400001928E-02 0.  1.
       -1    1    3    3    0  502  0.13182887405E+04  0.59342155278E+03 -0.71964747316E+03  0.16149076841E+04  0.50400001928E-02 0. -1.
</event>
<event>
 5   0  0.1317293E-07  0.3192673E+04  0.7818609E-02  0.8190755E-01
       -1   -1    0    0    0  501  0.00000000000E+00  0.00000000000E+00  0.25645757678E+04  0.25645757678E+04  0.50400001928E-02 0.  1.
        1   -1    0    0  501    0  0.00000000000E+00  0.00000000000E+00 -0.99364955349E+03  0.99364955350E+03  0.50400001928E-02 0. -1.
    10030    2    1    2    0    0  0.00000000000E+00  0.00000000000E+00  0.15709262143E+04  0.35582253213E+04  0.31926725899E+04 0.  0.
        1    1    3    3  502    0 -0.10582495042E+04 -0.77580216277E+03  0.17986929997E+04  0.22264450400E+04  0.50400001928E-02 0.  1.
       -1    1    3    3    0  502  0.10582495042E+04  0.77580216277E+03 -0.22776678546E+03  0.13317802812E+04  0.50400001928E-02 0. -1.
</event>
<event>
 5   0  0.3858721E-07  0.3229922E+04  0.7818609E-02  0.8180959E-01
       -2   -1    0    0    0  501  0.00000000000E+00  0.00000000000E+00  0.11986461970E+04  0.11986461970E+04  0.25500000920E-02 0. -1.
        2   -1    0    0  501    0  0.00000000000E+00  0.00000000000E+00 -0.21758704980E+04  0.21758704980E+04  0.25500000920E-02 0.  1.
    10030    2    1    2    0    0  0.00000000000E+00  0.00000000000E+00 -0.97722430102E+03  0.33745166950E+04  0.32299219171E+04 0.  0.
        2    1    3    3  502    0 -0.11971558385E+04  0.17193737676E+03 -0.16067349147E+04  0.20110548599E+04  0.25500000920E-02 0.  1.
       -2    1    3    3    0  502  0.11971558385E+04 -0.17193737676E+03  0.62951061373E+03  0.13634618352E+04  0.25500000920E-02 0. -1.
</event>
<event>
 5   0  0.3942564E-07  0.3197018E+04  0.7818609E-02  0.8189605E-01
        2   -1    0    0  501    0  0.00000000000E+00  0.00000000000E+00  0.14777302709E+04  0.14777302709E+04  0.25500000920E-02 0.  1.
       -2   -1    0    0    0  501  0.00000000000E+00  0.00000000000E+00 -0.17291597467E+04  0.17291597467E+04  0.25500000920E-02 0. -1.
    10030    2    1    2    0    0  0.00000000000E+00  0.00000000000E+00 -0.25142947587E+03  0.32068900176E+04  0.31970184240E+04 0.  0.
        3    1    3    3  502    0 -0.68457650005E+03  0.12148064059E+04 -0.90968547703E+03  0.16649105879E+04  0.10100000352E+00 0. -1.
       -3    1    3    3    0  502  0.68457650005E+03 -0.12148064059E+04  0.65825600116E+03  0.15419794297E+04  0.10100000352E+00 0.  1.
</event>
<event>
 5   0  0.1317293E-07  0.3207478E+04  0.7818609E-02  0.8186845E-01
       -1   -1    0    0    0  501  0.00000000000E+00  0.00000000000E+00  0.14414992357E+04  0.14414992357E+04  0.50400001928E-02 0. -1.
        1   -1    0    0  501    0  0.00000000000E+00  0.00000000000E+00 -0.17842392730E+04  0.17842392730E+04  0.50400001928E-02 0.  1.
    10030    2    1    2    0    0  0.00000000000E+00  0.00000000000E+00 -0.34274003723E+03  0.32257385087E+04  0.32074784790E+04 0.  0.
        1    1    3    3  502    0 -0.91698166472E+02  0.94018010501E+03 -0.14747544374E+04  0.17513559987E+04  0.50400001928E-02 0.  1.
       -1    1    3    3    0  502  0.91698166472E+02 -0.94018010501E+03  0.11320144002E+04  0.14743825100E+04  0.50400001928E-02 0. -1.
</event>
<event>
 5   0  0.3830207E-07  0.3198591E+04  0.7818609E-02  0.8189189E-01
       -2   -1    0    0    0  501  0.00000000000E+00  0.00000000000E+00  0.10169254127E+04  0.10169254127E+04  0.25500000920E-02 0.  1.
        2   -1    0    0  501    0  0.00000000000E+00  0.00000000000E+00 -0.25151754438E+04  0.25151754438E+04  0.25500000920E-02 0. -1.
    10030    2    1    2    0    0  0.00000000000E+00  0.00000000000E+00 -0.14982500311E+04  0.35321008565E+04  0.31985908311E+04 0.  0.
        4    1    3    3  502    0 -0.82824210339E+03 -0.44355940440E+03 -0.21782942736E+04  0.23722768562E+04  0.12699999809E+01 0. -1.
       -4    1    3    3    0  502  0.82824210339E+03  0.44355940440E+03  0.68004424248E+03  0.11598240003E+04  0.12699999809E+01 0.  1.
</event>
<event>
 5   0  0.1230450E-07  0.3201867E+04  0.7818609E-02  0.8188324E-01
       -3   -1    0    0    0  501  0.00000000000E+00  0.00000000000E+00  0.19946022007E+04  0.19946022032E+04  0.10100000352E+00 0.  1.
        3   -1    0    0  501    0  0.00000000000E+00  0.00000000000E+00 -0.12849619404E+04  0.12849619443E+04  0.10100000352E+00 0. -1.
    10030    2    1    2    0    0  0.00000000000E+00  0.00000000000E+00  0.70964026033E+03  0.32795641476E+04  0.32018669084E+04 0.  0.
        4    1    3    3  502    0 -0.77685671767E+02  0.11764563486E+04 -0.75446620648E+03  0.13997519328E+04  0.12699999809E+01 0. -1.
       -4    1    3    3    0  502  0.77685671767E+02 -0.11764563486E+04  0.14641064668E+04  0.18798122148E+04  0.12699999809E+01 0.  1.
</event>
<event>
 5   0  0.3764056E-07  0.3200331E+04  0.7818609E-02  0.8188730E-01
        2   -1    0    0  501    0  0.00000000000E+00  0.00000000000E+00  0.17893524320E+04  0.17893524320E+04  0.25500000920E-02 0. -1.
       -2   -1    0    0    0  501  0.00000000000E+00  0.00000000000E+00 -0.14309815385E+04  0.14309815385E+04  0.25500000920E-02 0.  1.
    10030    2    1    2    0    0  0.00000000000E+00  0.00000000000E+00  0.35837089344E+03  0.32203339705E+04  0.32003314179E+04 0.  0.
        5    1    3    3  502    0  0.30291789384E+03 -0.11300031237E+04  0.12777239471E+04  0.17324164872E+04  0.46999998093E+01 0. -1.
       -5    1    3    3    0  502 -0.30291789384E+03  0.11300031237E+04 -0.91935305369E+03  0.14879174833E+04  0.46999998093E+01 0.  1.
</event>
<event>
 5   0  0.3830207E-07  0.3197371E+04  0.7818609E-02  0.8189512E-01
       -2   -1    0    0    0  501  0.00000000000E+00  0.00000000000E+00  0.14608455182E+04  0.14608455182E+04  0.25500000920E-02 0.  1.
        2   -1    0    0  501    0  0.00000000000E+00  0.00000000000E+00 -0.17495318063E+04  0.17495318063E+04  0.25500000920E-02 0. -1.
    10030    2    1    2    0    0  0.00000000000E+00  0.00000000000E+00 -0.28868628811E+03  0.32103773245E+04  0.31973712316E+04 0.  0.
        4    1    3    3  502    0 -0.12509906474E+04 -0.88994141512E+03 -0.59205014361E+03  0.16454477530E+04  0.12699999809E+01 0. -1.
       -4    1    3    3    0  502  0.12509906474E+04  0.88994141512E+03  0.30336385550E+03  0.15649295716E+04  0.12699999809E+01 0.  1.
</event>
<event>
 5   0  0.3942564E-07  0.3196429E+04  0.7818609E-02  0.8189761E-01
       -2   -1    0    0    0  501  0.00000000000E+00  0.00000000000E+00  0.12046203392E+04  0.12046203392E+04  0.25500000920E-02 0. -1.
        2   -1    0    0  501    0  0.00000000000E+00  0.00000000000E+00 -0.21204105307E+04  0.21204105307E+04  0.25500000920E-02 0.  1.
    10030    2    1    2    0    0  0.00000000000E+00  0.00000000000E+00 -0.91579019153E+03  0.33250308699E+04  0.31964290404E+04 0.  0.
        3    1    3    3  502    0  0.14193474031E+04 -0.18012334882E+03 -0.11987996463E+04  0.18665776367E+04  0.10100000352E+00 0.  1.
       -3    1    3    3    0  502 -0.14193474031E+04  0.18012334882E+03  0.28300945481E+03  0.14584532331E+04  0.10100000352E+00 0. -1.
</event>
<event>
 5   0  0.3942564E-07  0.3203778E+04  0.7818609E-02  0.8187820E-01
        2   -1    0    0  501    0  0.00000000000E+00  0.00000000000E+00  0.22618175099E+04  0.22618175099E+04  0.25500000920E-02 0. -1.
       -2   -1    0    0    0  501  0.00000000000E+00  0.00000000000E+00 -0.11345071689E+04  0.11345071689E+04  0.25500000920E-02 0.  1.
    10030    2    1    2    0    0  0.00000000000E+00  0.00000000000E+00  0.11273103410E+04  0.33963246788E+04  0.32037778822E+04 0.  0.
        3    1    3    3  502    0  0.14168940101E+04  0.12954444135E+03  0.13438755841E+04  0.19571336168E+04  0.10100000352E+00 0. -1.
       -3    1    3    3    0  502 -0.14168940101E+04 -0.12954444135E+03 -0.21656524309E+03  0.14391910620E+04  0.10100000352E+00 0.  1.
</event>
<event>
 5   0  0.3830207E-07  0.3205666E+04  0.7818609E-02  0.8187322E-01
        2   -1    0    0  501    0  0.00000000000E+00  0.00000000000E+00  0.19394426930E+04  0.19394426930E+04  0.25500000920E-02 0. -1.
       -2   -1    0    0    0  501  0.00000000000E+00  0.00000000000E+00 -0.13246456289E+04  0.13246456289E+04  0.25500000920E-02 0.  1.
    10030    2    1    2    0    0  0.00000000000E+00  0.00000000000E+00  0.61479706405E+03  0.32640883219E+04  0.32056664117E+04 0.  0.
        4    1    3    3  502    0 -0.64415379062E+03  0.80104854498E+03 -0.94483547671E+03  0.13961835726E+04  0.12699999809E+01 0.  1.
       -4    1    3    3    0  502  0.64415379062E+03 -0.80104854498E+03  0.15596325408E+04  0.18679047493E+04  0.12699999809E+01 0. -1.
</event>
<event>
 5   0  0.3942564E-07  0.3202244E+04  0.7818609E-02  0.8188225E-01
        2   -1    0    0  501    0  0.00000000000E+00  0.00000000000E+00  0.16613082714E+04  0.16613082714E+04  0.25500000920E-02 0. -1.
       -2   -1    0    0    0  501  0.00000000000E+00  0.00000000000E+00 -0.15431161415E+04  0.15431161415E+04  0.25500000920E-02 0.  1.
    10030    2    1    2    0    0  0.00000000000E+00  0.00000000000E+00  0.11819212989E+03  0.32044244129E+04  0.32022439693E+04 0.  0.
        3    1    3    3  502    0  0.90302842739E+03 -0.97654866376E+02  0.13785517289E+04  0.16508790668E+04  0.10100000352E+00 0. -1.
       -3    1    3    3    0  502 -0.90302842739E+03  0.97654866376E+02 -0.12603595990E+04  0.15535453462E+04  0.10100000352E+00 0.  1.
</event>
<event>
 5   0  0.1277374E-07  0.3198121E+04  0.7818609E-02  0.8189314E-01
       -1   -1    0    0    0  501  0.00000000000E+00  0.00000000000E+00  0.15887113744E+04  0.15887113744E+04  0.50400001928E-02 0.  1.
        1   -1    0    0  501    0  0.00000000000E+00  0.00000000000E+00 -0.16094766386E+04  0.16094766386E+04  0.50400001928E-02 0. -1.
    10030    2    1    2    0    0  0.00000000000E+00  0.00000000000E+00 -0.20765264180E+02  0.31981880130E+04  0.31981205997E+04 0.  0.
        5    1    3    3  502    0  0.56266553022E+03  0.97163343745E+03  0.11281964681E+04  0.15917014155E+04  0.46999998093E+01 0.  1.
       -5    1    3    3    0  502 -0.56266553022E+03 -0.97163343745E+03 -0.11489617322E+04  0.16064865975E+04  0.46999998093E+01 0. -1.
</event>
<event>
 5   0  0.3750285E-07  0.3204746E+04  0.7818609E-02  0.8187565E-01
        2   -1    0    0  501    0  0.00000000000E+00  0.00000000000E+00  0.18164040969E+04  0.18164040969E+04  0.25500000920E-02 0. -1.
       -2   -1    0    0    0  501  0.00000000000E+00  0.00000000000E+00 -0.14135618086E+04  0.14135618086E+04  0.25500000920E-02 0.  1.
    10030    2    1    2    0    0  0.00000000000E+00  0.00000000000E+00  0.40284228824E+03  0.32299659055E+04  0.32047461431E+04 0.  0.
        1    1    3    3  502    0 -0.40841633199E+03  0.25670650892E+03 -0.13386408332E+04  0.14229059745E+04  0.50400001928E-02 0.  1.
       -1    1    3    3    0  502  0.40841633199E+03 -0.25670650892E+03  0.17414831214E+04  0.18070599310E+04  0.50400001928E-02 0. -1.
</event>
<event>
 5   0  0.1365455E-07  0.3201978E+04  0.7818609E-02  0.8188295E-01
       -1   -1    0    0    0  501  0.00000000000E+00  0.00000000000E+00  0.10476892258E+04  0.10476892258E+04  0.50400001928E-02 0. -1.
        1   -1    0    0  501    0  0.00000000000E+00  0.00000000000E+00 -0.24464947570E+04  0.24464947570E+04  0.50400001928E-02 0.  1.
    10030    2    1    2    0    0  0.00000000000E+00  0.00000000000E+00 -0.13988055312E+04  0.34941839829E+04  0.32019782623E+04 0.  0.
        3    1    3    3  502    0  0.15559488334E+04 -0.34055334638E+03 -0.52272399139E+03  0.16763632468E+04  0.10100000352E+00 0.  1.
       -3    1    3    3    0  502 -0.15559488334E+04  0.34055334638E+03 -0.87608153981E+03  0.18178207361E+04  0.10100000352E+00 0. -1.
</event>
<event>
 5   0  0.3830207E-07  0.3205845E+04  0.7818609E-02  0.8187275E-01
       -2   -1    0    0    0  501  0.00000000000E+00  0.00000000000E+00  0.13443934401E+04  0.13443934401E+04  0.25500000920E-02 0. -1.
        2   -1    0    0  501    0  0.00000000000E+00  0.00000000000E+00 -0.19111669566E+04  0.19111669566E+04  0.25500000920E-02 0.  1.
    10030    2    1    2    0    0  0.00000000000E+00  0.00000000000E+00 -0.56677351646E+03  0.32555603967E+04  0.32058448617E+04 0.  0.
        4    1    3    3  502    0 -0.60757623004E+03 -0.75074483769E+03 -0.15825193234E+04  0.18539513771E+04  0.12699999809E+01 0.  1.
       -4    1    3    3    0  502  0.60757623004E+03  0.75074483769E+03  0.10157458070E+04  0.14016090196E+04  0.12699999809E+01 0. -1.
</event>
<event>
 5   0  0.3830207E-07  0.3136844E+04  0.7818609E-02  0.8205699E-01
       -2   -1    0    0    0  501  0.00000000000E+00  0.00000000000E+00  0.15384652138E+04  0.15384652138E+04  0.25500000920E-02 0.  1.
        2   -1    0    0  501    0  0.00000000000E+00  0.00000000000E+00 -0.15989617638E+04  0.15989617638E+04  0.25500000920E-02 0. -1.
    10030    2    1    2    0    0  0.00000000000E+00  0.00000000000E+00 -0.60496550020E+02  0.31374269776E+04  0.31368436695E+04 0.  0.
        4    1    3    3  502    0 -0.78779444757E+03  0.12020917341E+04  0.59780225407E+03  0.15566032818E+04  0.12699999809E+01 0.  1.
       -4    1    3    3    0  502  0.78779444757E+03 -0.12020917341E+04 -0.65829880409E+03  0.15808236958E+04  0.12699999809E+01 0. -1.
</event>
<event>
 5   0  0.3830207E-07  0.3198909E+04  0.7818609E-02  0.8189105E-01
        2   -1    0    0  501    0  0.00000000000E+00  0.00000000000E+00  0.24110973607E+04  0.24110973607E+04  0.25500000920E-02 0. -1.
       -2   -1    0    0    0  501  0.00000000000E+00  0.00000000000E+00 -0.10610332925E+04  0.10610332925E+04  0.25500000920E-02 0.  1.
    10030    2    1    2    0    0  0.00000000000E+00  0.00000000000E+00  0.13500640681E+04  0.34721306532E+04  0.31989089210E+04 0.  0.
        4    1    3    3  502    0  0.22192984379E+03  0.55886306098E+03  0.22837385059E+04  0.23615765820E+04  0.12699999809E+01 0. -1.
       -4    1    3    3    0  502 -0.22192984379E+03 -0.55886306098E+03 -0.93367443773E+03  0.11105540712E+04  0.12699999809E+01 0.  1.
</event>
<event>
 5   0  0.3750285E-07  0.3198423E+04  0.7818609E-02  0.8189234E-01
       -2   -1    0    0    0  501  0.00000000000E+00  0.00000000000E+00  0.22097618538E+04  0.22097618538E+04  0.25500000920E-02 0. -1.
        2   -1    0    0  501    0  0.00000000000E+00  0.00000000000E+00 -0.11573541890E+04  0.11573541890E+04  0.25500000920E-02 0.  1.
    10030    2    1    2    0    0  0.00000000000E+00  0.00000000000E+00  0.10524076647E+04  0.33671160428E+04  0.31984228227E+04 0.  0.
        1    1    3    3  502    0  0.12175271241E+03  0.39345189675E+03 -0.11005642395E+04  0.11751041500E+04  0.50400001928E-02 0.  1.
       -1    1    3    3    0  502 -0.12175271241E+03 -0.39345189675E+03  0.21529719042E+04  0.21920118928E+04  0.50400001928E-02 0. -1.
</event>
<event>
 5   0  0.1270948E-07  0.3199285E+04  0.7818609E-02  0.8189006E-01
       -1   -1    0    0    0  501  0.00000000000E+00  0.00000000000E+00  0.10897460644E+04  0.10897460644E+04  0.50400001928E-02 0. -1.
        1   -1    0    0  501    0  0.00000000000E+00  0.00000000000E+00 -0.23481221977E+04  0.23481221977E+04  0.50400001928E-02 0.  1.
    10030    2    1    2    0    0  0.00000000000E+00  0.00000000000E+00 -0.12583761334E+04  0.34378682621E+04  0.31992854975E+04 0.  0.
        4    1    3    3  502    0 -0.34463577990E+03  0.12653127851E+03 -0.23022381059E+04  0.23313270673E+04  0.12699999809E+01 0.  1.
       -4    1    3    3    0  502  0.34463577990E+03 -0.12653127851E+03  0.10438619726E+04  0.11065411949E+04  0.12699999809E+01 0. -1.
</event>
<event>
 5   0  0.1277374E-07  0.3209405E+04  0.7818609E-02  0.8186338E-01
       -1   -1    0    0    0  501  0.00000000000E+00  0.00000000000E+00  0.14014276341E+04  0.14014276342E+04  0.50400001928E-02 0. -1.
        1   -1    0    0  501    0  0.00000000000E+00  0.00000000000E+00 -0.18374615354E+04  0.18374615354E+04  0.50400001928E-02 0.  1.
    10030    2    1    2    0    0  0.00000000000E+00  0.00000000000E+00 -0.43603390122E+03  0.32388891695E+04  0.32094045381E+04 0.  0.
        5    1    3    3  502    0 -0.50013453030E+03  0.12220633182E+04 -0.11382460376E+04  0.17433299843E+04  0.46999998093E+01 0.  1.
       -5    1    3    3    0  502  0.50013453030E+03 -0.12220633182E+04  0.70221213634E+03  0.14955591852E+04  0.46999998093E+01 0. -1.
</event>
<event>
 5   0  0.3830207E-07  0.3202130E+04  0.7818609E-02  0.8188255E-01
        2   -1    0    0  501    0  0.00000000000E+00  0.00000000000E+00  0.23642263904E+04  0.23642263904E+04  0.25500000920E-02 0. -1.
       -2   -1    0    0    0  501  0.00000000000E+00  0.00000000000E+00 -0.10842484595E+04  0.10842484595E+04  0.25500000920E-02 0.  1.
    10030    2    1    2    0    0  0.00000000000E+00  0.00000000000E+00  0.12799779309E+04  0.34484748500E+04  0.32021298049E+04 0.  0.
        4    1    3    3  502    0 -0.65808454637E+03 -0.10353209596E+04  0.17479430288E+04  0.21354791510E+04  0.12699999809E+01 0. -1.
       -4    1    3    3    0  502  0.65808454637E+03  0.10353209596E+04 -0.46796509790E+03  0.13129956989E+04  0.12699999809E+01 0.  1.
</event>
<event>
 5   0  0.3750285E-07  0.3200218E+04  0.7818609E-02  0.8188760E-01
       -2   -1    0    0    0  501  0.00000000000E+00  0.00000000000E+00  0.94863298528E+03  0.94863298528E+03  0.25500000920E-02 0.  1.
        2   -1    0    0  501    0  0.00000000000E+00  0.00000000000E+00 -0.26989878502E+04  0.26989878502E+04  0.25500000920E-02 0. -1.
    10030    2    1    2    0    0  0.00000000000E+00  0.00000000000E+00 -0.17503548649E+04  0.36476208355E+04  0.32002180561E+04 0.  0.
        1    1    3    3  502    0 -0.14224020039E+04  0.73280632393E+03 -0.86288378775E+03  0.18179111640E+04  0.50400001928E-02 0. -1.
       -1    1    3    3    0  502  0.14224020039E+04 -0.73280632393E+03 -0.88747107718E+03  0.18297096715E+04  0.50400001928E-02 0.  1.
</event>
<event>
 5   0  0.3858721E-07  0.3198296E+04  0.7818609E-02  0.8189267E-01
       -2   -1    0    0    0  501  0.00000000000E+00  0.00000000000E+00  0.21608607428E+04  0.21608607428E+04  0.25500000920E-02 0.  1.
        2   -1    0    0  501    0  0.00000000000E+00  0.00000000000E+00 -0.11834513971E+04  0.11834513971E+04  0.25500000920E-02 0. -1.
    10030    2    1    2    0    0  0.00000000000E+00  0.00000000000E+00  0.97740934570E+03  0.33443121400E+04  0.31982955868E+04 0.  0.
        2    1    3    3  502    0  0.50051966522E+03 -0.34608746751E+03  0.20350636991E+04  0.21240952733E+04  0.25500000920E-02 0.  1.
       -2    1    3    3    0  502 -0.50051966522E+03  0.34608746751E+03 -0.10576543534E+04  0.12202168667E+04  0.25500000920E-02 0. -1.
</event>
<event>
 5   0  0.3764056E-07  0.3197045E+04  0.7818609E-02  0.8189598E-01
        2   -1    0    0  501    0  0.00000000000E+00  0.00000000000E+00  0.11161057973E+04  0.11161057973E+04  0.25500000920E-02 0. -1.
       -2   -1    0    0    0  501  0.00000000000E+00  0.00000000000E+00 -0.22894552227E+04  0.22894552227E+04  0.25500000920E-02 0.  1.
    10030    2    1    2    0    0  0.00000000000E+00  0.00000000000E+00 -0.11733494254E+04  0.34055610200E+04  0.31970450398E+04 0.  0.
        5    1    3    3  502    0  0.99103583889E+03  0.12305156137E+04 -0.32808367765E+03  0.16136857498E+04  0.46999998093E+01 0. -1.
       -5    1    3    3    0  502 -0.99103583889E+03 -0.12305156137E+04 -0.84526574770E+03  0.17918752702E+04  0.46999998093E+01 0.  1.
</event>
<event>
 5   0  0.3858721E-07  0.3201264E+04  0.7818609E-02  0.8188483E-01
       -2   -1    0    0    0  501  0.00000000000E+00  0.00000000000E+00  0.14465103395E+04  0.14465103396E+04  0.25500000920E-02 0. -1.
        2   -1    0    0  501    0  0.00000000000E+00  0.00000000000E+00 -0.17711747031E+04  0.17711747031E+04  0.25500000920E-02 0.  1.
    10030    2    1    2    0    0  0.00000000000E+00  0.00000000000E+00 -0.32466436354E+03  0.32176850426E+04  0.32012638262E+04 0.  0.
        2    1    3    3  502    0  0.14567056064E+04  0.18541334727E+03 -0.80250836267E+03  0.16734362866E+04  0.25500000920E-02 0. -1.
       -2    1    3    3    0  502 -0.14567056064E+04 -0.18541334727E+03  0.47784399913E+03  0.15442487561E+04  0.25500000920E-02 0.  1.
</event>
<event>
 5   0  0.1365455E-07  0.3219457E+04  0.7818609E-02  0.8183697E-01
       -1   -1    0    0    0  501  0.00000000000E+00  0.00000000000E+00  0.14207475069E+04  0.14207475069E+04  0.50400001928E-02 0. -1.
        1   -1    0    0  501    0  0.00000000000E+00  0.00000000000E+00 -0.18238470098E+04  0.18238470098E+04  0.50400001928E-02 0.  1.
    10030    2    1    2    0    0  0.00000000000E+00  0.00000000000E+00 -0.40309950287E+03  0.32445945167E+04  0.32194571543E+04 0.  0.
        3    1    3    3  502    0  0.19762501631E+03 -0.15799361358E+04  0.36882022820E+02  0.15926751502E+04  0.10100000352E+00 0. -1.
       -3    1    3    3    0  502 -0.19762501631E+03  0.15799361358E+04 -0.43998152569E+03  0.16519193665E+04  0.10100000352E+00 0.  1.
</event>
<event>
 5   0  0.3750285E-07  0.3208404E+04  0.7818609E-02  0.8186601E-01
        2   -1    0    0  501    0  0.00000000000E+00  0.00000000000E+00  0.24010027800E+04  0.24010027800E+04  0.25500000920E-02 0. -1.
       -2   -1    0    0    0  501  0.00000000000E+00  0.00000000000E+00 -0.10718286004E+04  0.10718286004E+04  0.25500000920E-02 0.  1.
    10030    2    1    2    0    0  0.00000000000E+00  0.00000000000E+00  0.13291741797E+04  0.34728313804E+04  0.32084036212E+04 0.  0.
        1    1    3    3  502    0  0.59688660376E+03  0.13510428816E+04 -0.13003474730E+02  0.14770780535E+04  0.50400001928E-02 0.  1.
       -1    1    3    3    0  502 -0.59688660376E+03 -0.13510428816E+04  0.13421776544E+04  0.19957533269E+04  0.50400001928E-02 0. -1.
</event>
<event>
 5   0  0.1270948E-07  0.3129091E+04  0.7818609E-02  0.8207799E-01
        1   -1    0    0  501    0  0.00000000000E+00  0.00000000000E+00  0.18207010018E+04  0.18207010018E+04  0.50400001928E-02 0. -1.
       -1   -1    0    0    0  501  0.00000000000E+00  0.00000000000E+00 -0.13444285041E+04  0.13444285041E+04  0.50400001928E-02 0.  1.
    10030    2    1    2    0    0  0.00000000000E+00  0.00000000000E+00  0.47627249769E+03  0.31651295059E+04  0.31290908100E+04 0.  0.
        4    1    3    3  502    0 -0.10714597634E+03  0.65535499302E+03  0.16710783423E+04  0.17981865493E+04  0.12699999809E+01 0. -1.
       -4    1    3    3    0  502  0.10714597634E+03 -0.65535499302E+03 -0.11948058446E+04  0.13669429565E+04  0.12699999809E+01 0.  1.
</event>
<event>
 5   0  0.1270948E-07  0.3202204E+04  0.7818609E-02  0.8188235E-01
        1   -1    0    0  501    0  0.00000000000E+00  0.00000000000E+00  0.19371879051E+04  0.19371879051E+04  0.50400001928E-02 0.  1.
       -1   -1    0    0    0  501  0.00000000000E+00  0.00000000000E+00 -0.13233243174E+04  0.13233243174E+04  0.50400001928E-02 0. -1.
    10030    2    1    2    0    0  0.00000000000E+00  0.00000000000E+00  0.61386358771E+03  0.32605122226E+04  0.32022041548E+04 0.  0.
        4    1    3    3  502    0  0.10751843110E+04  0.74839559704E+03 -0.63037841257E+03  0.14537867203E+04  0.12699999809E+01 0. -1.
       -4    1    3    3    0  502 -0.10751843110E+04 -0.74839559704E+03  0.12442420003E+04  0.18067255022E+04  0.12699999809E+01 0.  1.
</event>
<event>
 5   0  0.3942564E-07  0.3197294E+04  0.7818609E-02  0.8189532E-01
        2   -1    0    0  501    0  0.00000000000E+00  0.00000000000E+00  0.15059877195E+04  0.15059877195E+04  0.25500000920E-02 0. -1.
       -2   -1    0    0    0  501  0.00000000000E+00  0.00000000000E+00 -0.16970078529E+04  0.16970078529E+04  0.25500000920E-02 0.  1.
    10030    2    1    2    0    0  0.00000000000E+00  0.00000000000E+00 -0.19102013343E+03  0.32029955724E+04  0.31972944727E+04 0.  0.
        3    1    3    3  502    0 -0.79529461220E+03  0.12017066398E+04 -0.78890074265E+03  0.16428501941E+04  0.10100000352E+00 0.  1.
       -3    1    3    3    0  502  0.79529461220E+03 -0.12017066398E+04  0.59788060922E+03  0.15601453783E+04  0.10100000352E+00 0. -1.
</event>
<event>
 5   0  0.3764056E-07  0.3199098E+04  0.7818609E-02  0.8189055E-01
       -2   -1    0    0    0  501  0.00000000000E+00  0.00000000000E+00  0.19730357146E+04  0.19730357146E+04  0.25500000920E-02 0.  1.
        2   -1    0    0  501    0  0.00000000000E+00  0.00000000000E+00 -0.12967614655E+04  0.12967614655E+04  0.25500000920E-02 0. -1.
    10030    2    1    2    0    0  0.00000000000E+00  0.00000000000E+00  0.67627424914E+03  0.32697971801E+04  0.31990978008E+04 0.  0.
        5    1    3    3  502    0  0.24203158824E+03 -0.62393465709E+03 -0.11467810571E+04  0.13277810922E+04  0.46999998093E+01 0. -1.
       -5    1    3    3    0  502 -0.24203158824E+03  0.62393465709E+03  0.18230553062E+04  0.19420160879E+04  0.46999998093E+01 0.  1.
</event>
<event>
 5   0  0.3764056E-07  0.3199490E+04  0.7818609E-02  0.8188952E-01
       -2   -1    0    0    0  501  0.00000000000E+00  0.00000000000E+00  0.29241242581E+04  0.29241242581E+04  0.25500000920E-02 0.  1.
        2   -1    0    0  501    0  0.00000000000E+00  0.00000000000E+00 -0.87519671980E+03  0.87519671980E+03  0.25500000920E-02 0. -1.
    10030    2    1    2    0    0  0.00000000000E+00  0.00000000000E+00  0.20489275383E+04  0.37993209779E+04  0.31994899337E+04 0.  0.
        5    1    3    3  502    0  0.67373276408E+03  0.10273075952E+04 -0.19227159557E+03  0.12434899232E+04  0.46999998093E+01 0. -1.
       -5    1    3    3    0  502 -0.67373276408E+03 -0.10273075952E+04  0.22411991338E+04  0.25558310547E+04  0.46999998093E+01 0.  1.
</event>
<event>
 5   0  0.3750285E-07  0.3202040E+04  0.7818609E-02  0.8188279E-01
       -2   -1    0    0    0  501  0.00000000000E+00  0.00000000000E+00  0.15866249071E+04  0.15866249071E+04  0.25500000920E-02 0. -1.
        2   -1    0    0  501    0  0.00000000000E+00  0.00000000000E+00 -0.16155454597E+04  0.16155454597E+04  0.25500000920E-02 0.  1.
    10030    2    1    2    0    0  0.00000000000E+00  0.00000000000E+00 -0.28920552653E+02  0.32021703668E+04  0.32020397655E+04 0.  0.
        1    1    3    3  502    0 -0.30213329573E+02 -0.85496100082E+03 -0.13678053556E+04  0.16133079833E+04  0.50400001928E-02 0.  1.
       -1    1    3    3    0  502  0.30213329573E+02  0.85496100082E+03  0.13388848029E+04  0.15888623835E+04  0.50400001928E-02 0. -1.
</event>
<event>
 5   0  0.1270948E-07  0.3191479E+04  0.7818609E-02  0.8191071E-01
       -1   -1    0    0    0  501  0.00000000000E+00  0.00000000000E+00  0.21095314672E+04  0.21095314672E+04  0.50400001928E-02 0.  1.
        1   -1    0    0  501    0  0.00000000000E+00  0.00000000000E+00 -0.12070854868E+04  0.12070854868E+04  0.50400001928E-02 0. -1.
    10030    2    1    2    0    0  0.00000000000E+00  0.00000000000E+00  0.90244598039E+03  0.33166169540E+04  0.31914791668E+04 0.  0.
        4    1    3    3  502    0  0.37377246761E+03 -0.31402177636E+03  0.20300246403E+04  0.20878977913E+04  0.12699999809E+01 0.  1.
       -4    1    3    3    0  502 -0.37377246761E+03  0.31402177636E+03 -0.11275786599E+04  0.12287191627E+04  0.12699999809E+01 0. -1.
</event>
<event>
 5   0  0.1230450E-07  0.3162666E+04  0.7818609E-02  0.8198747E-01
       -3   -1    0    0    0  501  0.00000000000E+00  0.00000000000E+00  0.15654043486E+04  0.15654043519E+04  0.10100000352E+00 0. -1.
        3   -1    0    0  501    0  0.00000000000E+00  0.00000000000E+00 -0.15974238648E+04  0.15974238679E+04  0.10100000352E+00 0.  1.
    10030    2    1    2    0    0  0.00000000000E+00  0.00000000000E+00 -0.32019516143E+02  0.31628282198E+04  0.31626661377E+04 0.  0.
        4    1    3    3  502    0 -0.71822347628E+03 -0.90201959925E+03 -0.10982520520E+04  0.15923704035E+04  0.12699999809E+01 0.  1.
       -4    1    3    3    0  502  0.71822347628E+03  0.90201959925E+03  0.10662325359E+04  0.15704578163E+04  0.12699999809E+01 0. -1.
</event>
<event>
 5   0  0.3764056E-07  0.3191263E+04  0.7818609E-02  0.8191128E-01
        2   -1    0    0  501    0  0.00000000000E+00  0.00000000000E+00  0.15062879228E+04  0.15062879228E+04  0.25500000920E-02 0.  1.
       -2   -1    0    0    0  501  0.00000000000E+00  0.00000000000E+00 -0.16902747538E+04  0.16902747538E+04  0.25500000920E-02 0. -1.
    10030    2    1    2    0    0  0.00000000000E+00  0.00000000000E+00 -0.18398683098E+03  0.31965626765E+04  0.31912633535E+04 0.  0.
        5    1    3    3  502    0 -0.10908136259E+04 -0.49198238966E+03  0.96526741785E+03  0.15374278247E+04  0.46999998093E+01 0.  1.
       -5    1    3    3    0  502  0.10908136259E+04  0.49198238966E+03 -0.11492542488E+04  0.16591348519E+04  0.46999998093E+01 0. -1.
</event>
<event>
 5   0  0.3858721E-07  0.3202562E+04  0.7818609E-02  0.8188141E-01
        2   -1    0    0  501    0  0.00000000000E+00  0.00000000000E+00  0.13028918218E+04  0.13028918218E+04  0.25500000920E-02 0.  1.
       -2   -1    0    0    0  501  0.00000000000E+00  0.00000000000E+00 -0.19680078364E+04  0.19680078364E+04  0.25500000920E-02 0. -1.
    10030    2    1    2    0    0  0.00000000000E+00  0.00000000000E+00 -0.66511601458E+03  0.32708996581E+04  0.32025622962E+04 0.  0.
        2    1    3    3  502    0  0.52602949355E+03 -0.11351849597E+04  0.68814148682E+03  0.14278972746E+04  0.25500000920E-02 0.  1.
       -2    1    3    3    0  502 -0.52602949355E+03  0.11351849597E+04 -0.13532575014E+04  0.18430023836E+04  0.25500000920E-02 0. -1.
</event>
<event>
 5   0  0.3942564E-07  0.3203072E+04  0.7818609E-02  0.8188006E-01
       -2   -1    0    0    0  501  0.00000000000E+00  0.00000000000E+00  0.13064959194E+04  0.13064959194E+04  0.25500000920E-02 0.  1.
        2   -1    0    0  501    0  0.00000000000E+00  0.00000000000E+00 -0.19632030919E+04  0.19632030919E+04  0.25500000920E-02 0. -1.
    10030    2    1    2    0    0  0.00000000000E+00  0.00000000000E+00 -0.65670717246E+03  0.32696990113E+04  0.32030715438E+04 0.  0.
        3    1    3    3  502    0 -0.29397156984E+03 -0.83548063864E+02 -0.19331611415E+04  0.19571692753E+04  0.10100000352E+00 0. -1.
       -3    1    3    3    0  502  0.29397156984E+03  0.83548063864E+02  0.12764539690E+04  0.13125297361E+04  0.10100000352E+00 0.  1.
</event>
<event>
 5   0  0.1317293E-07  0.3203610E+04  0.7818609E-02  0.8187864E-01
        1   -1    0    0  501    0  0.00000000000E+00  0.00000000000E+00  0.17116592846E+04  0.17116592846E+04  0.50400001928E-02 0.  1.
       -1   -1    0    0    0  501  0.00000000000E+00  0.00000000000E+00 -0.14990013431E+04  0.14990013431E+04  0.50400001928E-02 0. -1.
    10030    2    1    2    0    0  0.00000000000E+00  0.00000000000E+00  0.21265794146E+03  0.32106606277E+04  0.32036101926E+04 0.  0.
        1    1    3    3  502    0 -0.11433253793E+03 -0.14376279326E+04  0.80495246173E+03  0.16516036048E+04  0.50400001928E-02 0.  1.
       -1    1    3    3    0  502  0.11433253793E+03  0.14376279326E+04 -0.59229452027E+03  0.15590570229E+04  0.50400001928E-02 0. -1.
</event>
<event>
 5   0  0.3942564E-07  0.3202058E+04  0.7818609E-02  0.8188274E-01
       -2   -1    0    0    0  501  0.00000000000E+00  0.00000000000E+00  0.17741121400E+04  0.17741121400E+04  0.25500000920E-02 0. -1.
        2   -1    0    0  501    0  0.00000000000E+00  0.00000000000E+00 -0.14448316005E+04  0.14448316005E+04  0.25500000920E-02 0.  1.
    10030    2    1    2    0    0  0.00000000000E+00  0.00000000000E+00  0.32928053954E+03  0.32189437405E+04  0.32020576401E+04 0.  0.
        3    1    3    3  502    0 -0.14539015466E+04 -0.14069766762E+03 -0.49430692035E+03  0.15420651357E+04  0.10100000352E+00 0.  1.
       -3    1    3    3    0  502  0.14539015466E+04  0.14069766762E+03  0.82358745989E+03  0.16768786048E+04  0.10100000352E+00 0. -1.
</event>
<event>
 5   0  0.3764056E-07  0.3197365E+04  0.7818609E-02  0.8189513E-01
        2   -1    0    0  501    0  0.00000000000E+00  0.00000000000E+00  0.16168325992E+04  0.16168325992E+04  0.25500000920E-02 0.  1.
       -2   -1    0    0    0  501  0.00000000000E+00  0.00000000000E+00 -0.15807364479E+04  0.15807364479E+04  0.25500000920E-02 0. -1.
    10030    2    1    2    0    0  0.00000000000E+00  0.00000000000E+00  0.36096151258E+02  0.31975690471E+04  0.31973653027E+04 0.  0.
        5    1    3    3  502    0 -0.11745635555E+04 -0.99224014340E+03  0.45582484976E+03  0.16037264205E+04  0.46999998093E+01 0.  1.
       -5    1    3    3    0  502  0.11745635555E+04  0.99224014340E+03 -0.41972869851E+03  0.15938426266E+04  0.46999998093E+01 0. -1.
</event>
<event>
 5   0  0.1317293E-07  0.3211191E+04  0.7818609E-02  0.8185868E-01
        1   -1    0    0  501    0  0.00000000000E+00  0.00000000000E+00  0.13645486579E+04  0.13645486579E+04  0.50400001928E-02 0. -1.
       -1   -1    0    0    0  501  0.00000000000E+00  0.00000000000E+00 -0.18892236239E+04  0.18892236239E+04  0.50400001928E-02 0.  1.
    10030    2    1    2    0    0  0.00000000000E+00  0.00000000000E+00 -0.52467496600E+03  0.32537722818E+04  0.32111914054E+04 0.  0.
        1    1    3    3  502    0 -0.57109260922E+03 -0.43949939322E+02 -0.17821801484E+04  0.18719627258E+04  0.50400001928E-02 0.  1.
       -1    1    3    3    0  502  0.57109260922E+03  0.43949939322E+02  0.12575051824E+04  0.13818095560E+04  0.50400001928E-02 0. -1.
</event>
<event>
 5   0  0.1288096E-07  0.3199541E+04  0.7818609E-02  0.8188939E-01
       -1   -1    0    0    0  501  0.00000000000E+00  0.00000000000E+00  0.13686802793E+04  0.13686802793E+04  0.50400001928E-02 0. -1.
        1   -1    0    0  501    0  0.00000000000E+00  0.00000000000E+00 -0.18698777995E+04  0.18698777995E+04  0.50400001928E-02 0.  1.
    10030    2    1    2    0    0  0.00000000000E+00  0.00000000000E+00 -0.50119752018E+03  0.32385580789E+04  0.31995405101E+04 0.  0.
        2    1    3    3  502    0 -0.13219763880E+04  0.22017260128E+03  0.63364898365E+03  0.14824333305E+04  0.25500000920E-02 0. -1.
       -2    1    3    3    0  502  0.13219763880E+04 -0.22017260128E+03 -0.11348465038E+04  0.17561247484E+04  0.25500000920E-02 0.  1.
</event>
<event>
 5   0  0.3830207E-07  0.3198864E+04  0.7818609E-02  0.8189117E-01
       -2   -1    0    0    0  501  0.00000000000E+00  0.00000000000E+00  0.16687539006E+04  0.16687539006E+04  0.25500000920E-02 0.  1.
        2   -1    0    0  501    0  0.00000000000E+00  0.00000000000E+00 -0.15329893487E+04  0.15329893487E+04  0.25500000920E-02 0. -1.
    10030    2    1    2    0    0  0.00000000000E+00  0.00000000000E+00  0.13576455193E+03  0.32017432493E+04  0.31988635202E+04 0.  0.
        4    1    3    3  502    0 -0.15619845660E+02  0.60979970711E+03 -0.14119888078E+04  0.15381201737E+04  0.12699999809E+01 0. -1.
       -4    1    3    3    0  502  0.15619845660E+02 -0.60979970711E+03  0.15477533597E+04  0.16636230757E+04  0.12699999809E+01 0.  1.
</event>
<event>
 5   0  0.3830207E-07  0.3212722E+04  0.7818609E-02  0.8185465E-01
        2   -1    0    0  501    0  0.00000000000E+00  0.00000000000E+00  0.18329543329E+04  0.18329543329E+04  0.25500000920E-02 0.  1.
       -2   -1    0    0    0  501  0.00000000000E+00  0.00000000000E+00 -0.14077798943E+04  0.14077798943E+04  0.25500000920E-02 0. -1.
    10030    2    1    2    0    0  0.00000000000E+00  0.00000000000E+00  0.42517443862E+03  0.32407342273E+04  0.32127223703E+04 0.  0.
        4    1    3    3  502    0  0.98296694784E+03 -0.35814570206E+03 -0.10170169956E+04  0.14590467939E+04  0.12699999809E+01 0. -1.
       -4    1    3    3    0  502 -0.98296694784E+03  0.35814570206E+03  0.14421914342E+04  0.17816874334E+04  0.12699999809E+01 0.  1.
</event>
<event>
 5   0  0.3858721E-07  0.3196948E+04  0.7818609E-02  0.8189624E-01
       -2   -1    0    0    0  501  0.00000000000E+00  0.00000000000E+00  0.12244243420E+04  0.12244243420E+04  0.25500000920E-02 0. -1.
        2   -1    0    0  501    0  0.00000000000E+00  0.00000000000E+00 -0.20867920149E+04  0.20867920149E+04  0.25500000920E-02 0.  1.
    10030    2    1    2    0    0  0.00000000000E+00  0.00000000000E+00 -0.86236767295E+03  0.33112163569E+04  0.31969478818E+04 0.  0.
        2    1    3    3  502    0 -0.72423524510E+03 -0.12521371840E+04 -0.11357591653E+04  0.18391066036E+04  0.25500000920E-02 0.  1.
       -2    1    3    3    0  502  0.72423524510E+03  0.12521371840E+04  0.27339149236E+03  0.14721097533E+04  0.25500000920E-02 0. -1.
</event>
<event>
 5   0  0.3750285E-07  0.3199839E+04  0.7818609E-02  0.8188860E-01
       -2   -1    0    0    0  501  0.00000000000E+00  0.00000000000E+00  0.11885583610E+04  0.11885583610E+04  0.25500000920E-02 0.  1.
        2   -1    0    0  501    0  0.00000000000E+00  0.00000000000E+00 -0.21536530841E+04  0.21536530841E+04  0.25500000920E-02 0. -1.
    10030    2    1    2    0    0  0.00000000000E+00  0.00000000000E+00 -0.96509472312E+03  0.33422114452E+04  0.31998389834E+04 0.  0.
        1    1    3    3  502    0  0.71691603869E+02  0.94543666161E+03  0.86349341627E+03  0.12824238953E+04  0.50400001928E-02 0.  1.
       -1    1    3    3    0  502 -0.71691603869E+02 -0.94543666161E+03 -0.18285881394E+04  0.20597875499E+04  0.50400001928E-02 0. -1.
</event>
<event>
 5   0  0.3830207E-07  0.3201743E+04  0.7818609E-02  0.8188357E-01
        2   -1    0    0  501    0  0.00000000000E+00  0.00000000000E+00  0.12760374277E+04  0.12760374277E+04  0.25500000920E-02 0. -1.
       -2   -1    0    0    0  501  0.00000000000E+00  0.00000000000E+00 -0.20083965874E+04  0.20083965874E+04  0.25500000920E-02 0.  1.
    10030    2    1    2    0    0  0.00000000000E+00  0.00000000000E+00 -0.73235915964E+03  0.32844340151E+04  0.32017427849E+04 0.  0.
        4    1    3    3  502    0  0.71998983644E+03 -0.38526873669E+03  0.10463249836E+04  0.13272584331E+04  0.12699999809E+01 0. -1.
       -4    1    3    3    0  502 -0.71998983644E+03  0.38526873669E+03 -0.17786841433E+04  0.19571755819E+04  0.12699999809E+01 0.  1.
</event>
<event>
 5   0  0.3764056E-07  0.3201672E+04  0.7818609E-02  0.8188376E-01
       -2   -1    0    0    0  501  0.00000000000E+00  0.00000000000E+00  0.14762993899E+04  0.14762993899E+04  0.25500000920E-02 0.  1.
        2   -1    0    0  501    0  0.00000000000E+00  0.00000000000E+00 -0.17358786612E+04  0.17358786612E+04  0.25500000920E-02 0. -1.
    10030    2    1    2    0    0  0.00000000000E+00  0.00000000000E+00 -0.25957927127E+03  0.32121780511E+04  0.32016724433E+04 0.  0.
        5    1    3    3  502    0 -0.10965937384E+04  0.73751160132E+03  0.77662008329E+03  0.15328411636E+04  0.46999998093E+01 0.  1.
       -5    1    3    3    0  502  0.10965937384E+04 -0.73751160132E+03 -0.10361993546E+04  0.16793368875E+04  0.46999998093E+01 0. -1.
</event>
<event>
 5   0  0.1365455E-07  0.3198464E+04  0.7818609E-02  0.8189223E-01
       -1   -1    0    0    0  501  0.00000000000E+00  0.00000000000E+00  0.19863666371E+04  0.19863666371E+04  0.50400001928E-02 0. -1.
        1   -1    0    0  501    0  0.00000000000E+00  0.00000000000E+00 -0.12875486787E+04  0.12875486787E+04  0.50400001928E-02 0.  1.
    10030    2    1    2    0    0  0.00000000000E+00  0.00000000000E+00  0.69881795844E+03  0.32739153159E+04  0.31984644685E+04 0.  0.
        3    1    3    3  502    0  0.15127501589E+04 -0.28649997547E+03  0.79210229794E+03  0.17314506461E+04  0.10100000352E+00 0. -1.
       -3    1    3    3    0  502 -0.15127501589E+04  0.28649997547E+03 -0.93284339496E+02  0.15424646698E+04  0.10100000352E+00 0.  1.
</event>
<event>
 5   0  0.1365455E-07  0.3254415E+04  0.7818609E-02  0.8174592E-01
        1   -1    0    0  501    0  0.00000000000E+00  0.00000000000E+00  0.25136001161E+04  0.25136001161E+04  0.50400001928E-02 0.  1.
       -1   -1    0    0    0  501  0.00000000000E+00  0.00000000000E+00 -0.10533911784E+04  0.10533911784E+04  0.50400001928E-02 0. -1.
    10030    2    1    2    0    0  0.00000000000E+00  0.00000000000E+00  0.14602089378E+04  0.35669912945E+04  0.32544149633E+04 0.  0.
        3    1    3    3  502    0  0.12213649797E+04 -0.77660277851E+03  0.15451388626E+04  0.21171439262E+04  0.10100000352E+00 0.  1.
       -3    1    3    3    0  502 -0.12213649797E+04  0.77660277851E+03 -0.84929924864E+02  0.14498473683E+04  0.10100000352E+00 0. -1.
</event>
<event>
 5   0  0.1270948E-07  0.3201325E+04  0.7818609E-02  0.8188467E-01
       -1   -1    0    0    0  501  0.00000000000E+00  0.00000000000E+00  0.85600016881E+03  0.85600016883E+03  0.50400001928E-02 0.  1.
        1   -1    0    0  501    0  0.00000000000E+00  0.00000000000E+00 -0.29931302051E+04  0.29931302051E+04  0.50400001928E-02 0. -1.
    10030    2    1    2    0    0  0.00000000000E+00  0.00000000000E+00 -0.21371300363E+04  0.38491303739E+04  0.32013247013E+04 0.  0.
        4    1    3    3  502    0  0.14867955454E+03  0.11554653134E+04  0.25124274091E+03  0.11917760814E+04  0.12699999809E+01 0.  1.
       -4    1    3    3    0  502 -0.14867955454E+03 -0.11554653134E+04 -0.23883727772E+04  0.26573542925E+04  0.12699999809E+01 0. -1.
</event>
<event>
 5   0  0.1317293E-07  0.3204105E+04  0.7818609E-02  0.8187734E-01
        1   -1    0    0  501    0  0.00000000000E+00  0.00000000000E+00  0.20564099133E+04  0.20564099133E+04  0.50400001928E-02 0.  1.
       -1   -1    0    0    0  501  0.00000000000E+00  0.00000000000E+00 -0.12480843175E+04  0.12480843175E+04  0.50400001928E-02 0. -1.
    10030    2    1    2    0    0  0.00000000000E+00  0.00000000000E+00  0.80832559583E+03  0.33044942308E+04  0.32041054684E+04 0.  0.
        1    1    3    3  502    0  0.13666939560E+04  0.63019228323E+03  0.97053016827E+03  0.17907885109E+04  0.50400001928E-02 0.  1.
       -1    1    3    3    0  502 -0.13666939560E+04 -0.63019228323E+03 -0.16220457244E+03  0.15137057199E+04  0.50400001928E-02 0. -1.
</event>
<event>
 5   0  0.3750285E-07  0.3205416E+04  0.7818609E-02  0.8187388E-01
       -2   -1    0    0    0  501  0.00000000000E+00  0.00000000000E+00  0.20124247757E+04  0.20124247757E+04  0.25500000920E-02 0.  1.
        2   -1    0    0  501    0  0.00000000000E+00  0.00000000000E+00 -0.12764065361E+04  0.12764065361E+04  0.25500000920E-02 0. -1.
    10030    2    1    2    0    0  0.00000000000E+00  0.00000000000E+00  0.73601823961E+03  0.32888313119E+04  0.32054155033E+04 0.  0.
        1    1    3    3  502    0  0.10446396320E+04  0.43513145049E+03  0.15324714576E+04  0.19050144640E+04  0.50400001928E-02 0.  1.
       -1    1    3    3    0  502 -0.10446396320E+04 -0.43513145049E+03 -0.79645321797E+03  0.13838168478E+04  0.50400001928E-02 0. -1.
</event>
<event>
 5   0  0.3830207E-07  0.3197808E+04  0.7818609E-02  0.8189396E-01
        2   -1    0    0  501    0  0.00000000000E+00  0.00000000000E+00  0.18764199427E+04  0.18764199427E+04  0.25500000920E-02 0. -1.
       -2   -1    0    0    0  501  0.00000000000E+00  0.00000000000E+00 -0.13624316165E+04  0.13624316165E+04  0.25500000920E-02 0.  1.
    10030    2    1    2    0    0  0.00000000000E+00  0.00000000000E+00  0.51398832618E+03  0.32388515591E+04  0.31978079090E+04 0.  0.
        4    1    3    3  502    0  0.15369088511E+04  0.34132980466E+03  0.53967744657E+03  0.16642860966E+04  0.12699999809E+01 0. -1.
       -4    1    3    3    0  502 -0.15369088511E+04 -0.34132980466E+03 -0.25689120388E+02  0.15745654625E+04  0.12699999809E+01 0.  1.
</event>
<event>
 5   0  0.3858721E-07  0.3208711E+04  0.7818609E-02  0.8186520E-01
       -2   -1    0    0    0  501  0.00000000000E+00  0.00000000000E+00  0.22060934178E+04  0.22060934178E+04  0.25500000920E-02 0. -1.
        2   -1    0    0  501    0  0.00000000000E+00  0.00000000000E+00 -0.11667487882E+04  0.11667487882E+04  0.25500000920E-02 0.  1.
    10030    2    1    2    0    0  0.00000000000E+00  0.00000000000E+00  0.10393446296E+04  0.33728422060E+04  0.32087111568E+04 0.  0.
        2    1    3    3  502    0  0.88373907020E+03 -0.31034983815E+03 -0.84950879086E+03  0.12645066042E+04  0.25500000920E-02 0.  1.
       -2    1    3    3    0  502 -0.88373907020E+03  0.31034983815E+03  0.18888534204E+04  0.21083356019E+04  0.25500000920E-02 0. -1.
</event>
<event>
 5   0  0.1277374E-07  0.3196915E+04  0.7818609E-02  0.8189632E-01
        1   -1    0    0  501    0  0.00000000000E+00  0.00000000000E+00  0.20941317511E+04  0.20941317512E+04  0.50400001928E-02 0.  1.
       -1   -1    0    0    0  501  0.00000000000E+00  0.00000000000E+00 -0.12201076879E+04  0.12201076879E+04  0.50400001928E-02 0. -1.
    10030    2    1    2    0    0  0.00000000000E+00  0.00000000000E+00  0.87402406326E+03  0.33142394391E+04  0.31969149185E+04 0.  0.
        5    1    3    3  502    0 -0.28432624482E+03  0.11196333858E+04  0.15823765479E+04  0.19591727748E+04  0.46999998093E+01 0.  1.
       -5    1    3    3    0  502  0.28432624482E+03 -0.11196333858E+04 -0.70835248467E+03  0.13550666643E+04  0.46999998093E+01 0. -1.
</event>
<event>
 5   0  0.1365455E-07  0.3197879E+04  0.7818609E-02  0.8189378E-01
       -1   -1    0    0    0  501  0.00000000000E+00  0.00000000000E+00  0.10677831010E+04  0.10677831010E+04  0.50400001928E-02 0.  1.
        1   -1    0    0  501    0  0.00000000000E+00  0.00000000000E+00 -0.23943129053E+04  0.23943129053E+04  0.50400001928E-02 0. -1.
    10030    2    1    2    0    0  0.00000000000E+00  0.00000000000E+00 -0.13265298043E+04  0.34620960063E+04  0.31978785836E+04 0.  0.
        3    1    3    3  502    0 -0.10777730866E+04  0.10206224697E+04 -0.19726240485E+02  0.14844710124E+04  0.10100000352E+00 0.  1.
       -3    1    3    3    0  502  0.10777730866E+04 -0.10206224697E+04 -0.13068035638E+04  0.19776249939E+04  0.10100000352E+00 0. -1.
</event>
<event>
 5   0  0.3750285E-07  0.3203283E+04  0.7818609E-02  0.8187951E-01
       -2   -1    0    0    0  501  0.00000000000E+00  0.00000000000E+00  0.25135664225E+04  0.25135664225E+04  0.25500000920E-02 0. -1.
        2   -1    0    0  501    0  0.00000000000E+00  0.00000000000E+00 -0.10205641803E+04  0.10205641803E+04  0.25500000920E-02 0.  1.
    10030    2    1    2    0    0  0.00000000000E+00  0.00000000000E+00  0.14930022422E+04  0.35341306028E+04  0.32032832255E+04 0.  0.
        1    1    3    3  502    0  0.78782644823E+02  0.15425492008E+04  0.27894938167E+03  0.15695469090E+04  0.50400001928E-02 0.  1.
       -1    1    3    3    0  502 -0.78782644823E+02 -0.15425492008E+04  0.12140528605E+04  0.19645836938E+04  0.50400001928E-02 0. -1.
</event>
<event>
 5   0  0.1270948E-07  0.3199311E+04  0.7818609E-02  0.8188999E-01
        1   -1    0    0  501    0  0.00000000000E+00  0.00000000000E+00  0.97755965893E+03  0.97755965895E+03  0.50400001928E-02 0.  1.
       -1   -1    0    0    0  501  0.00000000000E+00  0.00000000000E+00 -0.26176383789E+04  0.26176383789E+04  0.50400001928E-02 0. -1.
    10030    2    1    2    0    0  0.00000000000E+00  0.00000000000E+00 -0.16400787200E+04  0.35951980379E+04  0.31993109764E+04 0.  0.
        4    1    3    3  502    0  0.12034712638E+04 -0.27607465836E+01 -0.20042651467E+04  0.23378261474E+04  0.12699999809E+01 0. -1.
       -4    1    3    3    0  502 -0.12034712638E+04  0.27607465836E+01  0.36418642674E+03  0.12573718904E+04  0.12699999809E+01 0.  1.
</event>
<event>
 5   0  0.1365455E-07  0.3203429E+04  0.7818609E-02  0.8187912E-01
       -1   -1    0    0    0  501  0.00000000000E+00  0.00000000000E+00  0.17272670443E+04  0.17272670443E+04  0.50400001928E-02 0.  1.
        1   -1    0    0  501    0  0.00000000000E+00  0.00000000000E+00 -0.14852882545E+04  0.14852882546E+04  0.50400001928E-02 0. -1.
    10030    2    1    2    0    0  0.00000000000E+00  0.00000000000E+00  0.24197878973E+03  0.32125552988E+04  0.32034290711E+04 0.  0.
        3    1    3    3  502    0  0.29311285441E+03 -0.74107232798E+03  0.15143309532E+04  0.17112280931E+04  0.10100000352E+00 0.  1.
       -3    1    3    3    0  502 -0.29311285441E+03  0.74107232798E+03 -0.12723521634E+04  0.15013272057E+04  0.10100000352E+00 0. -1.
</event>
<event>
 5   0  0.1317293E-07  0.3209772E+04  0.7818609E-02  0.8186241E-01
       -1   -1    0    0    0  501  0.00000000000E+00  0.00000000000E+00  0.16673739062E+04  0.16673739062E+04  0.50400001928E-02 0.  1.
        1   -1    0    0  501    0  0.00000000000E+00  0.00000000000E+00 -0.15447403576E+04  0.15447403576E+04  0.50400001928E-02 0. -1.
    10030    2    1    2    0    0  0.00000000000E+00  0.00000000000E+00  0.12263354860E+03  0.32121142638E+04  0.32097724306E+04 0.  0.
        1    1    3    3  502    0 -0.39480970915E+02 -0.11250030396E+04 -0.10834011730E+04  0.15623535733E+04  0.50400001928E-02 0. -1.
       -1    1    3    3    0  502  0.39480970915E+02  0.11250030396E+04  0.12060347216E+04  0.16497606905E+04  0.50400001928E-02 0.  1.
</event>
<event>
 5   0  0.1277374E-07  0.3212564E+04  0.7818609E-02  0.8185507E-01
       -1   -1    0    0    0  501  0.00000000000E+00  0.00000000000E+00  0.12581183538E+04  0.12581183538E+04  0.50400001928E-02 0. -1.
        1   -1    0    0  501    0  0.00000000000E+00  0.00000000000E+00 -0.20507937828E+04  0.20507937828E+04  0.50400001928E-02 0.  1.
    10030    2    1    2    0    0  0.00000000000E+00  0.00000000000E+00 -0.79267542900E+03  0.33089121367E+04  0.32125636480E+04 0.  0.
        5    1    3    3  502    0  0.60800625811E+03  0.75259605111E+03 -0.17169963644E+04  0.19708300362E+04  0.46999998093E+01 0.  1.
       -5    1    3    3    0  502 -0.60800625811E+03 -0.75259605111E+03  0.92432093541E+03  0.13380821005E+04  0.46999998093E+01 0. -1.
</event>
<event>
 5   0  0.1365455E-07  0.3196294E+04  0.7818609E-02  0.8189797E-01
       -1   -1    0    0    0  501  0.00000000000E+00  0.00000000000E+00  0.16084474830E+04  0.16084474830E+04  0.50400001928E-02 0.  1.
        1   -1    0    0  501    0  0.00000000000E+00  0.00000000000E+00 -0.15879121012E+04  0.15879121012E+04  0.50400001928E-02 0. -1.
    10030    2    1    2    0    0  0.00000000000E+00  0.00000000000E+00  0.20535381800E+02  0.31963595842E+04  0.31962936176E+04 0.  0.
        3    1    3    3  502    0 -0.44664824286E+03  0.30963261079E+03  0.15131979751E+04  0.16078355415E+04  0.10100000352E+00 0.  1.
       -3    1    3    3    0  502  0.44664824286E+03 -0.30963261079E+03 -0.14926625933E+04  0.15885240427E+04  0.10100000352E+00 0. -1.
</event>
<event>
 5   0  0.3830207E-07  0.3239149E+04  0.7818609E-02  0.8178554E-01
        2   -1    0    0  501    0  0.00000000000E+00  0.00000000000E+00  0.13429608823E+04  0.13429608823E+04  0.25500000920E-02 0.  1.
       -2   -1    0    0    0  501  0.00000000000E+00  0.00000000000E+00 -0.19531629649E+04  0.19531629649E+04  0.25500000920E-02 0. -1.
    10030    2    1    2    0    0  0.00000000000E+00  0.00000000000E+00 -0.61020208259E+03  0.32961238472E+04  0.32391489367E+04 0.  0.
        4    1    3    3  502    0  0.14424186786E+04 -0.52355630679E+03 -0.83222515024E+03  0.17456469186E+04  0.12699999809E+01 0. -1.
       -4    1    3    3    0  502 -0.14424186786E+04  0.52355630679E+03  0.22202306765E+03  0.15504769286E+04  0.12699999809E+01 0.  1.
</event>
<event>
 5   0  0.3750285E-07  0.3193557E+04  0.7818609E-02  0.8190521E-01
        2   -1    0    0  501    0  0.00000000000E+00  0.00000000000E+00  0.17799955591E+04  0.17799955591E+04  0.25500000920E-02 0.  1.
       -2   -1    0    0    0  501  0.00000000000E+00  0.00000000000E+00 -0.14324203545E+04  0.14324203545E+04  0.25500000920E-02 0. -1.
    10030    2    1    2    0    0  0.00000000000E+00  0.00000000000E+00  0.34757520455E+03  0.32124159136E+04  0.31935571827E+04 0.  0.
        1    1    3    3  502    0 -0.60673851131E+03  0.33853400774E+03 -0.12723966577E+04  0.14497345102E+04  0.50400001928E-02 0. -1.
       -1    1    3    3    0  502  0.60673851131E+03 -0.33853400774E+03  0.16199718623E+04  0.17626814034E+04  0.50400001928E-02 0.  1.
</event>
<event>
 5   0  0.1270948E-07  0.3200731E+04  0.7818609E-02  0.8188624E-01
       -1   -1    0    0    0  501  0.00000000000E+00  0.00000000000E+00  0.14660590333E+04  0.14660590333E+04  0.50400001928E-02 0.  1.
        1   -1    0    0  501    0  0.00000000000E+00  0.00000000000E+00 -0.17469753776E+04  0.17469753776E+04  0.50400001928E-02 0. -1.
    10030    2    1    2    0    0  0.00000000000E+00  0.00000000000E+00 -0.28091634435E+03  0.32130344109E+04  0.32007305624E+04 0.  0.
        4    1    3    3  502    0  0.73954768328E+03  0.26115579504E+03  0.12599076569E+04  0.14840828959E+04  0.12699999809E+01 0.  1.
       -4    1    3    3    0  502 -0.73954768328E+03 -0.26115579504E+03 -0.15408240013E+04  0.17289515149E+04  0.12699999809E+01 0. -1.
</event>
<event>
 5   0  0.3764056E-07  0.3200676E+04  0.7818609E-02  0.8188639E-01
        2   -1    0    0  501    0  0.00000000000E+00  0.00000000000E+00  0.11340704104E+04  0.11340704104E+04  0.25500000920E-02 0. -1.
       -2   -1    0    0    0  501  0.00000000000E+00  0.00000000000E+00 -0.22583098144E+04  0.22583098144E+04  0.25500000920E-02 0.  1.
    10030    2    1    2    0    0  0.00000000000E+00  0.00000000000E+00 -0.11242394040E+04  0.33923802248E+04  0.32006763898E+04 0.  0.
        5    1    3    3  502    0 -0.10707847990E+03 -0.51778102250E+02 -0.22536113288E+04  0.22567527299E+04  0.46999998093E+01 0.  1.
       -5    1    3    3    0  502  0.10707847990E+03  0.51778102250E+02  0.11293719247E+04  0.11356274949E+04  0.46999998093E+01 0. -1.
</event>
<event>
 5   0  0.1270948E-07  0.3219895E+04  0.7818609E-02  0.8183583E-01
       -1   -1    0    0    0  501  0.00000000000E+00  0.00000000000E+00  0.21262288459E+04  0.21262288459E+04  0.50400001928E-02 0. -1.
        1   -1    0    0  501    0  0.00000000000E+00  0.00000000000E+00 -0.12190271536E+04  0.12190271536E+04  0.50400001928E-02 0.  1.
    10030    2    1    2    0    0  0.00000000000E+00  0.00000000000E+00  0.90720169227E+03  0.33452559995E+04  0.32198948417E+04 0.  0.
        4    1    3    3  502    0  0.28774548717E+03  0.38552908754E+03  0.20498091839E+04  0.21055045585E+04  0.12699999809E+01 0. -1.
       -4    1    3    3    0  502 -0.28774548717E+03 -0.38552908754E+03 -0.11426074916E+04  0.12397514410E+04  0.12699999809E+01 0.  1.
</event>
<event>
 5   0  0.1317293E-07  0.3197989E+04  0.7818609E-02  0.8189349E-01
       -1   -1    0    0    0  501  0.00000000000E+00  0.00000000000E+00  0.20931473202E+04  0.20931473203E+04  0.50400001928E-02 0. -1.
        1   -1    0    0  501    0  0.00000000000E+00  0.00000000000E+00 -0.12215015288E+04  0.12215015288E+04  0.50400001928E-02 0.  1.
    10030    2    1    2    0    0  0.00000000000E+00  0.00000000000E+00  0.87164579147E+03  0.33146488490E+04  0.31979885251E+04 0.  0.
        1    1    3    3  502    0 -0.15259325405E+04  0.41858890282E+03  0.67465404641E+03  0.17201293178E+04  0.50400001928E-02 0.  1.
       -1    1    3    3    0  502  0.15259325405E+04 -0.41858890282E+03  0.19699174506E+03  0.15945195312E+04  0.50400001928E-02 0. -1.
</event>
<event>
 5   0  0.1317293E-07  0.3195976E+04  0.7818609E-02  0.8189881E-01
       -1   -1    0    0    0  501  0.00000000000E+00  0.00000000000E+00  0.28214739876E+04  0.28214739876E+04  0.50400001928E-02 0. -1.
        1   -1    0    0  501    0  0.00000000000E+00  0.00000000000E+00 -0.90504666857E+03  0.90504666859E+03  0.50400001928E-02 0.  1.
    10030    2    1    2    0    0  0.00000000000E+00  0.00000000000E+00  0.19164273190E+04  0.37265206562E+04  0.31959759905E+04 0.  0.
        1    1    3    3  502    0 -0.33731272487E+03  0.94712393008E+02  0.27761388489E+04  0.27981596131E+04  0.50400001928E-02 0. -1.
       -1    1    3    3    0  502  0.33731272487E+03 -0.94712393008E+02 -0.85971152988E+03  0.92836104312E+03  0.50400001928E-02 0.  1.
</event>
<event>
 5   0  0.1365455E-07  0.3204232E+04  0.7818609E-02  0.8187701E-01
        1   -1    0    0  501    0  0.00000000000E+00  0.00000000000E+00  0.23202843651E+04  0.23202843651E+04  0.50400001928E-02 0.  1.
       -1   -1    0    0    0  501  0.00000000000E+00  0.00000000000E+00 -0.11062329010E+04  0.11062329010E+04  0.50400001928E-02 0. -1.
    10030    2    1    2    0    0  0.00000000000E+00  0.00000000000E+00  0.12140514641E+04  0.34265172662E+04  0.32042315175E+04 0.  0.
        3    1    3    3  502    0 -0.17367839460E+03  0.95872633775E+02 -0.10930476681E+04  0.11109045691E+04  0.10100000352E+00 0. -1.
       -3    1    3    3    0  502  0.17367839460E+03 -0.95872633775E+02  0.23070991322E+04  0.23156126971E+04  0.10100000352E+00 0.  1.
</event>
<event>
 5   0  0.3764056E-07  0.3201287E+04  0.7818609E-02  0.8188477E-01
        2   -1    0    0  501    0  0.00000000000E+00  0.00000000000E+00  0.14894719872E+04  0.14894719872E+04  0.25500000920E-02 0.  1.
       -2   -1    0    0    0  501  0.00000000000E+00  0.00000000000E+00 -0.17201131561E+04  0.17201131561E+04  0.25500000920E-02 0. -1.
    10030    2    1    2    0    0  0.00000000000E+00  0.00000000000E+00 -0.23064116896E+03  0.32095851433E+04  0.32012874665E+04 0.  0.
        5    1    3    3  502    0  0.13248297605E+03  0.12007578422E+04 -0.11681219567E+04  0.16804470031E+04  0.46999998093E+01 0. -1.
       -5    1    3    3    0  502 -0.13248297605E+03 -0.12007578422E+04  0.93748078771E+03  0.15291381402E+04  0.46999998093E+01 0.  1.
</event>
<event>
 5   0  0.3750285E-07  0.3204531E+04  0.7818609E-02  0.8187621E-01
       -2   -1    0    0    0  501  0.00000000000E+00  0.00000000000E+00  0.10953776182E+04  0.10953776182E+04  0.25500000920E-02 0. -1.
        2   -1    0    0  501    0  0.00000000000E+00  0.00000000000E+00 -0.23437172170E+04  0.23437172170E+04  0.25500000920E-02 0.  1.
    10030    2    1    2    0    0  0.00000000000E+00  0.00000000000E+00 -0.12483395988E+04  0.34390948352E+04  0.32045314059E+04 0.  0.
        1    1    3    3  502    0  0.30936232949E+03  0.10776946007E+04  0.60421924247E+03  0.12736607069E+04  0.50400001928E-02 0. -1.
       -1    1    3    3    0  502 -0.30936232949E+03 -0.10776946007E+04 -0.18525588413E+04  0.21654341282E+04  0.50400001928E-02 0.  1.
</event>
<event>
 5   0  0.1270948E-07  0.3197267E+04  0.7818609E-02  0.8189539E-01
       -1   -1    0    0    0  501  0.00000000000E+00  0.00000000000E+00  0.21409926771E+04  0.21409926771E+04  0.50400001928E-02 0. -1.
        1   -1    0    0  501    0  0.00000000000E+00  0.00000000000E+00 -0.11936653991E+04  0.11936653991E+04  0.50400001928E-02 0.  1.
    10030    2    1    2    0    0  0.00000000000E+00  0.00000000000E+00  0.94732727801E+03  0.33346580763E+04  0.31972668819E+04 0.  0.
        4    1    3    3  502    0 -0.10243286114E+04 -0.12242213162E+04  0.56494795589E+03  0.16932615690E+04  0.12699999809E+01 0.  1.
       -4    1    3    3    0  502  0.10243286114E+04  0.12242213162E+04  0.38237932212E+03  0.16413965073E+04  0.12699999809E+01 0. -1.
</event>
<event>
 5   0  0.1365455E-07  0.3197657E+04  0.7818609E-02  0.8189436E-01
       -1   -1    0    0    0  501  0.00000000000E+00  0.00000000000E+00  0.12569846592E+04  0.12569846592E+04  0.50400001928E-02 0. -1.
        1   -1    0    0  501    0  0.00000000000E+00  0.00000000000E+00 -0.20336380546E+04  0.20336380546E+04  0.50400001928E-02 0.  1.
    10030    2    1    2    0    0  0.00000000000E+00  0.00000000000E+00 -0.77665339540E+03  0.32906227138E+04  0.31976565400E+04 0.  0.
        3    1    3    3  502    0  0.55721565470E+03  0.34720930787E+03  0.11118659132E+04  0.12912356131E+04  0.10100000352E+00 0. -1.
       -3    1    3    3    0  502 -0.55721565470E+03 -0.34720930787E+03 -0.18885193086E+04  0.19993871007E+04  0.10100000352E+00 0.  1.
</event>
<event>
 5   0  0.3764056E-07  0.3196189E+04  0.7818609E-02  0.8189824E-01
       -2   -1    0    0    0  501  0.00000000000E+00  0.00000000000E+00  0.10468609447E+04  0.10468609447E+04  0.25500000920E-02 0.  1.
        2   -1    0    0  501    0  0.00000000000E+00  0.00000000000E+00 -0.24395844035E+04  0.24395844035E+04  0.25500000920E-02 0. -1.
    10030    2    1    2    0    0  0.00000000000E+00  0.00000000000E+00 -0.13927234588E+04  0.34864453482E+04  0.31961887512E+04 0.  0.
        5    1    3    3  502    0  0.20148001277E+03 -0.10254208918E+04 -0.20152093535E+04  0.22700601378E+04  0.46999998093E+01 0. -1.
       -5    1    3    3    0  502 -0.20148001277E+03  0.10254208918E+04  0.62248589465E+03  0.12163852104E+04  0.46999998093E+01 0.  1.
</event>
<event>
 5   0  0.1365455E-07  0.3204017E+04  0.7818609E-02  0.8187757E-01
        1   -1    0    0  501    0  0.00000000000E+00  0.00000000000E+00  0.10858982883E+04  0.10858982883E+04  0.50400001928E-02 0. -1.
       -1   -1    0    0    0  501  0.00000000000E+00  0.00000000000E+00 -0.23634181847E+04  0.23634181847E+04  0.50400001928E-02 0.  1.
    10030    2    1    2    0    0  0.00000000000E+00  0.00000000000E+00 -0.12775198964E+04  0.34493164730E+04  0.32040173291E+04 0.  0.
        3    1    3    3  502    0 -0.38261509612E+03 -0.58571621531E+03 -0.21902668483E+04  0.22992882972E+04  0.10100000352E+00 0.  1.
       -3    1    3    3    0  502  0.38261509612E+03  0.58571621531E+03  0.91274695190E+03  0.11500281758E+04  0.10100000352E+00 0. -1.
</event>
<event>
 5   0  0.1365455E-07  0.3201059E+04  0.7818609E-02  0.8188537E-01
        1   -1    0    0  501    0  0.00000000000E+00  0.00000000000E+00  0.20363515268E+04  0.20363515268E+04  0.50400001928E-02 0. -1.
       -1   -1    0    0    0  501  0.00000000000E+00  0.00000000000E+00 -0.12579827252E+04  0.12579827252E+04  0.50400001928E-02 0.  1.
    10030    2    1    2    0    0  0.00000000000E+00  0.00000000000E+00  0.77836880166E+03  0.32943342520E+04  0.32010592267E+04 0.  0.
        3    1    3    3  502    0 -0.13682252930E+04  0.58468626793E+03 -0.21774277794E+03  0.15037654112E+04  0.10100000352E+00 0.  1.
       -3    1    3    3    0  502  0.13682252930E+04 -0.58468626793E+03  0.99611157960E+03  0.17905688408E+04  0.10100000352E+00 0. -1.
</event>
<event>
 5   0  0.3830207E-07  0.3199236E+04  0.7818609E-02  0.8189019E-01
        2   -1    0    0  501    0  0.00000000000E+00  0.00000000000E+00  0.21975155876E+04  0.21975155876E+04  0.25500000920E-02 0. -1.
       -2   -1    0    0    0  501  0.00000000000E+00  0.00000000000E+00 -0.11643956669E+04  0.11643956669E+04  0.25500000920E-02 0.  1.
    10030    2    1    2    0    0  0.00000000000E+00  0.00000000000E+00  0.10331199207E+04  0.33619112544E+04  0.31992359263E+04 0.  0.
        4    1    3    3  502    0 -0.70008717181E+03  0.10458893347E+04 -0.52094680039E+03  0.13621283824E+04  0.12699999809E+01 0.  1.
       -4    1    3    3    0  502  0.70008717181E+03 -0.10458893347E+04  0.15540667211E+04  0.19997828720E+04  0.12699999809E+01 0. -1.
</event>
<event>
 5   0  0.3858721E-07  0.3213764E+04  0.7818609E-02  0.8185192E-01
       -2   -1    0    0    0  501  0.00000000000E+00  0.00000000000E+00  0.12079246301E+04  0.12079246301E+04  0.25500000920E-02 0.  1.
        2   -1    0    0  501    0  0.00000000000E+00  0.00000000000E+00 -0.21376078953E+04  0.21376078953E+04  0.25500000920E-02 0. -1.
    10030    2    1    2    0    0  0.00000000000E+00  0.00000000000E+00 -0.92968326519E+03  0.33455325254E+04  0.32137636666E+04 0.  0.
        2    1    3    3  502    0  0.75909655850E+02 -0.14261441322E+04  0.30184715654E+03  0.14597126661E+04  0.25500000920E-02 0.  1.
       -2    1    3    3    0  502 -0.75909655850E+02  0.14261441322E+04 -0.12315304217E+04  0.18858198592E+04  0.25500000920E-02 0. -1.
</event>
<event>
 5   0  0.1288096E-07  0.3201853E+04  0.7818609E-02  0.8188328E-01
        1   -1    0    0  501    0  0.00000000000E+00  0.00000000000E+00  0.29043609274E+04  0.29043609274E+04  0.50400001928E-02 0. -1.
       -1   -1    0    0    0  501  0.00000000000E+00  0.00000000000E+00 -0.88245429450E+03  0.88245429451E+03  0.50400001928E-02 0.  1.
    10030    2    1    2    0    0  0.00000000000E+00  0.00000000000E+00  0.20219066329E+04  0.37868152219E+04  0.32018530717E+04 0.  0.
        2    1    3    3  502    0 -0.69908965785E+03 -0.13861413785E+04  0.54856423414E+03  0.16465226964E+04  0.25500000920E-02 0.  1.
       -2    1    3    3    0  502  0.69908965785E+03  0.13861413785E+04  0.14733423988E+04  0.21402925255E+04  0.25500000920E-02 0. -1.
</event>
<event>
 5   0  0.3858721E-07  0.3208009E+04  0.7818609E-02  0.8186705E-01
       -2   -1    0    0    0  501  0.00000000000E+00  0.00000000000E+00  0.20329793041E+04  0.20329793041E+04  0.25500000920E-02 0.  1.
        2   -1    0    0  501    0  0.00000000000E+00  0.00000000000E+00 -0.12655470169E+04  0.12655470169E+04  0.25500000920E-02 0. -1.
    10030    2    1    2    0    0  0.00000000000E+00  0.00000000000E+00  0.76743228714E+03  0.32985263210E+04  0.32080092854E+04 0.  0.
        2    1    3    3  502    0  0.77953936074E+03 -0.14007003484E+04  0.44176995626E+03  0.16627699105E+04  0.25500000920E-02 0. -1.
       -2    1    3    3    0  502 -0.77953936074E+03  0.14007003484E+04  0.32566233089E+03  0.16357564106E+04  0.25500000920E-02 0.  1.
</event>
<event>
 5   0  0.1288096E-07  0.3195111E+04  0.7818609E-02  0.8190109E-01
        1   -1    0    0  501    0  0.00000000000E+00  0.00000000000E+00  0.10545064968E+04  0.10545064968E+04  0.50400001928E-02 0. -1.
       -1   -1    0    0    0  501  0.00000000000E+00  0.00000000000E+00 -0.24202641480E+04  0.24202641480E+04  0.50400001928E-02 0.  1.
    10030    2    1    2    0    0  0.00000000000E+00  0.00000000000E+00 -0.13657576512E+04  0.34747706448E+04  0.31951114334E+04 0.  0.
        2    1    3    3  502    0 -0.48728251666E+03 -0.22682933038E+03  0.95322209967E+03  0.10943163014E+04  0.25500000920E-02 0. -1.
       -2    1    3    3    0  502  0.48728251666E+03  0.22682933038E+03 -0.23189797508E+04  0.23804543434E+04  0.25500000920E-02 0.  1.
</event>
<event>
 5   0  0.1317293E-07  0.3196080E+04  0.7818609E-02  0.8189853E-01
        1   -1    0    0  501    0  0.00000000000E+00  0.00000000000E+00  0.14722569938E+04  0.14722569938E+04  0.50400001928E-02 0. -1.
       -1   -1    0    0    0  501  0.00000000000E+00  0.00000000000E+00 -0.17345689374E+04  0.17345689374E+04  0.50400001928E-02 0.  1.
    10030    2    1    2    0    0  0.00000000000E+00  0.00000000000E+00 -0.26231194358E+03  0.32068259313E+04  0.31960796294E+04 0.  0.
        1    1    3    3  502    0  0.83135780790E+03 -0.13405661447E+04 -0.38786354747E+03  0.16244111316E+04  0.50400001928E-02 0.  1.
       -1    1    3    3    0  502 -0.83135780790E+03  0.13405661447E+04  0.12555160389E+03  0.15824147997E+04  0.50400001928E-02 0. -1.
</event>
<event>
 5   0  0.3858721E-07  0.3258161E+04  0.7818609E-02  0.8173624E-01
       -2   -1    0    0    0  501  0.00000000000E+00  0.00000000000E+00  0.97637855269E+03  0.97637855270E+03  0.25500000920E-02 0. -1.
        2   -1    0    0  501    0  0.00000000000E+00  0.00000000000E+00 -0.27181092845E+04  0.27181092845E+04  0.25500000920E-02 0.  1.
    10030    2    1    2    0    0  0.00000000000E+00  0.00000000000E+00 -0.17417307318E+04  0.36944878372E+04  0.32581612049E+04 0.  0.
        2    1    3    3  502    0  0.92678907803E+03  0.10849243619E+04  0.20472665661E+02  0.14270311826E+04  0.25500000920E-02 0. -1.
       -2    1    3    3    0  502 -0.92678907803E+03 -0.10849243619E+04 -0.17622033974E+04  0.22674566545E+04  0.25500000920E-02 0.  1.
</event>
<event>
 5   0  0.3830207E-07  0.3198552E+04  0.7818609E-02  0.8189200E-01
       -2   -1    0    0    0  501  0.00000000000E+00  0.00000000000E+00  0.26756103293E+04  0.26756103293E+04  0.25500000920E-02 0.  1.
        2   -1    0    0  501    0  0.00000000000E+00  0.00000000000E+00 -0.95592526115E+03  0.95592526115E+03  0.25500000920E-02 0. -1.
    10030    2    1    2    0    0  0.00000000000E+00  0.00000000000E+00  0.17196850681E+04  0.36315355904E+04  0.31985518615E+04 0.  0.
        4    1    3    3  502    0 -0.18707433620E+03 -0.13414048639E+04  0.18254521156E+04  0.22730246051E+04  0.12699999809E+01 0.  1.
       -4    1    3    3    0  502  0.18707433620E+03  0.13414048639E+04 -0.10576704747E+03  0.13585109853E+04  0.12699999809E+01 0. -1.
</event>
<event>
 5   0  0.3750285E-07  0.3200379E+04  0.7818609E-02  0.8188717E-01
        2   -1    0    0  501    0  0.00000000000E+00  0.00000000000E+00  0.26342149436E+04  0.26342149436E+04  0.25500000920E-02 0.  1.
       -2   -1    0    0    0  501  0.00000000000E+00  0.00000000000E+00 -0.97205681518E+03  0.97205681518E+03  0.25500000920E-02 0. -1.
    10030    2    1    2    0    0  0.00000000000E+00  0.00000000000E+00  0.16621581285E+04  0.36062717588E+04  0.32003790954E+04 0.  0.
        1    1    3    3  502    0  0.57518480503E+03  0.45870474850E+03  0.24323462031E+04  0.25411721031E+04  0.50400001928E-02 0.  1.
       -1    1    3    3    0  502 -0.57518480503E+03 -0.45870474850E+03 -0.77018807461E+03  0.10650996557E+04  0.50400001928E-02 0. -1.
</event>
<event>
 5   0  0.3750285E-07  0.3208443E+04  0.7818609E-02  0.8186591E-01
       -2   -1    0    0    0  501  0.00000000000E+00  0.00000000000E+00  0.11118503763E+04  0.11118503763E+04  0.25500000920E-02 0. -1.
        2   -1    0    0  501    0  0.00000000000E+00  0.00000000000E+00 -0.23146337431E+04  0.23146337431E+04  0.25500000920E-02 0.  1.
    10030    2    1    2    0    0  0.00000000000E+00  0.00000000000E+00 -0.12027833668E+04  0.34264841194E+04  0.32084428611E+04 0.  0.
        1    1    3    3  502    0  0.12379414423E+03 -0.72556161478E+02 -0.23077666210E+04  0.23122232080E+04  0.50400001928E-02 0.  1.
       -1    1    3    3    0  502 -0.12379414423E+03  0.72556161478E+02  0.11049832541E+04  0.11142609114E+04  0.50400001928E-02 0. -1.
</event>
<event>
 5   0  0.1288096E-07  0.3200042E+04  0.7818609E-02  0.8188806E-01
       -1   -1    0    0    0  501  0.00000000000E+00  0.00000000000E+00  0.13275358798E+04  0.13275358798E+04  0.50400001928E-02 0. -1.
        1   -1    0    0  501    0  0.00000000000E+00  0.00000000000E+00 -0.19284358949E+04  0.19284358949E+04  0.50400001928E-02 0.  1.
    10030    2    1    2    0    0  0.00000000000E+00  0.00000000000E+00 -0.60090001509E+03  0.32559717747E+04  0.32000424012E+04 0.  0.
        2    1    3    3  502    0 -0.69047776602E+03  0.10614508650E+04 -0.12956193260E+04  0.18116475711E+04  0.25500000920E-02 0.  1.
       -2    1    3    3    0  502  0.69047776602E+03 -0.10614508650E+04  0.69471931088E+03  0.14443242036E+04  0.25500000920E-02 0. -1.
</event>
<event>
 5   0  0.1288096E-07  0.3197266E+04  0.7818609E-02  0.8189540E-01
       -1   -1    0    0    0  501  0.00000000000E+00  0.00000000000E+00  0.14629067197E+04  0.14629067197E+04  0.50400001928E-02 0.  1.
        1   -1    0    0  501    0  0.00000000000E+00  0.00000000000E+00 -0.17469517490E+04  0.17469517490E+04  0.50400001928E-02 0. -1.
    10030    2    1    2    0    0  0.00000000000E+00  0.00000000000E+00 -0.28404502932E+03  0.32098584688E+04  0.31972659900E+04 0.  0.
        2    1    3    3  502    0  0.14677688107E+04  0.10077074702E+03 -0.76988748174E+03  0.16604899156E+04  0.25500000920E-02 0.  1.
       -2    1    3    3    0  502 -0.14677688107E+04 -0.10077074702E+03  0.48584245242E+03  0.15493685532E+04  0.25500000920E-02 0. -1.
</event>
<event>
 5   0  0.3750285E-07  0.3194227E+04  0.7818609E-02  0.8190344E-01
       -2   -1    0    0    0  501  0.00000000000E+00  0.00000000000E+00  0.16793656721E+04  0.16793656721E+04  0.25500000920E-02 0. -1.
        2   -1    0    0  501    0  0.00000000000E+00  0.00000000000E+00 -0.15188896782E+04  0.15188896782E+04  0.25500000920E-02 0.  1.
    10030    2    1    2    0    0  0.00000000000E+00  0.00000000000E+00  0.16047599387E+03  0.31982553503E+04  0.31942267830E+04 0.  0.
        1    1    3    3  502    0  0.10172209619E+04  0.88944941315E+03  0.93272970804E+03  0.16419023881E+04  0.50400001928E-02 0. -1.
       -1    1    3    3    0  502 -0.10172209619E+04 -0.88944941315E+03 -0.77225371417E+03  0.15563529622E+04  0.50400001928E-02 0.  1.
</event>
<event>
 5   0  0.3764056E-07  0.3200913E+04  0.7818609E-02  0.8188576E-01
       -2   -1    0    0    0  501  0.00000000000E+00  0.00000000000E+00  0.11476655720E+04  0.11476655720E+04  0.25500000920E-02 0.  1.
        2   -1    0    0  501    0  0.00000000000E+00  0.00000000000E+00 -0.22318878479E+04  0.22318878479E+04  0.25500000920E-02 0. -1.
    10030    2    1    2    0    0  0.00000000000E+00  0.00000000000E+00 -0.10842222759E+04  0.33795534199E+04  0.32009128971E+04 0.  0.
        5    1    3    3  502    0  0.48200873006E+03 -0.42096215001E+02  0.10685895322E+04  0.11730346055E+04  0.46999998093E+01 0.  1.
       -5    1    3    3    0  502 -0.48200873006E+03  0.42096215001E+02 -0.21528118082E+04  0.22065188145E+04  0.46999998093E+01 0. -1.
</event>
<event>
 5   0  0.3830207E-07  0.3196179E+04  0.7818609E-02  0.8189827E-01
       -2   -1    0    0    0  501  0.00000000000E+00  0.00000000000E+00  0.20771801791E+04  0.20771801791E+04  0.25500000920E-02 0.  1.
        2   -1    0    0  501    0  0.00000000000E+00  0.00000000000E+00 -0.12294987908E+04  0.12294987908E+04  0.25500000920E-02 0. -1.
    10030    2    1    2    0    0  0.00000000000E+00  0.00000000000E+00  0.84768138829E+03  0.33066789699E+04  0.31961792932E+04 0.  0.
        4    1    3    3  502    0 -0.11870452386E+04 -0.25815003977E+03  0.14980891444E+04  0.19287276995E+04  0.12699999809E+01 0.  1.
       -4    1    3    3    0  502  0.11870452386E+04  0.25815003977E+03 -0.65040775614E+03  0.13779512704E+04  0.12699999809E+01 0. -1.
</event>
<event>
 5   0  0.1317293E-07  0.3196407E+04  0.7818609E-02  0.8189767E-01
        1   -1    0    0  501    0  0.00000000000E+00  0.00000000000E+00  0.20661644169E+04  0.20661644170E+04  0.50400001928E-02 0. -1.
       -1   -1    0    0    0  501  0.00000000000E+00  0.00000000000E+00 -0.12362297059E+04  0.12362297059E+04  0.50400001928E-02 0.  1.
    10030    2    1    2    0    0  0.00000000000E+00  0.00000000000E+00  0.82993471104E+03  0.33023941229E+04  0.31964066259E+04 0.  0.
        1    1    3    3  502    0  0.11755875532E+04  0.15974384573E+03 -0.69139502245E+03  0.13731537673E+04  0.50400001928E-02 0.  1.
       -1    1    3    3    0  502 -0.11755875532E+04 -0.15974384573E+03  0.15213297335E+04  0.19292403556E+04  0.50400001928E-02 0. -1.
</event>
<event>
 5   0  0.3942564E-07  0.3194173E+04  0.7818609E-02  0.8190358E-01
       -2   -1    0    0    0  501  0.00000000000E+00  0.00000000000E+00  0.22372317619E+04  0.22372317619E+04  0.25500000920E-02 0. -1.
        2   -1    0    0  501    0  0.00000000000E+00  0.00000000000E+00 -0.11401075081E+04  0.11401075081E+04  0.25500000920E-02 0.  1.
    10030    2    1    2    0    0  0.00000000000E+00  0.00000000000E+00  0.10971242538E+04  0.33773392701E+04  0.31941726498E+04 0.  0.
        3    1    3    3  502    0  0.15603288219E+04  0.33965926972E+03  0.57634165844E+03  0.16976937796E+04  0.10100000352E+00 0.  1.
       -3    1    3    3    0  502 -0.15603288219E+04 -0.33965926972E+03  0.52078259537E+03  0.16796454905E+04  0.10100000352E+00 0. -1.
</event>
<event>
 5   0  0.3750285E-07  0.3196888E+04  0.7818609E-02  0.8189639E-01
       -2   -1    0    0    0  501  0.00000000000E+00  0.00000000000E+00  0.11427910152E+04  0.11427910152E+04  0.25500000920E-02 0. -1.
        2   -1    0    0  501    0  0.00000000000E+00  0.00000000000E+00 -0.22357753236E+04  0.22357753236E+04  0.25500000920E-02 0.  1.
    10030    2    1    2    0    0  0.00000000000E+00  0.00000000000E+00 -0.10929843084E+04  0.33785663388E+04  0.31968884571E+04 0.  0.
        1    1    3    3  502    0 -0.52503079308E+03  0.42689792025E+03  0.98395064958E+03  0.11941767243E+04  0.50400001928E-02 0. -1.
       -1    1    3    3    0  502  0.52503079308E+03 -0.42689792025E+03 -0.20769349580E+04  0.21843896145E+04  0.50400001928E-02 0.  1.
</event>
<event>
 5   0  0.1270948E-07  0.3136095E+04  0.7818609E-02  0.8205901E-01
       -1   -1    0    0    0  501  0.00000000000E+00  0.00000000000E+00  0.12832113348E+04  0.12832113348E+04  0.50400001928E-02 0.  1.
        1   -1    0    0  501    0  0.00000000000E+00  0.00000000000E+00 -0.19161089148E+04  0.19161089148E+04  0.50400001928E-02 0. -1.
    10030    2    1    2    0    0  0.00000000000E+00  0.00000000000E+00 -0.63289757997E+03  0.31993202496E+04  0.31360948188E+04 0.  0.
        4    1    3    3  502    0 -0.59067488729E+03  0.13734514712E+04 -0.79874343717E+03  0.16950688652E+04  0.12699999809E+01 0. -1.
       -4    1    3    3    0  502  0.59067488729E+03 -0.13734514712E+04  0.16584585721E+03  0.15042513844E+04  0.12699999809E+01 0.  1.
</event>
<event>
 5   0  0.3942564E-07  0.3197311E+04  0.7818609E-02  0.8189528E-01
        2   -1    0    0  501    0  0.00000000000E+00  0.00000000000E+00  0.16030150172E+04  0.16030150172E+04  0.25500000920E-02 0. -1.
       -2   -1    0    0    0  501  0.00000000000E+00  0.00000000000E+00 -0.15943083107E+04  0.15943083107E+04  0.25500000920E-02 0.  1.
    10030    2    1    2    0    0  0.00000000000E+00  0.00000000000E+00  0.87067064666E+01  0.31973233279E+04  0.31973114731E+04 0.  0.
        3    1    3    3  502    0  0.14549305397E+04  0.64227267695E+03 -0.15801438490E+03  0.15982195165E+04  0.10100000352E+00 0.  1.
       -3    1    3    3    0  502 -0.14549305397E+04 -0.64227267695E+03  0.16672109137E+03  0.15991038114E+04  0.10100000352E+00 0. -1.
</event>
<event>
 5   0  0.3750285E-07  0.3202108E+04  0.7818609E-02  0.8188261E-01
       -2   -1    0    0    0  501  0.00000000000E+00  0.00000000000E+00  0.18062961934E+04  0.18062961934E+04  0.25500000920E-02 0. -1.
        2   -1    0    0  501    0  0.00000000000E+00  0.00000000000E+00 -0.14191330029E+04  0.14191330029E+04  0.25500000920E-02 0.  1.
    10030    2    1    2    0    0  0.00000000000E+00  0.00000000000E+00  0.38716319048E+03  0.32254291963E+04  0.32021083936E+04 0.  0.
        1    1    3    3  502    0 -0.15314009476E+04 -0.44234270837E+03  0.34473650075E+03  0.16308584209E+04  0.50400001928E-02 0.  1.
       -1    1    3    3    0  502  0.15314009476E+04  0.44234270837E+03  0.42426689734E+02  0.15945707755E+04  0.50400001928E-02 0. -1.
</event>
<event>
 5   0  0.1288096E-07  0.3196246E+04  0.7818609E-02  0.8189809E-01
        1   -1    0    0  501    0  0.00000000000E+00  0.00000000000E+00  0.14470071919E+04  0.14470071919E+04  0.50400001928E-02 0.  1.
       -1   -1    0    0    0  501  0.00000000000E+00  0.00000000000E+00 -0.17650202456E+04  0.17650202456E+04  0.50400001928E-02 0. -1.
    10030    2    1    2    0    0  0.00000000000E+00  0.00000000000E+00 -0.31801305373E+03  0.32120274375E+04  0.31962459162E+04 0.  0.
        2    1    3    3  502    0  0.69786261911E+03  0.13674921670E+04 -0.60498815917E+03  0.16501690018E+04  0.25500000920E-02 0. -1.
       -2    1    3    3    0  502 -0.69786261911E+03 -0.13674921670E+04  0.28697510544E+03  0.15618584357E+04  0.25500000920E-02 0.  1.
</event>
<event>
 5   0  0.3764056E-07  0.3200270E+04  0.7818609E-02  0.8188746E-01
        2   -1    0    0  501    0  0.00000000000E+00  0.00000000000E+00  0.23404220846E+04  0.23404220846E+04  0.25500000920E-02 0.  1.
       -2   -1    0    0    0  501  0.00000000000E+00  0.00000000000E+00 -0.10940046162E+04  0.10940046162E+04  0.25500000920E-02 0. -1.
    10030    2    1    2    0    0  0.00000000000E+00  0.00000000000E+00  0.12464174683E+04  0.34344267008E+04  0.32002703414E+04 0.  0.
        5    1    3    3  502    0 -0.75832952550E+03  0.10262331526E+04 -0.41293581316E+03  0.13411771802E+04  0.46999998093E+01 0. -1.
       -5    1    3    3    0  502  0.75832952550E+03 -0.10262331526E+04  0.16593532815E+04  0.20932495206E+04  0.46999998093E+01 0.  1.
</event>
<event>
 5   0  0.1317293E-07  0.3199657E+04  0.7818609E-02  0.8188908E-01
       -1   -1    0    0    0  501  0.00000000000E+00  0.00000000000E+00  0.12625467547E+04  0.12625467547E+04  0.50400001928E-02 0.  1.
        1   -1    0    0  501    0  0.00000000000E+00  0.00000000000E+00 -0.20272129026E+04  0.20272129026E+04  0.50400001928E-02 0. -1.
    10030    2    1    2    0    0  0.00000000000E+00  0.00000000000E+00 -0.76466614784E+03  0.32897596573E+04  0.31996569012E+04 0.  0.
        1    1    3    3  502    0  0.90646966516E+03  0.11146918018E+04  0.34120681654E+03  0.14767014453E+04  0.50400001928E-02 0.  1.
       -1    1    3    3    0  502 -0.90646966516E+03 -0.11146918018E+04 -0.11058729644E+04  0.18130582120E+04  0.50400001928E-02 0. -1.
</event>
<event>
 5   0  0.3750285E-07  0.3202361E+04  0.7818609E-02  0.8188194E-01
       -2   -1    0    0    0  501  0.00000000000E+00  0.00000000000E+00  0.14195876941E+04  0.14195876941E+04  0.25500000920E-02 0.  1.
        2   -1    0    0  501    0  0.00000000000E+00  0.00000000000E+00 -0.18060023576E+04  0.18060023576E+04  0.25500000920E-02 0. -1.
    10030    2    1    2    0    0  0.00000000000E+00  0.00000000000E+00 -0.38641466346E+03  0.32255900517E+04  0.32023608306E+04 0.  0.
        1    1    3    3  502    0  0.27481179640E+03  0.84281628089E+03 -0.15362653036E+04  0.17736887804E+04  0.50400001928E-02 0. -1.
       -1    1    3    3    0  502 -0.27481179640E+03 -0.84281628089E+03  0.11498506401E+04  0.14519012712E+04  0.50400001928E-02 0.  1.
</event>
<event>
 5   0  0.3858721E-07  0.3229155E+04  0.7818609E-02  0.8181159E-01
       -2   -1    0    0    0  501  0.00000000000E+00  0.00000000000E+00  0.10681390440E+04  0.10681390440E+04  0.25500000920E-02 0. -1.
        2   -1    0    0  501    0  0.00000000000E+00  0.00000000000E+00 -0.24405633874E+04  0.24405633874E+04  0.25500000920E-02 0.  1.
    10030    2    1    2    0    0  0.00000000000E+00  0.00000000000E+00 -0.13724243434E+04  0.35087024314E+04  0.32291553344E+04 0.  0.
        2    1    3    3  502    0  0.31679046332E+03  0.14368486696E+04  0.36148949697E+02  0.14718006127E+04  0.25500000920E-02 0.  1.
       -2    1    3    3    0  502 -0.31679046332E+03 -0.14368486696E+04 -0.14085732931E+04  0.20369018187E+04  0.25500000920E-02 0. -1.
</event>
<event>
 5   0  0.1277374E-07  0.3199179E+04  0.7818609E-02  0.8189034E-01
       -1   -1    0    0    0  501  0.00000000000E+00  0.00000000000E+00  0.10147822337E+04  0.10147822337E+04  0.50400001928E-02 0.  1.
        1   -1    0    0  501    0  0.00000000000E+00  0.00000000000E+00 -0.25214148194E+04  0.25214148194E+04  0.50400001928E-02 0. -1.
    10030    2    1    2    0    0  0.00000000000E+00  0.00000000000E+00 -0.15066325857E+04  0.35361970531E+04  0.31991792464E+04 0.  0.
        5    1    3    3  502    0  0.15474201144E+03 -0.13968984322E+04  0.90949258102E+02  0.14083906339E+04  0.46999998093E+01 0.  1.
       -5    1    3    3    0  502 -0.15474201144E+03  0.13968984322E+04 -0.15975818438E+04  0.21278064192E+04  0.46999998093E+01 0. -1.
</event>
<event>
 5   0  0.1365455E-07  0.3197353E+04  0.7818609E-02  0.8189516E-01
        1   -1    0    0  501    0  0.00000000000E+00  0.00000000000E+00  0.15171930811E+04  0.15171930811E+04  0.50400001928E-02 0.  1.
       -1   -1    0    0    0  501  0.00000000000E+00  0.00000000000E+00 -0.16845365012E+04  0.16845365012E+04  0.50400001928E-02 0. -1.
    10030    2    1    2    0    0  0.00000000000E+00  0.00000000000E+00 -0.16734342003E+03  0.32017295823E+04  0.31973533583E+04 0.  0.
        3    1    3    3  502    0 -0.37006149024E+03  0.52956452289E+03 -0.15479943002E+04  0.16773999088E+04  0.10100000352E+00 0. -1.
       -3    1    3    3    0  502  0.37006149024E+03 -0.52956452289E+03  0.13806508802E+04  0.15243296735E+04  0.10100000352E+00 0.  1.
</event>
<event>
 5   0  0.3942564E-07  0.3201790E+04  0.7818609E-02  0.8188345E-01
        2   -1    0    0  501    0  0.00000000000E+00  0.00000000000E+00  0.22765162954E+04  0.22765162954E+04  0.25500000920E-02 0.  1.
       -2   -1    0    0    0  501  0.00000000000E+00  0.00000000000E+00 -0.11257836033E+04  0.11257836034E+04  0.25500000920E-02 0. -1.
    10030    2    1    2    0    0  0.00000000000E+00  0.00000000000E+00  0.11507326920E+04  0.34022998987E+04  0.32017899482E+04 0.  0.
        3    1    3    3  502    0 -0.57803751324E+03 -0.18743963729E+03 -0.99846736205E+03  0.11688447577E+04  0.10100000352E+00 0. -1.
       -3    1    3    3    0  502  0.57803751324E+03  0.18743963729E+03  0.21492000541E+04  0.22334551410E+04  0.10100000352E+00 0.  1.
</event>
<event>
 5   0  0.3764056E-07  0.3224077E+04  0.7818609E-02  0.8182487E-01
       -2   -1    0    0    0  501  0.00000000000E+00  0.00000000000E+00  0.11336642370E+04  0.11336642370E+04  0.25500000920E-02 0. -1.
        2   -1    0    0  501    0  0.00000000000E+00  0.00000000000E+00 -0.22922727937E+04  0.22922727937E+04  0.25500000920E-02 0.  1.
    10030    2    1    2    0    0  0.00000000000E+00  0.00000000000E+00 -0.11586085568E+04  0.34259370307E+04  0.32240767284E+04 0.  0.
        5    1    3    3  502    0 -0.12590583645E+04 -0.29538021178E+03 -0.16019352259E+04  0.20588093629E+04  0.46999998093E+01 0.  1.
       -5    1    3    3    0  502  0.12590583645E+04  0.29538021178E+03  0.44332666913E+03  0.13671276679E+04  0.46999998093E+01 0. -1.
</event>
<event>
 5   0  0.1277374E-07  0.3202597E+04  0.7818609E-02  0.8188132E-01
       -1   -1    0    0    0  501  0.00000000000E+00  0.00000000000E+00  0.13797263917E+04  0.13797263917E+04  0.50400001928E-02 0. -1.
        1   -1    0    0  501    0  0.00000000000E+00  0.00000000000E+00 -0.18584532841E+04  0.18584532841E+04  0.50400001928E-02 0.  1.
    10030    2    1    2    0    0  0.00000000000E+00  0.00000000000E+00 -0.47872689232E+03  0.32381796758E+04  0.32025970985E+04 0.  0.
        5    1    3    3  502    0  0.14431463483E+04 -0.69351363839E+03 -0.26202686539E+03  0.16224403587E+04  0.46999998093E+01 0.  1.
       -5    1    3    3    0  502 -0.14431463483E+04  0.69351363839E+03 -0.21670002693E+03  0.16157393171E+04  0.46999998093E+01 0. -1.
</event>
<event>
 5   0  0.3750285E-07  0.3193319E+04  0.7818609E-02  0.8190584E-01
       -2   -1    0    0    0  501  0.00000000000E+00  0.00000000000E+00  0.20313434954E+04  0.20313434954E+04  0.25500000920E-02 0.  1.
        2   -1    0    0  501    0  0.00000000000E+00  0.00000000000E+00 -0.12549927068E+04  0.12549927068E+04  0.25500000920E-02 0. -1.
    10030    2    1    2    0    0  0.00000000000E+00  0.00000000000E+00  0.77635078859E+03  0.32863362022E+04  0.31933188201E+04 0.  0.
        1    1    3    3  502    0 -0.10898161856E+04  0.64730767716E+03 -0.61098870291E+03  0.14071296111E+04  0.50400001928E-02 0. -1.
       -1    1    3    3    0  502  0.10898161856E+04 -0.64730767716E+03  0.13873394915E+04  0.18792065911E+04  0.50400001928E-02 0.  1.
</event>
<event>
 5   0  0.1317293E-07  0.3198925E+04  0.7818609E-02  0.8189101E-01
        1   -1    0    0  501    0  0.00000000000E+00  0.00000000000E+00  0.11625729781E+04  0.11625729782E+04  0.50400001928E-02 0. -1.
       -1   -1    0    0    0  501  0.00000000000E+00  0.00000000000E+00 -0.22005325356E+04  0.22005325357E+04  0.50400001928E-02 0.  1.
    10030    2    1    2    0    0  0.00000000000E+00  0.00000000000E+00 -0.10379595575E+04  0.33631055138E+04  0.31989246090E+04 0.  0.
        1    1    3    3  502    0  0.11645423309E+04  0.34256307808E+03  0.57599872533E+03  0.13436081403E+04  0.50400001928E-02 0.  1.
       -1    1    3    3    0  502 -0.11645423309E+04 -0.34256307808E+03 -0.16139582828E+04  0.20194973735E+04  0.50400001928E-02 0. -1.
</event>
<event>
 5   0  0.3942564E-07  0.3172473E+04  0.7818609E-02  0.8196125E-01
       -2   -1    0    0    0  501  0.00000000000E+00  0.00000000000E+00  0.13613424513E+04  0.13613424513E+04  0.25500000920E-02 0. -1.
        2   -1    0    0  501    0  0.00000000000E+00  0.00000000000E+00 -0.18482834929E+04  0.18482834929E+04  0.25500000920E-02 0.  1.
    10030    2    1    2    0    0  0.00000000000E+00  0.00000000000E+00 -0.48694104156E+03  0.32096259442E+04  0.31724733448E+04 0.  0.
        3    1    3    3  502    0 -0.71893675568E+03  0.17015550424E+03  0.11766501323E+04  0.13893626230E+04  0.10100000352E+00 0. -1.
       -3    1    3    3    0  502  0.71893675568E+03 -0.17015550424E+03 -0.16635911738E+04  0.18202633211E+04  0.10100000352E+00 0.  1.
</event>
<event>
 5   0  0.3830207E-07  0.3202047E+04  0.7818609E-02  0.8188277E-01
        2   -1    0    0  501    0  0.00000000000E+00  0.00000000000E+00  0.16007976087E+04  0.16007976087E+04  0.25500000920E-02 0. -1.
       -2   -1    0    0    0  501  0.00000000000E+00  0.00000000000E+00 -0.16012496041E+04  0.16012496041E+04  0.25500000920E-02 0.  1.
    10030    2    1    2    0    0  0.00000000000E+00  0.00000000000E+00 -0.45199539662E+00  0.32020472129E+04  0.32020471810E+04 0.  0.
        4    1    3    3  502    0 -0.13457404027E+04 -0.54894304348E+03  0.67127920478E+03  0.16009288179E+04  0.12699999809E+01 0. -1.
       -4    1    3    3    0  502  0.13457404027E+04  0.54894304348E+03 -0.67173120017E+03  0.16011183949E+04  0.12699999809E+01 0.  1.
</event>
<event>
 5   0  0.3858721E-07  0.3200669E+04  0.7818609E-02  0.8188640E-01
        2   -1    0    0  501    0  0.00000000000E+00  0.00000000000E+00  0.22840202416E+04  0.22840202416E+04  0.25500000920E-02 0. -1.
       -2   -1    0    0    0  501  0.00000000000E+00  0.00000000000E+00 -0.11212995596E+04  0.11212995596E+04  0.25500000920E-02 0.  1.
    10030    2    1    2    0    0  0.00000000000E+00  0.00000000000E+00  0.11627206820E+04  0.34053198013E+04  0.32006692370E+04 0.  0.
        2    1    3    3  502    0  0.42920353997E+01 -0.15960087197E+04  0.70638408545E+03  0.17453483123E+04  0.25500000920E-02 0. -1.
       -2    1    3    3    0  502 -0.42920353997E+01  0.15960087197E+04  0.45633659652E+03  0.16599714890E+04  0.25500000920E-02 0.  1.
</event>
<event>
 5   0  0.3858721E-07  0.3189105E+04  0.7818609E-02  0.8191701E-01
       -2   -1    0    0    0  501  0.00000000000E+00  0.00000000000E+00  0.11087411796E+04  0.11087411796E+04  0.25500000920E-02 0.  1.
        2   -1    0    0  501    0  0.00000000000E+00  0.00000000000E+00 -0.22932289027E+04  0.22932289027E+04  0.25500000920E-02 0. -1.
    10030    2    1    2    0    0  0.00000000000E+00  0.00000000000E+00 -0.11844877231E+04  0.34019700823E+04  0.31891047764E+04 0.  0.
        2    1    3    3  502    0 -0.27055805216E+03  0.13726802186E+04 -0.14082498222E+04  0.19850995451E+04  0.25500000920E-02 0. -1.
       -2    1    3    3    0  502  0.27055805216E+03 -0.13726802186E+04  0.22376209910E+03  0.14168705372E+04  0.25500000920E-02 0.  1.
</event>
<event>
 5   0  0.3750285E-07  0.3215464E+04  0.7818609E-02  0.8184745E-01
       -2   -1    0    0    0  501  0.00000000000E+00  0.00000000000E+00  0.11455081310E+04  0.11455081310E+04  0.25500000920E-02 0. -1.
        2   -1    0    0  501    0  0.00000000000E+00  0.00000000000E+00 -0.22564682167E+04  0.22564682167E+04  0.25500000920E-02 0.  1.
    10030    2    1    2    0    0  0.00000000000E+00  0.00000000000E+00 -0.11109600857E+04  0.34019763477E+04  0.32154643146E+04 0.  0.
        1    1    3    3  502    0  0.57130221144E+03 -0.80582147886E+03  0.78658889276E+03  0.12627179253E+04  0.50400001928E-02 0. -1.
       -1    1    3    3    0  502 -0.57130221144E+03  0.80582147886E+03 -0.18975489784E+04  0.21392584225E+04  0.50400001928E-02 0.  1.
</event>
<event>
 5   0  0.1277374E-07  0.3202256E+04  0.7818609E-02  0.8188222E-01
        1   -1    0    0  501    0  0.00000000000E+00  0.00000000000E+00  0.97369624114E+03  0.97369624115E+03  0.50400001928E-02 0.  1.
       -1   -1    0    0    0  501  0.00000000000E+00  0.00000000000E+00 -0.26328651740E+04  0.26328651740E+04  0.50400001928E-02 0. -1.
    10030    2    1    2    0    0  0.00000000000E+00  0.00000000000E+00 -0.16591689329E+04  0.36065614152E+04  0.32022560319E+04 0.  0.
        5    1    3    3  502    0 -0.87928531145E+03  0.46870585350E+03 -0.22411216862E+04  0.24526468026E+04  0.46999998093E+01 0. -1.
       -5    1    3    3    0  502  0.87928531145E+03 -0.46870585350E+03  0.58195275330E+03  0.11539146126E+04  0.46999998093E+01 0.  1.
</event>
<event>
 5   0  0.1317293E-07  0.3192794E+04  0.7818609E-02  0.8190723E-01
       -1   -1    0    0    0  501  0.00000000000E+00  0.00000000000E+00  0.15695380560E+04  0.15695380561E+04  0.50400001928E-02 0.  1.
        1   -1    0    0  501    0  0.00000000000E+00  0.00000000000E+00 -0.16237158907E+04  0.16237158908E+04  0.50400001928E-02 0. -1.
    10030    2    1    2    0    0  0.00000000000E+00  0.00000000000E+00 -0.54177834695E+02  0.31932539468E+04  0.31927943139E+04 0.  0.
        1    1    3    3  502    0  0.42386399185E+03  0.15381862699E+02  0.15121539509E+04  0.15705116543E+04  0.50400001928E-02 0.  1.
       -1    1    3    3    0  502 -0.42386399185E+03 -0.15381862699E+02 -0.15663317856E+04  0.16227422925E+04  0.50400001928E-02 0. -1.
</event>
<event>
 5   0  0.3750285E-07  0.3212576E+04  0.7818609E-02  0.8185504E-01
       -2   -1    0    0    0  501  0.00000000000E+00  0.00000000000E+00  0.20626643816E+04  0.20626643816E+04  0.25500000920E-02 0.  1.
        2   -1    0    0  501    0  0.00000000000E+00  0.00000000000E+00 -0.12508877145E+04  0.12508877145E+04  0.25500000920E-02 0. -1.
    10030    2    1    2    0    0  0.00000000000E+00  0.00000000000E+00  0.81177666713E+03  0.33135520962E+04  0.32125762461E+04 0.  0.
        1    1    3    3  502    0  0.80382209111E+03 -0.13144162623E+04  0.87441424970E+03  0.17715587331E+04  0.50400001928E-02 0.  1.
       -1    1    3    3    0  502 -0.80382209111E+03  0.13144162623E+04 -0.62637582567E+02  0.15419933630E+04  0.50400001928E-02 0. -1.
</event>
<event>
 5   0  0.1288096E-07  0.3190375E+04  0.7818609E-02  0.8191364E-01
        1   -1    0    0  501    0  0.00000000000E+00  0.00000000000E+00  0.12322866804E+04  0.12322866804E+04  0.50400001928E-02 0.  1.
       -1   -1    0    0    0  501  0.00000000000E+00  0.00000000000E+00 -0.20649598410E+04  0.20649598410E+04  0.50400001928E-02 0. -1.
    10030    2    1    2    0    0  0.00000000000E+00  0.00000000000E+00 -0.83267316062E+03  0.32972465215E+04  0.31903745910E+04 0.  0.
        2    1    3    3  502    0  0.81181781803E+03  0.12541525766E+04 -0.99424200824E+03  0.17945651356E+04  0.25500000920E-02 0.  1.
       -2    1    3    3    0  502 -0.81181781803E+03 -0.12541525766E+04  0.16156884762E+03  0.15026813859E+04  0.25500000920E-02 0. -1.
</event>
<event>
 5   0  0.1365455E-07  0.3192305E+04  0.7818609E-02  0.8190852E-01
        1   -1    0    0  501    0  0.00000000000E+00  0.00000000000E+00  0.23706759963E+04  0.23706759963E+04  0.50400001928E-02 0.  1.
       -1   -1    0    0    0  501  0.00000000000E+00  0.00000000000E+00 -0.10746732664E+04  0.10746732664E+04  0.50400001928E-02 0. -1.
    10030    2    1    2    0    0  0.00000000000E+00  0.00000000000E+00  0.12960027299E+04  0.34453492626E+04  0.31923045697E+04 0.  0.
        3    1    3    3  502    0 -0.39554529659E+02  0.81111036143E+03 -0.83505359804E+03  0.11648086113E+04  0.10100000352E+00 0. -1.
       -3    1    3    3    0  502  0.39554529659E+02 -0.81111036143E+03  0.21310563279E+04  0.22805406513E+04  0.10100000352E+00 0.  1.
</event>
<event>
 5   0  0.1270948E-07  0.3190341E+04  0.7818609E-02  0.8191373E-01
        1   -1    0    0  501    0  0.00000000000E+00  0.00000000000E+00  0.23316338871E+04  0.23316338871E+04  0.50400001928E-02 0. -1.
       -1   -1    0    0    0  501  0.00000000000E+00  0.00000000000E+00 -0.10913245671E+04  0.10913245671E+04  0.50400001928E-02 0.  1.
    10030    2    1    2    0    0  0.00000000000E+00  0.00000000000E+00  0.12403093200E+04  0.34229584542E+04  0.31903412623E+04 0.  0.
        4    1    3    3  502    0  0.13185177811E+04 -0.56511776453E+03 -0.12836688880E+03  0.14402523730E+04  0.12699999809E+01 0.  1.
       -4    1    3    3    0  502 -0.13185177811E+04  0.56511776453E+03  0.13686762088E+04  0.19827060812E+04  0.12699999809E+01 0. -1.
</event>
<event>
 5   0  0.3750285E-07  0.3195790E+04  0.7818609E-02  0.8189930E-01
       -2   -1    0    0    0  501  0.00000000000E+00  0.00000000000E+00  0.18269555079E+04  0.18269555079E+04  0.25500000920E-02 0. -1.
        2   -1    0    0  501    0  0.00000000000E+00  0.00000000000E+00 -0.13975536071E+04  0.13975536071E+04  0.25500000920E-02 0.  1.
    10030    2    1    2    0    0  0.00000000000E+00  0.00000000000E+00  0.42940190077E+03  0.32245091150E+04  0.31957898930E+04 0.  0.
        1    1    3    3  502    0 -0.82654113236E+03  0.13675152489E+04  0.21494950599E+03  0.16122876572E+04  0.50400001928E-02 0. -1.
       -1    1    3    3    0  502  0.82654113236E+03 -0.13675152489E+04  0.21445239477E+03  0.16122214578E+04  0.50400001928E-02 0.  1.
</event>
<event>
 5   0  0.1288096E-07  0.3201458E+04  0.7818609E-02  0.8188432E-01
        1   -1    0    0  501    0  0.00000000000E+00  0.00000000000E+00  0.22110193875E+04  0.22110193875E+04  0.50400001928E-02 0.  1.
       -1   -1    0    0    0  501  0.00000000000E+00  0.00000000000E+00 -0.11588924878E+04  0.11588924878E+04  0.50400001928E-02 0. -1.
    10030    2    1    2    0    0  0.00000000000E+00  0.00000000000E+00  0.10521268997E+04  0.33699118754E+04  0.32014582669E+04 0.  0.
        2    1    3    3  502    0  0.43303975325E+03  0.11379258849E+04 -0.56781611628E+03  0.13434336192E+04  0.25500000920E-02 0. -1.
       -2    1    3    3    0  502 -0.43303975325E+03 -0.11379258849E+04  0.16199430160E+04  0.20264782561E+04  0.25500000920E-02 0.  1.
</event>
<event>
 5   0  0.1277374E-07  0.3207156E+04  0.7818609E-02  0.8186930E-01
       -1   -1    0    0    0  501  0.00000000000E+00  0.00000000000E+00  0.15034729100E+04  0.15034729100E+04  0.50400001928E-02 0. -1.
        1   -1    0    0  501    0  0.00000000000E+00  0.00000000000E+00 -0.17103487554E+04  0.17103487554E+04  0.50400001928E-02 0.  1.
    10030    2    1    2    0    0  0.00000000000E+00  0.00000000000E+00 -0.20687584543E+03  0.32138216654E+04  0.32071563856E+04 0.  0.
        5    1    3    3  502    0  0.23145614353E+03  0.81293047831E+03 -0.14689926543E+04  0.16948125021E+04  0.46999998093E+01 0.  1.
       -5    1    3    3    0  502 -0.23145614353E+03 -0.81293047831E+03  0.12621168089E+04  0.15190091633E+04  0.46999998093E+01 0. -1.
</event>
<event>
 5   0  0.1277374E-07  0.3196970E+04  0.7818609E-02  0.8189618E-01
        1   -1    0    0  501    0  0.00000000000E+00  0.00000000000E+00  0.25650268066E+04  0.25650268067E+04  0.50400001928E-02 0.  1.
       -1   -1    0    0    0  501  0.00000000000E+00  0.00000000000E+00 -0.99615135735E+03  0.99615135737E+03  0.50400001928E-02 0. -1.
    10030    2    1    2    0    0  0.00000000000E+00  0.00000000000E+00  0.15688754493E+04  0.35611781640E+04  0.31969704003E+04 0.  0.
        5    1    3    3  502    0 -0.74493380958E+03 -0.61050170308E+02 -0.78949982592E+03  0.10871915972E+04  0.46999998093E+01 0. -1.
       -5    1    3    3    0  502  0.74493380958E+03  0.61050170308E+02  0.23583752752E+04  0.24739865668E+04  0.46999998093E+01 0.  1.
</event>
<event>
 5   0  0.3750285E-07  0.3190857E+04  0.7818609E-02  0.8191236E-01
        2   -1    0    0  501    0  0.00000000000E+00  0.00000000000E+00  0.13856303476E+04  0.13856303476E+04  0.25500000920E-02 0. -1.
       -2   -1    0    0    0  501  0.00000000000E+00  0.00000000000E+00 -0.18369927374E+04  0.18369927374E+04  0.25500000920E-02 0.  1.
    10030    2    1    2    0    0  0.00000000000E+00  0.00000000000E+00 -0.45136238985E+03  0.32226230850E+04  0.31908574930E+04 0.  0.
        1    1    3    3  502    0 -0.44430243497E+03 -0.12377746154E+04 -0.11379465164E+04  0.17390839331E+04  0.50400001928E-02 0.  1.
       -1    1    3    3    0  502  0.44430243497E+03  0.12377746154E+04  0.68658412659E+03  0.14835391519E+04  0.50400001928E-02 0. -1.
</event>
<event>
 5   0  0.1277374E-07  0.3200908E+04  0.7818609E-02  0.8188577E-01
        1   -1    0    0  501    0  0.00000000000E+00  0.00000000000E+00  0.16307593580E+04  0.16307593580E+04  0.50400001928E-02 0. -1.
       -1   -1    0    0    0  501  0.00000000000E+00  0.00000000000E+00 -0.15707115483E+04  0.15707115483E+04  0.50400001928E-02 0.  1.
    10030    2    1    2    0    0  0.00000000000E+00  0.00000000000E+00  0.60047809701E+02  0.32014709062E+04  0.32009077188E+04 0.  0.
        5    1    3    3  502    0  0.13069133950E+04 -0.86790332427E+03  0.34654706266E+03  0.16066722625E+04  0.46999998093E+01 0. -1.
       -5    1    3    3    0  502 -0.13069133950E+04  0.86790332427E+03 -0.28649925296E+03  0.15947986438E+04  0.46999998093E+01 0.  1.
</event>
<event>
 5   0  0.3858721E-07  0.3198463E+04  0.7818609E-02  0.8189223E-01
        2   -1    0    0  501    0  0.00000000000E+00  0.00000000000E+00  0.12234807875E+04  0.12234807875E+04  0.25500000920E-02 0. -1.
       -2   -1    0    0    0  501  0.00000000000E+00  0.00000000000E+00 -0.20903810109E+04  0.20903810109E+04  0.25500000920E-02 0.  1.
    10030    2    1    2    0    0  0.00000000000E+00  0.00000000000E+00 -0.86690022336E+03  0.33138617984E+04  0.31984627591E+04 0.  0.
        2    1    3    3  502    0 -0.44236901147E+02 -0.14587339783E+04  0.24411681729E+03  0.14796806221E+04  0.25500000920E-02 0.  1.
       -2    1    3    3    0  502  0.44236901147E+02  0.14587339783E+04 -0.11110170406E+04  0.18341811763E+04  0.25500000920E-02 0. -1.
</event>
<event>
 5   0  0.1288096E-07  0.3193738E+04  0.7818609E-02  0.8190473E-01
       -1   -1    0    0    0  501  0.00000000000E+00  0.00000000000E+00  0.15237947129E+04  0.15237947129E+04  0.50400001928E-02 0. -1.
        1   -1    0    0  501    0  0.00000000000E+00  0.00000000000E+00 -0.16734476551E+04  0.16734476551E+04  0.50400001928E-02 0.  1.
    10030    2    1    2    0    0  0.00000000000E+00  0.00000000000E+00 -0.14965294219E+03  0.31972423680E+04  0.31937380538E+04 0.  0.
        2    1    3    3  502    0 -0.43182535412E+03  0.13660684493E+04 -0.78084816133E+03  0.16316678570E+04  0.25500000920E-02 0.  1.
       -2    1    3    3    0  502  0.43182535412E+03 -0.13660684493E+04  0.63119521914E+03  0.15655745109E+04  0.25500000920E-02 0. -1.
</event>
<event>
 5   0  0.3764056E-07  0.3196032E+04  0.7818609E-02  0.8189866E-01
       -2   -1    0    0    0  501  0.00000000000E+00  0.00000000000E+00  0.14944457008E+04  0.14944457008E+04  0.25500000920E-02 0. -1.
        2   -1    0    0  501    0  0.00000000000E+00  0.00000000000E+00 -0.17087641954E+04  0.17087641954E+04  0.25500000920E-02 0.  1.
    10030    2    1    2    0    0  0.00000000000E+00  0.00000000000E+00 -0.21431849458E+03  0.32032098962E+04  0.31960321059E+04 0.  0.
        5    1    3    3  502    0  0.99102211197E+02 -0.13023494455E+04 -0.10299321118E+04  0.16633452953E+04  0.46999998093E+01 0.  1.
       -5    1    3    3    0  502 -0.99102211197E+02  0.13023494455E+04  0.81561361721E+03  0.15398646009E+04  0.46999998093E+01 0. -1.
</event>
<event>
 5   0  0.3830207E-07  0.3197862E+04  0.7818609E-02  0.8189382E-01
        2   -1    0    0  501    0  0.00000000000E+00  0.00000000000E+00  0.16794058695E+04  0.16794058695E+04  0.25500000920E-02 0.  1.
       -2   -1    0    0    0  501  0.00000000000E+00  0.00000000000E+00 -0.15223120256E+04  0.15223120256E+04  0.25500000920E-02 0. -1.
    10030    2    1    2    0    0  0.00000000000E+00  0.00000000000E+00  0.15709384393E+03  0.32017178950E+04  0.31978616298E+04 0.  0.
        4    1    3    3  502    0  0.43897882431E+03  0.61134856086E+03 -0.13338734504E+04  0.15315578558E+04  0.12699999809E+01 0. -1.
       -4    1    3    3    0  502 -0.43897882431E+03 -0.61134856086E+03  0.14909672943E+04  0.16701600392E+04  0.12699999809E+01 0.  1.
</event>
<event>
 5   0  0.3830207E-07  0.3196105E+04  0.7818609E-02  0.8189847E-01
        2   -1    0    0  501    0  0.00000000000E+00  0.00000000000E+00  0.25391791663E+04  0.25391791663E+04  0.25500000920E-02 0.  1.
       -2   -1    0    0    0  501  0.00000000000E+00  0.00000000000E+00 -0.10057471465E+04  0.10057471465E+04  0.25500000920E-02 0. -1.
    10030    2    1    2    0    0  0.00000000000E+00  0.00000000000E+00  0.15334320199E+04  0.35449263128E+04  0.31961052554E+04 0.  0.
        4    1    3    3  502    0 -0.97225609891E+03  0.33686258634E+03 -0.58943645136E+03  0.11858310449E+04  0.12699999809E+01 0. -1.
       -4    1    3    3    0  502  0.97225609891E+03 -0.33686258634E+03  0.21228684712E+04  0.23590952679E+04  0.12699999809E+01 0.  1.
</event>
<event>
 5   0  0.1230450E-07  0.3203216E+04  0.7818609E-02  0.8187968E-01
       -3   -1    0    0    0  501  0.00000000000E+00  0.00000000000E+00  0.16898291035E+04  0.16898291065E+04  0.10100000352E+00 0.  1.
        3   -1    0    0  501    0  0.00000000000E+00  0.00000000000E+00 -0.15179923213E+04  0.15179923246E+04  0.10100000352E+00 0. -1.
    10030    2    1    2    0    0  0.00000000000E+00  0.00000000000E+00  0.17183678223E+03  0.32078214311E+04  0.32032156428E+04 0.  0.
        2    1    3    3  502    0 -0.39109461607E+02 -0.14000139654E+04 -0.69210213369E+03  0.15622336627E+04  0.25500000920E-02 0. -1.
       -2    1    3    3    0  502  0.39109461607E+02  0.14000139654E+04  0.86393891593E+03  0.16455877685E+04  0.25500000920E-02 0.  1.
</event>
<event>
 5   0  0.1230450E-07  0.3189047E+04  0.7818609E-02  0.8191716E-01
        3   -1    0    0  501    0  0.00000000000E+00  0.00000000000E+00  0.15115100780E+04  0.15115100813E+04  0.10100000352E+00 0.  1.
       -3   -1    0    0    0  501  0.00000000000E+00  0.00000000000E+00 -0.16820964364E+04  0.16820964394E+04  0.10100000352E+00 0. -1.
    10030    2    1    2    0    0  0.00000000000E+00  0.00000000000E+00 -0.17058635843E+03  0.31936065208E+04  0.31890473348E+04 0.  0.
        1    1    3    3  502    0  0.52574774935E+03  0.11352799646E+04 -0.10752581351E+04  0.16496821970E+04  0.50400001928E-02 0. -1.
       -1    1    3    3    0  502 -0.52574774935E+03 -0.11352799646E+04  0.90467177671E+03  0.15439243238E+04  0.50400001928E-02 0.  1.
</event>
<event>
 5   0  0.1277374E-07  0.3200742E+04  0.7818609E-02  0.8188621E-01
       -1   -1    0    0    0  501  0.00000000000E+00  0.00000000000E+00  0.12163502099E+04  0.12163502099E+04  0.50400001928E-02 0.  1.
        1   -1    0    0  501    0  0.00000000000E+00  0.00000000000E+00 -0.21056329143E+04  0.21056329143E+04  0.50400001928E-02 0. -1.
    10030    2    1    2    0    0  0.00000000000E+00  0.00000000000E+00 -0.88928270444E+03  0.33219831242E+04  0.32007418123E+04 0.  0.
        5    1    3    3  502    0  0.11081213553E+04  0.46991215697E+03  0.65002082774E+03  0.13679545094E+04  0.46999998093E+01 0.  1.
       -5    1    3    3    0  502 -0.11081213553E+04 -0.46991215697E+03 -0.15393035322E+04  0.19540286148E+04  0.46999998093E+01 0. -1.
</event>
<event>
 5   0  0.3750285E-07  0.3200204E+04  0.7818609E-02  0.8188763E-01
        2   -1    0    0  501    0  0.00000000000E+00  0.00000000000E+00  0.22752137419E+04  0.22752137419E+04  0.25500000920E-02 0. -1.
       -2   -1    0    0    0  501  0.00000000000E+00  0.00000000000E+00 -0.11253122458E+04  0.11253122458E+04  0.25500000920E-02 0.  1.
    10030    2    1    2    0    0  0.00000000000E+00  0.00000000000E+00  0.11499014961E+04  0.34005259877E+04  0.32002036720E+04 0.  0.
        1    1    3    3  502    0  0.22021701311E+02 -0.90909506095E+03 -0.82404456376E+03  0.12271871203E+04  0.50400001928E-02 0.  1.
       -1    1    3    3    0  502 -0.22021701311E+02  0.90909506095E+03  0.19739460598E+04  0.21733388674E+04  0.50400001928E-02 0. -1.
</event>
<event>
 5   0  0.3764056E-07  0.3212788E+04  0.7818609E-02  0.8185448E-01
        2   -1    0    0  501    0  0.00000000000E+00  0.00000000000E+00  0.19744501000E+04  0.19744501000E+04  0.25500000920E-02 0. -1.
       -2   -1    0    0    0  501  0.00000000000E+00  0.00000000000E+00 -0.13069466210E+04  0.13069466210E+04  0.25500000920E-02 0.  1.
    10030    2    1    2    0    0  0.00000000000E+00  0.00000000000E+00  0.66750347902E+03  0.32813967211E+04  0.32127875041E+04 0.  0.
        5    1    3    3  502    0  0.43070448268E+03  0.35670063453E+03 -0.12043075980E+04  0.13278255061E+04  0.46999998093E+01 0.  1.
       -5    1    3    3    0  502 -0.43070448268E+03 -0.35670063453E+03  0.18718110770E+04  0.19535712150E+04  0.46999998093E+01 0. -1.
</event>
<event>
 5   0  0.1277374E-07  0.3211770E+04  0.7818609E-02  0.8185716E-01
       -1   -1    0    0    0  501  0.00000000000E+00  0.00000000000E+00  0.11736133574E+04  0.11736133574E+04  0.50400001928E-02 0.  1.
        1   -1    0    0  501    0  0.00000000000E+00  0.00000000000E+00 -0.21973730068E+04  0.21973730068E+04  0.50400001928E-02 0. -1.
    10030    2    1    2    0    0  0.00000000000E+00  0.00000000000E+00 -0.10237596494E+04  0.33709863642E+04  0.32117697999E+04 0.  0.
        5    1    3    3  502    0  0.28697452039E+03 -0.15794070814E+04 -0.46537631199E+03  0.16713701882E+04  0.46999998093E+01 0.  1.
       -5    1    3    3    0  502 -0.28697452039E+03  0.15794070814E+04 -0.55838333741E+03  0.16996161760E+04  0.46999998093E+01 0. -1.
</event>
<event>
 5   0  0.3830207E-07  0.3191872E+04  0.7818609E-02  0.8190967E-01
        2   -1    0    0  501    0  0.00000000000E+00  0.00000000000E+00  0.32649395683E+04  0.32649395683E+04  0.25500000920E-02 0.  1.
       -2   -1    0    0    0  501  0.00000000000E+00  0.00000000000E+00 -0.78011001153E+03  0.78011001153E+03  0.25500000920E-02 0. -1.
    10030    2    1    2    0    0  0.00000000000E+00  0.00000000000E+00  0.24848295568E+04  0.40450495798E+04  0.31918722056E+04 0.  0.
        4    1    3    3  502    0 -0.11945341448E+04 -0.77074180925E+03  0.21615813210E+04  0.25871587079E+04  0.12699999809E+01 0.  1.
       -4    1    3    3    0  502  0.11945341448E+04  0.77074180925E+03  0.32324823572E+03  0.14578908719E+04  0.12699999809E+01 0. -1.
</event>
<event>
 5   0  0.3750285E-07  0.3216616E+04  0.7818609E-02  0.8184443E-01
        2   -1    0    0  501    0  0.00000000000E+00  0.00000000000E+00  0.13315279450E+04  0.13315279451E+04  0.25500000920E-02 0.  1.
       -2   -1    0    0    0  501  0.00000000000E+00  0.00000000000E+00 -0.19426219562E+04  0.19426219562E+04  0.25500000920E-02 0. -1.
    10030    2    1    2    0    0  0.00000000000E+00  0.00000000000E+00 -0.61109401114E+03  0.32741499012E+04  0.32166164965E+04 0.  0.
        1    1    3    3  502    0  0.14876656577E+03 -0.93334382808E+03  0.10190329645E+04  0.13898526452E+04  0.50400001928E-02 0.  1.
       -1    1    3    3    0  502 -0.14876656577E+03  0.93334382808E+03 -0.16301269756E+04  0.18842972561E+04  0.50400001928E-02 0. -1.
</event>
<event>
 5   0  0.1365455E-07  0.3155645E+04  0.7818609E-02  0.8200630E-01
       -1   -1    0    0    0  501  0.00000000000E+00  0.00000000000E+00  0.26527129434E+04  0.26527129434E+04  0.50400001928E-02 0.  1.
        1   -1    0    0  501    0  0.00000000000E+00  0.00000000000E+00 -0.93848219164E+03  0.93848219165E+03  0.50400001928E-02 0. -1.
    10030    2    1    2    0    0  0.00000000000E+00  0.00000000000E+00  0.17142307517E+04  0.35911951350E+04  0.31556450098E+04 0.  0.
        3    1    3    3  502    0  0.10103274365E+04 -0.24320323842E+03 -0.49402677241E+03  0.11506397378E+04  0.10100000352E+00 0. -1.
       -3    1    3    3    0  502 -0.10103274365E+04  0.24320323842E+03  0.22082575241E+04  0.24405553973E+04  0.10100000352E+00 0.  1.
</event>
<event>
 5   0  0.3942564E-07  0.3197692E+04  0.7818609E-02  0.8189427E-01
        2   -1    0    0  501    0  0.00000000000E+00  0.00000000000E+00  0.11921036475E+04  0.11921036475E+04  0.25500000920E-02 0.  1.
       -2   -1    0    0    0  501  0.00000000000E+00  0.00000000000E+00 -0.21443672242E+04  0.21443672242E+04  0.25500000920E-02 0. -1.
    10030    2    1    2    0    0  0.00000000000E+00  0.00000000000E+00 -0.95226357674E+03  0.33364708717E+04  0.31976916609E+04 0.  0.
        3    1    3    3  502    0 -0.15592418595E+01  0.58914066529E+03  0.10747193777E+04  0.12256063421E+04  0.10100000352E+00 0.  1.
       -3    1    3    3    0  502  0.15592418595E+01 -0.58914066529E+03 -0.20269829544E+04  0.21108645296E+04  0.10100000352E+00 0. -1.
</event>
<event>
 5   0  0.1365455E-07  0.3202443E+04  0.7818609E-02  0.8188172E-01
       -1   -1    0    0    0  501  0.00000000000E+00  0.00000000000E+00  0.13542595531E+04  0.13542595531E+04  0.50400001928E-02 0. -1.
        1   -1    0    0  501    0  0.00000000000E+00  0.00000000000E+00 -0.18932191188E+04  0.18932191188E+04  0.50400001928E-02 0.  1.
    10030    2    1    2    0    0  0.00000000000E+00  0.00000000000E+00 -0.53895956570E+03  0.32474786719E+04  0.32024428662E+04 0.  0.
        3    1    3    3  502    0 -0.14288367984E+04  0.67443647314E+03 -0.53288429878E+03  0.16674545987E+04  0.10100000352E+00 0. -1.
       -3    1    3    3    0  502  0.14288367984E+04 -0.67443647314E+03 -0.60752669229E+01  0.15800240732E+04  0.10100000352E+00 0.  1.
</event>
<event>
 5   0  0.1277374E-07  0.3203331E+04  0.7818609E-02  0.8187938E-01
        1   -1    0    0  501    0  0.00000000000E+00  0.00000000000E+00  0.18511463190E+04  0.18511463190E+04  0.50400001928E-02 0. -1.
       -1   -1    0    0    0  501  0.00000000000E+00  0.00000000000E+00 -0.13858076994E+04  0.13858076994E+04  0.50400001928E-02 0.  1.
    10030    2    1    2    0    0  0.00000000000E+00  0.00000000000E+00  0.46533861960E+03  0.32369540185E+04  0.32033312796E+04 0.  0.
        5    1    3    3  502    0 -0.29071271427E+03 -0.15551344155E+04  0.48499771073E+03  0.16547512810E+04  0.46999998093E+01 0. -1.
       -5    1    3    3    0  502  0.29071271427E+03  0.15551344155E+04 -0.19659091124E+02  0.15822027375E+04  0.46999998093E+01 0.  1.
</event>
<event>
 5   0  0.1317293E-07  0.3199103E+04  0.7818609E-02  0.8189054E-01
       -1   -1    0    0    0  501  0.00000000000E+00  0.00000000000E+00  0.22727680400E+04  0.22727680400E+04  0.50400001928E-02 0.  1.
        1   -1    0    0  501    0  0.00000000000E+00  0.00000000000E+00 -0.11257482531E+04  0.11257482531E+04  0.50400001928E-02 0. -1.
    10030    2    1    2    0    0  0.00000000000E+00  0.00000000000E+00  0.11470197869E+04  0.33985162932E+04  0.31991027810E+04 0.  0.
        1    1    3    3  502    0 -0.14471563808E+04  0.18326784691E+03 -0.12368892692E+03  0.14639493314E+04  0.50400001928E-02 0. -1.
       -1    1    3    3    0  502  0.14471563808E+04 -0.18326784691E+03  0.12707087138E+04  0.19345669618E+04  0.50400001928E-02 0.  1.
</event>
<event>
 5   0  0.1317293E-07  0.3200753E+04  0.7818609E-02  0.8188618E-01
        1   -1    0    0  501    0  0.00000000000E+00  0.00000000000E+00  0.21465337703E+04  0.21465337703E+04  0.50400001928E-02 0.  1.
       -1   -1    0    0    0  501  0.00000000000E+00  0.00000000000E+00 -0.11931819665E+04  0.11931819665E+04  0.50400001928E-02 0. -1.
    10030    2    1    2    0    0  0.00000000000E+00  0.00000000000E+00  0.95335180380E+03  0.33397157368E+04  0.32007532771E+04 0.  0.
        1    1    3    3  502    0 -0.10405446567E+04 -0.10589759355E+04  0.11001480557E+04  0.18478335853E+04  0.50400001928E-02 0.  1.
       -1    1    3    3    0  502  0.10405446567E+04  0.10589759355E+04 -0.14679625186E+03  0.14918821515E+04  0.50400001928E-02 0. -1.
</event>
<event>
 5   0  0.3942564E-07  0.3198583E+04  0.7818609E-02  0.8189191E-01
        2   -1    0    0  501    0  0.00000000000E+00  0.00000000000E+00  0.16727744861E+04  0.16727744861E+04  0.25500000920E-02 0. -1.
       -2   -1    0    0    0  501  0.00000000000E+00  0.00000000000E+00 -0.15290366941E+04  0.15290366941E+04  0.25500000920E-02 0.  1.
    10030    2    1    2    0    0  0.00000000000E+00  0.00000000000E+00  0.14373779200E+03  0.32018111802E+04  0.31985831677E+04 0.  0.
        3    1    3    3  502    0 -0.90614902540E+03 -0.61841790500E+03  0.12367386185E+04  0.16531996800E+04  0.10100000352E+00 0. -1.
       -3    1    3    3    0  502  0.90614902540E+03  0.61841790500E+03 -0.10930008265E+04  0.15486115001E+04  0.10100000352E+00 0.  1.
</event>
<event>
 5   0  0.1317293E-07  0.3193773E+04  0.7818609E-02  0.8190464E-01
        1   -1    0    0  501    0  0.00000000000E+00  0.00000000000E+00  0.22882224884E+04  0.22882224884E+04  0.50400001928E-02 0.  1.
       -1   -1    0    0    0  501  0.00000000000E+00  0.00000000000E+00 -0.11144221771E+04  0.11144221771E+04  0.50400001928E-02 0. -1.
    10030    2    1    2    0    0  0.00000000000E+00  0.00000000000E+00  0.11738003113E+04  0.34026446656E+04  0.31937726202E+04 0.  0.
        1    1    3    3  502    0  0.12185590289E+04  0.93943049490E+03  0.10422013758E+04  0.18583862541E+04  0.50400001928E-02 0.  1.
       -1    1    3    3    0  502 -0.12185590289E+04 -0.93943049490E+03  0.13159893550E+03  0.15442584115E+04  0.50400001928E-02 0. -1.
</event>
<event>
 5   0  0.1288096E-07  0.3209076E+04  0.7818609E-02  0.8186424E-01
        1   -1    0    0  501    0  0.00000000000E+00  0.00000000000E+00  0.21907628479E+04  0.21907628479E+04  0.50400001928E-02 0. -1.
       -1   -1    0    0    0  501  0.00000000000E+00  0.00000000000E+00 -0.11751809563E+04  0.11751809563E+04  0.50400001928E-02 0.  1.
    10030    2    1    2    0    0  0.00000000000E+00  0.00000000000E+00  0.10155818917E+04  0.33659438042E+04  0.32090763647E+04 0.  0.
        2    1    3    3  502    0 -0.59858788661E+03  0.39596237685E+01 -0.10536774873E+04  0.12118413196E+04  0.25500000920E-02 0.  1.
       -2    1    3    3    0  502  0.59858788661E+03 -0.39596237685E+01  0.20692593790E+04  0.21541024846E+04  0.25500000920E-02 0. -1.
</event>
<event>
 5   0  0.1277374E-07  0.3199559E+04  0.7818609E-02  0.8188934E-01
       -1   -1    0    0    0  501  0.00000000000E+00  0.00000000000E+00  0.99169746737E+03  0.99169746738E+03  0.50400001928E-02 0. -1.
        1   -1    0    0  501    0  0.00000000000E+00  0.00000000000E+00 -0.25807213381E+04  0.25807213381E+04  0.50400001928E-02 0.  1.
    10030    2    1    2    0    0  0.00000000000E+00  0.00000000000E+00 -0.15890238707E+04  0.35724188055E+04  0.31995592290E+04 0.  0.
        5    1    3    3  502    0 -0.74958274020E+03 -0.13219214902E+03  0.77656132613E+03  0.10873907448E+04  0.46999998093E+01 0. -1.
       -5    1    3    3    0  502  0.74958274020E+03  0.13219214902E+03 -0.23655851968E+04  0.24850280606E+04  0.46999998093E+01 0.  1.
</event>
<event>
 5   0  0.3750285E-07  0.3202169E+04  0.7818609E-02  0.8188245E-01
        2   -1    0    0  501    0  0.00000000000E+00  0.00000000000E+00  0.24371977344E+04  0.24371977344E+04  0.25500000920E-02 0.  1.
       -2   -1    0    0    0  501  0.00000000000E+00  0.00000000000E+00 -0.10518110408E+04  0.10518110408E+04  0.25500000920E-02 0. -1.
    10030    2    1    2    0    0  0.00000000000E+00  0.00000000000E+00  0.13853866935E+04  0.34890087752E+04  0.32021689435E+04 0.  0.
        1    1    3    3  502    0  0.71183348494E+03 -0.32205676640E+03 -0.83000485901E+03  0.11398840016E+04  0.50400001928E-02 0. -1.
       -1    1    3    3    0  502 -0.71183348494E+03  0.32205676640E+03  0.22153915525E+04  0.23491247736E+04  0.50400001928E-02 0.  1.
</event>
<event>
 5   0  0.3942564E-07  0.3206561E+04  0.7818609E-02  0.8187087E-01
        2   -1    0    0  501    0  0.00000000000E+00  0.00000000000E+00  0.10013035427E+04  0.10013035427E+04  0.25500000920E-02 0. -1.
       -2   -1    0    0    0  501  0.00000000000E+00  0.00000000000E+00 -0.25671622973E+04  0.25671622973E+04  0.25500000920E-02 0.  1.
    10030    2    1    2    0    0  0.00000000000E+00  0.00000000000E+00 -0.15658587546E+04  0.35684658401E+04  0.32065612129E+04 0.  0.
        3    1    3    3  502    0  0.26789236015E+03 -0.26355565098E+03  0.95159683442E+03  0.10231150684E+04  0.10100000352E+00 0. -1.
       -3    1    3    3    0  502 -0.26789236015E+03  0.26355565098E+03 -0.25174555890E+04  0.25453507716E+04  0.10100000352E+00 0.  1.
</event>
<event>
 5   0  0.1317293E-07  0.3192318E+04  0.7818609E-02  0.8190849E-01
       -1   -1    0    0    0  501  0.00000000000E+00  0.00000000000E+00  0.21631674288E+04  0.21631674288E+04  0.50400001928E-02 0.  1.
        1   -1    0    0  501    0  0.00000000000E+00  0.00000000000E+00 -0.11777743036E+04  0.11777743036E+04  0.50400001928E-02 0. -1.
    10030    2    1    2    0    0  0.00000000000E+00  0.00000000000E+00  0.98539312526E+03  0.33409417324E+04  0.31923176609E+04 0.  0.
        1    1    3    3  502    0 -0.70231566938E+02 -0.22121291971E+03 -0.11600202062E+04  0.11830107809E+04  0.50400001928E-02 0. -1.
       -1    1    3    3    0  502  0.70231566938E+02  0.22121291971E+03  0.21454133315E+04  0.21579309516E+04  0.50400001928E-02 0.  1.
</event>
<event>
 5   0  0.1288096E-07  0.3206092E+04  0.7818609E-02  0.8187210E-01
       -1   -1    0    0    0  501  0.00000000000E+00  0.00000000000E+00  0.11888976217E+04  0.11888976217E+04  0.50400001928E-02 0.  1.
        1   -1    0    0  501    0  0.00000000000E+00  0.00000000000E+00 -0.21614614435E+04  0.21614614435E+04  0.50400001928E-02 0. -1.
    10030    2    1    2    0    0  0.00000000000E+00  0.00000000000E+00 -0.97256382179E+03  0.33503590652E+04  0.32060919323E+04 0.  0.
        2    1    3    3  502    0  0.72911715914E+03 -0.15240928556E+03  0.99706881900E+03  0.12445829229E+04  0.25500000920E-02 0.  1.
       -2    1    3    3    0  502 -0.72911715914E+03  0.15240928556E+03 -0.19696326408E+04  0.21057761424E+04  0.25500000920E-02 0. -1.
</event>
<event>
 5   0  0.1270948E-07  0.3203061E+04  0.7818609E-02  0.8188009E-01
        1   -1    0    0  501    0  0.00000000000E+00  0.00000000000E+00  0.80423359372E+03  0.80423359374E+03  0.50400001928E-02 0.  1.
       -1   -1    0    0    0  501  0.00000000000E+00  0.00000000000E+00 -0.31892473573E+04  0.31892473573E+04  0.50400001928E-02 0. -1.
    10030    2    1    2    0    0  0.00000000000E+00  0.00000000000E+00 -0.23850137636E+04  0.39934809510E+04  0.32030609507E+04 0.  0.
        4    1    3    3  502    0  0.14798268799E+03 -0.42459061080E+03  0.72392216245E+03  0.85219773111E+03  0.12699999809E+01 0.  1.
       -4    1    3    3    0  502 -0.14798268799E+03  0.42459061080E+03 -0.31089359260E+04  0.31412832199E+04  0.12699999809E+01 0. -1.
</event>
<event>
 5   0  0.1365455E-07  0.3188629E+04  0.7818609E-02  0.8191827E-01
        1   -1    0    0  501    0  0.00000000000E+00  0.00000000000E+00  0.95571325996E+03  0.95571325997E+03  0.50400001928E-02 0.  1.
       -1   -1    0    0    0  501  0.00000000000E+00  0.00000000000E+00 -0.26596256398E+04  0.26596256398E+04  0.50400001928E-02 0. -1.
    10030    2    1    2    0    0  0.00000000000E+00  0.00000000000E+00 -0.17039123799E+04  0.36153388998E+04  0.31886294802E+04 0.  0.
        3    1    3    3  502    0 -0.40317646455E+03  0.56822724684E+03  0.77396462074E+03  0.10413715523E+04  0.10100000352E+00 0.  1.
       -3    1    3    3    0  502  0.40317646455E+03 -0.56822724684E+03 -0.24778770006E+04  0.25739673475E+04  0.10100000352E+00 0. -1.
</event>
<event>
 5   0  0.1317293E-07  0.3180200E+04  0.7818609E-02  0.8194066E-01
       -1   -1    0    0    0  501  0.00000000000E+00  0.00000000000E+00  0.13147361054E+04  0.13147361054E+04  0.50400001928E-02 0. -1.
        1   -1    0    0  501    0  0.00000000000E+00  0.00000000000E+00 -0.19231375038E+04  0.19231375038E+04  0.50400001928E-02 0.  1.
    10030    2    1    2    0    0  0.00000000000E+00  0.00000000000E+00 -0.60840139844E+03  0.32378736092E+04  0.31802001898E+04 0.  0.
        1    1    3    3  502    0 -0.57408281125E+03 -0.14823246460E+04 -0.26397622186E+03  0.16113785638E+04  0.50400001928E-02 0. -1.
       -1    1    3    3    0  502  0.57408281125E+03  0.14823246460E+04 -0.34442517658E+03  0.16264950454E+04  0.50400001928E-02 0.  1.
</event>
<event>
 5   0  0.3830207E-07  0.3201590E+04  0.7818609E-02  0.8188397E-01
        2   -1    0    0  501    0  0.00000000000E+00  0.00000000000E+00  0.23077837696E+04  0.23077837696E+04  0.25500000920E-02 0.  1.
       -2   -1    0    0    0  501  0.00000000000E+00  0.00000000000E+00 -0.11103918767E+04  0.11103918767E+04  0.25500000920E-02 0. -1.
    10030    2    1    2    0    0  0.00000000000E+00  0.00000000000E+00  0.11973918929E+04  0.34181756463E+04  0.32015898244E+04 0.  0.
        4    1    3    3  502    0 -0.49540368828E+03  0.46759344855E+01 -0.10264811901E+04  0.11397859121E+04  0.12699999809E+01 0. -1.
       -4    1    3    3    0  502  0.49540368828E+03 -0.46759344855E+01  0.22238730830E+04  0.22783897342E+04  0.12699999809E+01 0.  1.
</event>
<event>
 5   0  0.3830207E-07  0.3192526E+04  0.7818609E-02  0.8190794E-01
       -2   -1    0    0    0  501  0.00000000000E+00  0.00000000000E+00  0.18372137522E+04  0.18372137522E+04  0.25500000920E-02 0. -1.
        2   -1    0    0  501    0  0.00000000000E+00  0.00000000000E+00 -0.13869127564E+04  0.13869127564E+04  0.25500000920E-02 0.  1.
    10030    2    1    2    0    0  0.00000000000E+00  0.00000000000E+00  0.45030099583E+03  0.32241265086E+04  0.31925257645E+04 0.  0.
        4    1    3    3  502    0  0.17267504408E+03 -0.70572324725E+03 -0.12102528156E+04  0.14115861515E+04  0.12699999809E+01 0.  1.
       -4    1    3    3    0  502 -0.17267504408E+03  0.70572324725E+03  0.16605538115E+04  0.18125403571E+04  0.12699999809E+01 0. -1.
</event>
<event>
 5   0  0.1317293E-07  0.3198357E+04  0.7818609E-02  0.8189251E-01
        1   -1    0    0  501    0  0.00000000000E+00  0.00000000000E+00  0.22396400678E+04  0.22396400678E+04  0.50400001928E-02 0. -1.
       -1   -1    0    0    0  501  0.00000000000E+00  0.00000000000E+00 -0.11418677065E+04  0.11418677065E+04  0.50400001928E-02 0.  1.
    10030    2    1    2    0    0  0.00000000000E+00  0.00000000000E+00  0.10977723612E+04  0.33815077743E+04  0.31983574958E+04 0.  0.
        1    1    3    3  502    0 -0.71707332699E+03 -0.13476573668E+04  0.10526123661E+04  0.18542835080E+04  0.50400001928E-02 0. -1.
       -1    1    3    3    0  502  0.71707332699E+03  0.13476573668E+04  0.45159995115E+02  0.15272242664E+04  0.50400001928E-02 0.  1.
</event>
<event>
 5   0  0.1270948E-07  0.3200306E+04  0.7818609E-02  0.8188736E-01
       -1   -1    0    0    0  501  0.00000000000E+00  0.00000000000E+00  0.17556461577E+04  0.17556461577E+04  0.50400001928E-02 0.  1.
        1   -1    0    0  501    0  0.00000000000E+00  0.00000000000E+00 -0.14584314215E+04  0.14584314215E+04  0.50400001928E-02 0. -1.
    10030    2    1    2    0    0  0.00000000000E+00  0.00000000000E+00  0.29721473620E+03  0.32140775793E+04  0.32003059363E+04 0.  0.
        4    1    3    3  502    0  0.82414140294E+03 -0.62192798900E+03 -0.10791443654E+04  0.14935051556E+04  0.12699999809E+01 0. -1.
       -4    1    3    3    0  502 -0.82414140294E+03  0.62192798900E+03  0.13763591016E+04  0.17205724237E+04  0.12699999809E+01 0.  1.
</event>
<event>
 5   0  0.3830207E-07  0.3196831E+04  0.7818609E-02  0.8189655E-01
       -2   -1    0    0    0  501  0.00000000000E+00  0.00000000000E+00  0.16151700590E+04  0.16151700590E+04  0.25500000920E-02 0. -1.
        2   -1    0    0  501    0  0.00000000000E+00  0.00000000000E+00 -0.15818344042E+04  0.15818344042E+04  0.25500000920E-02 0.  1.
    10030    2    1    2    0    0  0.00000000000E+00  0.00000000000E+00  0.33335654840E+02  0.31970044632E+04  0.31968306605E+04 0.  0.
        4    1    3    3  502    0 -0.70977893907E+03 -0.12312998198E+04 -0.71483934672E+03  0.15908746944E+04  0.12699999809E+01 0.  1.
       -4    1    3    3    0  502  0.70977893907E+03  0.12312998198E+04  0.74817500156E+03  0.16061297689E+04  0.12699999809E+01 0. -1.
</event>
<event>
 5   0  0.3830207E-07  0.3211840E+04  0.7818609E-02  0.8185697E-01
       -2   -1    0    0    0  501  0.00000000000E+00  0.00000000000E+00  0.29771933869E+04  0.29771933869E+04  0.25500000920E-02 0. -1.
        2   -1    0    0  501    0  0.00000000000E+00  0.00000000000E+00 -0.86624513204E+03  0.86624513204E+03  0.25500000920E-02 0.  1.
    10030    2    1    2    0    0  0.00000000000E+00  0.00000000000E+00  0.21109482549E+04  0.38434385190E+04  0.32118401446E+04 0.  0.
        4    1    3    3  502    0 -0.92864152181E+00  0.20213307274E+03 -0.85096089847E+03  0.87463975733E+03  0.12699999809E+01 0.  1.
       -4    1    3    3    0  502  0.92864152181E+00 -0.20213307274E+03  0.29619091533E+04  0.29687987616E+04  0.12699999809E+01 0. -1.
</event>
<event>
 5   0  0.3764056E-07  0.3202553E+04  0.7818609E-02  0.8188143E-01
       -2   -1    0    0    0  501  0.00000000000E+00  0.00000000000E+00  0.81744039247E+03  0.81744039248E+03  0.25500000920E-02 0.  1.
        2   -1    0    0  501    0  0.00000000000E+00  0.00000000000E+00 -0.31367254771E+04  0.31367254771E+04  0.25500000920E-02 0. -1.
    10030    2    1    2    0    0  0.00000000000E+00  0.00000000000E+00 -0.23192850846E+04  0.39541658695E+04  0.32025527974E+04 0.  0.
        5    1    3    3  502    0 -0.64296112906E+03 -0.61197027277E+03  0.48586284341E+03  0.10119246122E+04  0.46999998093E+01 0.  1.
       -5    1    3    3    0  502  0.64296112906E+03  0.61197027277E+03 -0.28051479280E+04  0.29422412573E+04  0.46999998093E+01 0. -1.
</event>
<event>
 5   0  0.3750285E-07  0.3205347E+04  0.7818609E-02  0.8187407E-01
        2   -1    0    0  501    0  0.00000000000E+00  0.00000000000E+00  0.22253269118E+04  0.22253269118E+04  0.25500000920E-02 0.  1.
       -2   -1    0    0    0  501  0.00000000000E+00  0.00000000000E+00 -0.11542403731E+04  0.11542403731E+04  0.25500000920E-02 0. -1.
    10030    2    1    2    0    0  0.00000000000E+00  0.00000000000E+00  0.10710865387E+04  0.33795672849E+04  0.32053468861E+04 0.  0.
        1    1    3    3  502    0  0.52274858498E+03 -0.96736926895E+03 -0.69380381007E+03  0.13001665711E+04  0.50400001928E-02 0. -1.
       -1    1    3    3    0  502 -0.52274858498E+03  0.96736926895E+03  0.17648903488E+04  0.20794007139E+04  0.50400001928E-02 0.  1.
</event>
<event>
 5   0  0.1277374E-07  0.3195575E+04  0.7818609E-02  0.8189987E-01
        1   -1    0    0  501    0  0.00000000000E+00  0.00000000000E+00  0.24088309727E+04  0.24088309727E+04  0.50400001928E-02 0. -1.
       -1   -1    0    0    0  501  0.00000000000E+00  0.00000000000E+00 -0.10598189505E+04  0.10598189505E+04  0.50400001928E-02 0.  1.
    10030    2    1    2    0    0  0.00000000000E+00  0.00000000000E+00  0.13490120222E+04  0.34686499232E+04  0.31955748862E+04 0.  0.
        5    1    3    3  502    0 -0.71593086324E+03  0.66935773802E+03 -0.69519165317E+03  0.12016281900E+04  0.46999998093E+01 0.  1.
       -5    1    3    3    0  502  0.71593086324E+03 -0.66935773802E+03  0.20442036753E+04  0.22670217332E+04  0.46999998093E+01 0. -1.
</event>
<event>
 5   0  0.3764056E-07  0.3202519E+04  0.7818609E-02  0.8188152E-01
       -2   -1    0    0    0  501  0.00000000000E+00  0.00000000000E+00  0.13527550567E+04  0.13527550567E+04  0.25500000920E-02 0. -1.
        2   -1    0    0  501    0  0.00000000000E+00  0.00000000000E+00 -0.18954150648E+04  0.18954150648E+04  0.25500000920E-02 0.  1.
    10030    2    1    2    0    0  0.00000000000E+00  0.00000000000E+00 -0.54266000818E+03  0.32481701215E+04  0.32025192043E+04 0.  0.
        5    1    3    3  502    0 -0.28088857756E+03  0.73695092170E+03 -0.16847568421E+04  0.18602211592E+04  0.46999998093E+01 0.  1.
       -5    1    3    3    0  502  0.28088857756E+03 -0.73695092170E+03  0.11420968339E+04  0.13879489623E+04  0.46999998093E+01 0. -1.
</event>
<event>
 5   0  0.1288096E-07  0.3196330E+04  0.7818609E-02  0.8189787E-01
        1   -1    0    0  501    0  0.00000000000E+00  0.00000000000E+00  0.17317257921E+04  0.17317257921E+04  0.50400001928E-02 0.  1.
       -1   -1    0    0    0  501  0.00000000000E+00  0.00000000000E+00 -0.14749049094E+04  0.14749049094E+04  0.50400001928E-02 0. -1.
    10030    2    1    2    0    0  0.00000000000E+00  0.00000000000E+00  0.25682088263E+03  0.32066307015E+04  0.31963296905E+04 0.  0.
        2    1    3    3  502    0  0.11865750470E+04 -0.10577114275E+04  0.29452506617E+03  0.16166195658E+04  0.25500000920E-02 0.  1.
       -2    1    3    3    0  502 -0.11865750470E+04  0.10577114275E+04 -0.37704183538E+02  0.15900111357E+04  0.25500000920E-02 0. -1.
</event>
<event>
 5   0  0.3764056E-07  0.3185604E+04  0.7818609E-02  0.8192629E-01
       -2   -1    0    0    0  501  0.00000000000E+00  0.00000000000E+00  0.21561502507E+04  0.21561502507E+04  0.25500000920E-02 0.  1.
        2   -1    0    0  501    0  0.00000000000E+00  0.00000000000E+00 -0.11766429222E+04  0.11766429222E+04  0.25500000920E-02 0. -1.
    10030    2    1    2    0    0  0.00000000000E+00  0.00000000000E+00  0.97950732848E+03  0.33327931729E+04  0.31856044524E+04 0.  0.
        5    1    3    3  502    0  0.38020157019E+03  0.15427799770E+04  0.60565851694E+03  0.17004610023E+04  0.46999998093E+01 0. -1.
       -5    1    3    3    0  502 -0.38020157019E+03 -0.15427799770E+04  0.37384881154E+03  0.16323321706E+04  0.46999998093E+01 0.  1.
</event>
<event>
 5   0  0.1365455E-07  0.3179328E+04  0.7818609E-02  0.8194298E-01
       -1   -1    0    0    0  501  0.00000000000E+00  0.00000000000E+00  0.15298577836E+04  0.15298577836E+04  0.50400001928E-02 0. -1.
        1   -1    0    0  501    0  0.00000000000E+00  0.00000000000E+00 -0.16518077956E+04  0.16518077956E+04  0.50400001928E-02 0.  1.
    10030    2    1    2    0    0  0.00000000000E+00  0.00000000000E+00 -0.12195001196E+03  0.31816655792E+04  0.31793276101E+04 0.  0.
        3    1    3    3  502    0  0.96834752170E+03  0.56750382384E+03 -0.11875352550E+04  0.16340127004E+04  0.10100000352E+00 0.  1.
       -3    1    3    3    0  502 -0.96834752170E+03 -0.56750382384E+03  0.10655852431E+04  0.15476528788E+04  0.10100000352E+00 0. -1.
</event>
<event>
 5   0  0.1270948E-07  0.3213842E+04  0.7818609E-02  0.8185171E-01
       -1   -1    0    0    0  501  0.00000000000E+00  0.00000000000E+00  0.13842525536E+04  0.13842525536E+04  0.50400001928E-02 0.  1.
        1   -1    0    0  501    0  0.00000000000E+00  0.00000000000E+00 -0.18654071406E+04  0.18654071406E+04  0.50400001928E-02 0. -1.
    10030    2    1    2    0    0  0.00000000000E+00  0.00000000000E+00 -0.48115458698E+03  0.32496596943E+04  0.32138416875E+04 0.  0.
        4    1    3    3  502    0 -0.12166713865E+04  0.46631560446E+01  0.82082725379E+03  0.14676750326E+04  0.12699999809E+01 0.  1.
       -4    1    3    3    0  502  0.12166713865E+04 -0.46631560446E+01 -0.13019818408E+04  0.17819846617E+04  0.12699999809E+01 0. -1.
</event>
<event>
 5   0  0.1365455E-07  0.3196676E+04  0.7818609E-02  0.8189696E-01
        1   -1    0    0  501    0  0.00000000000E+00  0.00000000000E+00  0.29154307605E+04  0.29154307605E+04  0.50400001928E-02 0.  1.
       -1   -1    0    0    0  501  0.00000000000E+00  0.00000000000E+00 -0.87626291039E+03  0.87626291040E+03  0.50400001928E-02 0. -1.
    10030    2    1    2    0    0  0.00000000000E+00  0.00000000000E+00  0.20391678501E+04  0.37916936709E+04  0.31966756753E+04 0.  0.
        3    1    3    3  502    0 -0.11446266288E+04  0.10208169992E+04  0.15532746584E+04  0.21828650072E+04  0.10100000352E+00 0.  1.
       -3    1    3    3    0  502  0.11446266288E+04 -0.10208169992E+04  0.48589319170E+03  0.16088286637E+04  0.10100000352E+00 0. -1.
</event>
<event>
 5   0  0.1365455E-07  0.3199929E+04  0.7818609E-02  0.8188836E-01
       -1   -1    0    0    0  501  0.00000000000E+00  0.00000000000E+00  0.17993814288E+04  0.17993814288E+04  0.50400001928E-02 0.  1.
        1   -1    0    0  501    0  0.00000000000E+00  0.00000000000E+00 -0.14226477926E+04  0.14226477926E+04  0.50400001928E-02 0. -1.
    10030    2    1    2    0    0  0.00000000000E+00  0.00000000000E+00  0.37673363628E+03  0.32220292214E+04  0.31999287603E+04 0.  0.
        3    1    3    3  502    0  0.13030081243E+04  0.91888563709E+03  0.32234602282E+03  0.16266800406E+04  0.10100000352E+00 0. -1.
       -3    1    3    3    0  502 -0.13030081243E+04 -0.91888563709E+03  0.54387613461E+02  0.15953491808E+04  0.10100000352E+00 0.  1.
</event>
<event>
 5   0  0.3858721E-07  0.3195098E+04  0.7818609E-02  0.8190113E-01
       -2   -1    0    0    0  501  0.00000000000E+00  0.00000000000E+00  0.12586850689E+04  0.12586850689E+04  0.25500000920E-02 0.  1.
        2   -1    0    0  501    0  0.00000000000E+00  0.00000000000E+00 -0.20276416876E+04  0.20276416876E+04  0.25500000920E-02 0. -1.
    10030    2    1    2    0    0  0.00000000000E+00  0.00000000000E+00 -0.76895661873E+03  0.32863267565E+04  0.31950976931E+04 0.  0.
        2    1    3    3  502    0  0.13363178738E+04  0.45600101510E+02  0.51474836550E+03  0.14327563327E+04  0.25500000920E-02 0.  1.
       -2    1    3    3    0  502 -0.13363178738E+04 -0.45600101510E+02 -0.12837049842E+04  0.18535704237E+04  0.25500000920E-02 0. -1.
</event>
<event>
 5   0  0.1277374E-07  0.3201374E+04  0.7818609E-02  0.8188454E-01
       -1   -1    0    0    0  501  0.00000000000E+00  0.00000000000E+00  0.10368975468E+04  0.10368975468E+04  0.50400001928E-02 0.  1.
        1   -1    0    0  501    0  0.00000000000E+00  0.00000000000E+00 -0.24710237279E+04  0.24710237279E+04  0.50400001928E-02 0. -1.
    10030    2    1    2    0    0  0.00000000000E+00  0.00000000000E+00 -0.14341261811E+04  0.35079212748E+04  0.32013737312E+04 0.  0.
        5    1    3    3  502    0 -0.11186306336E+04  0.27270809284E+03  0.50138107110E+03  0.12558301106E+04  0.46999998093E+01 0.  1.
       -5    1    3    3    0  502  0.11186306336E+04 -0.27270809284E+03 -0.19355072522E+04  0.22520911642E+04  0.46999998093E+01 0. -1.
</event>
<event>
 5   0  0.1288096E-07  0.3202334E+04  0.7818609E-02  0.8188201E-01
       -1   -1    0    0    0  501  0.00000000000E+00  0.00000000000E+00  0.10980996786E+04  0.10980996786E+04  0.50400001928E-02 0.  1.
        1   -1    0    0  501    0  0.00000000000E+00  0.00000000000E+00 -0.23347018186E+04  0.23347018187E+04  0.50400001928E-02 0. -1.
    10030    2    1    2    0    0  0.00000000000E+00  0.00000000000E+00 -0.12366021400E+04  0.34328014973E+04  0.32023337220E+04 0.  0.
        2    1    3    3  502    0 -0.12953257201E+04 -0.23694399813E+03 -0.15947487196E+04  0.20681476394E+04  0.25500000920E-02 0. -1.
       -2    1    3    3    0  502  0.12953257201E+04  0.23694399813E+03  0.35814657957E+03  0.13646538579E+04  0.25500000920E-02 0.  1.
</event>
<event>
 5   0  0.1365455E-07  0.3198302E+04  0.7818609E-02  0.8189266E-01
        1   -1    0    0  501    0  0.00000000000E+00  0.00000000000E+00  0.28326144136E+04  0.28326144137E+04  0.50400001928E-02 0.  1.
       -1   -1    0    0    0  501  0.00000000000E+00  0.00000000000E+00 -0.90279963277E+03  0.90279963278E+03  0.50400001928E-02 0. -1.
    10030    2    1    2    0    0  0.00000000000E+00  0.00000000000E+00  0.19298147809E+04  0.37354140464E+04  0.31983015821E+04 0.  0.
        3    1    3    3  502    0 -0.14685752406E+04 -0.10412249909E+03  0.16940297611E+04  0.22443911365E+04  0.10100000352E+00 0.  1.
       -3    1    3    3    0  502  0.14685752406E+04  0.10412249909E+03  0.23578501978E+03  0.14910229099E+04  0.10100000352E+00 0. -1.
</event>
<event>
 5   0  0.3750285E-07  0.3196625E+04  0.7818609E-02  0.8189709E-01
       -2   -1    0    0    0  501  0.00000000000E+00  0.00000000000E+00  0.16837140848E+04  0.16837140848E+04  0.25500000920E-02 0.  1.
        2   -1    0    0  501    0  0.00000000000E+00  0.00000000000E+00 -0.15172430089E+04  0.15172430089E+04  0.25500000920E-02 0. -1.
    10030    2    1    2    0    0  0.00000000000E+00  0.00000000000E+00  0.16647107585E+03  0.32009570937E+04  0.31966253607E+04 0.  0.
        1    1    3    3  502    0 -0.99654487702E+03  0.86539953420E+03 -0.81942116999E+03  0.15535343896E+04  0.50400001928E-02 0. -1.
       -1    1    3    3    0  502  0.99654487702E+03 -0.86539953420E+03  0.98589224584E+03  0.16474227041E+04  0.50400001928E-02 0.  1.
</event>
<event>
 5   0  0.3858721E-07  0.3200103E+04  0.7818609E-02  0.8188790E-01
       -2   -1    0    0    0  501  0.00000000000E+00  0.00000000000E+00  0.22099176661E+04  0.22099176661E+04  0.25500000920E-02 0. -1.
        2   -1    0    0  501    0  0.00000000000E+00  0.00000000000E+00 -0.11584888464E+04  0.11584888464E+04  0.25500000920E-02 0.  1.
    10030    2    1    2    0    0  0.00000000000E+00  0.00000000000E+00  0.10514288197E+04  0.33684065126E+04  0.32001031032E+04 0.  0.
        2    1    3    3  502    0 -0.59249749813E+03  0.12920655317E+04  0.12989788218E+04  0.19255733180E+04  0.25500000920E-02 0. -1.
       -2    1    3    3    0  502  0.59249749813E+03 -0.12920655317E+04 -0.24755000210E+03  0.14428331945E+04  0.25500000920E-02 0.  1.
</event>
<event>
 5   0  0.1365455E-07  0.3199657E+04  0.7818609E-02  0.8188908E-01
       -1   -1    0    0    0  501  0.00000000000E+00  0.00000000000E+00  0.17582076314E+04  0.17582076314E+04  0.50400001928E-02 0.  1.
        1   -1    0    0  501    0  0.00000000000E+00  0.00000000000E+00 -0.14557165915E+04  0.14557165915E+04  0.50400001928E-02 0. -1.
    10030    2    1    2    0    0  0.00000000000E+00  0.00000000000E+00  0.30249103990E+03  0.32139242230E+04  0.31996574944E+04 0.  0.
        3    1    3    3  502    0 -0.12520685403E+04  0.90397609250E+03  0.57096463045E+03  0.16464656160E+04  0.10100000352E+00 0. -1.
       -3    1    3    3    0  502  0.12520685403E+04 -0.90397609250E+03 -0.26847359055E+03  0.15674586069E+04  0.10100000352E+00 0.  1.
</event>
<event>
 5   0  0.3750285E-07  0.3200997E+04  0.7818609E-02  0.8188554E-01
        2   -1    0    0  501    0  0.00000000000E+00  0.00000000000E+00  0.12613368936E+04  0.12613368936E+04  0.25500000920E-02 0.  1.
       -2   -1    0    0    0  501  0.00000000000E+00  0.00000000000E+00 -0.20308571696E+04  0.20308571696E+04  0.25500000920E-02 0. -1.
    10030    2    1    2    0    0  0.00000000000E+00  0.00000000000E+00 -0.76952027595E+03  0.32921940632E+04  0.32009967658E+04 0.  0.
        1    1    3    3  502    0 -0.81960047822E+03 -0.12505065754E+04 -0.97206630393E+03  0.17833744807E+04  0.50400001928E-02 0. -1.
       -1    1    3    3    0  502  0.81960047822E+03  0.12505065754E+04  0.20254602798E+03  0.15088195825E+04  0.50400001928E-02 0.  1.
</event>
<event>
 5   0  0.1317293E-07  0.3184252E+04  0.7818609E-02  0.8192988E-01
       -1   -1    0    0    0  501  0.00000000000E+00  0.00000000000E+00  0.92669683889E+03  0.92669683891E+03  0.50400001928E-02 0. -1.
        1   -1    0    0  501    0  0.00000000000E+00  0.00000000000E+00 -0.27353777614E+04  0.27353777614E+04  0.50400001928E-02 0.  1.
    10030    2    1    2    0    0  0.00000000000E+00  0.00000000000E+00 -0.18086809225E+04  0.36620746004E+04  0.31842524553E+04 0.  0.
        1    1    3    3  502    0 -0.14163886514E+04 -0.37253639175E+01 -0.17405640086E+04  0.22440440633E+04  0.50400001928E-02 0.  1.
       -1    1    3    3    0  502  0.14163886514E+04  0.37253639175E+01 -0.68116913965E+02  0.14180305371E+04  0.50400001928E-02 0. -1.
</event>
<event>
 5   0  0.1365455E-07  0.3198795E+04  0.7818609E-02  0.8189135E-01
        1   -1    0    0  501    0  0.00000000000E+00  0.00000000000E+00  0.11039330870E+04  0.11039330870E+04  0.50400001928E-02 0.  1.
       -1   -1    0    0    0  501  0.00000000000E+00  0.00000000000E+00 -0.23172354566E+04  0.23172354566E+04  0.50400001928E-02 0. -1.
    10030    2    1    2    0    0  0.00000000000E+00  0.00000000000E+00 -0.12133023696E+04  0.34211685436E+04  0.31987953301E+04 0.  0.
        3    1    3    3  502    0 -0.11044725676E+03 -0.15916375234E+04 -0.72653396035E+03  0.17531001706E+04  0.10100000352E+00 0. -1.
       -3    1    3    3    0  502  0.11044725676E+03  0.15916375234E+04 -0.48676840928E+03  0.16680683730E+04  0.10100000352E+00 0.  1.
</event>
<event>
 5   0  0.3830207E-07  0.3145418E+04  0.7818609E-02  0.8203383E-01
       -2   -1    0    0    0  501  0.00000000000E+00  0.00000000000E+00  0.96656960857E+03  0.96656960858E+03  0.25500000920E-02 0.  1.
        2   -1    0    0  501    0  0.00000000000E+00  0.00000000000E+00 -0.25589598746E+04  0.25589598746E+04  0.25500000920E-02 0. -1.
    10030    2    1    2    0    0  0.00000000000E+00  0.00000000000E+00 -0.15923902660E+04  0.35255294832E+04  0.31454175204E+04 0.  0.
        4    1    3    3  502    0  0.10112551183E+04  0.85865429695E+03  0.15056315752E+03  0.13351385670E+04  0.12699999809E+01 0.  1.
       -4    1    3    3    0  502 -0.10112551183E+04 -0.85865429695E+03 -0.17429534235E+04  0.21903909161E+04  0.12699999809E+01 0. -1.
</event>
<event>
 5   0  0.1230450E-07  0.3203094E+04  0.7818609E-02  0.8188001E-01
        4   -1    0    0  501    0  0.00000000000E+00  0.00000000000E+00  0.22357813250E+04  0.22357816857E+04  0.12699999809E+01 0. -1.
       -4   -1    0    0    0  501  0.00000000000E+00  0.00000000000E+00 -0.11472277977E+04  0.11472285006E+04  0.12699999809E+01 0.  1.
    10030    2    1    2    0    0  0.00000000000E+00  0.00000000000E+00  0.10885535273E+04  0.33830101863E+04  0.32030936825E+04 0.  0.
        5    1    3    3  502    0  0.65854801258E+03  0.12116756028E+04  0.14043172633E+04  0.19682409195E+04  0.46999998093E+01 0. -1.
       -5    1    3    3    0  502 -0.65854801258E+03 -0.12116756028E+04 -0.31576373603E+03  0.14147692668E+04  0.46999998093E+01 0.  1.
</event>
<event>
 5   0  0.3750285E-07  0.3195353E+04  0.7818609E-02  0.8190046E-01
        2   -1    0    0  501    0  0.00000000000E+00  0.00000000000E+00  0.17633806025E+04  0.17633806025E+04  0.25500000920E-02 0. -1.
       -2   -1    0    0    0  501  0.00000000000E+00  0.00000000000E+00 -0.14475433241E+04  0.14475433241E+04  0.25500000920E-02 0.  1.
    10030    2    1    2    0    0  0.00000000000E+00  0.00000000000E+00  0.31583727835E+03  0.32109239266E+04  0.31953527624E+04 0.  0.
        1    1    3    3  502    0 -0.10875475354E+04  0.67487415377E+03  0.11187975033E+04  0.16999772406E+04  0.50400001928E-02 0. -1.
       -1    1    3    3    0  502  0.10875475354E+04 -0.67487415377E+03 -0.80296022491E+03  0.15109466860E+04  0.50400001928E-02 0.  1.
</event>
<event>
 5   0  0.3764056E-07  0.3214250E+04  0.7818609E-02  0.8185064E-01
       -2   -1    0    0    0  501  0.00000000000E+00  0.00000000000E+00  0.11626932592E+04  0.11626932592E+04  0.25500000920E-02 0.  1.
        2   -1    0    0  501    0  0.00000000000E+00  0.00000000000E+00 -0.22214377022E+04  0.22214377022E+04  0.25500000920E-02 0. -1.
    10030    2    1    2    0    0  0.00000000000E+00  0.00000000000E+00 -0.10587444429E+04  0.33841309614E+04  0.32142499232E+04 0.  0.
        5    1    3    3  502    0 -0.49369216018E+03  0.14753159614E+04 -0.95384209139E+03  0.18248632717E+04  0.46999998093E+01 0. -1.
       -5    1    3    3    0  502  0.49369216018E+03 -0.14753159614E+04 -0.10490235155E+03  0.15592676898E+04  0.46999998093E+01 0.  1.
</event>
<event>
 5   0  0.3830207E-07  0.3191331E+04  0.7818609E-02  0.8191110E-01
       -2   -1    0    0    0  501  0.00000000000E+00  0.00000000000E+00  0.11380414540E+04  0.11380414540E+04  0.25500000920E-02 0.  1.
        2   -1    0    0  501    0  0.00000000000E+00  0.00000000000E+00 -0.22373074753E+04  0.22373074753E+04  0.25500000920E-02 0. -1.
    10030    2    1    2    0    0  0.00000000000E+00  0.00000000000E+00 -0.10992660213E+04  0.33753489293E+04  0.31913311656E+04 0.  0.
        4    1    3    3  502    0  0.74292282013E+03 -0.11678764392E+04  0.29004474876E+03  0.14142125947E+04  0.12699999809E+01 0. -1.
       -4    1    3    3    0  502 -0.74292282013E+03  0.11678764392E+04 -0.13893107701E+04  0.19611363345E+04  0.12699999809E+01 0.  1.
</event>
<event>
 5   0  0.1365455E-07  0.3200685E+04  0.7818609E-02  0.8188636E-01
        1   -1    0    0  501    0  0.00000000000E+00  0.00000000000E+00  0.92114673453E+03  0.92114673454E+03  0.50400001928E-02 0.  1.
       -1   -1    0    0    0  501  0.00000000000E+00  0.00000000000E+00 -0.27803353195E+04  0.27803353195E+04  0.50400001928E-02 0. -1.
    10030    2    1    2    0    0  0.00000000000E+00  0.00000000000E+00 -0.18591885849E+04  0.37014820540E+04  0.32006854269E+04 0.  0.
        3    1    3    3  502    0  0.10822865474E+04  0.26461823143E+03  0.39894734232E+03  0.11834381991E+04  0.10100000352E+00 0.  1.
       -3    1    3    3    0  502 -0.10822865474E+04 -0.26461823143E+03 -0.22581359273E+04  0.25180438549E+04  0.10100000352E+00 0. -1.
</event>
<event>
 5   0  0.1365455E-07  0.3196338E+04  0.7818609E-02  0.8189785E-01
       -1   -1    0    0    0  501  0.00000000000E+00  0.00000000000E+00  0.19315505723E+04  0.19315505723E+04  0.50400001928E-02 0.  1.
        1   -1    0    0  501    0  0.00000000000E+00  0.00000000000E+00 -0.13223280446E+04  0.13223280446E+04  0.50400001928E-02 0. -1.
    10030    2    1    2    0    0  0.00000000000E+00  0.00000000000E+00  0.60922252773E+03  0.32538786169E+04  0.31963375862E+04 0.  0.
        3    1    3    3  502    0  0.14870991057E+04 -0.54889459372E+03  0.51173019432E+03  0.16657181116E+04  0.10100000352E+00 0.  1.
       -3    1    3    3    0  502 -0.14870991057E+04  0.54889459372E+03  0.97492333406E+02  0.15881605053E+04  0.10100000352E+00 0. -1.
</event>
<event>
 5   0  0.3942564E-07  0.3198515E+04  0.7818609E-02  0.8189210E-01
        2   -1    0    0  501    0  0.00000000000E+00  0.00000000000E+00  0.14226255342E+04  0.14226255342E+04  0.25500000920E-02 0.  1.
       -2   -1    0    0    0  501  0.00000000000E+00  0.00000000000E+00 -0.17978196084E+04  0.17978196084E+04  0.25500000920E-02 0. -1.
    10030    2    1    2    0    0  0.00000000000E+00  0.00000000000E+00 -0.37519407412E+03  0.32204451426E+04  0.31985147058E+04 0.  0.
        3    1    3    3  502    0 -0.10584738491E+04  0.11200350878E+04  0.24286039212E+03  0.15600726481E+04  0.10100000352E+00 0.  1.
       -3    1    3    3    0  502  0.10584738491E+04 -0.11200350878E+04 -0.61805446624E+03  0.16603724945E+04  0.10100000352E+00 0. -1.
</event>
<event>
 5   0  0.3830207E-07  0.3198387E+04  0.7818609E-02  0.8189243E-01
       -2   -1    0    0    0  501  0.00000000000E+00  0.00000000000E+00  0.91960102511E+03  0.91960102511E+03  0.25500000920E-02 0. -1.
        2   -1    0    0  501    0  0.00000000000E+00  0.00000000000E+00 -0.27810104044E+04  0.27810104044E+04  0.25500000920E-02 0.  1.
    10030    2    1    2    0    0  0.00000000000E+00  0.00000000000E+00 -0.18614093793E+04  0.37006114295E+04  0.31983871052E+04 0.  0.
        4    1    3    3  502    0 -0.63612111599E+03 -0.78421552755E+03 -0.23654960886E+04  0.25720064981E+04  0.12699999809E+01 0.  1.
       -4    1    3    3    0  502  0.63612111599E+03  0.78421552755E+03  0.50408670934E+03  0.11286049314E+04  0.12699999809E+01 0. -1.
</event>
<event>
 5   0  0.1288096E-07  0.3197393E+04  0.7818609E-02  0.8189506E-01
       -1   -1    0    0    0  501  0.00000000000E+00  0.00000000000E+00  0.22349760607E+04  0.22349760607E+04  0.50400001928E-02 0.  1.
        1   -1    0    0  501    0  0.00000000000E+00  0.00000000000E+00 -0.11435605486E+04  0.11435605486E+04  0.50400001928E-02 0. -1.
    10030    2    1    2    0    0  0.00000000000E+00  0.00000000000E+00  0.10914155121E+04  0.33785366092E+04  0.31973929693E+04 0.  0.
        2    1    3    3  502    0 -0.14635029400E+04  0.64143625533E+03  0.49235852238E+03  0.16720341622E+04  0.25500000920E-02 0.  1.
       -2    1    3    3    0  502  0.14635029400E+04 -0.64143625533E+03  0.59905698975E+03  0.17065024471E+04  0.25500000920E-02 0. -1.
</event>
<event>
 5   0  0.1317293E-07  0.3203904E+04  0.7818609E-02  0.8187787E-01
       -1   -1    0    0    0  501  0.00000000000E+00  0.00000000000E+00  0.10910231975E+04  0.10910231976E+04  0.50400001928E-02 0. -1.
        1   -1    0    0  501    0  0.00000000000E+00  0.00000000000E+00 -0.23521506021E+04  0.23521506021E+04  0.50400001928E-02 0.  1.
    10030    2    1    2    0    0  0.00000000000E+00  0.00000000000E+00 -0.12611274046E+04  0.34431737997E+04  0.32039044125E+04 0.  0.
        1    1    3    3  502    0  0.10988329418E+04  0.68693848001E+03 -0.16426666601E+04  0.20922887147E+04  0.50400001928E-02 0.  1.
       -1    1    3    3    0  502 -0.10988329418E+04 -0.68693848001E+03  0.38153925551E+03  0.13508850850E+04  0.50400001928E-02 0. -1.
</event>
<event>
 5   0  0.1288096E-07  0.3195546E+04  0.7818609E-02  0.8189995E-01
        1   -1    0    0  501    0  0.00000000000E+00  0.00000000000E+00  0.17093657924E+04  0.17093657924E+04  0.50400001928E-02 0. -1.
       -1   -1    0    0    0  501  0.00000000000E+00  0.00000000000E+00 -0.14934650528E+04  0.14934650528E+04  0.50400001928E-02 0.  1.
    10030    2    1    2    0    0  0.00000000000E+00  0.00000000000E+00  0.21590073959E+03  0.32028308452E+04  0.31955456958E+04 0.  0.
        2    1    3    3  502    0 -0.14057864301E+04 -0.32577235024E+03  0.79545509791E+03  0.16477596682E+04  0.25500000920E-02 0. -1.
       -2    1    3    3    0  502  0.14057864301E+04  0.32577235024E+03 -0.57955435833E+03  0.15550711770E+04  0.25500000920E-02 0.  1.
</event>
<event>
 5   0  0.3830207E-07  0.3190263E+04  0.7818609E-02  0.8191393E-01
        2   -1    0    0  501    0  0.00000000000E+00  0.00000000000E+00  0.32099186599E+04  0.32099186599E+04  0.25500000920E-02 0. -1.
       -2   -1    0    0    0  501  0.00000000000E+00  0.00000000000E+00 -0.79268200671E+03  0.79268200671E+03  0.25500000920E-02 0.  1.
    10030    2    1    2    0    0  0.00000000000E+00  0.00000000000E+00  0.24172366532E+04  0.40026006666E+04  0.31902631645E+04 0.  0.
        4    1    3    3  502    0 -0.13119340542E+04 -0.62178076486E+02  0.23443228195E+04  0.26871710349E+04  0.12699999809E+01 0. -1.
       -4    1    3    3    0  502  0.13119340542E+04  0.62178076486E+02  0.72913833610E+02  0.13154296317E+04  0.12699999809E+01 0.  1.
</event>
<event>
 5   0  0.3830207E-07  0.3197613E+04  0.7818609E-02  0.8189448E-01
        2   -1    0    0  501    0  0.00000000000E+00  0.00000000000E+00  0.13413480474E+04  0.13413480474E+04  0.25500000920E-02 0. -1.
       -2   -1    0    0    0  501  0.00000000000E+00  0.00000000000E+00 -0.19056820180E+04  0.19056820180E+04  0.25500000920E-02 0.  1.
    10030    2    1    2    0    0  0.00000000000E+00  0.00000000000E+00 -0.56433397066E+03  0.32470300654E+04  0.31976133937E+04 0.  0.
        4    1    3    3  502    0  0.24824321386E+03 -0.13946966569E+04 -0.10348219000E+04  0.17543264906E+04  0.12699999809E+01 0.  1.
       -4    1    3    3    0  502 -0.24824321386E+03  0.13946966569E+04  0.47048792931E+03  0.14927035749E+04  0.12699999809E+01 0. -1.
</event>
<event>
 5   0  0.3764056E-07  0.3201962E+04  0.7818609E-02  0.8188299E-01
       -2   -1    0    0    0  501  0.00000000000E+00  0.00000000000E+00  0.10329143198E+04  0.10329143198E+04  0.25500000920E-02 0.  1.
        2   -1    0    0  501    0  0.00000000000E+00  0.00000000000E+00 -0.24814644543E+04  0.24814644543E+04  0.25500000920E-02 0. -1.
    10030    2    1    2    0    0  0.00000000000E+00  0.00000000000E+00 -0.14485501345E+04  0.35143787741E+04  0.32019620041E+04 0.  0.
        5    1    3    3  502    0 -0.42552682766E+03  0.15323875246E+04 -0.52238931079E+03  0.16739764899E+04  0.46999998093E+01 0.  1.
       -5    1    3    3    0  502  0.42552682766E+03 -0.15323875246E+04 -0.92616082367E+03  0.18404022843E+04  0.46999998093E+01 0. -1.
</event>
<event>
 5   0  0.1365455E-07  0.3209267E+04  0.7818609E-02  0.8186374E-01
        1   -1    0    0  501    0  0.00000000000E+00  0.00000000000E+00  0.11329049167E+04  0.11329049167E+04  0.50400001928E-02 0.  1.
       -1   -1    0    0    0  501  0.00000000000E+00  0.00000000000E+00 -0.22727842843E+04  0.22727842843E+04  0.50400001928E-02 0. -1.
    10030    2    1    2    0    0  0.00000000000E+00  0.00000000000E+00 -0.11398793676E+04  0.34056892010E+04  0.32092668885E+04 0.  0.
        3    1    3    3  502    0  0.14008832412E+04 -0.35276165287E+03  0.17133581695E+03  0.14547407369E+04  0.10100000352E+00 0.  1.
       -3    1    3    3    0  502 -0.14008832412E+04  0.35276165287E+03 -0.13112151845E+04  0.19509484641E+04  0.10100000352E+00 0. -1.
</event>
<event>
 5   0  0.1288096E-07  0.3199483E+04  0.7818609E-02  0.8188954E-01
        1   -1    0    0  501    0  0.00000000000E+00  0.00000000000E+00  0.25344067815E+04  0.25344067815E+04  0.50400001928E-02 0.  1.
       -1   -1    0    0    0  501  0.00000000000E+00  0.00000000000E+00 -0.10097717227E+04  0.10097717227E+04  0.50400001928E-02 0. -1.
    10030    2    1    2    0    0  0.00000000000E+00  0.00000000000E+00  0.15246350589E+04  0.35441785042E+04  0.31994826468E+04 0.  0.
        2    1    3    3  502    0 -0.12787897709E+04  0.95017838013E+03  0.60167660990E+03  0.17029847255E+04  0.25500000920E-02 0. -1.
       -2    1    3    3    0  502  0.12787897709E+04 -0.95017838013E+03  0.92295844896E+03  0.18411937787E+04  0.25500000920E-02 0.  1.
</event>
<event>
 5   0  0.3750285E-07  0.3194687E+04  0.7818609E-02  0.8190222E-01
        2   -1    0    0  501    0  0.00000000000E+00  0.00000000000E+00  0.18366467621E+04  0.18366467621E+04  0.25500000920E-02 0.  1.
       -2   -1    0    0    0  501  0.00000000000E+00  0.00000000000E+00 -0.13892195472E+04  0.13892195472E+04  0.25500000920E-02 0. -1.
    10030    2    1    2    0    0  0.00000000000E+00  0.00000000000E+00  0.44742721497E+03  0.32258663093E+04  0.31946865782E+04 0.  0.
        1    1    3    3  502    0 -0.54562314983E+03 -0.66579083268E+03  0.15824030293E+04  0.18013831913E+04  0.50400001928E-02 0.  1.
       -1    1    3    3    0  502  0.54562314983E+03  0.66579083268E+03 -0.11349758143E+04  0.14244831181E+04  0.50400001928E-02 0. -1.
</event>
<event>
 5   0  0.1270948E-07  0.3198822E+04  0.7818609E-02  0.8189128E-01
       -1   -1    0    0    0  501  0.00000000000E+00  0.00000000000E+00  0.15954419201E+04  0.15954419201E+04  0.50400001928E-02 0.  1.
        1   -1    0    0  501    0  0.00000000000E+00  0.00000000000E+00 -0.16033896804E+04  0.16033896804E+04  0.50400001928E-02 0. -1.
    10030    2    1    2    0    0  0.00000000000E+00  0.00000000000E+00 -0.79477602840E+01  0.31988316005E+04  0.31988217271E+04 0.  0.
        4    1    3    3  502    0  0.31568487285E+02 -0.17622545079E+03  0.15853898644E+04  0.15954668953E+04  0.12699999809E+01 0.  1.
       -4    1    3    3    0  502 -0.31568487285E+02  0.17622545079E+03 -0.15933376247E+04  0.16033647052E+04  0.12699999809E+01 0. -1.
</event>
<event>
 5   0  0.3750285E-07  0.3216125E+04  0.7818609E-02  0.8184572E-01
        2   -1    0    0  501    0  0.00000000000E+00  0.00000000000E+00  0.18145865898E+04  0.18145865898E+04  0.25500000920E-02 0.  1.
       -2   -1    0    0    0  501  0.00000000000E+00  0.00000000000E+00 -0.14250435977E+04  0.14250435977E+04  0.25500000920E-02 0. -1.
    10030    2    1    2    0    0  0.00000000000E+00  0.00000000000E+00  0.38954299209E+03  0.32396301875E+04  0.32161249990E+04 0.  0.
        1    1    3    3  502    0 -0.59116113581E+03 -0.10767398987E+04  0.12401542952E+04  0.17455151027E+04  0.50400001928E-02 0.  1.
       -1    1    3    3    0  502  0.59116113581E+03  0.10767398987E+04 -0.85061130308E+03  0.14941150849E+04  0.50400001928E-02 0. -1.
</event>
<event>
 5   0  0.3858721E-07  0.3200652E+04  0.7818609E-02  0.8188645E-01
        2   -1    0    0  501    0  0.00000000000E+00  0.00000000000E+00  0.28267960721E+04  0.28267960721E+04  0.25500000920E-02 0. -1.
       -2   -1    0    0    0  501  0.00000000000E+00  0.00000000000E+00 -0.90598780739E+03  0.90598780740E+03  0.25500000920E-02 0.  1.
    10030    2    1    2    0    0  0.00000000000E+00  0.00000000000E+00  0.19208082647E+04  0.37327838795E+04  0.32006516682E+04 0.  0.
        2    1    3    3  502    0 -0.74064655542E+03  0.64382028617E+02 -0.69236844128E+03  0.10159116222E+04  0.25500000920E-02 0.  1.
       -2    1    3    3    0  502  0.74064655542E+03 -0.64382028617E+02  0.26131767060E+04  0.27168722573E+04  0.25500000920E-02 0. -1.
</event>
<event>
 5   0  0.1270948E-07  0.3202226E+04  0.7818609E-02  0.8188230E-01
       -1   -1    0    0    0  501  0.00000000000E+00  0.00000000000E+00  0.13233732617E+04  0.13233732617E+04  0.50400001928E-02 0.  1.
        1   -1    0    0  501    0  0.00000000000E+00  0.00000000000E+00 -0.19371425753E+04  0.19371425753E+04  0.50400001928E-02 0. -1.
    10030    2    1    2    0    0  0.00000000000E+00  0.00000000000E+00 -0.61376931355E+03  0.32605158370E+04  0.32022259060E+04 0.  0.
        4    1    3    3  502    0  0.73604154218E+03  0.13686331141E+04  0.85681533079E+02  0.15563600775E+04  0.12699999809E+01 0.  1.
       -4    1    3    3    0  502 -0.73604154218E+03 -0.13686331141E+04 -0.69945084663E+03  0.17041557595E+04  0.12699999809E+01 0. -1.
</event>
<event>
 5   0  0.3830207E-07  0.3204706E+04  0.7818609E-02  0.8187576E-01
       -2   -1    0    0    0  501  0.00000000000E+00  0.00000000000E+00  0.12048093047E+04  0.12048093047E+04  0.25500000920E-02 0.  1.
        2   -1    0    0  501    0  0.00000000000E+00  0.00000000000E+00 -0.21310713030E+04  0.21310713030E+04  0.25500000920E-02 0. -1.
    10030    2    1    2    0    0  0.00000000000E+00  0.00000000000E+00 -0.92626199833E+03  0.33358806077E+04  0.32047056244E+04 0.  0.
        4    1    3    3  502    0  0.50453289855E+03  0.35473798122E+03  0.10763016446E+04  0.12404915655E+04  0.12699999809E+01 0.  1.
       -4    1    3    3    0  502 -0.50453289855E+03 -0.35473798122E+03 -0.20025636429E+04  0.20953890422E+04  0.12699999809E+01 0. -1.
</event>
<event>
 5   0  0.1365455E-07  0.3223694E+04  0.7818609E-02  0.8182588E-01
        1   -1    0    0  501    0  0.00000000000E+00  0.00000000000E+00  0.19892182524E+04  0.19892182524E+04  0.50400001928E-02 0. -1.
       -1   -1    0    0    0  501  0.00000000000E+00  0.00000000000E+00 -0.13060658418E+04  0.13060658418E+04  0.50400001928E-02 0.  1.
    10030    2    1    2    0    0  0.00000000000E+00  0.00000000000E+00  0.68315241060E+03  0.32952840942E+04  0.32236935409E+04 0.  0.
        3    1    3    3  502    0 -0.63160452242E+03  0.25165098387E+03  0.18354680315E+04  0.19573439645E+04  0.10100000352E+00 0. -1.
       -3    1    3    3    0  502  0.63160452242E+03 -0.25165098387E+03 -0.11523156209E+04  0.13379401297E+04  0.10100000352E+00 0.  1.
</event>
<event>
 5   0  0.3764056E-07  0.3197348E+04  0.7818609E-02  0.8189518E-01
        2   -1    0    0  501    0  0.00000000000E+00  0.00000000000E+00  0.22273179051E+04  0.22273179051E+04  0.25500000920E-02 0.  1.
       -2   -1    0    0    0  501  0.00000000000E+00  0.00000000000E+00 -0.11474605063E+04  0.11474605063E+04  0.25500000920E-02 0. -1.
    10030    2    1    2    0    0  0.00000000000E+00  0.00000000000E+00  0.10798573988E+04  0.33747784114E+04  0.31973484834E+04 0.  0.
        5    1    3    3  502    0 -0.52350411465E+03  0.15041447544E+04  0.39356399529E+03  0.16405556097E+04  0.46999998093E+01 0. -1.
       -5    1    3    3    0  502  0.52350411465E+03 -0.15041447544E+04  0.68629340348E+03  0.17342228017E+04  0.46999998093E+01 0.  1.
</event>
<event>
 5   0  0.3764056E-07  0.3190574E+04  0.7818609E-02  0.8191311E-01
        2   -1    0    0  501    0  0.00000000000E+00  0.00000000000E+00  0.22392637149E+04  0.22392637149E+04  0.25500000920E-02 0.  1.
       -2   -1    0    0    0  501  0.00000000000E+00  0.00000000000E+00 -0.11365080331E+04  0.11365080331E+04  0.25500000920E-02 0. -1.
    10030    2    1    2    0    0  0.00000000000E+00  0.00000000000E+00  0.11027556818E+04  0.33757717480E+04  0.31905743685E+04 0.  0.
        5    1    3    3  502    0  0.24408185751E+02  0.67428311947E+03 -0.97809793034E+03  0.11882555012E+04  0.46999998093E+01 0. -1.
       -5    1    3    3    0  502 -0.24408185751E+02 -0.67428311947E+03  0.20808536122E+04  0.21875162468E+04  0.46999998093E+01 0.  1.
</event>
<event>
 5   0  0.3750285E-07  0.3198121E+04  0.7818609E-02  0.8189314E-01
       -2   -1    0    0    0  501  0.00000000000E+00  0.00000000000E+00  0.15359735564E+04  0.15359735564E+04  0.25500000920E-02 0. -1.
        2   -1    0    0  501    0  0.00000000000E+00  0.00000000000E+00 -0.16647385430E+04  0.16647385430E+04  0.25500000920E-02 0.  1.
    10030    2    1    2    0    0  0.00000000000E+00  0.00000000000E+00 -0.12876498660E+03  0.32007120994E+04  0.31981209361E+04 0.  0.
        1    1    3    3  502    0 -0.61073002026E+03 -0.71605471711E+03  0.12294405757E+04  0.15483054107E+04  0.50400001928E-02 0. -1.
       -1    1    3    3    0  502  0.61073002026E+03  0.71605471711E+03 -0.13582055623E+04  0.16524066887E+04  0.50400001928E-02 0.  1.
</event>
<event>
 5   0  0.1270948E-07  0.3199551E+04  0.7818609E-02  0.8188936E-01
       -1   -1    0    0    0  501  0.00000000000E+00  0.00000000000E+00  0.13357965789E+04  0.13357965789E+04  0.50400001928E-02 0. -1.
        1   -1    0    0  501    0  0.00000000000E+00  0.00000000000E+00 -0.19159220454E+04  0.19159220455E+04  0.50400001928E-02 0.  1.
    10030    2    1    2    0    0  0.00000000000E+00  0.00000000000E+00 -0.58012546652E+03  0.32517186244E+04  0.31995512897E+04 0.  0.
        4    1    3    3  502    0 -0.12387274130E+04  0.30424098204E+03 -0.12713479980E+04  0.18009262961E+04  0.12699999809E+01 0.  1.
       -4    1    3    3    0  502  0.12387274130E+04 -0.30424098204E+03  0.69122253148E+03  0.14507923283E+04  0.12699999809E+01 0. -1.
</event>
<event>
 5   0  0.1365455E-07  0.3186879E+04  0.7818609E-02  0.8192291E-01
       -1   -1    0    0    0  501  0.00000000000E+00  0.00000000000E+00  0.98268359677E+03  0.98268359678E+03  0.50400001928E-02 0.  1.
        1   -1    0    0  501    0  0.00000000000E+00  0.00000000000E+00 -0.25837915262E+04  0.25837915262E+04  0.50400001928E-02 0. -1.
    10030    2    1    2    0    0  0.00000000000E+00  0.00000000000E+00 -0.16011079294E+04  0.35664751230E+04  0.31868790691E+04 0.  0.
        3    1    3    3  502    0  0.12802140194E+04  0.94429079503E+03 -0.90322297048E+03  0.18293290534E+04  0.10100000352E+00 0. -1.
       -3    1    3    3    0  502 -0.12802140194E+04 -0.94429079503E+03 -0.69788495893E+03  0.17371460696E+04  0.10100000352E+00 0.  1.
</event>
<event>
 5   0  0.1365455E-07  0.3201814E+04  0.7818609E-02  0.8188338E-01
        1   -1    0    0  501    0  0.00000000000E+00  0.00000000000E+00  0.20026998192E+04  0.20026998192E+04  0.50400001928E-02 0.  1.
       -1   -1    0    0    0  501  0.00000000000E+00  0.00000000000E+00 -0.12797237134E+04  0.12797237134E+04  0.50400001928E-02 0. -1.
    10030    2    1    2    0    0  0.00000000000E+00  0.00000000000E+00  0.72297610587E+03  0.32824235326E+04  0.32018135170E+04 0.  0.
        3    1    3    3  502    0 -0.10258747997E+04 -0.11534277829E+04 -0.73563366931E+02  0.15453887324E+04  0.10100000352E+00 0. -1.
       -3    1    3    3    0  502  0.10258747997E+04  0.11534277829E+04  0.79653947280E+03  0.17370348002E+04  0.10100000352E+00 0.  1.
</event>
<event>
 5   0  0.3830207E-07  0.3200538E+04  0.7818609E-02  0.8188675E-01
        2   -1    0    0  501    0  0.00000000000E+00  0.00000000000E+00  0.15491934492E+04  0.15491934492E+04  0.25500000920E-02 0. -1.
       -2   -1    0    0    0  501  0.00000000000E+00  0.00000000000E+00 -0.16530279820E+04  0.16530279820E+04  0.25500000920E-02 0.  1.
    10030    2    1    2    0    0  0.00000000000E+00  0.00000000000E+00 -0.10383453285E+03  0.32022214312E+04  0.32005375305E+04 0.  0.
        4    1    3    3  502    0  0.97647282990E+03 -0.10827512282E+04  0.60798193963E+03  0.15797129681E+04  0.12699999809E+01 0. -1.
       -4    1    3    3    0  502 -0.97647282990E+03  0.10827512282E+04 -0.71181647248E+03  0.16225084632E+04  0.12699999809E+01 0.  1.
</event>
<event>
 5   0  0.1277374E-07  0.3197663E+04  0.7818609E-02  0.8189435E-01
        1   -1    0    0  501    0  0.00000000000E+00  0.00000000000E+00  0.21750172224E+04  0.21750172224E+04  0.50400001928E-02 0.  1.
       -1   -1    0    0    0  501  0.00000000000E+00  0.00000000000E+00 -0.11752838423E+04  0.11752838423E+04  0.50400001928E-02 0. -1.
    10030    2    1    2    0    0  0.00000000000E+00  0.00000000000E+00  0.99973338016E+03  0.33503010647E+04  0.31976632707E+04 0.  0.
        5    1    3    3  502    0 -0.67592971686E+03  0.77850384483E+03 -0.78046758758E+03  0.12930974301E+04  0.46999998093E+01 0. -1.
       -5    1    3    3    0  502  0.67592971686E+03 -0.77850384483E+03  0.17802009677E+04  0.20572036346E+04  0.46999998093E+01 0.  1.
</event>
<event>
 5   0  0.1270948E-07  0.3205739E+04  0.7818609E-02  0.8187303E-01
        1   -1    0    0  501    0  0.00000000000E+00  0.00000000000E+00  0.23796045731E+04  0.23796045731E+04  0.50400001928E-02 0. -1.
       -1   -1    0    0    0  501  0.00000000000E+00  0.00000000000E+00 -0.10796715623E+04  0.10796715624E+04  0.50400001928E-02 0.  1.
    10030    2    1    2    0    0  0.00000000000E+00  0.00000000000E+00  0.12999330108E+04  0.34592761355E+04  0.32057394699E+04 0.  0.
        4    1    3    3  502    0 -0.10183763536E+04  0.12367730294E+04  0.70383291191E+03  0.17498800829E+04  0.12699999809E+01 0. -1.
       -4    1    3    3    0  502  0.10183763536E+04 -0.12367730294E+04  0.59610009889E+03  0.17093960526E+04  0.12699999809E+01 0.  1.
</event>
<event>
 5   0  0.1288096E-07  0.3202560E+04  0.7818609E-02  0.8188142E-01
        1   -1    0    0  501    0  0.00000000000E+00  0.00000000000E+00  0.16717320023E+04  0.16717320023E+04  0.50400001928E-02 0.  1.
       -1   -1    0    0    0  501  0.00000000000E+00  0.00000000000E+00 -0.15337966989E+04  0.15337966989E+04  0.50400001928E-02 0. -1.
    10030    2    1    2    0    0  0.00000000000E+00  0.00000000000E+00  0.13793530345E+03  0.32055287012E+04  0.32025596180E+04 0.  0.
        2    1    3    3  502    0 -0.17356020268E+03  0.99360033425E+02 -0.15212473682E+04  0.15343367021E+04  0.25500000920E-02 0. -1.
       -2    1    3    3    0  502  0.17356020268E+03 -0.99360033425E+02  0.16591826716E+04  0.16711919991E+04  0.25500000920E-02 0.  1.
</event>
<event>
 5   0  0.3942564E-07  0.3203018E+04  0.7818609E-02  0.8188020E-01
        2   -1    0    0  501    0  0.00000000000E+00  0.00000000000E+00  0.12114747468E+04  0.12114747468E+04  0.25500000920E-02 0. -1.
       -2   -1    0    0    0  501  0.00000000000E+00  0.00000000000E+00 -0.21171153032E+04  0.21171153032E+04  0.25500000920E-02 0.  1.
    10030    2    1    2    0    0  0.00000000000E+00  0.00000000000E+00 -0.90564055642E+03  0.33285900500E+04  0.32030184051E+04 0.  0.
        3    1    3    3  502    0  0.35270943396E+03 -0.29329516542E+03  0.11417421551E+04  0.12304475437E+04  0.10100000352E+00 0. -1.
       -3    1    3    3    0  502 -0.35270943396E+03  0.29329516542E+03 -0.20473827116E+04  0.20981425063E+04  0.10100000352E+00 0.  1.
</event>
<event>
 5   0  0.3830207E-07  0.3198527E+04  0.7818609E-02  0.8189206E-01
       -2   -1    0    0    0  501  0.00000000000E+00  0.00000000000E+00  0.10311763859E+04  0.10311763859E+04  0.25500000920E-02 0.  1.
        2   -1    0    0  501    0  0.00000000000E+00  0.00000000000E+00 -0.24803170807E+04  0.24803170807E+04  0.25500000920E-02 0. -1.
    10030    2    1    2    0    0  0.00000000000E+00  0.00000000000E+00 -0.14491406947E+04  0.35114934666E+04  0.31985274132E+04 0.  0.
        4    1    3    3  502    0 -0.14640785635E+04 -0.19466374036E+03 -0.51183963301E+02  0.14778502708E+04  0.12699999809E+01 0.  1.
       -4    1    3    3    0  502  0.14640785635E+04  0.19466374036E+03 -0.13979567314E+04  0.20336431958E+04  0.12699999809E+01 0. -1.
</event>
<event>
 5   0  0.3750285E-07  0.3197385E+04  0.7818609E-02  0.8189508E-01
        2   -1    0    0  501    0  0.00000000000E+00  0.00000000000E+00  0.10058405200E+04  0.10058405200E+04  0.25500000920E-02 0. -1.
       -2   -1    0    0    0  501  0.00000000000E+00  0.00000000000E+00 -0.25409772862E+04  0.25409772862E+04  0.25500000920E-02 0.  1.
    10030    2    1    2    0    0  0.00000000000E+00  0.00000000000E+00 -0.15351367662E+04  0.35468178062E+04  0.31973851285E+04 0.  0.
        1    1    3    3  502    0 -0.12487839911E+04  0.33551891772E+02  0.33907022555E+03  0.12944326185E+04  0.50400001928E-02 0. -1.
       -1    1    3    3    0  502  0.12487839911E+04 -0.33551891772E+02 -0.18742069918E+04  0.22523851877E+04  0.50400001928E-02 0.  1.
</event>
<event>
 5   0  0.3942564E-07  0.3197459E+04  0.7818609E-02  0.8189488E-01
        2   -1    0    0  501    0  0.00000000000E+00  0.00000000000E+00  0.21180454934E+04  0.21180454935E+04  0.25500000920E-02 0.  1.
       -2   -1    0    0    0  501  0.00000000000E+00  0.00000000000E+00 -0.12067430930E+04  0.12067430930E+04  0.25500000920E-02 0. -1.
    10030    2    1    2    0    0  0.00000000000E+00  0.00000000000E+00  0.91130240047E+03  0.33247885864E+04  0.31974594727E+04 0.  0.
        3    1    3    3  502    0 -0.46015793283E+03 -0.14422255619E+04 -0.78797933578E+02  0.15159053464E+04  0.10100000352E+00 0. -1.
       -3    1    3    3    0  502  0.46015793283E+03  0.14422255619E+04  0.99010033405E+03  0.18088832401E+04  0.10100000352E+00 0.  1.
</event>
<event>
 5   0  0.1277374E-07  0.3209140E+04  0.7818609E-02  0.8186408E-01
       -1   -1    0    0    0  501  0.00000000000E+00  0.00000000000E+00  0.15365030511E+04  0.15365030511E+04  0.50400001928E-02 0.  1.
        1   -1    0    0  501    0  0.00000000000E+00  0.00000000000E+00 -0.16756519501E+04  0.16756519501E+04  0.50400001928E-02 0. -1.
    10030    2    1    2    0    0  0.00000000000E+00  0.00000000000E+00 -0.13914889900E+03  0.32121550012E+04  0.32091396566E+04 0.  0.
        5    1    3    3  502    0 -0.89159022453E+03 -0.13286411754E+04  0.50545570489E+02  0.16008739633E+04  0.46999998093E+01 0. -1.
       -5    1    3    3    0  502  0.89159022453E+03  0.13286411754E+04 -0.18969446949E+03  0.16112810380E+04  0.46999998093E+01 0.  1.
</event>
<event>
 5   0  0.1270948E-07  0.3197440E+04  0.7818609E-02  0.8189493E-01
        1   -1    0    0  501    0  0.00000000000E+00  0.00000000000E+00  0.21224601111E+04  0.21224601111E+04  0.50400001928E-02 0. -1.
       -1   -1    0    0    0  501  0.00000000000E+00  0.00000000000E+00 -0.12042188006E+04  0.12042188006E+04  0.50400001928E-02 0.  1.
    10030    2    1    2    0    0  0.00000000000E+00  0.00000000000E+00  0.91824131055E+03  0.33266789117E+04  0.31974404572E+04 0.  0.
        4    1    3    3  502    0  0.51872403284E+02 -0.19771436707E+03  0.21088081539E+04  0.21186918511E+04  0.12699999809E+01 0. -1.
       -4    1    3    3    0  502 -0.51872403284E+02  0.19771436707E+03 -0.11905668434E+04  0.12079870606E+04  0.12699999809E+01 0.  1.
</event>
<event>
 5   0  0.1277374E-07  0.3201176E+04  0.7818609E-02  0.8188507E-01
       -1   -1    0    0    0  501  0.00000000000E+00  0.00000000000E+00  0.12715714365E+04  0.12715714365E+04  0.50400001928E-02 0.  1.
        1   -1    0    0  501    0  0.00000000000E+00  0.00000000000E+00 -0.20147364038E+04  0.20147364038E+04  0.50400001928E-02 0. -1.
    10030    2    1    2    0    0  0.00000000000E+00  0.00000000000E+00 -0.74316496725E+03  0.32863078404E+04  0.32011755736E+04 0.  0.
        5    1    3    3  502    0  0.55736110929E+03  0.99332234934E+03 -0.15259958283E+04  0.19042127123E+04  0.46999998093E+01 0. -1.
       -5    1    3    3    0  502 -0.55736110929E+03 -0.99332234934E+03  0.78283086105E+03  0.13820951280E+04  0.46999998093E+01 0.  1.
</event>
<event>
 5   0  0.1317293E-07  0.3223296E+04  0.7818609E-02  0.8182692E-01
       -1   -1    0    0    0  501  0.00000000000E+00  0.00000000000E+00  0.24267699610E+04  0.24267699610E+04  0.50400001928E-02 0. -1.
        1   -1    0    0  501    0  0.00000000000E+00  0.00000000000E+00 -0.10703154584E+04  0.10703154584E+04  0.50400001928E-02 0.  1.
    10030    2    1    2    0    0  0.00000000000E+00  0.00000000000E+00  0.13564545026E+04  0.34970854194E+04  0.32232960790E+04 0.  0.
        1    1    3    3  502    0  0.12263019748E+04  0.10035765257E+04  0.35927121379E+03  0.16248255849E+04  0.50400001928E-02 0. -1.
       -1    1    3    3    0  502 -0.12263019748E+04 -0.10035765257E+04  0.99718328882E+03  0.18722598345E+04  0.50400001928E-02 0.  1.
</event>
<event>
 5   0  0.3830207E-07  0.3195879E+04  0.7818609E-02  0.8189906E-01
       -2   -1    0    0    0  501  0.00000000000E+00  0.00000000000E+00  0.24279017229E+04  0.24279017229E+04  0.25500000920E-02 0.  1.
        2   -1    0    0  501    0  0.00000000000E+00  0.00000000000E+00 -0.10516946044E+04  0.10516946044E+04  0.25500000920E-02 0. -1.
    10030    2    1    2    0    0  0.00000000000E+00  0.00000000000E+00  0.13762071185E+04  0.34795963273E+04  0.31958793106E+04 0.  0.
        4    1    3    3  502    0  0.78144445130E+02 -0.39124834916E+03  0.23727982975E+04  0.24061078942E+04  0.12699999809E+01 0.  1.
       -4    1    3    3    0  502 -0.78144445130E+02  0.39124834916E+03 -0.99659117900E+03  0.10734884331E+04  0.12699999809E+01 0. -1.
</event>
<event>
 5   0  0.3750285E-07  0.3196985E+04  0.7818609E-02  0.8189614E-01
       -2   -1    0    0    0  501  0.00000000000E+00  0.00000000000E+00  0.20747617587E+04  0.20747617587E+04  0.25500000920E-02 0. -1.
        2   -1    0    0  501    0  0.00000000000E+00  0.00000000000E+00 -0.12315525687E+04  0.12315525687E+04  0.25500000920E-02 0.  1.
    10030    2    1    2    0    0  0.00000000000E+00  0.00000000000E+00  0.84320919009E+03  0.33063143274E+04  0.31969849379E+04 0.  0.
        1    1    3    3  502    0 -0.12943992437E+04  0.90475047339E+03  0.16589339084E+03  0.15879431471E+04  0.50400001928E-02 0.  1.
       -1    1    3    3    0  502  0.12943992437E+04 -0.90475047339E+03  0.67731579925E+03  0.17183711803E+04  0.50400001928E-02 0. -1.
</event>
<event>
 5   0  0.3858721E-07  0.3188160E+04  0.7818609E-02  0.8191951E-01
        2   -1    0    0  501    0  0.00000000000E+00  0.00000000000E+00  0.29702631553E+04  0.29702631553E+04  0.25500000920E-02 0. -1.
       -2   -1    0    0    0  501  0.00000000000E+00  0.00000000000E+00 -0.85551066259E+03  0.85551066259E+03  0.25500000920E-02 0.  1.
    10030    2    1    2    0    0  0.00000000000E+00  0.00000000000E+00  0.21147524927E+04  0.38257738179E+04  0.31881604728E+04 0.  0.
        2    1    3    3  502    0 -0.15441487497E+04  0.17471576717E+03  0.14836205755E+04  0.21484997027E+04  0.25500000920E-02 0.  1.
       -2    1    3    3    0  502  0.15441487497E+04 -0.17471576717E+03  0.63113191719E+03  0.16772741152E+04  0.25500000920E-02 0. -1.
</event>
<event>
 5   0  0.1365455E-07  0.3198952E+04  0.7818609E-02  0.8189094E-01
        1   -1    0    0  501    0  0.00000000000E+00  0.00000000000E+00  0.18663352540E+04  0.18663352540E+04  0.50400001928E-02 0. -1.
       -1   -1    0    0    0  501  0.00000000000E+00  0.00000000000E+00 -0.13707740774E+04  0.13707740774E+04  0.50400001928E-02 0.  1.
    10030    2    1    2    0    0  0.00000000000E+00  0.00000000000E+00  0.49556117655E+03  0.32371093314E+04  0.31989523197E+04 0.  0.
        3    1    3    3  502    0  0.84346981676E+03  0.50859263724E+03  0.15230572380E+04  0.18137836593E+04  0.10100000352E+00 0. -1.
       -3    1    3    3    0  502 -0.84346981676E+03 -0.50859263724E+03 -0.10274960614E+04  0.14233256721E+04  0.10100000352E+00 0.  1.
</event>
<event>
 5   0  0.3942564E-07  0.3261880E+04  0.7818609E-02  0.8172663E-01
       -2   -1    0    0    0  501  0.00000000000E+00  0.00000000000E+00  0.13286514725E+04  0.13286514725E+04  0.25500000920E-02 0. -1.
        2   -1    0    0  501    0  0.00000000000E+00  0.00000000000E+00 -0.20020034097E+04  0.20020034097E+04  0.25500000920E-02 0.  1.
    10030    2    1    2    0    0  0.00000000000E+00  0.00000000000E+00 -0.67335193721E+03  0.33306548823E+04  0.32618796902E+04 0.  0.
        3    1    3    3  502    0  0.22650623813E+03 -0.15243015490E+04 -0.88194321368E+03  0.17755630461E+04  0.10100000352E+00 0. -1.
       -3    1    3    3    0  502 -0.22650623813E+03  0.15243015490E+04  0.20859127647E+03  0.15550918362E+04  0.10100000352E+00 0.  1.
</event>
<event>
 5   0  0.3764056E-07  0.3204487E+04  0.7818609E-02  0.8187633E-01
       -2   -1    0    0    0  501  0.00000000000E+00  0.00000000000E+00  0.15036591526E+04  0.15036591526E+04  0.25500000920E-02 0.  1.
        2   -1    0    0  501    0  0.00000000000E+00  0.00000000000E+00 -0.17072916230E+04  0.17072916230E+04  0.25500000920E-02 0. -1.
    10030    2    1    2    0    0  0.00000000000E+00  0.00000000000E+00 -0.20363247045E+03  0.32109507756E+04  0.32044872757E+04 0.  0.
        5    1    3    3  502    0  0.11914508952E+04 -0.61753272910E+03 -0.97894502526E+03  0.16611012491E+04  0.46999998093E+01 0. -1.
       -5    1    3    3    0  502 -0.11914508952E+04  0.61753272910E+03  0.77531255482E+03  0.15498495265E+04  0.46999998093E+01 0.  1.
</event>
<event>
 5   0  0.3750285E-07  0.3199698E+04  0.7818609E-02  0.8188897E-01
       -2   -1    0    0    0  501  0.00000000000E+00  0.00000000000E+00  0.15825925209E+04  0.15825925209E+04  0.25500000920E-02 0.  1.
        2   -1    0    0  501    0  0.00000000000E+00  0.00000000000E+00 -0.16172937939E+04  0.16172937939E+04  0.25500000920E-02 0. -1.
    10030    2    1    2    0    0  0.00000000000E+00  0.00000000000E+00 -0.34701273001E+02  0.31998863149E+04  0.31996981498E+04 0.  0.
        1    1    3    3  502    0  0.13970565297E+04  0.56325325998E+03 -0.55635902967E+03  0.16057884518E+04  0.50400001928E-02 0.  1.
       -1    1    3    3    0  502 -0.13970565297E+04 -0.56325325998E+03  0.52165775667E+03  0.15940978631E+04  0.50400001928E-02 0. -1.
</event>
<event>
 5   0  0.1365455E-07  0.3195096E+04  0.7818609E-02  0.8190113E-01
       -1   -1    0    0    0  501  0.00000000000E+00  0.00000000000E+00  0.13945120561E+04  0.13945120561E+04  0.50400001928E-02 0. -1.
        1   -1    0    0  501    0  0.00000000000E+00  0.00000000000E+00 -0.18301455307E+04  0.18301455307E+04  0.50400001928E-02 0.  1.
    10030    2    1    2    0    0  0.00000000000E+00  0.00000000000E+00 -0.43563347456E+03  0.32246575868E+04  0.31950962471E+04 0.  0.
        3    1    3    3  502    0  0.53827360438E+03 -0.11323243765E+04  0.78142593528E+03  0.14773366134E+04  0.10100000352E+00 0. -1.
       -3    1    3    3    0  502 -0.53827360438E+03  0.11323243765E+04 -0.12170594098E+04  0.17473209734E+04  0.10100000352E+00 0.  1.
</event>
<event>
 5   0  0.1270948E-07  0.3189050E+04  0.7818609E-02  0.8191715E-01
        1   -1    0    0  501    0  0.00000000000E+00  0.00000000000E+00  0.14986920402E+04  0.14986920402E+04  0.50400001928E-02 0. -1.
       -1   -1    0    0    0  501  0.00000000000E+00  0.00000000000E+00 -0.16964855775E+04  0.16964855775E+04  0.50400001928E-02 0.  1.
    10030    2    1    2    0    0  0.00000000000E+00  0.00000000000E+00 -0.19779353733E+03  0.31951776177E+04  0.31890496587E+04 0.  0.
        4    1    3    3  502    0  0.62918403378E+00 -0.15931487240E+04 -0.32553476741E+02  0.15934819090E+04  0.12699999809E+01 0. -1.
       -4    1    3    3    0  502 -0.62918403378E+00  0.15931487240E+04 -0.16524006059E+03  0.16016957087E+04  0.12699999809E+01 0.  1.
</event>
<event>
 5   0  0.1365455E-07  0.3197739E+04  0.7818609E-02  0.8189415E-01
        1   -1    0    0  501    0  0.00000000000E+00  0.00000000000E+00  0.23516085749E+04  0.23516085749E+04  0.50400001928E-02 0. -1.
       -1   -1    0    0    0  501  0.00000000000E+00  0.00000000000E+00 -0.10870788348E+04  0.10870788348E+04  0.50400001928E-02 0.  1.
    10030    2    1    2    0    0  0.00000000000E+00  0.00000000000E+00  0.12645297401E+04  0.34386874097E+04  0.31977391448E+04 0.  0.
        3    1    3    3  502    0 -0.12416261406E+04 -0.57409755264E+03 -0.25784947616E+03  0.13920164638E+04  0.10100000352E+00 0.  1.
       -3    1    3    3    0  502  0.12416261406E+04  0.57409755264E+03  0.15223792162E+04  0.20466709460E+04  0.10100000352E+00 0. -1.
</event>
<event>
 5   0  0.3830207E-07  0.3199899E+04  0.7818609E-02  0.8188844E-01
        2   -1    0    0  501    0  0.00000000000E+00  0.00000000000E+00  0.12188576983E+04  0.12188576983E+04  0.25500000920E-02 0. -1.
       -2   -1    0    0    0  501  0.00000000000E+00  0.00000000000E+00 -0.21001951728E+04  0.21001951728E+04  0.25500000920E-02 0.  1.
    10030    2    1    2    0    0  0.00000000000E+00  0.00000000000E+00 -0.88133747447E+03  0.33190528711E+04  0.31998994073E+04 0.  0.
        4    1    3    3  502    0  0.11144899288E+04 -0.11358697664E+04 -0.26850772294E+03  0.16138109982E+04  0.12699999809E+01 0. -1.
       -4    1    3    3    0  502 -0.11144899288E+04  0.11358697664E+04 -0.61282975154E+03  0.17052418729E+04  0.12699999809E+01 0.  1.
</event>
<event>
 5   0  0.3764056E-07  0.3206904E+04  0.7818609E-02  0.8186996E-01
       -2   -1    0    0    0  501  0.00000000000E+00  0.00000000000E+00  0.11872855994E+04  0.11872855994E+04  0.25500000920E-02 0.  1.
        2   -1    0    0  501    0  0.00000000000E+00  0.00000000000E+00 -0.21654925364E+04  0.21654925364E+04  0.25500000920E-02 0. -1.
    10030    2    1    2    0    0  0.00000000000E+00  0.00000000000E+00 -0.97820693700E+03  0.33527781357E+04  0.32069038676E+04 0.  0.
        5    1    3    3  502    0  0.10024282692E+04  0.53319515428E+03 -0.16728043427E+04  0.20217457719E+04  0.46999998093E+01 0. -1.
       -5    1    3    3    0  502 -0.10024282692E+04 -0.53319515428E+03  0.69459740568E+03  0.13310323638E+04  0.46999998093E+01 0.  1.
</event>
<event>
 5   0  0.3858721E-07  0.3203128E+04  0.7818609E-02  0.8187992E-01
       -2   -1    0    0    0  501  0.00000000000E+00  0.00000000000E+00  0.12635029116E+04  0.12635029116E+04  0.25500000920E-02 0.  1.
        2   -1    0    0  501    0  0.00000000000E+00  0.00000000000E+00 -0.20300764638E+04  0.20300764638E+04  0.25500000920E-02 0. -1.
    10030    2    1    2    0    0  0.00000000000E+00  0.00000000000E+00 -0.76657355221E+03  0.32935793755E+04  0.32031281728E+04 0.  0.
        2    1    3    3  502    0  0.26372911010E+03  0.10003042931E+04  0.87387745231E+03  0.13541874036E+04  0.25500000920E-02 0.  1.
       -2    1    3    3    0  502 -0.26372911010E+03 -0.10003042931E+04 -0.16404510045E+04  0.19393919719E+04  0.25500000920E-02 0. -1.
</event>
<event>
 5   0  0.3942564E-07  0.3202267E+04  0.7818609E-02  0.8188219E-01
       -2   -1    0    0    0  501  0.00000000000E+00  0.00000000000E+00  0.20576251900E+04  0.20576251900E+04  0.25500000920E-02 0.  1.
        2   -1    0    0  501    0  0.00000000000E+00  0.00000000000E+00 -0.12459162092E+04  0.12459162092E+04  0.25500000920E-02 0. -1.
    10030    2    1    2    0    0  0.00000000000E+00  0.00000000000E+00  0.81170898080E+03  0.33035413992E+04  0.32022670573E+04 0.  0.
        3    1    3    3  502    0  0.15532861565E+03  0.17553781827E+03 -0.12281209990E+04  0.12502886478E+04  0.10100000352E+00 0. -1.
       -3    1    3    3    0  502 -0.15532861565E+03 -0.17553781827E+03  0.20398299798E+04  0.20532527514E+04  0.10100000352E+00 0.  1.
</event>
<event>
 5   0  0.3858721E-07  0.3199649E+04  0.7818609E-02  0.8188910E-01
       -2   -1    0    0    0  501  0.00000000000E+00  0.00000000000E+00  0.24414946673E+04  0.24414946673E+04  0.25500000920E-02 0.  1.
        2   -1    0    0  501    0  0.00000000000E+00  0.00000000000E+00 -0.10483078356E+04  0.10483078356E+04  0.25500000920E-02 0. -1.
    10030    2    1    2    0    0  0.00000000000E+00  0.00000000000E+00  0.13931868317E+04  0.34898025029E+04  0.31996487246E+04 0.  0.
        2    1    3    3  502    0 -0.47968017665E+03  0.15177689997E+04  0.52166818716E+03  0.16750682093E+04  0.25500000920E-02 0. -1.
       -2    1    3    3    0  502  0.47968017665E+03 -0.15177689997E+04  0.87151864450E+03  0.18147342935E+04  0.25500000920E-02 0.  1.
</event>
<event>
 5   0  0.3942564E-07  0.3198780E+04  0.7818609E-02  0.8189139E-01
       -2   -1    0    0    0  501  0.00000000000E+00  0.00000000000E+00  0.12413320652E+04  0.12413320652E+04  0.25500000920E-02 0.  1.
        2   -1    0    0  501    0  0.00000000000E+00  0.00000000000E+00 -0.20607285681E+04  0.20607285681E+04  0.25500000920E-02 0. -1.
    10030    2    1    2    0    0  0.00000000000E+00  0.00000000000E+00 -0.81939650287E+03  0.33020606334E+04  0.31987800483E+04 0.  0.
        3    1    3    3  502    0 -0.17299522916E+03  0.12422419049E+04 -0.14341915240E+04  0.19052552683E+04  0.10100000352E+00 0. -1.
       -3    1    3    3    0  502  0.17299522916E+03 -0.12422419049E+04  0.61479502109E+03  0.13968053651E+04  0.10100000352E+00 0.  1.
</event>
<event>
 5   0  0.3942564E-07  0.3191375E+04  0.7818609E-02  0.8191099E-01
        2   -1    0    0  501    0  0.00000000000E+00  0.00000000000E+00  0.29561104290E+04  0.29561104290E+04  0.25500000920E-02 0.  1.
       -2   -1    0    0    0  501  0.00000000000E+00  0.00000000000E+00 -0.86134097256E+03  0.86134097257E+03  0.25500000920E-02 0. -1.
    10030    2    1    2    0    0  0.00000000000E+00  0.00000000000E+00  0.20947694564E+04  0.38174514016E+04  0.31913752721E+04 0.  0.
        3    1    3    3  502    0  0.53718321727E+03  0.10021607097E+04  0.23865305194E+04  0.26435619583E+04  0.10100000352E+00 0.  1.
       -3    1    3    3    0  502 -0.53718321727E+03 -0.10021607097E+04 -0.29176106295E+03  0.11738894433E+04  0.10100000352E+00 0. -1.
</event>
<event>
 5   0  0.3830207E-07  0.3198935E+04  0.7818609E-02  0.8189099E-01
        2   -1    0    0  501    0  0.00000000000E+00  0.00000000000E+00  0.25257226756E+04  0.25257226756E+04  0.25500000920E-02 0. -1.
       -2   -1    0    0    0  501  0.00000000000E+00  0.00000000000E+00 -0.10128966514E+04  0.10128966514E+04  0.25500000920E-02 0.  1.
    10030    2    1    2    0    0  0.00000000000E+00  0.00000000000E+00  0.15128260242E+04  0.35386193270E+04  0.31989348480E+04 0.  0.
        4    1    3    3  502    0  0.34068845782E+03  0.14878211719E+04  0.22750538972E+03  0.15431917509E+04  0.12699999809E+01 0.  1.
       -4    1    3    3    0  502 -0.34068845782E+03 -0.14878211719E+04  0.12853206345E+04  0.19954275760E+04  0.12699999809E+01 0. -1.
</event>
<event>
 5   0  0.1277374E-07  0.3192992E+04  0.7818609E-02  0.8190670E-01
       -1   -1    0    0    0  501  0.00000000000E+00  0.00000000000E+00  0.19195020080E+04  0.19195020080E+04  0.50400001928E-02 0.  1.
        1   -1    0    0  501    0  0.00000000000E+00  0.00000000000E+00 -0.13278440208E+04  0.13278440208E+04  0.50400001928E-02 0. -1.
    10030    2    1    2    0    0  0.00000000000E+00  0.00000000000E+00  0.59165798728E+03  0.32473460288E+04  0.31929918661E+04 0.  0.
        5    1    3    3  502    0 -0.11984794687E+03  0.12499556740E+04  0.12985251550E+04  0.18063616430E+04  0.46999998093E+01 0.  1.
       -5    1    3    3    0  502  0.11984794687E+03 -0.12499556740E+04 -0.70686716770E+03  0.14409843858E+04  0.46999998093E+01 0. -1.
</event>
<event>
 5   0  0.1288096E-07  0.3201788E+04  0.7818609E-02  0.8188345E-01
       -1   -1    0    0    0  501  0.00000000000E+00  0.00000000000E+00  0.93334860013E+03  0.93334860015E+03  0.50400001928E-02 0. -1.
        1   -1    0    0  501    0  0.00000000000E+00  0.00000000000E+00 -0.27458781342E+04  0.27458781342E+04  0.50400001928E-02 0.  1.
    10030    2    1    2    0    0  0.00000000000E+00  0.00000000000E+00 -0.18125295341E+04  0.36792267344E+04  0.32017879460E+04 0.  0.
        2    1    3    3  502    0  0.61418728747E+03 -0.14398474330E+04 -0.12916470229E+04  0.20294675869E+04  0.25500000920E-02 0.  1.
       -2    1    3    3    0  502 -0.61418728747E+03  0.14398474330E+04 -0.52088251122E+03  0.16497591475E+04  0.25500000920E-02 0. -1.
</event>
<event>
 5   0  0.1288096E-07  0.3216715E+04  0.7818609E-02  0.8184417E-01
        1   -1    0    0  501    0  0.00000000000E+00  0.00000000000E+00  0.15337750890E+04  0.15337750890E+04  0.50400001928E-02 0. -1.
       -1   -1    0    0    0  501  0.00000000000E+00  0.00000000000E+00 -0.16865665584E+04  0.16865665584E+04  0.50400001928E-02 0.  1.
    10030    2    1    2    0    0  0.00000000000E+00  0.00000000000E+00 -0.15279146936E+03  0.32203416474E+04  0.32167149536E+04 0.  0.
        2    1    3    3  502    0  0.60856894970E+03  0.97901400558E+03  0.10464699871E+04  0.15568956367E+04  0.25500000920E-02 0. -1.
       -2    1    3    3    0  502 -0.60856894970E+03 -0.97901400558E+03 -0.11992614564E+04  0.16634460107E+04  0.25500000920E-02 0.  1.
</event>
<event>
 5   0  0.1365455E-07  0.3202771E+04  0.7818609E-02  0.8188086E-01
       -1   -1    0    0    0  501  0.00000000000E+00  0.00000000000E+00  0.10030747502E+04  0.10030747502E+04  0.50400001928E-02 0.  1.
        1   -1    0    0  501    0  0.00000000000E+00  0.00000000000E+00 -0.25565740432E+04  0.25565740432E+04  0.50400001928E-02 0. -1.
    10030    2    1    2    0    0  0.00000000000E+00  0.00000000000E+00 -0.15534992931E+04  0.35596487934E+04  0.32027705941E+04 0.  0.
        3    1    3    3  502    0  0.13921181315E+04  0.20677574072E+03  0.72373868161E+02  0.14092505406E+04  0.10100000352E+00 0.  1.
       -3    1    3    3    0  502 -0.13921181315E+04 -0.20677574072E+03 -0.16258731612E+04  0.21503982528E+04  0.10100000352E+00 0. -1.
</event>
<event>
 5   0  0.3750285E-07  0.3204158E+04  0.7818609E-02  0.8187720E-01
       -2   -1    0    0    0  501  0.00000000000E+00  0.00000000000E+00  0.17021962190E+04  0.17021962190E+04  0.25500000920E-02 0.  1.
        2   -1    0    0  501    0  0.00000000000E+00  0.00000000000E+00 -0.15078503752E+04  0.15078503752E+04  0.25500000920E-02 0. -1.
    10030    2    1    2    0    0  0.00000000000E+00  0.00000000000E+00  0.19434584379E+03  0.32100465943E+04  0.32041580533E+04 0.  0.
        1    1    3    3  502    0 -0.82613152959E+03  0.15656542512E+03 -0.12690235191E+04  0.15223096691E+04  0.50400001928E-02 0. -1.
       -1    1    3    3    0  502  0.82613152959E+03 -0.15656542512E+03  0.14633693629E+04  0.16877369252E+04  0.50400001928E-02 0.  1.
</event>
<event>
 5   0  0.1365455E-07  0.3197300E+04  0.7818609E-02  0.8189531E-01
       -1   -1    0    0    0  501  0.00000000000E+00  0.00000000000E+00  0.12041476903E+04  0.12041476903E+04  0.50400001928E-02 0.  1.
        1   -1    0    0  501    0  0.00000000000E+00  0.00000000000E+00 -0.21223989718E+04  0.21223989719E+04  0.50400001928E-02 0. -1.
    10030    2    1    2    0    0  0.00000000000E+00  0.00000000000E+00 -0.91825128159E+03  0.33265466621E+04  0.31972999983E+04 0.  0.
        3    1    3    3  502    0  0.10557252764E+04 -0.32801047136E+03 -0.16605943230E+04  0.19949236187E+04  0.10100000352E+00 0. -1.
       -3    1    3    3    0  502 -0.10557252764E+04  0.32801047136E+03  0.74234304143E+03  0.13316230435E+04  0.10100000352E+00 0.  1.
</event>
<event>
 5   0  0.3942564E-07  0.3199825E+04  0.7818609E-02  0.8188863E-01
        2   -1    0    0  501    0  0.00000000000E+00  0.00000000000E+00  0.23598365331E+04  0.23598365331E+04  0.25500000920E-02 0.  1.
       -2   -1    0    0    0  501  0.00000000000E+00  0.00000000000E+00 -0.10847020818E+04  0.10847020818E+04  0.25500000920E-02 0. -1.
    10030    2    1    2    0    0  0.00000000000E+00  0.00000000000E+00  0.12751344514E+04  0.34445386149E+04  0.31998247453E+04 0.  0.
        3    1    3    3  502    0 -0.93642232079E+03  0.12350463476E+04  0.10647718751E+04  0.18804162836E+04  0.10100000352E+00 0. -1.
       -3    1    3    3    0  502  0.93642232079E+03 -0.12350463476E+04  0.21036257629E+03  0.15641223313E+04  0.10100000352E+00 0.  1.
</event>
<event>
 5   0  0.1317293E-07  0.3195606E+04  0.7818609E-02  0.8189978E-01
        1   -1    0    0  501    0  0.00000000000E+00  0.00000000000E+00  0.11131029191E+04  0.11131029191E+04  0.50400001928E-02 0. -1.
       -1   -1    0    0    0  501  0.00000000000E+00  0.00000000000E+00 -0.22935660091E+04  0.22935660091E+04  0.50400001928E-02 0.  1.
    10030    2    1    2    0    0  0.00000000000E+00  0.00000000000E+00 -0.11804630900E+04  0.34066689282E+04  0.31956063712E+04 0.  0.
        1    1    3    3  502    0 -0.88802143174E+03  0.62731056989E+03  0.65794347046E+03  0.12708226567E+04  0.50400001928E-02 0. -1.
       -1    1    3    3    0  502  0.88802143174E+03 -0.62731056989E+03 -0.18384065604E+04  0.21358462716E+04  0.50400001928E-02 0.  1.
</event>
<event>
 5   0  0.3830207E-07  0.3171198E+04  0.7818609E-02  0.8196466E-01
       -2   -1    0    0    0  501  0.00000000000E+00  0.00000000000E+00  0.12713653330E+04  0.12713653330E+04  0.25500000920E-02 0.  1.
        2   -1    0    0  501    0  0.00000000000E+00  0.00000000000E+00 -0.19774987822E+04  0.19774987822E+04  0.25500000920E-02 0. -1.
    10030    2    1    2    0    0  0.00000000000E+00  0.00000000000E+00 -0.70613344919E+03  0.32488641151E+04  0.31711975010E+04 0.  0.
        4    1    3    3  502    0  0.53691430356E+03 -0.14551263283E+04 -0.15680452325E+02  0.15511018955E+04  0.12699999809E+01 0.  1.
       -4    1    3    3    0  502 -0.53691430356E+03  0.14551263283E+04 -0.69045299687E+03  0.16977622196E+04  0.12699999809E+01 0. -1.
</event>
<event>
 5   0  0.3830207E-07  0.3099646E+04  0.7818609E-02  0.8215835E-01
        2   -1    0    0  501    0  0.00000000000E+00  0.00000000000E+00  0.20708701512E+04  0.20708701512E+04  0.25500000920E-02 0.  1.
       -2   -1    0    0    0  501  0.00000000000E+00  0.00000000000E+00 -0.11598751116E+04  0.11598751116E+04  0.25500000920E-02 0. -1.
    10030    2    1    2    0    0  0.00000000000E+00  0.00000000000E+00  0.91099503963E+03  0.32307452628E+04  0.30996456234E+04 0.  0.
        4    1    3    3  502    0  0.24673113653E+01 -0.48481436703E+03 -0.10788011681E+04  0.11827360784E+04  0.12699999809E+01 0. -1.
       -4    1    3    3    0  502 -0.24673113653E+01  0.48481436703E+03  0.19897962077E+04  0.20480091843E+04  0.12699999809E+01 0.  1.
</event>
<event>
 5   0  0.1277374E-07  0.3197200E+04  0.7818609E-02  0.8189557E-01
       -1   -1    0    0    0  501  0.00000000000E+00  0.00000000000E+00  0.20516488268E+04  0.20516488268E+04  0.50400001928E-02 0.  1.
        1   -1    0    0  501    0  0.00000000000E+00  0.00000000000E+00 -0.12455943532E+04  0.12455943532E+04  0.50400001928E-02 0. -1.
    10030    2    1    2    0    0  0.00000000000E+00  0.00000000000E+00  0.80605447357E+03  0.32972431800E+04  0.31972001461E+04 0.  0.
        5    1    3    3  502    0  0.18625025724E+03  0.12182351447E+04  0.14530788643E+04  0.19053205247E+04  0.46999998093E+01 0.  1.
       -5    1    3    3    0  502 -0.18625025724E+03 -0.12182351447E+04 -0.64702439075E+03  0.13919226553E+04  0.46999998093E+01 0. -1.
</event>
<event>
 5   0  0.1365455E-07  0.3202381E+04  0.7818609E-02  0.8188189E-01
       -1   -1    0    0    0  501  0.00000000000E+00  0.00000000000E+00  0.19747382843E+04  0.19747382843E+04  0.50400001928E-02 0.  1.
        1   -1    0    0  501    0  0.00000000000E+00  0.00000000000E+00 -0.12983042731E+04  0.12983042731E+04  0.50400001928E-02 0. -1.
    10030    2    1    2    0    0  0.00000000000E+00  0.00000000000E+00  0.67643401119E+03  0.32730425574E+04  0.32023810846E+04 0.  0.
        3    1    3    3  502    0 -0.10745991242E+04 -0.11865034299E+04  0.30197364869E+03  0.16290309272E+04  0.10100000352E+00 0.  1.
       -3    1    3    3    0  502  0.10745991242E+04  0.11865034299E+04  0.37446036249E+03  0.16440116302E+04  0.10100000352E+00 0. -1.
</event>
<event>
 5   0  0.1288096E-07  0.3198193E+04  0.7818609E-02  0.8189295E-01
        1   -1    0    0  501    0  0.00000000000E+00  0.00000000000E+00  0.19741693245E+04  0.19741693245E+04  0.50400001928E-02 0.  1.
       -1   -1    0    0    0  501  0.00000000000E+00  0.00000000000E+00 -0.12952836576E+04  0.12952836576E+04  0.50400001928E-02 0. -1.
    10030    2    1    2    0    0  0.00000000000E+00  0.00000000000E+00  0.67888566691E+03  0.32694529822E+04  0.31981927794E+04 0.  0.
        2    1    3    3  502    0 -0.10473338149E+04 -0.93654659672E+03  0.11200546696E+04  0.17968166603E+04  0.25500000920E-02 0.  1.
       -2    1    3    3    0  502  0.10473338149E+04  0.93654659672E+03 -0.44116900268E+03  0.14726363219E+04  0.25500000920E-02 0. -1.
</event>
<event>
 5   0  0.3830207E-07  0.3198533E+04  0.7818609E-02  0.8189205E-01
       -2   -1    0    0    0  501  0.00000000000E+00  0.00000000000E+00  0.13092736656E+04  0.13092736656E+04  0.25500000920E-02 0.  1.
        2   -1    0    0  501    0  0.00000000000E+00  0.00000000000E+00 -0.19534906760E+04  0.19534906760E+04  0.25500000920E-02 0. -1.
    10030    2    1    2    0    0  0.00000000000E+00  0.00000000000E+00 -0.64421701044E+03  0.32627643416E+04  0.31985333502E+04 0.  0.
        4    1    3    3  502    0 -0.15505574112E+04  0.17789044051E+03  0.33867733280E+02  0.15610963873E+04  0.12699999809E+01 0. -1.
       -4    1    3    3    0  502  0.15505574112E+04 -0.17789044051E+03 -0.67808474372E+03  0.17016679543E+04  0.12699999809E+01 0.  1.
</event>
<event>
 5   0  0.1365455E-07  0.3194629E+04  0.7818609E-02  0.8190237E-01
       -1   -1    0    0    0  501  0.00000000000E+00  0.00000000000E+00  0.16711438774E+04  0.16711438774E+04  0.50400001928E-02 0. -1.
        1   -1    0    0  501    0  0.00000000000E+00  0.00000000000E+00 -0.15267467464E+04  0.15267467464E+04  0.50400001928E-02 0.  1.
    10030    2    1    2    0    0  0.00000000000E+00  0.00000000000E+00  0.14439713105E+03  0.31978906238E+04  0.31946289159E+04 0.  0.
        3    1    3    3  502    0 -0.12545896632E+04  0.74242674202E+03  0.72572099204E+03  0.16284543773E+04  0.10100000352E+00 0. -1.
       -3    1    3    3    0  502  0.12545896632E+04 -0.74242674202E+03 -0.58132386099E+03  0.15694362465E+04  0.10100000352E+00 0.  1.
</event>
<event>
 5   0  0.3858721E-07  0.3170744E+04  0.7818609E-02  0.8196587E-01
       -2   -1    0    0    0  501  0.00000000000E+00  0.00000000000E+00  0.10672365337E+04  0.10672365337E+04  0.25500000920E-02 0. -1.
        2   -1    0    0  501    0  0.00000000000E+00  0.00000000000E+00 -0.23550581317E+04  0.23550581317E+04  0.25500000920E-02 0.  1.
    10030    2    1    2    0    0  0.00000000000E+00  0.00000000000E+00 -0.12878215979E+04  0.34222946654E+04  0.31707438100E+04 0.  0.
        2    1    3    3  502    0  0.49016840651E+03  0.14247317921E+04 -0.11154768004E+03  0.15108172064E+04  0.25500000920E-02 0.  1.
       -2    1    3    3    0  502 -0.49016840651E+03 -0.14247317921E+04 -0.11762739179E+04  0.19114774590E+04  0.25500000920E-02 0. -1.
</event>
<event>
 5   0  0.3830207E-07  0.3198826E+04  0.7818609E-02  0.8189127E-01
       -2   -1    0    0    0  501  0.00000000000E+00  0.00000000000E+00  0.17882838222E+04  0.17882838222E+04  0.25500000920E-02 0. -1.
        2   -1    0    0  501    0  0.00000000000E+00  0.00000000000E+00 -0.14304894947E+04  0.14304894947E+04  0.25500000920E-02 0.  1.
    10030    2    1    2    0    0  0.00000000000E+00  0.00000000000E+00  0.35779432751E+03  0.32187733169E+04  0.31988255477E+04 0.  0.
        4    1    3    3  502    0 -0.52573034343E+03 -0.62792268694E+03 -0.12035115097E+04  0.14557200492E+04  0.12699999809E+01 0.  1.
       -4    1    3    3    0  502  0.52573034343E+03  0.62792268694E+03  0.15613058372E+04  0.17630532677E+04  0.12699999809E+01 0. -1.
</event>
<event>
 5   0  0.1277374E-07  0.3190825E+04  0.7818609E-02  0.8191245E-01
        1   -1    0    0  501    0  0.00000000000E+00  0.00000000000E+00  0.20093044412E+04  0.20093044412E+04  0.50400001928E-02 0.  1.
       -1   -1    0    0    0  501  0.00000000000E+00  0.00000000000E+00 -0.12667770660E+04  0.12667770660E+04  0.50400001928E-02 0. -1.
    10030    2    1    2    0    0  0.00000000000E+00  0.00000000000E+00  0.74252737524E+03  0.32760815072E+04  0.31908248367E+04 0.  0.
        5    1    3    3  502    0 -0.10535143699E+04  0.10857256825E+04 -0.14885443352E+03  0.15201554255E+04  0.46999998093E+01 0. -1.
       -5    1    3    3    0  502  0.10535143699E+04 -0.10857256825E+04  0.89138180875E+03  0.17559260817E+04  0.46999998093E+01 0.  1.
</event>
<event>
 5   0  0.1288096E-07  0.3194065E+04  0.7818609E-02  0.8190386E-01
        1   -1    0    0  501    0  0.00000000000E+00  0.00000000000E+00  0.83181357100E+03  0.83181357101E+03  0.50400001928E-02 0. -1.
       -1   -1    0    0    0  501  0.00000000000E+00  0.00000000000E+00 -0.30662067777E+04  0.30662067777E+04  0.50400001928E-02 0.  1.
    10030    2    1    2    0    0  0.00000000000E+00  0.00000000000E+00 -0.22343932067E+04  0.38980203487E+04  0.31940647515E+04 0.  0.
        2    1    3    3  502    0 -0.13425245381E+04 -0.80466189324E+03 -0.73000333823E+03  0.17270662326E+04  0.25500000920E-02 0. -1.
       -2    1    3    3    0  502  0.13425245381E+04  0.80466189324E+03 -0.15043898685E+04  0.21709541161E+04  0.25500000920E-02 0.  1.
</event>
<event>
 5   0  0.3858721E-07  0.3205296E+04  0.7818609E-02  0.8187420E-01
        2   -1    0    0  501    0  0.00000000000E+00  0.00000000000E+00  0.26060203865E+04  0.26060203865E+04  0.25500000920E-02 0. -1.
       -2   -1    0    0    0  501  0.00000000000E+00  0.00000000000E+00 -0.98559485801E+03  0.98559485801E+03  0.25500000920E-02 0.  1.
    10030    2    1    2    0    0  0.00000000000E+00  0.00000000000E+00  0.16204255285E+04  0.35916152445E+04  0.32052958009E+04 0.  0.
        2    1    3    3  502    0  0.44270209494E+03  0.21947715364E+03 -0.89811072151E+03  0.10250649901E+04  0.25500000920E-02 0.  1.
       -2    1    3    3    0  502 -0.44270209494E+03 -0.21947715364E+03  0.25185362500E+04  0.25665502544E+04  0.25500000920E-02 0. -1.
</event>
<event>
 5   0  0.3942564E-07  0.3195519E+04  0.7818609E-02  0.8190002E-01
        2   -1    0    0  501    0  0.00000000000E+00  0.00000000000E+00  0.16863097659E+04  0.16863097659E+04  0.25500000920E-02 0.  1.
       -2   -1    0    0    0  501  0.00000000000E+00  0.00000000000E+00 -0.15138588106E+04  0.15138588106E+04  0.25500000920E-02 0. -1.
    10030    2    1    2    0    0  0.00000000000E+00  0.00000000000E+00  0.17245095532E+03  0.32001685764E+04  0.31955186724E+04 0.  0.
        3    1    3    3  502    0  0.31366985900E+02 -0.61624942578E+03  0.15621704613E+04  0.16796201365E+04  0.10100000352E+00 0.  1.
       -3    1    3    3    0  502 -0.31366985900E+02  0.61624942578E+03 -0.13897195060E+04  0.15205484399E+04  0.10100000352E+00 0. -1.
</event>
<event>
 5   0  0.3764056E-07  0.3200581E+04  0.7818609E-02  0.8188664E-01
       -2   -1    0    0    0  501  0.00000000000E+00  0.00000000000E+00  0.14496532097E+04  0.14496532097E+04  0.25500000920E-02 0.  1.
        2   -1    0    0  501    0  0.00000000000E+00  0.00000000000E+00 -0.17665808238E+04  0.17665808238E+04  0.25500000920E-02 0. -1.
    10030    2    1    2    0    0  0.00000000000E+00  0.00000000000E+00 -0.31692761410E+03  0.32162340336E+04  0.32005809232E+04 0.  0.
        5    1    3    3  502    0 -0.13476596559E+03 -0.10118304530E+04  0.10800185328E+04  0.14860770007E+04  0.46999998093E+01 0.  1.
       -5    1    3    3    0  502  0.13476596559E+03  0.10118304530E+04 -0.13969461469E+04  0.17301570328E+04  0.46999998093E+01 0. -1.
</event>
<event>
 5   0  0.1288096E-07  0.3197127E+04  0.7818609E-02  0.8189576E-01
        1   -1    0    0  501    0  0.00000000000E+00  0.00000000000E+00  0.13693872700E+04  0.13693872700E+04  0.50400001928E-02 0. -1.
       -1   -1    0    0    0  501  0.00000000000E+00  0.00000000000E+00 -0.18660936302E+04  0.18660936302E+04  0.50400001928E-02 0.  1.
    10030    2    1    2    0    0  0.00000000000E+00  0.00000000000E+00 -0.49670636020E+03  0.32354809003E+04  0.31971267488E+04 0.  0.
        2    1    3    3  502    0 -0.56553072247E+03  0.14564951252E+04 -0.59034481864E+03  0.16702425131E+04  0.25500000920E-02 0. -1.
       -2    1    3    3    0  502  0.56553072247E+03 -0.14564951252E+04  0.93638458442E+02  0.15652383872E+04  0.25500000920E-02 0.  1.
</event>
<event>
 5   0  0.3858721E-07  0.3200077E+04  0.7818609E-02  0.8188797E-01
        2   -1    0    0  501    0  0.00000000000E+00  0.00000000000E+00  0.17313742597E+04  0.17313742597E+04  0.25500000920E-02 0.  1.
       -2   -1    0    0    0  501  0.00000000000E+00  0.00000000000E+00 -0.14786652413E+04  0.14786652413E+04  0.25500000920E-02 0. -1.
    10030    2    1    2    0    0  0.00000000000E+00  0.00000000000E+00  0.25270901838E+03  0.32100395010E+04  0.32000768350E+04 0.  0.
        2    1    3    3  502    0 -0.26345174159E+03  0.13839969396E+04 -0.63447141287E+03  0.15451240477E+04  0.25500000920E-02 0. -1.
       -2    1    3    3    0  502  0.26345174159E+03 -0.13839969396E+04  0.88718043126E+03  0.16649154533E+04  0.25500000920E-02 0.  1.
</event>
<event>
 5   0  0.1288096E-07  0.3201058E+04  0.7818609E-02  0.8188538E-01
        1   -1    0    0  501    0  0.00000000000E+00  0.00000000000E+00  0.17344185782E+04  0.17344185782E+04  0.50400001928E-02 0.  1.
       -1   -1    0    0    0  501  0.00000000000E+00  0.00000000000E+00 -0.14769751703E+04  0.14769751703E+04  0.50400001928E-02 0. -1.
    10030    2    1    2    0    0  0.00000000000E+00  0.00000000000E+00  0.25744340790E+03  0.32113937486E+04  0.32010580595E+04 0.  0.
        2    1    3    3  502    0  0.11410210757E+04  0.45407860157E+03  0.11584747513E+04  0.16882476776E+04  0.25500000920E-02 0.  1.
       -2    1    3    3    0  502 -0.11410210757E+04 -0.45407860157E+03 -0.90103134339E+03  0.15231460709E+04  0.25500000920E-02 0. -1.
</event>
<event>
 5   0  0.3764056E-07  0.3200157E+04  0.7818609E-02  0.8188776E-01
       -2   -1    0    0    0  501  0.00000000000E+00  0.00000000000E+00  0.15973036438E+04  0.15973036438E+04  0.25500000920E-02 0. -1.
        2   -1    0    0  501    0  0.00000000000E+00  0.00000000000E+00 -0.16028584929E+04  0.16028584929E+04  0.25500000920E-02 0.  1.
    10030    2    1    2    0    0  0.00000000000E+00  0.00000000000E+00 -0.55548491089E+01  0.32001621366E+04  0.32001573156E+04 0.  0.
        5    1    3    3  502    0 -0.51788437486E+03 -0.72932837101E+03  0.13239142600E+04  0.15977781937E+04  0.46999998093E+01 0. -1.
       -5    1    3    3    0  502  0.51788437486E+03  0.72932837101E+03 -0.13294691091E+04  0.16023839429E+04  0.46999998093E+01 0.  1.
</event>
<event>
 5   0  0.1317293E-07  0.3199053E+04  0.7818609E-02  0.8189067E-01
       -1   -1    0    0    0  501  0.00000000000E+00  0.00000000000E+00  0.10894440034E+04  0.10894440034E+04  0.50400001928E-02 0. -1.
        1   -1    0    0  501    0  0.00000000000E+00  0.00000000000E+00 -0.23484325612E+04  0.23484325612E+04  0.50400001928E-02 0.  1.
    10030    2    1    2    0    0  0.00000000000E+00  0.00000000000E+00 -0.12589885578E+04  0.34378765647E+04  0.31990534671E+04 0.  0.
        1    1    3    3  502    0  0.40272470878E+03  0.44449628273E+03 -0.22230010224E+04  0.23024981395E+04  0.50400001928E-02 0.  1.
       -1    1    3    3    0  502 -0.40272470878E+03 -0.44449628273E+03  0.96401246462E+03  0.11353784252E+04  0.50400001928E-02 0. -1.
</event>
<event>
 5   0  0.1270948E-07  0.3196671E+04  0.7818609E-02  0.8189697E-01
        1   -1    0    0  501    0  0.00000000000E+00  0.00000000000E+00  0.29844313155E+04  0.29844313155E+04  0.50400001928E-02 0.  1.
       -1   -1    0    0    0  501  0.00000000000E+00  0.00000000000E+00 -0.85600108071E+03  0.85600108072E+03  0.50400001928E-02 0. -1.
    10030    2    1    2    0    0  0.00000000000E+00  0.00000000000E+00  0.21284302348E+04  0.38404323962E+04  0.31966710381E+04 0.  0.
        4    1    3    3  502    0 -0.10766669896E+04 -0.21993214755E+03  0.24585944778E+04  0.26930039686E+04  0.12699999809E+01 0.  1.
       -4    1    3    3    0  502  0.10766669896E+04  0.21993214755E+03 -0.33016424301E+03  0.11474284276E+04  0.12699999809E+01 0. -1.
</event>
<event>
 5   0  0.1317293E-07  0.3197205E+04  0.7818609E-02  0.8189556E-01
        1   -1    0    0  501    0  0.00000000000E+00  0.00000000000E+00  0.27105725615E+04  0.27105725615E+04  0.50400001928E-02 0.  1.
       -1   -1    0    0    0  501  0.00000000000E+00  0.00000000000E+00 -0.94280101113E+03  0.94280101115E+03  0.50400001928E-02 0. -1.
    10030    2    1    2    0    0  0.00000000000E+00  0.00000000000E+00  0.17677715504E+04  0.36533735726E+04  0.31972053745E+04 0.  0.
        1    1    3    3  502    0 -0.72201027332E+03 -0.14195026301E+03  0.25055543666E+04  0.26113696399E+04  0.50400001928E-02 0.  1.
       -1    1    3    3    0  502  0.72201027332E+03  0.14195026301E+03 -0.73778281625E+03  0.10420039328E+04  0.50400001928E-02 0. -1.
</event>
<event>
 5   0  0.3764056E-07  0.3216672E+04  0.7818609E-02  0.8184428E-01
       -2   -1    0    0    0  501  0.00000000000E+00  0.00000000000E+00  0.16726712356E+04  0.16726712356E+04  0.25500000920E-02 0.  1.
        2   -1    0    0  501    0  0.00000000000E+00  0.00000000000E+00 -0.15464750916E+04  0.15464750916E+04  0.25500000920E-02 0. -1.
    10030    2    1    2    0    0  0.00000000000E+00  0.00000000000E+00  0.12619614402E+03  0.32191463272E+04  0.32166718218E+04 0.  0.
        5    1    3    3  502    0  0.11790705910E+04  0.88661258298E+03 -0.57804520058E+03  0.15844392304E+04  0.46999998093E+01 0. -1.
       -5    1    3    3    0  502 -0.11790705910E+04 -0.88661258298E+03  0.70424134459E+03  0.16347070968E+04  0.46999998093E+01 0.  1.
</event>
<event>
 5   0  0.1277374E-07  0.3211121E+04  0.7818609E-02  0.8185886E-01
       -1   -1    0    0    0  501  0.00000000000E+00  0.00000000000E+00  0.19597910810E+04  0.19597910810E+04  0.50400001928E-02 0. -1.
        1   -1    0    0  501    0  0.00000000000E+00  0.00000000000E+00 -0.13153565348E+04  0.13153565349E+04  0.50400001928E-02 0.  1.
    10030    2    1    2    0    0  0.00000000000E+00  0.00000000000E+00  0.64443454612E+03  0.32751476158E+04  0.32111206799E+04 0.  0.
        5    1    3    3  502    0  0.14200267856E+04 -0.42616256539E+03 -0.30627655752E+03  0.15139081953E+04  0.46999998093E+01 0.  1.
       -5    1    3    3    0  502 -0.14200267856E+04  0.42616256539E+03  0.95071110364E+03  0.17612394206E+04  0.46999998093E+01 0. -1.
</event>
<event>
 5   0  0.1365455E-07  0.3194996E+04  0.7818609E-02  0.8190140E-01
        1   -1    0    0  501    0  0.00000000000E+00  0.00000000000E+00  0.18635741227E+04  0.18635741227E+04  0.50400001928E-02 0.  1.
       -1   -1    0    0    0  501  0.00000000000E+00  0.00000000000E+00 -0.13694117448E+04  0.13694117448E+04  0.50400001928E-02 0. -1.
    10030    2    1    2    0    0  0.00000000000E+00  0.00000000000E+00  0.49416237792E+03  0.32329858675E+04  0.31949962697E+04 0.  0.
        3    1    3    3  502    0 -0.28281201377E+03  0.37933292990E+03  0.17910428818E+04  0.18524877116E+04  0.10100000352E+00 0.  1.
       -3    1    3    3    0  502  0.28281201377E+03 -0.37933292990E+03 -0.12968805039E+04  0.13804981559E+04  0.10100000352E+00 0. -1.
</event>
<event>
 5   0  0.3750285E-07  0.3204026E+04  0.7818609E-02  0.8187755E-01
       -2   -1    0    0    0  501  0.00000000000E+00  0.00000000000E+00  0.31411461353E+04  0.31411461353E+04  0.25500000920E-02 0.  1.
        2   -1    0    0  501    0  0.00000000000E+00  0.00000000000E+00 -0.81704093255E+03  0.81704093255E+03  0.25500000920E-02 0. -1.
    10030    2    1    2    0    0  0.00000000000E+00  0.00000000000E+00  0.23241052027E+04  0.39581870678E+04  0.32040255727E+04 0.  0.
        1    1    3    3  502    0  0.97426930168E+02  0.92866966512E+03  0.27701946613E+04  0.29233367604E+04  0.50400001928E-02 0.  1.
       -1    1    3    3    0  502 -0.97426930168E+02 -0.92866966512E+03 -0.44608945855E+03  0.10348503074E+04  0.50400001928E-02 0. -1.
</event>
<event>
 5   0  0.1365455E-07  0.3201457E+04  0.7818609E-02  0.8188433E-01
        1   -1    0    0  501    0  0.00000000000E+00  0.00000000000E+00  0.22883426453E+04  0.22883426453E+04  0.50400001928E-02 0. -1.
       -1   -1    0    0    0  501  0.00000000000E+00  0.00000000000E+00 -0.11197324296E+04  0.11197324297E+04  0.50400001928E-02 0.  1.
    10030    2    1    2    0    0  0.00000000000E+00  0.00000000000E+00  0.11686102157E+04  0.34080750750E+04  0.32014568372E+04 0.  0.
        3    1    3    3  502    0  0.12418265515E+04  0.53401602085E+03 -0.32836243581E+03  0.13910888519E+04  0.10100000352E+00 0.  1.
       -3    1    3    3    0  502 -0.12418265515E+04 -0.53401602085E+03  0.14969726515E+04  0.20169862230E+04  0.10100000352E+00 0. -1.
</event>
<event>
 5   0  0.3942564E-07  0.3190085E+04  0.7818609E-02  0.8191441E-01
        2   -1    0    0  501    0  0.00000000000E+00  0.00000000000E+00  0.28314446010E+04  0.28314446010E+04  0.25500000920E-02 0.  1.
       -2   -1    0    0    0  501  0.00000000000E+00  0.00000000000E+00 -0.89853808402E+03  0.89853808402E+03  0.25500000920E-02 0. -1.
    10030    2    1    2    0    0  0.00000000000E+00  0.00000000000E+00  0.19329065170E+04  0.37299826851E+04  0.31900851442E+04 0.  0.
        3    1    3    3  502    0 -0.22118795556E+03 -0.84089878392E+03 -0.59706727967E+03  0.10547626383E+04  0.10100000352E+00 0. -1.
       -3    1    3    3    0  502  0.22118795556E+03  0.84089878392E+03  0.25299737967E+04  0.26752200468E+04  0.10100000352E+00 0.  1.
</event>
<event>
 5   0  0.1317293E-07  0.3163075E+04  0.7818609E-02  0.8198638E-01
       -1   -1    0    0    0  501  0.00000000000E+00  0.00000000000E+00  0.16808805391E+04  0.16808805392E+04  0.50400001928E-02 0.  1.
        1   -1    0    0  501    0  0.00000000000E+00  0.00000000000E+00 -0.14880656653E+04  0.14880656653E+04  0.50400001928E-02 0. -1.
    10030    2    1    2    0    0  0.00000000000E+00  0.00000000000E+00  0.19281487388E+03  0.31689462044E+04  0.31630748443E+04 0.  0.
        1    1    3    3  502    0  0.15451268863E+04 -0.27878278184E+03 -0.94007674758E+02  0.15728872742E+04  0.50400001928E-02 0. -1.
       -1    1    3    3    0  502 -0.15451268863E+04  0.27878278184E+03  0.28682254864E+03  0.15960589302E+04  0.50400001928E-02 0.  1.
</event>
<event>
 5   0  0.1317293E-07  0.3174876E+04  0.7818609E-02  0.8195484E-01
        1   -1    0    0  501    0  0.00000000000E+00  0.00000000000E+00  0.19396053997E+04  0.19396053997E+04  0.50400001928E-02 0.  1.
       -1   -1    0    0    0  501  0.00000000000E+00  0.00000000000E+00 -0.12992123147E+04  0.12992123147E+04  0.50400001928E-02 0. -1.
    10030    2    1    2    0    0  0.00000000000E+00  0.00000000000E+00  0.64039308500E+03  0.32388177145E+04  0.31748758849E+04 0.  0.
        1    1    3    3  502    0  0.46660528000E+03  0.10931013635E+03  0.18640461613E+04  0.19246654994E+04  0.50400001928E-02 0.  1.
       -1    1    3    3    0  502 -0.46660528000E+03 -0.10931013635E+03 -0.12236530763E+04  0.13141522151E+04  0.50400001928E-02 0. -1.
</event>
<event>
 5   0  0.3750285E-07  0.3200134E+04  0.7818609E-02  0.8188782E-01
        2   -1    0    0  501    0  0.00000000000E+00  0.00000000000E+00  0.21318078219E+04  0.21318078219E+04  0.25500000920E-02 0.  1.
       -2   -1    0    0    0  501  0.00000000000E+00  0.00000000000E+00 -0.12009595485E+04  0.12009595485E+04  0.25500000920E-02 0. -1.
    10030    2    1    2    0    0  0.00000000000E+00  0.00000000000E+00  0.93084827339E+03  0.33327673705E+04  0.32001343468E+04 0.  0.
        1    1    3    3  502    0 -0.86764975065E+03  0.11489749281E+04  0.11923919077E+04  0.18694271681E+04  0.50400001928E-02 0.  1.
       -1    1    3    3    0  502  0.86764975065E+03 -0.11489749281E+04 -0.26154363427E+03  0.14633402024E+04  0.50400001928E-02 0. -1.
</event>
<event>
 5   0  0.1365455E-07  0.3198751E+04  0.7818609E-02  0.8189147E-01
       -1   -1    0    0    0  501  0.00000000000E+00  0.00000000000E+00  0.12423786083E+04  0.12423786083E+04  0.50400001928E-02 0.  1.
        1   -1    0    0  501    0  0.00000000000E+00  0.00000000000E+00 -0.20589558885E+04  0.20589558885E+04  0.50400001928E-02 0. -1.
    10030    2    1    2    0    0  0.00000000000E+00  0.00000000000E+00 -0.81657728024E+03  0.33013344969E+04  0.31987514760E+04 0.  0.
        3    1    3    3  502    0  0.78264299292E+03  0.12618524092E+04  0.20507793554E+03  0.14989524765E+04  0.10100000352E+00 0.  1.
       -3    1    3    3    0  502 -0.78264299292E+03 -0.12618524092E+04 -0.10216552158E+04  0.18023820203E+04  0.10100000352E+00 0. -1.
</event>
<event>
 5   0  0.1317293E-07  0.3202479E+04  0.7818609E-02  0.8188163E-01
        1   -1    0    0  501    0  0.00000000000E+00  0.00000000000E+00  0.17281896925E+04  0.17281896925E+04  0.50400001928E-02 0. -1.
       -1   -1    0    0    0  501  0.00000000000E+00  0.00000000000E+00 -0.14836153094E+04  0.14836153094E+04  0.50400001928E-02 0.  1.
    10030    2    1    2    0    0  0.00000000000E+00  0.00000000000E+00  0.24457438316E+03  0.32118050019E+04  0.32024794677E+04 0.  0.
        1    1    3    3  502    0 -0.11676139848E+04  0.55239466361E+03 -0.82678044466E+03  0.15336323502E+04  0.50400001928E-02 0.  1.
       -1    1    3    3    0  502  0.11676139848E+04 -0.55239466361E+03  0.10713548278E+04  0.16781726517E+04  0.50400001928E-02 0. -1.
</event>
<event>
 5   0  0.3942564E-07  0.3200425E+04  0.7818609E-02  0.8188705E-01
       -2   -1    0    0    0  501  0.00000000000E+00  0.00000000000E+00  0.81518456287E+03  0.81518456288E+03  0.25500000920E-02 0.  1.
        2   -1    0    0  501    0  0.00000000000E+00  0.00000000000E+00 -0.31412279467E+04  0.31412279467E+04  0.25500000920E-02 0. -1.
    10030    2    1    2    0    0  0.00000000000E+00  0.00000000000E+00 -0.23260433838E+04  0.39564125095E+04  0.32004253034E+04 0.  0.
        3    1    3    3  502    0 -0.14909007597E+04 -0.24409120329E+03 -0.51084973145E+03  0.15947830728E+04  0.10100000352E+00 0.  1.
       -3    1    3    3    0  502  0.14909007597E+04  0.24409120329E+03 -0.18151936523E+04  0.23616294368E+04  0.10100000352E+00 0. -1.
</event>
<event>
 5   0  0.3764056E-07  0.3270152E+04  0.7818609E-02  0.8170532E-01
        2   -1    0    0  501    0  0.00000000000E+00  0.00000000000E+00  0.20612465204E+04  0.20612465204E+04  0.25500000920E-02 0. -1.
       -2   -1    0    0    0  501  0.00000000000E+00  0.00000000000E+00 -0.12970178883E+04  0.12970178884E+04  0.25500000920E-02 0.  1.
    10030    2    1    2    0    0  0.00000000000E+00  0.00000000000E+00  0.76422863205E+03  0.33582644088E+04  0.32701520511E+04 0.  0.
        5    1    3    3  502    0 -0.59684254062E+03 -0.91316278930E+03  0.16328652626E+04  0.19637612772E+04  0.46999998093E+01 0. -1.
       -5    1    3    3    0  502  0.59684254062E+03  0.91316278930E+03 -0.86863663052E+03  0.13945031316E+04  0.46999998093E+01 0.  1.
</event>
<event>
 5   0  0.3858721E-07  0.3185113E+04  0.7818609E-02  0.8192760E-01
        2   -1    0    0  501    0  0.00000000000E+00  0.00000000000E+00  0.25512854383E+04  0.25512854383E+04  0.25500000920E-02 0. -1.
       -2   -1    0    0    0  501  0.00000000000E+00  0.00000000000E+00 -0.99410100543E+03  0.99410100543E+03  0.25500000920E-02 0.  1.
    10030    2    1    2    0    0  0.00000000000E+00  0.00000000000E+00  0.15571844328E+04  0.35453864437E+04  0.31851125062E+04 0.  0.
        2    1    3    3  502    0 -0.62657741133E+03  0.81143902130E+03 -0.57794494058E+03  0.11768827010E+04  0.25500000920E-02 0.  1.
       -2    1    3    3    0  502  0.62657741133E+03 -0.81143902130E+03  0.21351293734E+04  0.23685037426E+04  0.25500000920E-02 0. -1.
</event>
<event>
 5   0  0.3858721E-07  0.3199095E+04  0.7818609E-02  0.8189056E-01
        2   -1    0    0  501    0  0.00000000000E+00  0.00000000000E+00  0.22982958597E+04  0.22982958597E+04  0.25500000920E-02 0. -1.
       -2   -1    0    0    0  501  0.00000000000E+00  0.00000000000E+00 -0.11132388799E+04  0.11132388799E+04  0.25500000920E-02 0.  1.
    10030    2    1    2    0    0  0.00000000000E+00  0.00000000000E+00  0.11850569798E+04  0.34115347395E+04  0.31990950648E+04 0.  0.
        2    1    3    3  502    0 -0.49503500297E+03  0.13217023958E+04 -0.21018245819E+03  0.14269315130E+04  0.25500000920E-02 0.  1.
       -2    1    3    3    0  502  0.49503500297E+03 -0.13217023958E+04  0.13952394380E+04  0.19846032265E+04  0.25500000920E-02 0. -1.
</event>
<event>
 5   0  0.3942564E-07  0.3198563E+04  0.7818609E-02  0.8189197E-01
       -2   -1    0    0    0  501  0.00000000000E+00  0.00000000000E+00  0.18964453873E+04  0.18964453873E+04  0.25500000920E-02 0.  1.
        2   -1    0    0  501    0  0.00000000000E+00  0.00000000000E+00 -0.13486816802E+04  0.13486816802E+04  0.25500000920E-02 0. -1.
    10030    2    1    2    0    0  0.00000000000E+00  0.00000000000E+00  0.54776370707E+03  0.32451270675E+04  0.31985628969E+04 0.  0.
        3    1    3    3  502    0  0.55860782979E+02  0.10367175397E+04  0.15080602783E+04  0.18308876255E+04  0.10100000352E+00 0.  1.
       -3    1    3    3    0  502 -0.55860782979E+02 -0.10367175397E+04 -0.96029657118E+03  0.14142394419E+04  0.10100000352E+00 0. -1.
</event>
<event>
 5   0  0.1288096E-07  0.3200684E+04  0.7818609E-02  0.8188637E-01
        1   -1    0    0  501    0  0.00000000000E+00  0.00000000000E+00  0.24717646465E+04  0.24717646465E+04  0.50400001928E-02 0. -1.
       -1   -1    0    0    0  501  0.00000000000E+00  0.00000000000E+00 -0.10361399016E+04  0.10361399016E+04  0.50400001928E-02 0.  1.
    10030    2    1    2    0    0  0.00000000000E+00  0.00000000000E+00  0.14356247449E+04  0.35079045481E+04  0.32006836630E+04 0.  0.
        2    1    3    3  502    0  0.77962603910E+03 -0.22311582955E+03 -0.79428953280E+03  0.11351181860E+04  0.25500000920E-02 0.  1.
       -2    1    3    3    0  502 -0.77962603910E+03  0.22311582955E+03  0.22299142777E+04  0.23727863621E+04  0.25500000920E-02 0. -1.
</event>
<event>
 5   0  0.3750285E-07  0.3196102E+04  0.7818609E-02  0.8189847E-01
       -2   -1    0    0    0  501  0.00000000000E+00  0.00000000000E+00  0.13877583941E+04  0.13877583941E+04  0.25500000920E-02 0.  1.
        2   -1    0    0  501    0  0.00000000000E+00  0.00000000000E+00 -0.18402102140E+04  0.18402102140E+04  0.25500000920E-02 0. -1.
    10030    2    1    2    0    0  0.00000000000E+00  0.00000000000E+00 -0.45245181994E+03  0.32279686081E+04  0.31961021081E+04 0.  0.
        1    1    3    3  502    0  0.87620122530E+03  0.31453559095E+03 -0.15380627865E+04  0.17978593829E+04  0.50400001928E-02 0. -1.
       -1    1    3    3    0  502 -0.87620122530E+03 -0.31453559095E+03  0.10856109666E+04  0.14301092252E+04  0.50400001928E-02 0.  1.
</event>
<event>
 5   0  0.1365455E-07  0.3202218E+04  0.7818609E-02  0.8188232E-01
        1   -1    0    0  501    0  0.00000000000E+00  0.00000000000E+00  0.19375086013E+04  0.19375086013E+04  0.50400001928E-02 0.  1.
       -1   -1    0    0    0  501  0.00000000000E+00  0.00000000000E+00 -0.13231163133E+04  0.13231163133E+04  0.50400001928E-02 0. -1.
    10030    2    1    2    0    0  0.00000000000E+00  0.00000000000E+00  0.61439228804E+03  0.32606249146E+04  0.32022175051E+04 0.  0.
        3    1    3    3  502    0 -0.54618645045E+03  0.66805888282E+03  0.16804715439E+04  0.18890756813E+04  0.10100000352E+00 0.  1.
       -3    1    3    3    0  502  0.54618645045E+03 -0.66805888282E+03 -0.10660792558E+04  0.13715492333E+04  0.10100000352E+00 0. -1.
</event>
<event>
 5   0  0.1365455E-07  0.3186880E+04  0.7818609E-02  0.8192291E-01
       -1   -1    0    0    0  501  0.00000000000E+00  0.00000000000E+00  0.14716612591E+04  0.14716612591E+04  0.50400001928E-02 0. -1.
        1   -1    0    0  501    0  0.00000000000E+00  0.00000000000E+00 -0.17252955786E+04  0.17252955786E+04  0.50400001928E-02 0.  1.
    10030    2    1    2    0    0  0.00000000000E+00  0.00000000000E+00 -0.25363431951E+03  0.31969568377E+04  0.31868797678E+04 0.  0.
        3    1    3    3  502    0  0.73715205893E+02  0.41446123544E+03  0.14148698123E+04  0.14761668751E+04  0.10100000352E+00 0. -1.
       -3    1    3    3    0  502 -0.73715205893E+02 -0.41446123544E+03 -0.16685041318E+04  0.17207899626E+04  0.10100000352E+00 0.  1.
</event>
<event>
 5   0  0.1270948E-07  0.3201678E+04  0.7818609E-02  0.8188374E-01
        1   -1    0    0  501    0  0.00000000000E+00  0.00000000000E+00  0.13185195207E+04  0.13185195207E+04  0.50400001928E-02 0.  1.
       -1   -1    0    0    0  501  0.00000000000E+00  0.00000000000E+00 -0.19436083867E+04  0.19436083867E+04  0.50400001928E-02 0. -1.
    10030    2    1    2    0    0  0.00000000000E+00  0.00000000000E+00 -0.62508886598E+03  0.32621279075E+04  0.32016780591E+04 0.  0.
        4    1    3    3  502    0 -0.11524570901E+04  0.71536631757E+03  0.55367054715E+03  0.14650798614E+04  0.12699999809E+01 0.  1.
       -4    1    3    3    0  502  0.11524570901E+04 -0.71536631757E+03 -0.11787594131E+04  0.17970480460E+04  0.12699999809E+01 0. -1.
</event>
<event>
 5   0  0.3830207E-07  0.3203153E+04  0.7818609E-02  0.8187985E-01
        2   -1    0    0  501    0  0.00000000000E+00  0.00000000000E+00  0.10656800988E+04  0.10656800989E+04  0.25500000920E-02 0. -1.
       -2   -1    0    0    0  501  0.00000000000E+00  0.00000000000E+00 -0.24069572972E+04  0.24069572972E+04  0.25500000920E-02 0.  1.
    10030    2    1    2    0    0  0.00000000000E+00  0.00000000000E+00 -0.13412771984E+04  0.34726373961E+04  0.32031525037E+04 0.  0.
        4    1    3    3  502    0 -0.13437863697E+04 -0.86992654488E+03 -0.61631425365E+03  0.17153363732E+04  0.12699999809E+01 0.  1.
       -4    1    3    3    0  502  0.13437863697E+04  0.86992654488E+03 -0.72496294471E+03  0.17573010229E+04  0.12699999809E+01 0. -1.
</event>
<event>
 5   0  0.1365455E-07  0.3203363E+04  0.7818609E-02  0.8187930E-01
       -1   -1    0    0    0  501  0.00000000000E+00  0.00000000000E+00  0.22563958231E+04  0.22563958231E+04  0.50400001928E-02 0.  1.
        1   -1    0    0  501    0  0.00000000000E+00  0.00000000000E+00 -0.11369386716E+04  0.11369386716E+04  0.50400001928E-02 0. -1.
    10030    2    1    2    0    0  0.00000000000E+00  0.00000000000E+00  0.11194571515E+04  0.33933344947E+04  0.32033630264E+04 0.  0.
        3    1    3    3  502    0  0.96919069747E+03  0.89044409589E+03  0.15266369798E+04  0.20156492190E+04  0.10100000352E+00 0.  1.
       -3    1    3    3    0  502 -0.96919069747E+03 -0.89044409589E+03 -0.40717982826E+03  0.13776852756E+04  0.10100000352E+00 0. -1.
</event>
<event>
 5   0  0.3764056E-07  0.3198626E+04  0.7818609E-02  0.8189180E-01
        2   -1    0    0  501    0  0.00000000000E+00  0.00000000000E+00  0.72433492373E+03  0.72433492374E+03  0.25500000920E-02 0. -1.
       -2   -1    0    0    0  501  0.00000000000E+00  0.00000000000E+00 -0.35312421109E+04  0.35312421109E+04  0.25500000920E-02 0.  1.
    10030    2    1    2    0    0  0.00000000000E+00  0.00000000000E+00 -0.28069071872E+04  0.42555770347E+04  0.31986259457E+04 0.  0.
        5    1    3    3  502    0 -0.12413179079E+04  0.81271994275E+03 -0.21977112986E+04  0.26516675688E+04  0.46999998093E+01 0.  1.
       -5    1    3    3    0  502  0.12413179079E+04 -0.81271994275E+03 -0.60919588865E+03  0.16039094658E+04  0.46999998093E+01 0. -1.
</event>
<event>
 5   0  0.1365455E-07  0.3188556E+04  0.7818609E-02  0.8191846E-01
       -1   -1    0    0    0  501  0.00000000000E+00  0.00000000000E+00  0.94646700644E+03  0.94646700646E+03  0.50400001928E-02 0. -1.
        1   -1    0    0  501    0  0.00000000000E+00  0.00000000000E+00 -0.26854842867E+04  0.26854842867E+04  0.50400001928E-02 0.  1.
    10030    2    1    2    0    0  0.00000000000E+00  0.00000000000E+00 -0.17390172802E+04  0.36319512931E+04  0.31885559576E+04 0.  0.
        3    1    3    3  502    0 -0.15209737651E+04 -0.61024773243E+02 -0.32964178754E+03  0.15574816003E+04  0.10100000352E+00 0. -1.
       -3    1    3    3    0  502  0.15209737651E+04  0.61024773243E+02 -0.14093754927E+04  0.20744696928E+04  0.10100000352E+00 0.  1.
</event>
<event>
 5   0  0.3750285E-07  0.3196854E+04  0.7818609E-02  0.8189648E-01
        2   -1    0    0  501    0  0.00000000000E+00  0.00000000000E+00  0.22451607053E+04  0.22451607053E+04  0.25500000920E-02 0. -1.
       -2   -1    0    0    0  501  0.00000000000E+00  0.00000000000E+00 -0.11379896586E+04  0.11379896586E+04  0.25500000920E-02 0.  1.
    10030    2    1    2    0    0  0.00000000000E+00  0.00000000000E+00  0.11071710467E+04  0.33831503639E+04  0.31968544944E+04 0.  0.
        1    1    3    3  502    0 -0.52795624157E+03 -0.13878205936E+04 -0.72664479540E+02  0.14866283730E+04  0.50400001928E-02 0.  1.
       -1    1    3    3    0  502  0.52795624157E+03  0.13878205936E+04  0.11798355262E+04  0.18965219909E+04  0.50400001928E-02 0. -1.
</event>
<event>
 5   0  0.1365455E-07  0.3198405E+04  0.7818609E-02  0.8189239E-01
        1   -1    0    0  501    0  0.00000000000E+00  0.00000000000E+00  0.20572518707E+04  0.20572518707E+04  0.50400001928E-02 0.  1.
       -1   -1    0    0    0  501  0.00000000000E+00  0.00000000000E+00 -0.12431379533E+04  0.12431379533E+04  0.50400001928E-02 0. -1.
    10030    2    1    2    0    0  0.00000000000E+00  0.00000000000E+00  0.81411391743E+03  0.33003898240E+04  0.31984045272E+04 0.  0.
        3    1    3    3  502    0  0.84100786270E+03 -0.64084974925E+03  0.16450905813E+04  0.19555832013E+04  0.10100000352E+00 0.  1.
       -3    1    3    3    0  502 -0.84100786270E+03  0.64084974925E+03 -0.83097666389E+03  0.13448066227E+04  0.10100000352E+00 0. -1.
</event>
<event>
 5   0  0.3764056E-07  0.3197697E+04  0.7818609E-02  0.8189426E-01
        2   -1    0    0  501    0  0.00000000000E+00  0.00000000000E+00  0.25101357847E+04  0.25101357847E+04  0.25500000920E-02 0.  1.
       -2   -1    0    0    0  501  0.00000000000E+00  0.00000000000E+00 -0.10183979302E+04  0.10183979302E+04  0.25500000920E-02 0. -1.
    10030    2    1    2    0    0  0.00000000000E+00  0.00000000000E+00  0.14917378545E+04  0.35285337149E+04  0.31976973513E+04 0.  0.
        5    1    3    3  502    0  0.12789458719E+04  0.16997700190E+03  0.17878656766E+04  0.22047858154E+04  0.46999998093E+01 0.  1.
       -5    1    3    3    0  502 -0.12789458719E+04 -0.16997700190E+03 -0.29612782215E+03  0.13237478995E+04  0.46999998093E+01 0. -1.
</event>
<event>
 5   0  0.3942564E-07  0.3202024E+04  0.7818609E-02  0.8188283E-01
       -2   -1    0    0    0  501  0.00000000000E+00  0.00000000000E+00  0.13926508011E+04  0.13926508011E+04  0.25500000920E-02 0. -1.
        2   -1    0    0  501    0  0.00000000000E+00  0.00000000000E+00 -0.18405473188E+04  0.18405473188E+04  0.25500000920E-02 0.  1.
    10030    2    1    2    0    0  0.00000000000E+00  0.00000000000E+00 -0.44789651776E+03  0.32331981199E+04  0.32020241711E+04 0.  0.
        3    1    3    3  502    0  0.32512146855E+03 -0.89122191200E+03  0.10782816978E+04  0.14362005068E+04  0.10100000352E+00 0. -1.
       -3    1    3    3    0  502 -0.32512146855E+03  0.89122191200E+03 -0.15261782155E+04  0.17969976131E+04  0.10100000352E+00 0.  1.
</event>
<event>
 5   0  0.3942564E-07  0.3200533E+04  0.7818609E-02  0.8188676E-01
       -2   -1    0    0    0  501  0.00000000000E+00  0.00000000000E+00  0.18283777955E+04  0.18283777955E+04  0.25500000920E-02 0. -1.
        2   -1    0    0  501    0  0.00000000000E+00  0.00000000000E+00 -0.14006148126E+04  0.14006148126E+04  0.25500000920E-02 0.  1.
    10030    2    1    2    0    0  0.00000000000E+00  0.00000000000E+00  0.42776298290E+03  0.32289926081E+04  0.32005330952E+04 0.  0.
        3    1    3    3  502    0 -0.30689637613E+03 -0.41836473432E+03  0.17411584178E+04  0.18168233493E+04  0.10100000352E+00 0. -1.
       -3    1    3    3    0  502  0.30689637613E+03  0.41836473432E+03 -0.13133954349E+04  0.14121692587E+04  0.10100000352E+00 0.  1.
</event>
<event>
 5   0  0.1317293E-07  0.3195902E+04  0.7818609E-02  0.8189900E-01
       -1   -1    0    0    0  501  0.00000000000E+00  0.00000000000E+00  0.11922167560E+04  0.11922167560E+04  0.50400001928E-02 0.  1.
        1   -1    0    0  501    0  0.00000000000E+00  0.00000000000E+00 -0.21417650564E+04  0.21417650564E+04  0.50400001928E-02 0. -1.
    10030    2    1    2    0    0  0.00000000000E+00  0.00000000000E+00 -0.94954830041E+03  0.33339818125E+04  0.31959024940E+04 0.  0.
        1    1    3    3  502    0 -0.57710539431E+03  0.13128955149E+04 -0.12099954183E+04  0.18763886009E+04  0.50400001928E-02 0. -1.
       -1    1    3    3    0  502  0.57710539431E+03 -0.13128955149E+04  0.26044711791E+03  0.14575932116E+04  0.50400001928E-02 0.  1.
</event>
<event>
 5   0  0.1270948E-07  0.3197649E+04  0.7818609E-02  0.8189438E-01
       -1   -1    0    0    0  501  0.00000000000E+00  0.00000000000E+00  0.17066003781E+04  0.17066003781E+04  0.50400001928E-02 0.  1.
        1   -1    0    0  501    0  0.00000000000E+00  0.00000000000E+00 -0.14978550239E+04  0.14978550239E+04  0.50400001928E-02 0. -1.
    10030    2    1    2    0    0  0.00000000000E+00  0.00000000000E+00  0.20874535420E+03  0.32044554020E+04  0.31976491053E+04 0.  0.
        4    1    3    3  502    0  0.29207187861E+03 -0.11427051437E+04  0.11860947932E+04  0.16726934863E+04  0.12699999809E+01 0.  1.
       -4    1    3    3    0  502 -0.29207187861E+03  0.11427051437E+04 -0.97734943896E+03  0.15317619157E+04  0.12699999809E+01 0. -1.
</event>
<event>
 5   0  0.1317293E-07  0.3201923E+04  0.7818609E-02  0.8188309E-01
        1   -1    0    0  501    0  0.00000000000E+00  0.00000000000E+00  0.19363141718E+04  0.19363141718E+04  0.50400001928E-02 0.  1.
       -1   -1    0    0    0  501  0.00000000000E+00  0.00000000000E+00 -0.13236891453E+04  0.13236891453E+04  0.50400001928E-02 0. -1.
    10030    2    1    2    0    0  0.00000000000E+00  0.00000000000E+00  0.61262502649E+03  0.32600033171E+04  0.32019232040E+04 0.  0.
        1    1    3    3  502    0 -0.27068627685E+03 -0.54139225075E+03 -0.12026993222E+04  0.13464257460E+04  0.50400001928E-02 0. -1.
       -1    1    3    3    0  502  0.27068627685E+03  0.54139225075E+03  0.18153243487E+04  0.19135775711E+04  0.50400001928E-02 0.  1.
</event>
<event>
 5   0  0.1230450E-07  0.3191651E+04  0.7818609E-02  0.8191026E-01
        3   -1    0    0  501    0  0.00000000000E+00  0.00000000000E+00  0.16559824824E+04  0.16559824855E+04  0.10100000352E+00 0.  1.
       -3   -1    0    0    0  501  0.00000000000E+00  0.00000000000E+00 -0.15378534373E+04  0.15378534406E+04  0.10100000352E+00 0. -1.
    10030    2    1    2    0    0  0.00000000000E+00  0.00000000000E+00  0.11812904509E+03  0.31938359261E+04  0.31916505842E+04 0.  0.
        1    1    3    3  502    0  0.95989380624E+03 -0.56930989335E+02 -0.12153934333E+04  0.15497801310E+04  0.50400001928E-02 0. -1.
       -1    1    3    3    0  502 -0.95989380624E+03  0.56930989335E+02  0.13335224784E+04  0.16440557950E+04  0.50400001928E-02 0.  1.
</event>
<event>
 5   0  0.1277374E-07  0.3202593E+04  0.7818609E-02  0.8188133E-01
       -1   -1    0    0    0  501  0.00000000000E+00  0.00000000000E+00  0.27960814730E+04  0.27960814730E+04  0.50400001928E-02 0.  1.
        1   -1    0    0  501    0  0.00000000000E+00  0.00000000000E+00 -0.91705133662E+03  0.91705133663E+03  0.50400001928E-02 0. -1.
    10030    2    1    2    0    0  0.00000000000E+00  0.00000000000E+00  0.18790301364E+04  0.37131328096E+04  0.32025928571E+04 0.  0.
        5    1    3    3  502    0 -0.13556157592E+04 -0.23285399628E+03 -0.11072730715E+02  0.13755216340E+04  0.46999998093E+01 0. -1.
       -5    1    3    3    0  502  0.13556157592E+04  0.23285399628E+03  0.18901028671E+04  0.23376111756E+04  0.46999998093E+01 0.  1.
</event>
<event>
 5   0  0.1270948E-07  0.3239550E+04  0.7818609E-02  0.8178449E-01
       -1   -1    0    0    0  501  0.00000000000E+00  0.00000000000E+00  0.13951308534E+04  0.13951308534E+04  0.50400001928E-02 0. -1.
        1   -1    0    0  501    0  0.00000000000E+00  0.00000000000E+00 -0.18805916323E+04  0.18805916323E+04  0.50400001928E-02 0.  1.
    10030    2    1    2    0    0  0.00000000000E+00  0.00000000000E+00 -0.48546077890E+03  0.32757224858E+04  0.32395502213E+04 0.  0.
        4    1    3    3  502    0  0.13438044110E+03 -0.13966080481E+04  0.57568805181E+03  0.15165719531E+04  0.12699999809E+01 0. -1.
       -4    1    3    3    0  502 -0.13438044110E+03  0.13966080481E+04 -0.10611488307E+04  0.17591505327E+04  0.12699999809E+01 0.  1.
</event>
<event>
 5   0  0.1288096E-07  0.3234747E+04  0.7818609E-02  0.8179700E-01
       -1   -1    0    0    0  501  0.00000000000E+00  0.00000000000E+00  0.12351245485E+04  0.12351245485E+04  0.50400001928E-02 0.  1.
        1   -1    0    0  501    0  0.00000000000E+00  0.00000000000E+00 -0.21179216614E+04  0.21179216614E+04  0.50400001928E-02 0. -1.
    10030    2    1    2    0    0  0.00000000000E+00  0.00000000000E+00 -0.88279711284E+03  0.33530462099E+04  0.32347469984E+04 0.  0.
        2    1    3    3  502    0  0.83595402042E+03  0.41717839033E+03  0.92712699264E+03  0.13162147979E+04  0.25500000920E-02 0.  1.
       -2    1    3    3    0  502 -0.83595402042E+03 -0.41717839033E+03 -0.18099241055E+04  0.20368314121E+04  0.25500000920E-02 0. -1.
</event>
<event>
 5   0  0.3858721E-07  0.3197265E+04  0.7818609E-02  0.8189540E-01
       -2   -1    0    0    0  501  0.00000000000E+00  0.00000000000E+00  0.33726663799E+04  0.33726663799E+04  0.25500000920E-02 0. -1.
        2   -1    0    0  501    0  0.00000000000E+00  0.00000000000E+00 -0.75774636722E+03  0.75774636723E+03  0.25500000920E-02 0.  1.
    10030    2    1    2    0    0  0.00000000000E+00  0.00000000000E+00  0.26149200127E+04  0.41304127471E+04  0.31972648919E+04 0.  0.
        2    1    3    3  502    0 -0.13502790677E+03  0.12584648669E+04  0.45889675431E+02  0.12665197271E+04  0.25500000920E-02 0.  1.
       -2    1    3    3    0  502  0.13502790677E+03 -0.12584648669E+04  0.25690303373E+04  0.28638930201E+04  0.25500000920E-02 0. -1.
</event>
<event>
 5   0  0.1277374E-07  0.3211700E+04  0.7818609E-02  0.8185734E-01
        1   -1    0    0  501    0  0.00000000000E+00  0.00000000000E+00  0.20563715827E+04  0.20563715827E+04  0.50400001928E-02 0. -1.
       -1   -1    0    0    0  501  0.00000000000E+00  0.00000000000E+00 -0.12540310765E+04  0.12540310765E+04  0.50400001928E-02 0.  1.
    10030    2    1    2    0    0  0.00000000000E+00  0.00000000000E+00  0.80234050628E+03  0.33104026592E+04  0.32116997802E+04 0.  0.
        5    1    3    3  502    0  0.11094284346E+04  0.11519744434E+04  0.55002173459E+03  0.16912783828E+04  0.46999998093E+01 0.  1.
       -5    1    3    3    0  502 -0.11094284346E+04 -0.11519744434E+04  0.25231877168E+03  0.16191242764E+04  0.46999998093E+01 0. -1.
</event>
<event>
 5   0  0.1365455E-07  0.3205300E+04  0.7818609E-02  0.8187419E-01
       -1   -1    0    0    0  501  0.00000000000E+00  0.00000000000E+00  0.93288565075E+03  0.93288565076E+03  0.50400001928E-02 0.  1.
        1   -1    0    0  501    0  0.00000000000E+00  0.00000000000E+00 -0.27532704872E+04  0.27532704872E+04  0.50400001928E-02 0. -1.
    10030    2    1    2    0    0  0.00000000000E+00  0.00000000000E+00 -0.18203848365E+04  0.36861561380E+04  0.32052996928E+04 0.  0.
        3    1    3    3  502    0 -0.13963093822E+03  0.60836247428E+03  0.78735620172E+03  0.10047544464E+04  0.10100000352E+00 0.  1.
       -3    1    3    3    0  502  0.13963093822E+03 -0.60836247428E+03 -0.26077410382E+04  0.26814016916E+04  0.10100000352E+00 0. -1.
</event>
<event>
 5   0  0.3858721E-07  0.3201518E+04  0.7818609E-02  0.8188416E-01
       -2   -1    0    0    0  501  0.00000000000E+00  0.00000000000E+00  0.14826658071E+04  0.14826658071E+04  0.25500000920E-02 0. -1.
        2   -1    0    0  501    0  0.00000000000E+00  0.00000000000E+00 -0.17282584869E+04  0.17282584869E+04  0.25500000920E-02 0.  1.
    10030    2    1    2    0    0  0.00000000000E+00  0.00000000000E+00 -0.24559267976E+03  0.32109242940E+04  0.32015182426E+04 0.  0.
        2    1    3    3  502    0  0.10151394839E+04 -0.74795760436E+03 -0.11118381498E+04  0.16811105916E+04  0.25500000920E-02 0.  1.
       -2    1    3    3    0  502 -0.10151394839E+04  0.74795760436E+03  0.86624547006E+03  0.15298137024E+04  0.25500000920E-02 0. -1.
</event>
<event>
 5   0  0.1288096E-07  0.3208445E+04  0.7818609E-02  0.8186590E-01
       -1   -1    0    0    0  501  0.00000000000E+00  0.00000000000E+00  0.15447633245E+04  0.15447633245E+04  0.50400001928E-02 0.  1.
        1   -1    0    0  501    0  0.00000000000E+00  0.00000000000E+00 -0.16659706701E+04  0.16659706701E+04  0.50400001928E-02 0. -1.
    10030    2    1    2    0    0  0.00000000000E+00  0.00000000000E+00 -0.12120734561E+03  0.32107339946E+04  0.32084453499E+04 0.  0.
        2    1    3    3  502    0 -0.35208422987E+03 -0.14862158455E+04 -0.55159563085E+03  0.16239022706E+04  0.25500000920E-02 0. -1.
       -2    1    3    3    0  502  0.35208422987E+03  0.14862158455E+04  0.43038828524E+03  0.15868317240E+04  0.25500000920E-02 0.  1.
</event>
<event>
 5   0  0.1277374E-07  0.3203245E+04  0.7818609E-02  0.8187961E-01
        1   -1    0    0  501    0  0.00000000000E+00  0.00000000000E+00  0.17126867679E+04  0.17126867679E+04  0.50400001928E-02 0. -1.
       -1   -1    0    0    0  501  0.00000000000E+00  0.00000000000E+00 -0.14977609705E+04  0.14977609705E+04  0.50400001928E-02 0.  1.
    10030    2    1    2    0    0  0.00000000000E+00  0.00000000000E+00  0.21492579741E+03  0.32104477384E+04  0.32032454765E+04 0.  0.
        5    1    3    3  502    0  0.50580822136E+03  0.14389826548E+04 -0.38216419895E+03  0.15724454212E+04  0.46999998093E+01 0.  1.
       -5    1    3    3    0  502 -0.50580822136E+03 -0.14389826548E+04  0.59708999635E+03  0.16380023173E+04  0.46999998093E+01 0. -1.
</event>
<event>
 5   0  0.3750285E-07  0.3190848E+04  0.7818609E-02  0.8191238E-01
        2   -1    0    0  501    0  0.00000000000E+00  0.00000000000E+00  0.21867778180E+04  0.21867778180E+04  0.25500000920E-02 0. -1.
       -2   -1    0    0    0  501  0.00000000000E+00  0.00000000000E+00 -0.11639853853E+04  0.11639853853E+04  0.25500000920E-02 0.  1.
    10030    2    1    2    0    0  0.00000000000E+00  0.00000000000E+00  0.10227924327E+04  0.33507632033E+04  0.31908478002E+04 0.  0.
        1    1    3    3  502    0 -0.31523193109E+03 -0.13995197746E+04 -0.22169568793E+03  0.14516114315E+04  0.50400001928E-02 0. -1.
       -1    1    3    3    0  502  0.31523193109E+03  0.13995197746E+04  0.12444881206E+04  0.18991517718E+04  0.50400001928E-02 0.  1.
</event>
<event>
 5   0  0.3858721E-07  0.3213347E+04  0.7818609E-02  0.8185301E-01
        2   -1    0    0  501    0  0.00000000000E+00  0.00000000000E+00  0.21718692161E+04  0.21718692161E+04  0.25500000920E-02 0. -1.
       -2   -1    0    0    0  501  0.00000000000E+00  0.00000000000E+00 -0.11885613299E+04  0.11885613299E+04  0.25500000920E-02 0.  1.
    10030    2    1    2    0    0  0.00000000000E+00  0.00000000000E+00  0.98330788615E+03  0.33604305460E+04  0.32133470176E+04 0.  0.
        2    1    3    3  502    0  0.42366466401E+03 -0.90157062781E+03  0.18099409144E+04  0.20659640505E+04  0.25500000920E-02 0. -1.
       -2    1    3    3    0  502 -0.42366466401E+03  0.90157062781E+03 -0.82663302825E+03  0.12944664955E+04  0.25500000920E-02 0.  1.
</event>
<event>
 5   0  0.3830207E-07  0.3199764E+04  0.7818609E-02  0.8188880E-01
       -2   -1    0    0    0  501  0.00000000000E+00  0.00000000000E+00  0.12960710305E+04  0.12960710305E+04  0.25500000920E-02 0. -1.
        2   -1    0    0  501    0  0.00000000000E+00  0.00000000000E+00 -0.19749088614E+04  0.19749088614E+04  0.25500000920E-02 0.  1.
    10030    2    1    2    0    0  0.00000000000E+00  0.00000000000E+00 -0.67883783097E+03  0.32709798919E+04  0.31997638432E+04 0.  0.
        4    1    3    3  502    0 -0.34882384437E+03 -0.29148330423E+03 -0.19075019706E+04  0.19609196750E+04  0.12699999809E+01 0.  1.
       -4    1    3    3    0  502  0.34882384437E+03  0.29148330423E+03  0.12286641396E+04  0.13100602169E+04  0.12699999809E+01 0. -1.
</event>
<event>
 5   0  0.3764056E-07  0.3201236E+04  0.7818609E-02  0.8188491E-01
       -2   -1    0    0    0  501  0.00000000000E+00  0.00000000000E+00  0.14409577562E+04  0.14409577562E+04  0.25500000920E-02 0. -1.
        2   -1    0    0  501    0  0.00000000000E+00  0.00000000000E+00 -0.17779686192E+04  0.17779686192E+04  0.25500000920E-02 0.  1.
    10030    2    1    2    0    0  0.00000000000E+00  0.00000000000E+00 -0.33701086301E+03  0.32189263754E+04  0.32012358065E+04 0.  0.
        5    1    3    3  502    0 -0.14312166645E+04  0.42690090964E+03  0.41028826630E+03  0.15488654166E+04  0.46999998093E+01 0. -1.
       -5    1    3    3    0  502  0.14312166645E+04 -0.42690090964E+03 -0.74729912932E+03  0.16700609588E+04  0.46999998093E+01 0.  1.
</event>
<event>
 5   0  0.3830207E-07  0.3195884E+04  0.7818609E-02  0.8189905E-01
        2   -1    0    0  501    0  0.00000000000E+00  0.00000000000E+00  0.18345982765E+04  0.18345982765E+04  0.25500000920E-02 0. -1.
       -2   -1    0    0    0  501  0.00000000000E+00  0.00000000000E+00 -0.13918138404E+04  0.13918138404E+04  0.25500000920E-02 0.  1.
    10030    2    1    2    0    0  0.00000000000E+00  0.00000000000E+00  0.44278443603E+03  0.32264121169E+04  0.31958843989E+04 0.  0.
        4    1    3    3  502    0 -0.52742748995E+03 -0.14800830214E+04  0.51501774965E+03  0.16535024653E+04  0.12699999809E+01 0. -1.
       -4    1    3    3    0  502  0.52742748995E+03  0.14800830214E+04 -0.72233313620E+02  0.15729096516E+04  0.12699999809E+01 0.  1.
</event>
<event>
 5   0  0.3750285E-07  0.3200122E+04  0.7818609E-02  0.8188785E-01
        2   -1    0    0  501    0  0.00000000000E+00  0.00000000000E+00  0.15414713555E+04  0.15414713555E+04  0.25500000920E-02 0.  1.
       -2   -1    0    0    0  501  0.00000000000E+00  0.00000000000E+00 -0.16608776564E+04  0.16608776564E+04  0.25500000920E-02 0. -1.
    10030    2    1    2    0    0  0.00000000000E+00  0.00000000000E+00 -0.11940630093E+03  0.32023490119E+04  0.32001220803E+04 0.  0.
        1    1    3    3  502    0 -0.95854879928E+03 -0.89424901795E+03 -0.97778271735E+03  0.16354070286E+04  0.50400001928E-02 0. -1.
       -1    1    3    3    0  502  0.95854879928E+03  0.89424901795E+03  0.85837641642E+03  0.15669419833E+04  0.50400001928E-02 0.  1.
</event>
<event>
 5   0  0.1270948E-07  0.3194277E+04  0.7818609E-02  0.8190330E-01
       -1   -1    0    0    0  501  0.00000000000E+00  0.00000000000E+00  0.18396115295E+04  0.18396115295E+04  0.50400001928E-02 0.  1.
        1   -1    0    0  501    0  0.00000000000E+00  0.00000000000E+00 -0.13866248140E+04  0.13866248140E+04  0.50400001928E-02 0. -1.
    10030    2    1    2    0    0  0.00000000000E+00  0.00000000000E+00  0.45298671547E+03  0.32262363435E+04  0.31942767538E+04 0.  0.
        4    1    3    3  502    0  0.67347894680E+03  0.13064009864E+04 -0.40473323101E+03  0.15244894327E+04  0.12699999809E+01 0. -1.
       -4    1    3    3    0  502 -0.67347894680E+03 -0.13064009864E+04  0.85771994648E+03  0.17017469109E+04  0.12699999809E+01 0.  1.
</event>
<event>
 5   0  0.3858721E-07  0.3194041E+04  0.7818609E-02  0.8190393E-01
       -2   -1    0    0    0  501  0.00000000000E+00  0.00000000000E+00  0.21573019983E+04  0.21573019983E+04  0.25500000920E-02 0.  1.
        2   -1    0    0  501    0  0.00000000000E+00  0.00000000000E+00 -0.11822517886E+04  0.11822517886E+04  0.25500000920E-02 0. -1.
    10030    2    1    2    0    0  0.00000000000E+00  0.00000000000E+00  0.97505020970E+03  0.33395537870E+04  0.31940407926E+04 0.  0.
        2    1    3    3  502    0 -0.49194281356E+03  0.64775497811E+03 -0.94945302069E+03  0.12502220931E+04  0.25500000920E-02 0. -1.
       -2    1    3    3    0  502  0.49194281356E+03 -0.64775497811E+03  0.19245032304E+04  0.20893316939E+04  0.25500000920E-02 0.  1.
</event>
<event>
 5   0  0.3942564E-07  0.3213557E+04  0.7818609E-02  0.8185246E-01
        2   -1    0    0  501    0  0.00000000000E+00  0.00000000000E+00  0.10673997865E+04  0.10673997865E+04  0.25500000920E-02 0. -1.
       -2   -1    0    0    0  501  0.00000000000E+00  0.00000000000E+00 -0.24187167352E+04  0.24187167352E+04  0.25500000920E-02 0.  1.
    10030    2    1    2    0    0  0.00000000000E+00  0.00000000000E+00 -0.13513169487E+04  0.34861165217E+04  0.32135573602E+04 0.  0.
        3    1    3    3  502    0  0.10925927536E+04 -0.10467200316E+04 -0.12622176378E+04  0.19704251128E+04  0.10100000352E+00 0.  1.
       -3    1    3    3    0  502 -0.10925927536E+04  0.10467200316E+04 -0.89099310912E+02  0.15156914089E+04  0.10100000352E+00 0. -1.
</event>
<event>
 5   0  0.1230450E-07  0.3218919E+04  0.7818609E-02  0.8183838E-01
        4   -1    0    0  501    0  0.00000000000E+00  0.00000000000E+00  0.10417898050E+04  0.10417905791E+04  0.12699999809E+01 0. -1.
       -4   -1    0    0    0  501  0.00000000000E+00  0.00000000000E+00 -0.24864501207E+04  0.24864504450E+04  0.12699999809E+01 0.  1.
    10030    2    1    2    0    0  0.00000000000E+00  0.00000000000E+00 -0.14446603157E+04  0.35282410241E+04  0.32189192746E+04 0.  0.
        1    1    3    3  502    0 -0.74304342944E+03  0.13106874271E+04 -0.13427094708E+04  0.20181386950E+04  0.50400001928E-02 0.  1.
       -1    1    3    3    0  502  0.74304342944E+03 -0.13106874271E+04 -0.10195084491E+03  0.15101023291E+04  0.50400001928E-02 0. -1.
</event>
<event>
 5   0  0.3750285E-07  0.3208142E+04  0.7818609E-02  0.8186670E-01
       -2   -1    0    0    0  501  0.00000000000E+00  0.00000000000E+00  0.12876019606E+04  0.12876019606E+04  0.25500000920E-02 0.  1.
        2   -1    0    0  501    0  0.00000000000E+00  0.00000000000E+00 -0.19983226910E+04  0.19983226910E+04  0.25500000920E-02 0. -1.
    10030    2    1    2    0    0  0.00000000000E+00  0.00000000000E+00 -0.71072073040E+03  0.32859246517E+04  0.32081422755E+04 0.  0.
        1    1    3    3  502    0  0.14031599984E+04 -0.43682380919E+03 -0.10138881215E+04  0.17853969151E+04  0.50400001928E-02 0. -1.
       -1    1    3    3    0  502 -0.14031599984E+04  0.43682380919E+03  0.30316739112E+03  0.15005277366E+04  0.50400001928E-02 0.  1.
</event>
<event>
 5   0  0.1317293E-07  0.3200397E+04  0.7818609E-02  0.8188712E-01
        1   -1    0    0  501    0  0.00000000000E+00  0.00000000000E+00  0.27871954713E+04  0.27871954713E+04  0.50400001928E-02 0.  1.
       -1   -1    0    0    0  501  0.00000000000E+00  0.00000000000E+00 -0.91871394906E+03  0.91871394908E+03  0.50400001928E-02 0. -1.
    10030    2    1    2    0    0  0.00000000000E+00  0.00000000000E+00  0.18684815223E+04  0.37059094204E+04  0.32003970743E+04 0.  0.
        1    1    3    3  502    0 -0.55379311055E+03  0.13245969807E+04  0.17525387044E+04  0.22655321408E+04  0.50400001928E-02 0.  1.
       -1    1    3    3    0  502  0.55379311055E+03 -0.13245969807E+04  0.11594281784E+03  0.14403772796E+04  0.50400001928E-02 0. -1.
</event>
<event>
 5   0  0.3858721E-07  0.3202137E+04  0.7818609E-02  0.8188253E-01
       -2   -1    0    0    0  501  0.00000000000E+00  0.00000000000E+00  0.19999254848E+04  0.19999254848E+04  0.25500000920E-02 0.  1.
        2   -1    0    0  501    0  0.00000000000E+00  0.00000000000E+00 -0.12817581459E+04  0.12817581459E+04  0.25500000920E-02 0. -1.
    10030    2    1    2    0    0  0.00000000000E+00  0.00000000000E+00  0.71816733892E+03  0.32816836306E+04  0.32021372745E+04 0.  0.
        2    1    3    3  502    0  0.12761357226E+04 -0.90242894489E+03  0.32991532018E+01  0.15629815314E+04  0.25500000920E-02 0. -1.
       -2    1    3    3    0  502 -0.12761357226E+04  0.90242894489E+03  0.71486818572E+03  0.17187020993E+04  0.25500000920E-02 0.  1.
</event>
<event>
 5   0  0.1277374E-07  0.3204031E+04  0.7818609E-02  0.8187753E-01
       -1   -1    0    0    0  501  0.00000000000E+00  0.00000000000E+00  0.14440101666E+04  0.14440101666E+04  0.50400001928E-02 0.  1.
        1   -1    0    0  501    0  0.00000000000E+00  0.00000000000E+00 -0.17773096391E+04  0.17773096391E+04  0.50400001928E-02 0. -1.
    10030    2    1    2    0    0  0.00000000000E+00  0.00000000000E+00 -0.33329947247E+03  0.32213198057E+04  0.32040307040E+04 0.  0.
        5    1    3    3  502    0  0.46688033255E+03  0.52364517813E+03 -0.16146467927E+04  0.17604794440E+04  0.46999998093E+01 0. -1.
       -5    1    3    3    0  502 -0.46688033255E+03 -0.52364517813E+03  0.12813473202E+04  0.14608403617E+04  0.46999998093E+01 0.  1.
</event>
<event>
 5   0  0.3764056E-07  0.3187086E+04  0.7818609E-02  0.8192236E-01
        2   -1    0    0  501    0  0.00000000000E+00  0.00000000000E+00  0.25801946297E+04  0.25801946297E+04  0.25500000920E-02 0. -1.
       -2   -1    0    0    0  501  0.00000000000E+00  0.00000000000E+00 -0.98418120788E+03  0.98418120788E+03  0.25500000920E-02 0.  1.
    10030    2    1    2    0    0  0.00000000000E+00  0.00000000000E+00  0.15960134218E+04  0.35643758376E+04  0.31870858584E+04 0.  0.
        5    1    3    3  502    0  0.82446254554E+03  0.39414520305E+03  0.22580262857E+04  0.24359379563E+04  0.46999998093E+01 0. -1.
       -5    1    3    3    0  502 -0.82446254554E+03 -0.39414520305E+03 -0.66201286384E+03  0.11284378813E+04  0.46999998093E+01 0.  1.
</event>
<event>
 5   0  0.1270948E-07  0.3250802E+04  0.7818609E-02  0.8175528E-01
        1   -1    0    0  501    0  0.00000000000E+00  0.00000000000E+00  0.93005540399E+03  0.93005540401E+03  0.50400001928E-02 0.  1.
       -1   -1    0    0    0  501  0.00000000000E+00  0.00000000000E+00 -0.28406148436E+04  0.28406148436E+04  0.50400001928E-02 0. -1.
    10030    2    1    2    0    0  0.00000000000E+00  0.00000000000E+00 -0.19105594396E+04  0.37706702476E+04  0.32508024769E+04 0.  0.
        4    1    3    3  502    0 -0.78763772475E+03 -0.12282662108E+03 -0.25983044187E+04  0.27178386687E+04  0.12699999809E+01 0. -1.
       -4    1    3    3    0  502  0.78763772475E+03  0.12282662108E+03  0.68774497908E+03  0.10528315789E+04  0.12699999809E+01 0.  1.
</event>
<event>
 5   0  0.3830207E-07  0.3201803E+04  0.7818609E-02  0.8188341E-01
        2   -1    0    0  501    0  0.00000000000E+00  0.00000000000E+00  0.16288512532E+04  0.16288512532E+04  0.25500000920E-02 0. -1.
       -2   -1    0    0    0  501  0.00000000000E+00  0.00000000000E+00 -0.15734314323E+04  0.15734314323E+04  0.25500000920E-02 0.  1.
    10030    2    1    2    0    0  0.00000000000E+00  0.00000000000E+00  0.55419820880E+02  0.32022826856E+04  0.32018030923E+04 0.  0.
        4    1    3    3  502    0 -0.72457679144E+02  0.15897745270E+04 -0.14624424707E+03  0.15981308315E+04  0.12699999809E+01 0.  1.
       -4    1    3    3    0  502  0.72457679144E+02 -0.15897745270E+04  0.20166406795E+03  0.16041518541E+04  0.12699999809E+01 0. -1.
</event>
<event>
 5   0  0.1317293E-07  0.3189205E+04  0.7818609E-02  0.8191674E-01
       -1   -1    0    0    0  501  0.00000000000E+00  0.00000000000E+00  0.10903286424E+04  0.10903286425E+04  0.50400001928E-02 0.  1.
        1   -1    0    0  501    0  0.00000000000E+00  0.00000000000E+00 -0.23321022814E+04  0.23321022814E+04  0.50400001928E-02 0. -1.
    10030    2    1    2    0    0  0.00000000000E+00  0.00000000000E+00 -0.12417736390E+04  0.34224309239E+04  0.31892054901E+04 0.  0.
        1    1    3    3  502    0  0.13877671276E+04  0.68601108007E+03 -0.21049489409E+03  0.15623113976E+04  0.50400001928E-02 0.  1.
       -1    1    3    3    0  502 -0.13877671276E+04 -0.68601108007E+03 -0.10312787449E+04  0.18601195263E+04  0.50400001928E-02 0. -1.
</event>
<event>
 5   0  0.3750285E-07  0.3189263E+04  0.7818609E-02  0.8191658E-01
        2   -1    0    0  501    0  0.00000000000E+00  0.00000000000E+00  0.29587675575E+04  0.29587675575E+04  0.25500000920E-02 0. -1.
       -2   -1    0    0    0  501  0.00000000000E+00  0.00000000000E+00 -0.85942892307E+03  0.85942892307E+03  0.25500000920E-02 0.  1.
    10030    2    1    2    0    0  0.00000000000E+00  0.00000000000E+00  0.20993386344E+04  0.38181964805E+04  0.31892634984E+04 0.  0.
        1    1    3    3  502    0  0.60763605920E+03 -0.66539427400E+03  0.26247444035E+04  0.27751133858E+04  0.50400001928E-02 0. -1.
       -1    1    3    3    0  502 -0.60763605920E+03  0.66539427400E+03 -0.52540576910E+03  0.10430830947E+04  0.50400001928E-02 0.  1.
</event>
<event>
 5   0  0.1270948E-07  0.3205753E+04  0.7818609E-02  0.8187299E-01
        1   -1    0    0  501    0  0.00000000000E+00  0.00000000000E+00  0.14780574855E+04  0.14780574855E+04  0.50400001928E-02 0. -1.
       -1   -1    0    0    0  501  0.00000000000E+00  0.00000000000E+00 -0.17382364899E+04  0.17382364899E+04  0.50400001928E-02 0.  1.
    10030    2    1    2    0    0  0.00000000000E+00  0.00000000000E+00 -0.26017900440E+03  0.32162939753E+04  0.32057532378E+04 0.  0.
        4    1    3    3  502    0 -0.16288831716E+03 -0.15945006961E+04 -0.11432897839E+03  0.16068720553E+04  0.12699999809E+01 0.  1.
       -4    1    3    3    0  502  0.16288831716E+03  0.15945006961E+04 -0.14585002601E+03  0.16094219201E+04  0.12699999809E+01 0. -1.
</event>
<event>
 5   0  0.3942564E-07  0.3197823E+04  0.7818609E-02  0.8189392E-01
        2   -1    0    0  501    0  0.00000000000E+00  0.00000000000E+00  0.18110641296E+04  0.18110641296E+04  0.25500000920E-02 0.  1.
       -2   -1    0    0    0  501  0.00000000000E+00  0.00000000000E+00 -0.14116110325E+04  0.14116110325E+04  0.25500000920E-02 0. -1.
    10030    2    1    2    0    0  0.00000000000E+00  0.00000000000E+00  0.39945309716E+03  0.32226751621E+04  0.31978230757E+04 0.  0.
        3    1    3    3  502    0  0.34485748320E+03  0.66455663576E+03  0.16234891122E+04  0.17878140601E+04  0.10100000352E+00 0.  1.
       -3    1    3    3    0  502 -0.34485748320E+03 -0.66455663576E+03 -0.12240360150E+04  0.14348611020E+04  0.10100000352E+00 0. -1.
</event>
<event>
 5   0  0.1365455E-07  0.3199623E+04  0.7818609E-02  0.8188917E-01
        1   -1    0    0  501    0  0.00000000000E+00  0.00000000000E+00  0.23517308966E+04  0.23517308966E+04  0.50400001928E-02 0.  1.
       -1   -1    0    0    0  501  0.00000000000E+00  0.00000000000E+00 -0.10883031592E+04  0.10883031592E+04  0.50400001928E-02 0. -1.
    10030    2    1    2    0    0  0.00000000000E+00  0.00000000000E+00  0.12634277374E+04  0.34400340558E+04  0.31996225805E+04 0.  0.
        3    1    3    3  502    0 -0.90119279457E+03 -0.19972451857E+02 -0.78927817812E+03  0.11981266229E+04  0.10100000352E+00 0. -1.
       -3    1    3    3    0  502  0.90119279457E+03  0.19972451857E+02  0.20527059155E+04  0.22419074329E+04  0.10100000352E+00 0.  1.
</event>
<event>
 5   0  0.3750285E-07  0.3198854E+04  0.7818609E-02  0.8189120E-01
       -2   -1    0    0    0  501  0.00000000000E+00  0.00000000000E+00  0.13788014729E+04  0.13788014729E+04  0.25500000920E-02 0.  1.
        2   -1    0    0  501    0  0.00000000000E+00  0.00000000000E+00 -0.18553550862E+04  0.18553550862E+04  0.25500000920E-02 0. -1.
    10030    2    1    2    0    0  0.00000000000E+00  0.00000000000E+00 -0.47655361337E+03  0.32341565591E+04  0.31988537482E+04 0.  0.
        1    1    3    3  502    0 -0.63875606886E+03  0.12446691291E+04 -0.10220454947E+04  0.17325667519E+04  0.50400001928E-02 0. -1.
       -1    1    3    3    0  502  0.63875606886E+03 -0.12446691291E+04  0.54549188129E+03  0.15015898072E+04  0.50400001928E-02 0.  1.
</event>
<event>
 5   0  0.1270948E-07  0.3199349E+04  0.7818609E-02  0.8188989E-01
        1   -1    0    0  501    0  0.00000000000E+00  0.00000000000E+00  0.13328691531E+04  0.13328691531E+04  0.50400001928E-02 0. -1.
       -1   -1    0    0    0  501  0.00000000000E+00  0.00000000000E+00 -0.19198878086E+04  0.19198878086E+04  0.50400001928E-02 0.  1.
    10030    2    1    2    0    0  0.00000000000E+00  0.00000000000E+00 -0.58701865551E+03  0.32527569617E+04  0.31993494573E+04 0.  0.
        4    1    3    3  502    0  0.10084255956E+04  0.58901780804E+03 -0.14049617358E+04  0.18269601124E+04  0.12699999809E+01 0.  1.
       -4    1    3    3    0  502 -0.10084255956E+04 -0.58901780804E+03  0.81794308031E+03  0.14257968494E+04  0.12699999809E+01 0. -1.
</event>
<event>
 5   0  0.3942564E-07  0.3192118E+04  0.7818609E-02  0.8190902E-01
        2   -1    0    0  501    0  0.00000000000E+00  0.00000000000E+00  0.14828876154E+04  0.14828876154E+04  0.25500000920E-02 0.  1.
       -2   -1    0    0    0  501  0.00000000000E+00  0.00000000000E+00 -0.17178669037E+04  0.17178669037E+04  0.25500000920E-02 0. -1.
    10030    2    1    2    0    0  0.00000000000E+00  0.00000000000E+00 -0.23497928827E+03  0.32007545191E+04  0.31921175144E+04 0.  0.
        3    1    3    3  502    0 -0.36200082677E+03 -0.13572638559E+04 -0.87729567344E+03  0.16561574448E+04  0.10100000352E+00 0. -1.
       -3    1    3    3    0  502  0.36200082677E+03  0.13572638559E+04  0.64231638517E+03  0.15445970743E+04  0.10100000352E+00 0.  1.
</event>
<event>
 5   0  0.1270948E-07  0.3207277E+04  0.7818609E-02  0.8186898E-01
       -1   -1    0    0    0  501  0.00000000000E+00  0.00000000000E+00  0.18951302793E+04  0.18951302793E+04  0.50400001928E-02 0.  1.
        1   -1    0    0  501    0  0.00000000000E+00  0.00000000000E+00 -0.13569817669E+04  0.13569817669E+04  0.50400001928E-02 0. -1.
    10030    2    1    2    0    0  0.00000000000E+00  0.00000000000E+00  0.53814851242E+03  0.32521120462E+04  0.32072774965E+04 0.  0.
        4    1    3    3  502    0 -0.49260977440E+03 -0.14132420150E+04 -0.31494441320E+03  0.15294145871E+04  0.12699999809E+01 0. -1.
       -4    1    3    3    0  502  0.49260977440E+03  0.14132420150E+04  0.85309292562E+03  0.17226974591E+04  0.12699999809E+01 0.  1.
</event>
<event>
 5   0  0.1230450E-07  0.3222245E+04  0.7818609E-02  0.8182967E-01
       -3   -1    0    0    0  501  0.00000000000E+00  0.00000000000E+00  0.21901810154E+04  0.21901810177E+04  0.10100000352E+00 0.  1.
        3   -1    0    0  501    0  0.00000000000E+00  0.00000000000E+00 -0.11851603031E+04  0.11851603074E+04  0.10100000352E+00 0. -1.
    10030    2    1    2    0    0  0.00000000000E+00  0.00000000000E+00  0.10050207123E+04  0.33753413251E+04  0.32222449362E+04 0.  0.
        3    1    3    3  502    0  0.28153114925E+03 -0.15800734502E+04  0.35502411259E+03  0.16437560728E+04  0.10100000352E+00 0.  1.
       -3    1    3    3    0  502 -0.28153114925E+03  0.15800734502E+04  0.64999659969E+03  0.17315852523E+04  0.10100000352E+00 0. -1.
</event>
<event>
 5   0  0.1270948E-07  0.3198733E+04  0.7818609E-02  0.8189152E-01
        1   -1    0    0  501    0  0.00000000000E+00  0.00000000000E+00  0.13694041072E+04  0.13694041072E+04  0.50400001928E-02 0. -1.
       -1   -1    0    0    0  501  0.00000000000E+00  0.00000000000E+00 -0.18679457132E+04  0.18679457132E+04  0.50400001928E-02 0.  1.
    10030    2    1    2    0    0  0.00000000000E+00  0.00000000000E+00 -0.49854160601E+03  0.32373498205E+04  0.31987325814E+04 0.  0.
        4    1    3    3  502    0 -0.41103834465E+03 -0.15339590443E+04 -0.57275393410E+02  0.15891082260E+04  0.12699999809E+01 0. -1.
       -4    1    3    3    0  502  0.41103834465E+03  0.15339590443E+04 -0.44126621260E+03  0.16482415945E+04  0.12699999809E+01 0.  1.
</event>
<event>
 5   0  0.1277374E-07  0.3196570E+04  0.7818609E-02  0.8189724E-01
       -1   -1    0    0    0  501  0.00000000000E+00  0.00000000000E+00  0.98760703263E+03  0.98760703264E+03  0.50400001928E-02 0. -1.
        1   -1    0    0  501    0  0.00000000000E+00  0.00000000000E+00 -0.25865700693E+04  0.25865700693E+04  0.50400001928E-02 0.  1.
    10030    2    1    2    0    0  0.00000000000E+00  0.00000000000E+00 -0.15989630367E+04  0.35741771019E+04  0.31965699059E+04 0.  0.
        5    1    3    3  502    0 -0.35089171583E+03 -0.60017166016E+03  0.80967712810E+03  0.10672067090E+04  0.46999998093E+01 0. -1.
       -5    1    3    3    0  502  0.35089171583E+03  0.60017166016E+03 -0.24086401648E+04  0.25069703930E+04  0.46999998093E+01 0.  1.
</event>
<event>
 5   0  0.3858721E-07  0.3216386E+04  0.7818609E-02  0.8184503E-01
       -2   -1    0    0    0  501  0.00000000000E+00  0.00000000000E+00  0.10213401586E+04  0.10213401586E+04  0.25500000920E-02 0. -1.
        2   -1    0    0  501    0  0.00000000000E+00  0.00000000000E+00 -0.25322454140E+04  0.25322454140E+04  0.25500000920E-02 0.  1.
    10030    2    1    2    0    0  0.00000000000E+00  0.00000000000E+00 -0.15109052554E+04  0.35535855726E+04  0.32163855072E+04 0.  0.
        2    1    3    3  502    0  0.14911003679E+03 -0.22021705079E+03 -0.25077812462E+04  0.25218437960E+04  0.25500000920E-02 0.  1.
       -2    1    3    3    0  502 -0.14911003679E+03  0.22021705079E+03  0.99687599080E+03  0.10317417766E+04  0.25500000920E-02 0. -1.
</event>
<event>
 5   0  0.3830207E-07  0.3194018E+04  0.7818609E-02  0.8190399E-01
       -2   -1    0    0    0  501  0.00000000000E+00  0.00000000000E+00  0.97850388829E+03  0.97850388829E+03  0.25500000920E-02 0. -1.
        2   -1    0    0  501    0  0.00000000000E+00  0.00000000000E+00 -0.26064666268E+04  0.26064666268E+04  0.25500000920E-02 0.  1.
    10030    2    1    2    0    0  0.00000000000E+00  0.00000000000E+00 -0.16279627385E+04  0.35849705151E+04  0.31940179893E+04 0.  0.
        4    1    3    3  502    0  0.64644568179E+03  0.11734103234E+04  0.16170275243E+03  0.13494195788E+04  0.12699999809E+01 0. -1.
       -4    1    3    3    0  502 -0.64644568179E+03 -0.11734103234E+04 -0.17896654909E+04  0.22355509363E+04  0.12699999809E+01 0.  1.
</event>
<event>
 5   0  0.3764056E-07  0.3202747E+04  0.7818609E-02  0.8188092E-01
        2   -1    0    0  501    0  0.00000000000E+00  0.00000000000E+00  0.30428144505E+04  0.30428144505E+04  0.25500000920E-02 0.  1.
       -2   -1    0    0    0  501  0.00000000000E+00  0.00000000000E+00 -0.84277128144E+03  0.84277128145E+03  0.25500000920E-02 0. -1.
    10030    2    1    2    0    0  0.00000000000E+00  0.00000000000E+00  0.22000431691E+04  0.38855857320E+04  0.32027467172E+04 0.  0.
        5    1    3    3  502    0  0.12253681913E+04 -0.22214347231E+03 -0.12134404818E+03  0.12512479349E+04  0.46999998093E+01 0. -1.
       -5    1    3    3    0  502 -0.12253681913E+04  0.22214347231E+03  0.23213872173E+04  0.26343377971E+04  0.46999998093E+01 0.  1.
</event>
<event>
 5   0  0.3764056E-07  0.3216812E+04  0.7818609E-02  0.8184391E-01
        2   -1    0    0  501    0  0.00000000000E+00  0.00000000000E+00  0.14644475942E+04  0.14644475942E+04  0.25500000920E-02 0.  1.
       -2   -1    0    0    0  501  0.00000000000E+00  0.00000000000E+00 -0.17665156289E+04  0.17665156289E+04  0.25500000920E-02 0. -1.
    10030    2    1    2    0    0  0.00000000000E+00  0.00000000000E+00 -0.30206803467E+03  0.32309632231E+04  0.32168118148E+04 0.  0.
        5    1    3    3  502    0 -0.68098953621E+03  0.82119713412E+02 -0.16122388236E+04  0.17520920381E+04  0.46999998093E+01 0. -1.
       -5    1    3    3    0  502  0.68098953621E+03 -0.82119713412E+02  0.13101707889E+04  0.14788711850E+04  0.46999998093E+01 0.  1.
</event>
<event>
 5   0  0.1270948E-07  0.3201349E+04  0.7818609E-02  0.8188461E-01
        1   -1    0    0  501    0  0.00000000000E+00  0.00000000000E+00  0.10325756926E+04  0.10325756926E+04  0.50400001928E-02 0.  1.
       -1   -1    0    0    0  501  0.00000000000E+00  0.00000000000E+00 -0.24813277776E+04  0.24813277776E+04  0.50400001928E-02 0. -1.
    10030    2    1    2    0    0  0.00000000000E+00  0.00000000000E+00 -0.14487520850E+04  0.35139034702E+04  0.32013489335E+04 0.  0.
        4    1    3    3  502    0 -0.27930358357E+03 -0.49223080131E+02  0.10047773887E+04  0.10440366934E+04  0.12699999809E+01 0.  1.
       -4    1    3    3    0  502  0.27930358357E+03  0.49223080131E+02 -0.24535294738E+04  0.24698667767E+04  0.12699999809E+01 0. -1.
</event>
<event>
 5   0  0.1317293E-07  0.3201070E+04  0.7818609E-02  0.8188535E-01
        1   -1    0    0  501    0  0.00000000000E+00  0.00000000000E+00  0.13429211897E+04  0.13429211897E+04  0.50400001928E-02 0. -1.
       -1   -1    0    0    0  501  0.00000000000E+00  0.00000000000E+00 -0.19075670514E+04  0.19075670514E+04  0.50400001928E-02 0.  1.
    10030    2    1    2    0    0  0.00000000000E+00  0.00000000000E+00 -0.56464586177E+03  0.32504882411E+04  0.32010699550E+04 0.  0.
        1    1    3    3  502    0  0.11011283591E+04 -0.36567501272E+03 -0.14018452655E+04  0.18197175678E+04  0.50400001928E-02 0.  1.
       -1    1    3    3    0  502 -0.11011283591E+04  0.36567501272E+03  0.83719940374E+03  0.14307706733E+04  0.50400001928E-02 0. -1.
</event>
<event>
 5   0  0.3942564E-07  0.3199364E+04  0.7818609E-02  0.8188985E-01
        2   -1    0    0  501    0  0.00000000000E+00  0.00000000000E+00  0.13733359332E+04  0.13733359332E+04  0.25500000920E-02 0. -1.
       -2   -1    0    0    0  501  0.00000000000E+00  0.00000000000E+00 -0.18633326656E+04  0.18633326656E+04  0.25500000920E-02 0.  1.
    10030    2    1    2    0    0  0.00000000000E+00  0.00000000000E+00 -0.48999673239E+03  0.32366685987E+04  0.31993635024E+04 0.  0.
        3    1    3    3  502    0  0.30068122012E+03  0.14963824597E+04  0.23955626083E+03  0.15449779527E+04  0.10100000352E+00 0. -1.
       -3    1    3    3    0  502 -0.30068122012E+03 -0.14963824597E+04 -0.72955299322E+03  0.16916906461E+04  0.10100000352E+00 0.  1.
</event>
<event>
 5   0  0.3750285E-07  0.3196885E+04  0.7818609E-02  0.8189640E-01
       -2   -1    0    0    0  501  0.00000000000E+00  0.00000000000E+00  0.13490653788E+04  0.13490653788E+04  0.25500000920E-02 0.  1.
        2   -1    0    0  501    0  0.00000000000E+00  0.00000000000E+00 -0.18939168886E+04  0.18939168886E+04  0.25500000920E-02 0. -1.
    10030    2    1    2    0    0  0.00000000000E+00  0.00000000000E+00 -0.54485150972E+03  0.32429822674E+04  0.31968845489E+04 0.  0.
        1    1    3    3  502    0 -0.10643643342E+04  0.32319365742E+03 -0.14368858148E+04  0.18171313714E+04  0.50400001928E-02 0. -1.
       -1    1    3    3    0  502  0.10643643342E+04 -0.32319365742E+03  0.89203430510E+03  0.14258508960E+04  0.50400001928E-02 0.  1.
</event>
<event>
 5   0  0.3764056E-07  0.3205320E+04  0.7818609E-02  0.8187414E-01
       -2   -1    0    0    0  501  0.00000000000E+00  0.00000000000E+00  0.16502841882E+04  0.16502841882E+04  0.25500000920E-02 0. -1.
        2   -1    0    0  501    0  0.00000000000E+00  0.00000000000E+00 -0.15564098847E+04  0.15564098847E+04  0.25500000920E-02 0.  1.
    10030    2    1    2    0    0  0.00000000000E+00  0.00000000000E+00  0.93874303521E+02  0.32066940729E+04  0.32053197176E+04 0.  0.
        5    1    3    3  502    0 -0.40838795190E+03  0.48512591095E+03  0.15194271600E+04  0.16464534167E+04  0.46999998093E+01 0. -1.
       -5    1    3    3    0  502  0.40838795190E+03 -0.48512591095E+03 -0.14255528565E+04  0.15602406562E+04  0.46999998093E+01 0.  1.
</event>
<event>
 5   0  0.1365455E-07  0.3196427E+04  0.7818609E-02  0.8189762E-01
        1   -1    0    0  501    0  0.00000000000E+00  0.00000000000E+00  0.10081258891E+04  0.10081258891E+04  0.50400001928E-02 0.  1.
       -1   -1    0    0    0  501  0.00000000000E+00  0.00000000000E+00 -0.25336973545E+04  0.25336973545E+04  0.50400001928E-02 0. -1.
    10030    2    1    2    0    0  0.00000000000E+00  0.00000000000E+00 -0.15255714654E+04  0.35418232436E+04  0.31964266913E+04 0.  0.
        3    1    3    3  502    0  0.12921983755E+04 -0.59727922021E+03 -0.15677621550E+04  0.21176395570E+04  0.10100000352E+00 0.  1.
       -3    1    3    3    0  502 -0.12921983755E+04  0.59727922021E+03  0.42190689578E+02  0.14241836866E+04  0.10100000352E+00 0. -1.
</event>
<event>
 5   0  0.3858721E-07  0.3203160E+04  0.7818609E-02  0.8187983E-01
        2   -1    0    0  501    0  0.00000000000E+00  0.00000000000E+00  0.14930665173E+04  0.14930665173E+04  0.25500000920E-02 0. -1.
       -2   -1    0    0    0  501  0.00000000000E+00  0.00000000000E+00 -0.17179801676E+04  0.17179801676E+04  0.25500000920E-02 0.  1.
    10030    2    1    2    0    0  0.00000000000E+00  0.00000000000E+00 -0.22491365033E+03  0.32110466849E+04  0.32031601057E+04 0.  0.
        2    1    3    3  502    0 -0.15813432316E+04 -0.24301482536E+03 -0.18582201591E+03  0.16106621132E+04  0.25500000920E-02 0.  1.
       -2    1    3    3    0  502  0.15813432316E+04  0.24301482536E+03 -0.39091634423E+02  0.16003845717E+04  0.25500000920E-02 0. -1.
</event>
<event>
 5   0  0.1317293E-07  0.3193266E+04  0.7818609E-02  0.8190598E-01
        1   -1    0    0  501    0  0.00000000000E+00  0.00000000000E+00  0.17826054267E+04  0.17826054267E+04  0.50400001928E-02 0.  1.
       -1   -1    0    0    0  501  0.00000000000E+00  0.00000000000E+00 -0.14300622646E+04  0.14300622646E+04  0.50400001928E-02 0. -1.
    10030    2    1    2    0    0  0.00000000000E+00  0.00000000000E+00  0.35254316213E+03  0.32126676914E+04  0.31932658853E+04 0.  0.
        1    1    3    3  502    0 -0.20656022206E+03  0.15828694059E+04  0.20954930841E+03  0.16099855882E+04  0.50400001928E-02 0. -1.
       -1    1    3    3    0  502  0.20656022206E+03 -0.15828694059E+04  0.14299385372E+03  0.16026821032E+04  0.50400001928E-02 0.  1.
</event>
<event>
 5   0  0.3942564E-07  0.3196268E+04  0.7818609E-02  0.8189804E-01
        2   -1    0    0  501    0  0.00000000000E+00  0.00000000000E+00  0.17728737076E+04  0.17728737076E+04  0.25500000920E-02 0.  1.
       -2   -1    0    0    0  501  0.00000000000E+00  0.00000000000E+00 -0.14406170782E+04  0.14406170782E+04  0.25500000920E-02 0. -1.
    10030    2    1    2    0    0  0.00000000000E+00  0.00000000000E+00  0.33225662942E+03  0.32134907858E+04  0.31962679116E+04 0.  0.
        3    1    3    3  502    0 -0.15627498433E+04  0.12271815261E+03  0.47890805411E+03  0.16390850350E+04  0.10100000352E+00 0. -1.
       -3    1    3    3    0  502  0.15627498433E+04 -0.12271815261E+03 -0.14665142469E+03  0.15744057508E+04  0.10100000352E+00 0.  1.
</event>
<event>
 5   0  0.3858721E-07  0.3205431E+04  0.7818609E-02  0.8187384E-01
        2   -1    0    0  501    0  0.00000000000E+00  0.00000000000E+00  0.16262062668E+04  0.16262062668E+04  0.25500000920E-02 0. -1.
       -2   -1    0    0    0  501  0.00000000000E+00  0.00000000000E+00 -0.15795642672E+04  0.15795642672E+04  0.25500000920E-02 0.  1.
    10030    2    1    2    0    0  0.00000000000E+00  0.00000000000E+00  0.46641999664E+02  0.32057705340E+04  0.32054312098E+04 0.  0.
        2    1    3    3  502    0 -0.14987467503E+04 -0.17935113527E+03 -0.51552046248E+03  0.15950454535E+04  0.25500000920E-02 0. -1.
       -2    1    3    3    0  502  0.14987467503E+04  0.17935113527E+03  0.56216246214E+03  0.16107250806E+04  0.25500000920E-02 0.  1.
</event>
<event>
 5   0  0.1317293E-07  0.3200844E+04  0.7818609E-02  0.8188594E-01
       -1   -1    0    0    0  501  0.00000000000E+00  0.00000000000E+00  0.27125204485E+04  0.27125204485E+04  0.50400001928E-02 0.  1.
        1   -1    0    0  501    0  0.00000000000E+00  0.00000000000E+00 -0.94426940827E+03  0.94426940828E+03  0.50400001928E-02 0. -1.
    10030    2    1    2    0    0  0.00000000000E+00  0.00000000000E+00  0.17682510402E+04  0.36567898568E+04  0.32008436881E+04 0.  0.
        1    1    3    3  502    0  0.71180494448E+03 -0.11094772579E+04  0.19210131024E+04  0.23297848408E+04  0.50400001928E-02 0.  1.
       -1    1    3    3    0  502 -0.71180494448E+03  0.11094772579E+04 -0.15276206220E+03  0.13270050160E+04  0.50400001928E-02 0. -1.
</event>
<event>
 5   0  0.3764056E-07  0.3208380E+04  0.7818609E-02  0.8186608E-01
       -2   -1    0    0    0  501  0.00000000000E+00  0.00000000000E+00  0.14647601111E+04  0.14647601111E+04  0.25500000920E-02 0.  1.
        2   -1    0    0  501    0  0.00000000000E+00  0.00000000000E+00 -0.17568920795E+04  0.17568920795E+04  0.25500000920E-02 0. -1.
    10030    2    1    2    0    0  0.00000000000E+00  0.00000000000E+00 -0.29213196846E+03  0.32216521906E+04  0.32083799261E+04 0.  0.
        5    1    3    3  502    0 -0.63406668898E+01 -0.16038596348E+04 -0.17777851321E+03  0.16137017141E+04  0.46999998093E+01 0.  1.
       -5    1    3    3    0  502  0.63406668898E+01  0.16038596348E+04 -0.11435345525E+03  0.16079504765E+04  0.46999998093E+01 0. -1.
</event>
<event>
 5   0  0.3858721E-07  0.3201178E+04  0.7818609E-02  0.8188506E-01
        2   -1    0    0  501    0  0.00000000000E+00  0.00000000000E+00  0.21574282415E+04  0.21574282415E+04  0.25500000920E-02 0.  1.
       -2   -1    0    0    0  501  0.00000000000E+00  0.00000000000E+00 -0.11874715465E+04  0.11874715465E+04  0.25500000920E-02 0. -1.
    10030    2    1    2    0    0  0.00000000000E+00  0.00000000000E+00  0.96995669503E+03  0.33448997879E+04  0.32011776897E+04 0.  0.
        2    1    3    3  502    0  0.67835047874E+03  0.10805157026E+04  0.14949189673E+04  0.19653132764E+04  0.25500000920E-02 0.  1.
       -2    1    3    3    0  502 -0.67835047874E+03 -0.10805157026E+04 -0.52496227225E+03  0.13795865116E+04  0.25500000920E-02 0. -1.
</event>
<event>
 5   0  0.3764056E-07  0.3192743E+04  0.7818609E-02  0.8190736E-01
        2   -1    0    0  501    0  0.00000000000E+00  0.00000000000E+00  0.18920571655E+04  0.18920571655E+04  0.25500000920E-02 0.  1.
       -2   -1    0    0    0  501  0.00000000000E+00  0.00000000000E+00 -0.13468949847E+04  0.13468949847E+04  0.25500000920E-02 0. -1.
    10030    2    1    2    0    0  0.00000000000E+00  0.00000000000E+00  0.54516218086E+03  0.32389521502E+04  0.31927432136E+04 0.  0.
        5    1    3    3  502    0 -0.47141474187E+02 -0.11118121213E+04  0.14337126917E+04  0.18149112055E+04  0.46999998093E+01 0.  1.
       -5    1    3    3    0  502  0.47141474187E+02  0.11118121213E+04 -0.88855051083E+03  0.14240409446E+04  0.46999998093E+01 0. -1.
</event>
<event>
 5   0  0.1317293E-07  0.3180495E+04  0.7818609E-02  0.8193988E-01
       -1   -1    0    0    0  501  0.00000000000E+00  0.00000000000E+00  0.20648844043E+04  0.20648844043E+04  0.50400001928E-02 0. -1.
        1   -1    0    0  501    0  0.00000000000E+00  0.00000000000E+00 -0.12247110509E+04  0.12247110509E+04  0.50400001928E-02 0.  1.
    10030    2    1    2    0    0  0.00000000000E+00  0.00000000000E+00  0.84017335338E+03  0.32895954552E+04  0.31804947721E+04 0.  0.
        1    1    3    3  502    0 -0.41602336810E+03  0.14273377395E+04  0.10038206771E+04  0.17938852854E+04  0.50400001928E-02 0. -1.
       -1    1    3    3    0  502  0.41602336810E+03 -0.14273377395E+04 -0.16364732369E+03  0.14957101698E+04  0.50400001928E-02 0.  1.
</event>
<event>
 5   0  0.3830207E-07  0.3197643E+04  0.7818609E-02  0.8189440E-01
        2   -1    0    0  501    0  0.00000000000E+00  0.00000000000E+00  0.18351661035E+04  0.18351661035E+04  0.25500000920E-02 0.  1.
       -2   -1    0    0    0  501  0.00000000000E+00  0.00000000000E+00 -0.13929145041E+04  0.13929145041E+04  0.25500000920E-02 0. -1.
    10030    2    1    2    0    0  0.00000000000E+00  0.00000000000E+00  0.44225159934E+03  0.32280806076E+04  0.31976425585E+04 0.  0.
        4    1    3    3  502    0  0.99022474877E+03  0.10894436374E+04  0.85059574931E+03  0.17002785753E+04  0.12699999809E+01 0.  1.
       -4    1    3    3    0  502 -0.99022474877E+03 -0.10894436374E+04 -0.40834414997E+03  0.15278020323E+04  0.12699999809E+01 0. -1.
</event>
<event>
 5   0  0.3942564E-07  0.3206059E+04  0.7818609E-02  0.8187219E-01
       -2   -1    0    0    0  501  0.00000000000E+00  0.00000000000E+00  0.12502401100E+04  0.12502401100E+04  0.25500000920E-02 0.  1.
        2   -1    0    0  501    0  0.00000000000E+00  0.00000000000E+00 -0.20553681144E+04  0.20553681144E+04  0.25500000920E-02 0. -1.
    10030    2    1    2    0    0  0.00000000000E+00  0.00000000000E+00 -0.80512800435E+03  0.33056082244E+04  0.32060590496E+04 0.  0.
        3    1    3    3  502    0  0.36491832572E+02  0.53229683948E+03 -0.19611329275E+04  0.20324157913E+04  0.10100000352E+00 0. -1.
       -3    1    3    3    0  502 -0.36491832572E+02 -0.53229683948E+03  0.11560049231E+04  0.12731924331E+04  0.10100000352E+00 0.  1.
</event>
<event>
 5   0  0.3764056E-07  0.3271301E+04  0.7818609E-02  0.8170236E-01
        2   -1    0    0  501    0  0.00000000000E+00  0.00000000000E+00  0.20569471666E+04  0.20569471666E+04  0.25500000920E-02 0.  1.
       -2   -1    0    0    0  501  0.00000000000E+00  0.00000000000E+00 -0.13006425165E+04  0.13006425165E+04  0.25500000920E-02 0. -1.
    10030    2    1    2    0    0  0.00000000000E+00  0.00000000000E+00  0.75630465013E+03  0.33575896830E+04  0.32713012328E+04 0.  0.
        5    1    3    3  502    0 -0.15277849926E+04  0.52621152897E+03  0.63842611868E+03  0.17374221007E+04  0.46999998093E+01 0.  1.
       -5    1    3    3    0  502  0.15277849926E+04 -0.52621152897E+03  0.11787853146E+03  0.16201675824E+04  0.46999998093E+01 0. -1.
</event>
<event>
 5   0  0.3942564E-07  0.3199126E+04  0.7818609E-02  0.8189048E-01
       -2   -1    0    0    0  501  0.00000000000E+00  0.00000000000E+00  0.19934950761E+04  0.19934950761E+04  0.25500000920E-02 0.  1.
        2   -1    0    0  501    0  0.00000000000E+00  0.00000000000E+00 -0.12834754140E+04  0.12834754140E+04  0.25500000920E-02 0. -1.
    10030    2    1    2    0    0  0.00000000000E+00  0.00000000000E+00  0.71001966206E+03  0.32769704901E+04  0.31991260795E+04 0.  0.
        3    1    3    3  502    0  0.44254899088E+03 -0.49770653773E+03  0.18447156641E+04  0.19612591105E+04  0.10100000352E+00 0.  1.
       -3    1    3    3    0  502 -0.44254899088E+03  0.49770653773E+03 -0.11346960021E+04  0.13157113796E+04  0.10100000352E+00 0. -1.
</event>
<event>
 5   0  0.1365455E-07  0.3193143E+04  0.7818609E-02  0.8190630E-01
       -1   -1    0    0    0  501  0.00000000000E+00  0.00000000000E+00  0.25722820295E+04  0.25722820295E+04  0.50400001928E-02 0. -1.
        1   -1    0    0  501    0  0.00000000000E+00  0.00000000000E+00 -0.99096493631E+03  0.99096493632E+03  0.50400001928E-02 0.  1.
    10030    2    1    2    0    0  0.00000000000E+00  0.00000000000E+00  0.15813170932E+04  0.35632469658E+04  0.31931434654E+04 0.  0.
        3    1    3    3  502    0  0.63350600469E+03  0.13280278033E+04  0.14822082559E+04  0.20885231693E+04  0.10100000352E+00 0. -1.
       -3    1    3    3    0  502 -0.63350600469E+03 -0.13280278033E+04  0.99108837261E+02  0.14747237966E+04  0.10100000352E+00 0.  1.
</event>
<event>
 5   0  0.1365455E-07  0.3203005E+04  0.7818609E-02  0.8188024E-01
       -1   -1    0    0    0  501  0.00000000000E+00  0.00000000000E+00  0.21614191198E+04  0.21614191198E+04  0.50400001928E-02 0.  1.
        1   -1    0    0  501    0  0.00000000000E+00  0.00000000000E+00 -0.11866328627E+04  0.11866328628E+04  0.50400001928E-02 0. -1.
    10030    2    1    2    0    0  0.00000000000E+00  0.00000000000E+00  0.97478625710E+03  0.33480519826E+04  0.32030054373E+04 0.  0.
        3    1    3    3  502    0  0.75571427282E+03 -0.13374177261E+04  0.14096528639E+02  0.15362255558E+04  0.10100000352E+00 0.  1.
       -3    1    3    3    0  502 -0.75571427282E+03  0.13374177261E+04  0.96068972846E+03  0.18118264268E+04  0.10100000352E+00 0. -1.
</event>
<event>
 5   0  0.3830207E-07  0.3197908E+04  0.7818609E-02  0.8189370E-01
       -2   -1    0    0    0  501  0.00000000000E+00  0.00000000000E+00  0.14582419365E+04  0.14582419365E+04  0.25500000920E-02 0.  1.
        2   -1    0    0  501    0  0.00000000000E+00  0.00000000000E+00 -0.17532437622E+04  0.17532437622E+04  0.25500000920E-02 0. -1.
    10030    2    1    2    0    0  0.00000000000E+00  0.00000000000E+00 -0.29500182569E+03  0.32114856987E+04  0.31979078029E+04 0.  0.
        4    1    3    3  502    0 -0.12431638126E+03  0.38664571728E+03  0.14055783888E+04  0.14630795239E+04  0.12699999809E+01 0.  1.
       -4    1    3    3    0  502  0.12431638126E+03 -0.38664571728E+03 -0.17005802145E+04  0.17484061748E+04  0.12699999809E+01 0. -1.
</event>
<event>
 5   0  0.1277374E-07  0.3147065E+04  0.7818609E-02  0.8202939E-01
       -1   -1    0    0    0  501  0.00000000000E+00  0.00000000000E+00  0.12401694865E+04  0.12401694865E+04  0.50400001928E-02 0.  1.
        1   -1    0    0  501    0  0.00000000000E+00  0.00000000000E+00 -0.19965054472E+04  0.19965054472E+04  0.50400001928E-02 0. -1.
    10030    2    1    2    0    0  0.00000000000E+00  0.00000000000E+00 -0.75633596073E+03  0.32366749337E+04  0.31470653855E+04 0.  0.
        5    1    3    3  502    0 -0.87241654436E+03 -0.11837392210E+03 -0.17194731743E+04  0.19317694219E+04  0.46999998093E+01 0. -1.
       -5    1    3    3    0  502  0.87241654436E+03  0.11837392210E+03  0.96313721361E+03  0.13049055117E+04  0.46999998093E+01 0.  1.
</event>
<event>
 5   0  0.1277374E-07  0.3208912E+04  0.7818609E-02  0.8186468E-01
       -1   -1    0    0    0  501  0.00000000000E+00  0.00000000000E+00  0.12003623809E+04  0.12003623809E+04  0.50400001928E-02 0. -1.
        1   -1    0    0  501    0  0.00000000000E+00  0.00000000000E+00 -0.21445843387E+04  0.21445843387E+04  0.50400001928E-02 0.  1.
    10030    2    1    2    0    0  0.00000000000E+00  0.00000000000E+00 -0.94422195776E+03  0.33449467196E+04  0.32089115681E+04 0.  0.
        5    1    3    3  502    0 -0.56694900515E+03  0.15006803978E+04 -0.44293436175E+03  0.16642372936E+04  0.46999998093E+01 0.  1.
       -5    1    3    3    0  502  0.56694900515E+03 -0.15006803978E+04 -0.50128759601E+03  0.16807094260E+04  0.46999998093E+01 0. -1.
</event>
<event>
 5   0  0.1230450E-07  0.3200559E+04  0.7818609E-02  0.8188669E-01
       -3   -1    0    0    0  501  0.00000000000E+00  0.00000000000E+00  0.14814648205E+04  0.14814648239E+04  0.10100000352E+00 0.  1.
        3   -1    0    0  501    0  0.00000000000E+00  0.00000000000E+00 -0.17286234973E+04  0.17286235002E+04  0.10100000352E+00 0. -1.
    10030    2    1    2    0    0  0.00000000000E+00  0.00000000000E+00 -0.24715867680E+03  0.32100883242E+04  0.32005592695E+04 0.  0.
        5    1    3    3  502    0 -0.88227308316E+03  0.12757016186E+04  0.27135997194E+03  0.15746360650E+04  0.46999998093E+01 0. -1.
       -5    1    3    3    0  502  0.88227308316E+03 -0.12757016186E+04 -0.51851864874E+03  0.16354522592E+04  0.46999998093E+01 0.  1.
</event>
<event>
 5   0  0.1365455E-07  0.3200780E+04  0.7818609E-02  0.8188611E-01
       -1   -1    0    0    0  501  0.00000000000E+00  0.00000000000E+00  0.24613433718E+04  0.24613433718E+04  0.50400001928E-02 0.  1.
        1   -1    0    0  501    0  0.00000000000E+00  0.00000000000E+00 -0.10405893735E+04  0.10405893735E+04  0.50400001928E-02 0. -1.
    10030    2    1    2    0    0  0.00000000000E+00  0.00000000000E+00  0.14207539983E+04  0.35019327453E+04  0.32007797533E+04 0.  0.
        3    1    3    3  502    0  0.40605908577E+03 -0.32834528441E+03 -0.94475452539E+03  0.10794701156E+04  0.10100000352E+00 0. -1.
       -3    1    3    3    0  502 -0.40605908577E+03  0.32834528441E+03  0.23655085236E+04  0.24224626298E+04  0.10100000352E+00 0.  1.
</event>
<event>
 5   0  0.3750285E-07  0.3195477E+04  0.7818609E-02  0.8190013E-01
       -2   -1    0    0    0  501  0.00000000000E+00  0.00000000000E+00  0.16909746917E+04  0.16909746917E+04  0.25500000920E-02 0. -1.
        2   -1    0    0  501    0  0.00000000000E+00  0.00000000000E+00 -0.15096429848E+04  0.15096429848E+04  0.25500000920E-02 0.  1.
    10030    2    1    2    0    0  0.00000000000E+00  0.00000000000E+00  0.18133170685E+03  0.32006176765E+04  0.31954768538E+04 0.  0.
        1    1    3    3  502    0  0.54618892864E+03 -0.98709230448E+03 -0.10425669621E+04  0.15361052808E+04  0.50400001928E-02 0.  1.
       -1    1    3    3    0  502 -0.54618892864E+03  0.98709230448E+03  0.12238986690E+04  0.16645123956E+04  0.50400001928E-02 0. -1.
</event>
<event>
 5   0  0.1288096E-07  0.3199519E+04  0.7818609E-02  0.8188944E-01
       -1   -1    0    0    0  501  0.00000000000E+00  0.00000000000E+00  0.10866114706E+04  0.10866114706E+04  0.50400001928E-02 0. -1.
        1   -1    0    0  501    0  0.00000000000E+00  0.00000000000E+00 -0.23552400298E+04  0.23552400298E+04  0.50400001928E-02 0.  1.
    10030    2    1    2    0    0  0.00000000000E+00  0.00000000000E+00 -0.12686285591E+04  0.34418515004E+04  0.31995192342E+04 0.  0.
        2    1    3    3  502    0 -0.12378489500E+04  0.79902852022E+02 -0.17210655388E+04  0.21214902963E+04  0.25500000920E-02 0.  1.
       -2    1    3    3    0  502  0.12378489500E+04 -0.79902852022E+02  0.45243697964E+03  0.13203612041E+04  0.25500000920E-02 0. -1.
</event>
<event>
 5   0  0.1365455E-07  0.3198994E+04  0.7818609E-02  0.8189083E-01
       -1   -1    0    0    0  501  0.00000000000E+00  0.00000000000E+00  0.21469933233E+04  0.21469933233E+04  0.50400001928E-02 0. -1.
        1   -1    0    0  501    0  0.00000000000E+00  0.00000000000E+00 -0.11916157740E+04  0.11916157740E+04  0.50400001928E-02 0.  1.
    10030    2    1    2    0    0  0.00000000000E+00  0.00000000000E+00  0.95537754932E+03  0.33386090974E+04  0.31989942862E+04 0.  0.
        3    1    3    3  502    0  0.54777632622E+03 -0.62082362790E+03  0.19059596746E+04  0.20780190500E+04  0.10100000352E+00 0. -1.
       -3    1    3    3    0  502 -0.54777632622E+03  0.62082362790E+03 -0.95058212529E+03  0.12605900474E+04  0.10100000352E+00 0.  1.
</event>
<event>
 5   0  0.1288096E-07  0.3198717E+04  0.7818609E-02  0.8189156E-01
       -1   -1    0    0    0  501  0.00000000000E+00  0.00000000000E+00  0.13673986183E+04  0.13673986183E+04  0.50400001928E-02 0.  1.
        1   -1    0    0  501    0  0.00000000000E+00  0.00000000000E+00 -0.18706668697E+04  0.18706668697E+04  0.50400001928E-02 0. -1.
    10030    2    1    2    0    0  0.00000000000E+00  0.00000000000E+00 -0.50326825141E+03  0.32380654879E+04  0.31987168007E+04 0.  0.
        2    1    3    3  502    0  0.91678315165E+03 -0.11709684090E+04  0.34406798819E+03  0.15264472288E+04  0.25500000920E-02 0.  1.
       -2    1    3    3    0  502 -0.91678315165E+03  0.11709684090E+04 -0.84733623960E+03  0.17116182591E+04  0.25500000920E-02 0. -1.
</event>
<event>
 5   0  0.1365455E-07  0.3194959E+04  0.7818609E-02  0.8190150E-01
        1   -1    0    0  501    0  0.00000000000E+00  0.00000000000E+00  0.22661579613E+04  0.22661579613E+04  0.50400001928E-02 0.  1.
       -1   -1    0    0    0  501  0.00000000000E+00  0.00000000000E+00 -0.11261088464E+04  0.11261088464E+04  0.50400001928E-02 0. -1.
    10030    2    1    2    0    0  0.00000000000E+00  0.00000000000E+00  0.11400491149E+04  0.33922668076E+04  0.31949588589E+04 0.  0.
        3    1    3    3  502    0  0.48586060357E+03  0.93021990268E+03 -0.70875067662E+03  0.12663716379E+04  0.10100000352E+00 0. -1.
       -3    1    3    3    0  502 -0.48586060357E+03 -0.93021990268E+03  0.18487997915E+04  0.21258951698E+04  0.10100000352E+00 0.  1.
</event>
<event>
 5   0  0.3764056E-07  0.3200605E+04  0.7818609E-02  0.8188657E-01
        2   -1    0    0  501    0  0.00000000000E+00  0.00000000000E+00  0.17117885509E+04  0.17117885509E+04  0.25500000920E-02 0.  1.
       -2   -1    0    0    0  501  0.00000000000E+00  0.00000000000E+00 -0.14960777210E+04  0.14960777210E+04  0.25500000920E-02 0. -1.
    10030    2    1    2    0    0  0.00000000000E+00  0.00000000000E+00  0.21571082985E+03  0.32078662719E+04  0.32006053890E+04 0.  0.
        5    1    3    3  502    0  0.29005491246E+03  0.31281142567E+03 -0.14380326295E+04  0.14999809245E+04  0.46999998093E+01 0. -1.
       -5    1    3    3    0  502 -0.29005491246E+03 -0.31281142567E+03  0.16537434594E+04  0.17078853474E+04  0.46999998093E+01 0.  1.
</event>
<event>
 5   0  0.3750285E-07  0.3191152E+04  0.7818609E-02  0.8191158E-01
       -2   -1    0    0    0  501  0.00000000000E+00  0.00000000000E+00  0.93085815353E+03  0.93085815354E+03  0.25500000920E-02 0. -1.
        2   -1    0    0  501    0  0.00000000000E+00  0.00000000000E+00 -0.27349627245E+04  0.27349627245E+04  0.25500000920E-02 0.  1.
    10030    2    1    2    0    0  0.00000000000E+00  0.00000000000E+00 -0.18041045710E+04  0.36658208780E+04  0.31911517367E+04 0.  0.
        1    1    3    3  502    0  0.14480478449E+03 -0.73818485924E+03  0.71436640069E+03  0.10374028468E+04  0.50400001928E-02 0. -1.
       -1    1    3    3    0  502 -0.14480478449E+03  0.73818485924E+03 -0.25184709716E+04  0.26284180313E+04  0.50400001928E-02 0.  1.
</event>
<event>
 5   0  0.1317293E-07  0.3198692E+04  0.7818609E-02  0.8189163E-01
       -1   -1    0    0    0  501  0.00000000000E+00  0.00000000000E+00  0.17271836672E+04  0.17271836672E+04  0.50400001928E-02 0.  1.
        1   -1    0    0  501    0  0.00000000000E+00  0.00000000000E+00 -0.14809703324E+04  0.14809703324E+04  0.50400001928E-02 0. -1.
    10030    2    1    2    0    0  0.00000000000E+00  0.00000000000E+00  0.24621333480E+03  0.32081539995E+04  0.31986920887E+04 0.  0.
        1    1    3    3  502    0 -0.18023276302E+03  0.71092013175E+03  0.15485837127E+04  0.17134768157E+04  0.50400001928E-02 0.  1.
       -1    1    3    3    0  502  0.18023276302E+03 -0.71092013175E+03 -0.13023703779E+04  0.14946771838E+04  0.50400001928E-02 0. -1.
</event>
<event>
 5   0  0.3858721E-07  0.3200424E+04  0.7818609E-02  0.8188705E-01
        2   -1    0    0  501    0  0.00000000000E+00  0.00000000000E+00  0.19136585107E+04  0.19136585107E+04  0.25500000920E-02 0. -1.
       -2   -1    0    0    0  501  0.00000000000E+00  0.00000000000E+00 -0.13381066594E+04  0.13381066594E+04  0.25500000920E-02 0.  1.
    10030    2    1    2    0    0  0.00000000000E+00  0.00000000000E+00  0.57555185135E+03  0.32517651701E+04  0.32004244700E+04 0.  0.
        2    1    3    3  502    0  0.93326592352E+02  0.83240097199E+03  0.16731287501E+04  0.18710855260E+04  0.25500000920E-02 0. -1.
       -2    1    3    3    0  502 -0.93326592352E+02 -0.83240097199E+03 -0.10975768988E+04  0.13806796442E+04  0.25500000920E-02 0.  1.
</event>
<event>
 5   0  0.3764056E-07  0.3199506E+04  0.7818609E-02  0.8188948E-01
       -2   -1    0    0    0  501  0.00000000000E+00  0.00000000000E+00  0.12372115396E+04  0.12372115396E+04  0.25500000920E-02 0. -1.
        2   -1    0    0  501    0  0.00000000000E+00  0.00000000000E+00 -0.20685306961E+04  0.20685306961E+04  0.25500000920E-02 0.  1.
    10030    2    1    2    0    0  0.00000000000E+00  0.00000000000E+00 -0.83131915654E+03  0.33057422358E+04  0.31995062415E+04 0.  0.
        5    1    3    3  502    0 -0.31787543403E+03 -0.13575089368E+04 -0.12261239866E+04  0.18566845251E+04  0.46999998093E+01 0.  1.
       -5    1    3    3    0  502  0.31787543403E+03  0.13575089368E+04  0.39480483009E+03  0.14490577107E+04  0.46999998093E+01 0. -1.
</event>
<event>
 5   0  0.1288096E-07  0.3194946E+04  0.7818609E-02  0.8190153E-01
        1   -1    0    0  501    0  0.00000000000E+00  0.00000000000E+00  0.16150038391E+04  0.16150038391E+04  0.50400001928E-02 0.  1.
       -1   -1    0    0    0  501  0.00000000000E+00  0.00000000000E+00 -0.15801321274E+04  0.15801321274E+04  0.50400001928E-02 0. -1.
    10030    2    1    2    0    0  0.00000000000E+00  0.00000000000E+00  0.34871711669E+02  0.31951359665E+04  0.31949456659E+04 0.  0.
        2    1    3    3  502    0  0.13609182554E+04  0.58837118464E+02  0.85196692461E+03  0.16066760548E+04  0.25500000920E-02 0.  1.
       -2    1    3    3    0  502 -0.13609182554E+04 -0.58837118464E+02 -0.81709521294E+03  0.15884599118E+04  0.25500000920E-02 0. -1.
</event>
<event>
 5   0  0.3858721E-07  0.3198585E+04  0.7818609E-02  0.8189191E-01
        2   -1    0    0  501    0  0.00000000000E+00  0.00000000000E+00  0.15181776040E+04  0.15181776040E+04  0.25500000920E-02 0. -1.
       -2   -1    0    0    0  501  0.00000000000E+00  0.00000000000E+00 -0.16847413516E+04  0.16847413516E+04  0.25500000920E-02 0.  1.
    10030    2    1    2    0    0  0.00000000000E+00  0.00000000000E+00 -0.16656374762E+03  0.32029189555E+04  0.31985850550E+04 0.  0.
        2    1    3    3  502    0  0.73788443599E+03  0.53720781252E+03  0.12317647952E+04  0.15330721397E+04  0.25500000920E-02 0. -1.
       -2    1    3    3    0  502 -0.73788443599E+03 -0.53720781252E+03 -0.13983285428E+04  0.16698468159E+04  0.25500000920E-02 0.  1.
</event>
<event>
 5   0  0.3942564E-07  0.3208596E+04  0.7818609E-02  0.8186551E-01
        2   -1    0    0  501    0  0.00000000000E+00  0.00000000000E+00  0.11974698222E+04  0.11974698222E+04  0.25500000920E-02 0.  1.
       -2   -1    0    0    0  501  0.00000000000E+00  0.00000000000E+00 -0.21493414078E+04  0.21493414078E+04  0.25500000920E-02 0. -1.
    10030    2    1    2    0    0  0.00000000000E+00  0.00000000000E+00 -0.95187158567E+03  0.33468112300E+04  0.32085956264E+04 0.  0.
        3    1    3    3  502    0 -0.14002269229E+03  0.54968684685E+03  0.10893777312E+04  0.12282124554E+04  0.10100000352E+00 0.  1.
       -3    1    3    3    0  502  0.14002269229E+03 -0.54968684685E+03 -0.20412493169E+04  0.21185987747E+04  0.10100000352E+00 0. -1.
</event>
<event>
 5   0  0.1230450E-07  0.3210530E+04  0.7818609E-02  0.8186042E-01
        3   -1    0    0  501    0  0.00000000000E+00  0.00000000000E+00  0.20266271416E+04  0.20266271441E+04  0.10100000352E+00 0.  1.
       -3   -1    0    0    0  501  0.00000000000E+00  0.00000000000E+00 -0.12715092280E+04  0.12715092320E+04  0.10100000352E+00 0. -1.
    10030    2    1    2    0    0  0.00000000000E+00  0.00000000000E+00  0.75511791355E+03  0.32981363761E+04  0.32105296279E+04 0.  0.
        1    1    3    3  502    0 -0.10403689308E+04 -0.92920837976E+03  0.11936412005E+04  0.18359125907E+04  0.50400001928E-02 0.  1.
       -1    1    3    3    0  502  0.10403689308E+04  0.92920837976E+03 -0.43852328693E+03  0.14622237854E+04  0.50400001928E-02 0. -1.
</event>
<event>
 5   0  0.1277374E-07  0.3177483E+04  0.7818609E-02  0.8194789E-01
        1   -1    0    0  501    0  0.00000000000E+00  0.00000000000E+00  0.18085947263E+04  0.18085947264E+04  0.50400001928E-02 0. -1.
       -1   -1    0    0    0  501  0.00000000000E+00  0.00000000000E+00 -0.13956138278E+04  0.13956138278E+04  0.50400001928E-02 0.  1.
    10030    2    1    2    0    0  0.00000000000E+00  0.00000000000E+00  0.41298089857E+03  0.32042085541E+04  0.31774831606E+04 0.  0.
        5    1    3    3  502    0  0.25301845592E+02  0.14229246931E+04  0.91863335568E+03  0.16938902555E+04  0.46999998093E+01 0.  1.
       -5    1    3    3    0  502 -0.25301845592E+02 -0.14229246931E+04 -0.50565245711E+03  0.15103182986E+04  0.46999998093E+01 0. -1.
</event>
<event>
 5   0  0.3750285E-07  0.3204129E+04  0.7818609E-02  0.8187728E-01
        2   -1    0    0  501    0  0.00000000000E+00  0.00000000000E+00  0.13381718532E+04  0.13381718532E+04  0.25500000920E-02 0. -1.
       -2   -1    0    0    0  501  0.00000000000E+00  0.00000000000E+00 -0.19179974520E+04  0.19179974520E+04  0.25500000920E-02 0.  1.
    10030    2    1    2    0    0  0.00000000000E+00  0.00000000000E+00 -0.57982559885E+03  0.32561693052E+04  0.32041287145E+04 0.  0.
        1    1    3    3  502    0 -0.12651025648E+04 -0.11524567712E+03 -0.12819043148E+04  0.18047284388E+04  0.50400001928E-02 0.  1.
       -1    1    3    3    0  502  0.12651025648E+04  0.11524567712E+03  0.70207871592E+03  0.14514408665E+04  0.50400001928E-02 0. -1.
</event>
<event>
 5   0  0.1270948E-07  0.3191690E+04  0.7818609E-02  0.8191015E-01
       -1   -1    0    0    0  501  0.00000000000E+00  0.00000000000E+00  0.97829819952E+03  0.97829819953E+03  0.50400001928E-02 0. -1.
        1   -1    0    0  501    0  0.00000000000E+00  0.00000000000E+00 -0.26032158021E+04  0.26032158021E+04  0.50400001928E-02 0.  1.
    10030    2    1    2    0    0  0.00000000000E+00  0.00000000000E+00 -0.16249176026E+04  0.35815140016E+04  0.31916900427E+04 0.  0.
        4    1    3    3  502    0 -0.11346836086E+04  0.41426573810E+03  0.35779454160E+03  0.12598180584E+04  0.12699999809E+01 0. -1.
       -4    1    3    3    0  502  0.11346836086E+04 -0.41426573810E+03 -0.19827121442E+04  0.23216959432E+04  0.12699999809E+01 0.  1.
</event>
<event>
 5   0  0.1288096E-07  0.3194604E+04  0.7818609E-02  0.8190244E-01
       -1   -1    0    0    0  501  0.00000000000E+00  0.00000000000E+00  0.11539544024E+04  0.11539544024E+04  0.50400001928E-02 0. -1.
        1   -1    0    0  501    0  0.00000000000E+00  0.00000000000E+00 -0.22109824238E+04  0.22109824238E+04  0.50400001928E-02 0.  1.
    10030    2    1    2    0    0  0.00000000000E+00  0.00000000000E+00 -0.10570280214E+04  0.33649368262E+04  0.31946035132E+04 0.  0.
        2    1    3    3  502    0 -0.14721124942E+04  0.60306881140E+03 -0.37746014216E+03  0.16350178427E+04  0.25500000920E-02 0.  1.
       -2    1    3    3    0  502  0.14721124942E+04 -0.60306881140E+03 -0.67956787928E+03  0.17299189835E+04  0.25500000920E-02 0. -1.
</event>
<event>
 5   0  0.3830207E-07  0.3198133E+04  0.7818609E-02  0.8189310E-01
       -2   -1    0    0    0  501  0.00000000000E+00  0.00000000000E+00  0.92725299448E+03  0.92725299448E+03  0.25500000920E-02 0.  1.
        2   -1    0    0  501    0  0.00000000000E+00  0.00000000000E+00 -0.27576227900E+04  0.27576227900E+04  0.25500000920E-02 0. -1.
    10030    2    1    2    0    0  0.00000000000E+00  0.00000000000E+00 -0.18303697955E+04  0.36848757845E+04  0.31981331990E+04 0.  0.
        4    1    3    3  502    0  0.13149910783E+04 -0.42739153961E+03  0.10271050467E+02  0.13827408186E+04  0.12699999809E+01 0.  1.
       -4    1    3    3    0  502 -0.13149910783E+04  0.42739153961E+03 -0.18406408460E+04  0.23021349658E+04  0.12699999809E+01 0. -1.
</event>
<event>
 5   0  0.3858721E-07  0.3201232E+04  0.7818609E-02  0.8188492E-01
       -2   -1    0    0    0  501  0.00000000000E+00  0.00000000000E+00  0.10597423916E+04  0.10597423916E+04  0.25500000920E-02 0.  1.
        2   -1    0    0  501    0  0.00000000000E+00  0.00000000000E+00 -0.24175417392E+04  0.24175417392E+04  0.25500000920E-02 0. -1.
    10030    2    1    2    0    0  0.00000000000E+00  0.00000000000E+00 -0.13577993476E+04  0.34772841308E+04  0.32012319282E+04 0.  0.
        2    1    3    3  502    0 -0.21856710240E+03  0.88125513028E+03  0.75294729111E+03  0.11795388108E+04  0.25500000920E-02 0.  1.
       -2    1    3    3    0  502  0.21856710240E+03 -0.88125513028E+03 -0.21107466387E+04  0.22977453200E+04  0.25500000920E-02 0. -1.
</event>
<event>
 5   0  0.3764056E-07  0.3190897E+04  0.7818609E-02  0.8191225E-01
       -2   -1    0    0    0  501  0.00000000000E+00  0.00000000000E+00  0.17370748148E+04  0.17370748148E+04  0.25500000920E-02 0. -1.
        2   -1    0    0  501    0  0.00000000000E+00  0.00000000000E+00 -0.14653692510E+04  0.14653692510E+04  0.25500000920E-02 0.  1.
    10030    2    1    2    0    0  0.00000000000E+00  0.00000000000E+00  0.27170556383E+03  0.32024440658E+04  0.31908970653E+04 0.  0.
        5    1    3    3  502    0 -0.10299192614E+04  0.93310210937E+03  0.92228312974E+03  0.16679452907E+04  0.46999998093E+01 0. -1.
       -5    1    3    3    0  502  0.10299192614E+04 -0.93310210937E+03 -0.65057756591E+03  0.15344987751E+04  0.46999998093E+01 0.  1.
</event>
<event>
 5   0  0.1288096E-07  0.3201528E+04  0.7818609E-02  0.8188414E-01
       -1   -1    0    0    0  501  0.00000000000E+00  0.00000000000E+00  0.11490835187E+04  0.11490835187E+04  0.50400001928E-02 0.  1.
        1   -1    0    0  501    0  0.00000000000E+00  0.00000000000E+00 -0.22299908147E+04  0.22299908147E+04  0.50400001928E-02 0. -1.
    10030    2    1    2    0    0  0.00000000000E+00  0.00000000000E+00 -0.10809072960E+04  0.33790743335E+04  0.32015281927E+04 0.  0.
        2    1    3    3  502    0 -0.24257976939E+03  0.13896702050E+04 -0.13389939772E+04  0.19449763737E+04  0.25500000920E-02 0. -1.
       -2    1    3    3    0  502  0.24257976939E+03 -0.13896702050E+04  0.25808668119E+03  0.14340979598E+04  0.25500000920E-02 0.  1.
</event>
<event>
 5   0  0.3830207E-07  0.3196989E+04  0.7818609E-02  0.8189613E-01
        2   -1    0    0  501    0  0.00000000000E+00  0.00000000000E+00  0.18942899852E+04  0.18942899852E+04  0.25500000920E-02 0. -1.
       -2   -1    0    0    0  501  0.00000000000E+00  0.00000000000E+00 -0.13488879313E+04  0.13488879313E+04  0.25500000920E-02 0.  1.
    10030    2    1    2    0    0  0.00000000000E+00  0.00000000000E+00  0.54540205387E+03  0.32431779165E+04  0.31969891457E+04 0.  0.
        4    1    3    3  502    0 -0.13527123885E+04  0.58802658687E+03  0.89770054028E+03  0.17266945143E+04  0.12699999809E+01 0.  1.
       -4    1    3    3    0  502  0.13527123885E+04 -0.58802658687E+03 -0.35229848641E+03  0.15164834022E+04  0.12699999809E+01 0. -1.
</event>
<event>
 5   0  0.3942564E-07  0.3203228E+04  0.7818609E-02  0.8187965E-01
        2   -1    0    0  501    0  0.00000000000E+00  0.00000000000E+00  0.16196168525E+04  0.16196168525E+04  0.25500000920E-02 0. -1.
       -2   -1    0    0    0  501  0.00000000000E+00  0.00000000000E+00 -0.15838112738E+04  0.15838112738E+04  0.25500000920E-02 0.  1.
    10030    2    1    2    0    0  0.00000000000E+00  0.00000000000E+00  0.35805578725E+02  0.32034281263E+04  0.32032280158E+04 0.  0.
        3    1    3    3  502    0  0.11773766207E+04 -0.78791596060E+03  0.76503724176E+03  0.16100649861E+04  0.10100000352E+00 0. -1.
       -3    1    3    3    0  502 -0.11773766207E+04  0.78791596060E+03 -0.72923166303E+03  0.15933631402E+04  0.10100000352E+00 0.  1.
</event>
<event>
 5   0  0.1365455E-07  0.3201403E+04  0.7818609E-02  0.8188447E-01
        1   -1    0    0  501    0  0.00000000000E+00  0.00000000000E+00  0.31165995501E+04  0.31165995501E+04  0.50400001928E-02 0.  1.
       -1   -1    0    0    0  501  0.00000000000E+00  0.00000000000E+00 -0.82212864363E+03  0.82212864365E+03  0.50400001928E-02 0. -1.
    10030    2    1    2    0    0  0.00000000000E+00  0.00000000000E+00  0.22944709064E+04  0.39387281937E+04  0.32014032929E+04 0.  0.
        3    1    3    3  502    0 -0.12418575111E+04 -0.27947011710E+03  0.23412934714E+04  0.26649519233E+04  0.10100000352E+00 0.  1.
       -3    1    3    3    0  502  0.12418575111E+04  0.27947011710E+03 -0.46822564945E+02  0.12737762704E+04  0.10100000352E+00 0. -1.
</event>
<event>
 5   0  0.3942564E-07  0.3177658E+04  0.7818609E-02  0.8194743E-01
       -2   -1    0    0    0  501  0.00000000000E+00  0.00000000000E+00  0.10310199349E+04  0.10310199349E+04  0.25500000920E-02 0. -1.
        2   -1    0    0  501    0  0.00000000000E+00  0.00000000000E+00 -0.24484274830E+04  0.24484274830E+04  0.25500000920E-02 0.  1.
    10030    2    1    2    0    0  0.00000000000E+00  0.00000000000E+00 -0.14174075481E+04  0.34794474180E+04  0.31776579704E+04 0.  0.
        3    1    3    3  502    0  0.13614784345E+04  0.56290382799E+03 -0.13600910788E+04  0.20050765572E+04  0.10100000352E+00 0.  1.
       -3    1    3    3    0  502 -0.13614784345E+04 -0.56290382799E+03 -0.57316469272E+02  0.14743708608E+04  0.10100000352E+00 0. -1.
</event>
<event>
 5   0  0.1288096E-07  0.3191908E+04  0.7818609E-02  0.8190958E-01
       -1   -1    0    0    0  501  0.00000000000E+00  0.00000000000E+00  0.18745187087E+04  0.18745187088E+04  0.50400001928E-02 0.  1.
        1   -1    0    0  501    0  0.00000000000E+00  0.00000000000E+00 -0.13587857242E+04  0.13587857242E+04  0.50400001928E-02 0. -1.
    10030    2    1    2    0    0  0.00000000000E+00  0.00000000000E+00  0.51573298454E+03  0.32333044330E+04  0.31919080571E+04 0.  0.
        2    1    3    3  502    0 -0.27426339491E+03  0.83592593175E+03 -0.10909721042E+04  0.14015037300E+04  0.25500000920E-02 0. -1.
       -2    1    3    3    0  502  0.27426339491E+03 -0.83592593175E+03  0.16067050887E+04  0.18318007029E+04  0.25500000920E-02 0.  1.
</event>
<event>
 5   0  0.1317293E-07  0.3191652E+04  0.7818609E-02  0.8191025E-01
       -1   -1    0    0    0  501  0.00000000000E+00  0.00000000000E+00  0.16408133899E+04  0.16408133899E+04  0.50400001928E-02 0. -1.
        1   -1    0    0  501    0  0.00000000000E+00  0.00000000000E+00 -0.15520725031E+04  0.15520725031E+04  0.50400001928E-02 0.  1.
    10030    2    1    2    0    0  0.00000000000E+00  0.00000000000E+00  0.88740886852E+02  0.31928858930E+04  0.31916524530E+04 0.  0.
        1    1    3    3  502    0 -0.18911891004E+03  0.77226822841E+03 -0.13398178380E+04  0.15579717641E+04  0.50400001928E-02 0.  1.
       -1    1    3    3    0  502  0.18911891004E+03 -0.77226822841E+03  0.14285587248E+04  0.16349141290E+04  0.50400001928E-02 0. -1.
</event>
<event>
 5   0  0.3830207E-07  0.3208219E+04  0.7818609E-02  0.8186650E-01
        2   -1    0    0  501    0  0.00000000000E+00  0.00000000000E+00  0.85827224430E+03  0.85827224431E+03  0.25500000920E-02 0.  1.
       -2   -1    0    0    0  501  0.00000000000E+00  0.00000000000E+00 -0.29980782041E+04  0.29980782041E+04  0.25500000920E-02 0. -1.
    10030    2    1    2    0    0  0.00000000000E+00  0.00000000000E+00 -0.21398059598E+04  0.38563504484E+04  0.32082190130E+04 0.  0.
        4    1    3    3  502    0 -0.29881335817E+03 -0.15104741326E+04 -0.16106047993E+04  0.22281990398E+04  0.12699999809E+01 0. -1.
       -4    1    3    3    0  502  0.29881335817E+03  0.15104741326E+04 -0.52920116047E+03  0.16281514086E+04  0.12699999809E+01 0.  1.
</event>
<event>
 5   0  0.3830207E-07  0.3189121E+04  0.7818609E-02  0.8191696E-01
        2   -1    0    0  501    0  0.00000000000E+00  0.00000000000E+00  0.19254110582E+04  0.19254110582E+04  0.25500000920E-02 0. -1.
       -2   -1    0    0    0  501  0.00000000000E+00  0.00000000000E+00 -0.13205615534E+04  0.13205615534E+04  0.25500000920E-02 0.  1.
    10030    2    1    2    0    0  0.00000000000E+00  0.00000000000E+00  0.60484950477E+03  0.32459726116E+04  0.31891213950E+04 0.  0.
        4    1    3    3  502    0  0.87774760163E+03 -0.76150576154E+03 -0.80896096280E+03  0.14158924144E+04  0.12699999809E+01 0.  1.
       -4    1    3    3    0  502 -0.87774760163E+03  0.76150576154E+03  0.14138104676E+04  0.18300801972E+04  0.12699999809E+01 0. -1.
</event>
<event>
 5   0  0.3830207E-07  0.3206151E+04  0.7818609E-02  0.8187195E-01
        2   -1    0    0  501    0  0.00000000000E+00  0.00000000000E+00  0.17181563110E+04  0.17181563110E+04  0.25500000920E-02 0.  1.
       -2   -1    0    0    0  501  0.00000000000E+00  0.00000000000E+00 -0.14957026436E+04  0.14957026436E+04  0.25500000920E-02 0. -1.
    10030    2    1    2    0    0  0.00000000000E+00  0.00000000000E+00  0.22245366737E+03  0.32138589546E+04  0.32061509238E+04 0.  0.
        4    1    3    3  502    0 -0.14365377010E+04  0.50143455193E+03 -0.39473624284E+03  0.15719082323E+04  0.12699999809E+01 0. -1.
       -4    1    3    3    0  502  0.14365377010E+04 -0.50143455193E+03  0.61718991021E+03  0.16419507223E+04  0.12699999809E+01 0.  1.
</event>
<event>
 5   0  0.1317293E-07  0.3201097E+04  0.7818609E-02  0.8188527E-01
        1   -1    0    0  501    0  0.00000000000E+00  0.00000000000E+00  0.15856989934E+04  0.15856989934E+04  0.50400001928E-02 0. -1.
       -1   -1    0    0    0  501  0.00000000000E+00  0.00000000000E+00 -0.16155372146E+04  0.16155372147E+04  0.50400001928E-02 0.  1.
    10030    2    1    2    0    0  0.00000000000E+00  0.00000000000E+00 -0.29838221256E+02  0.32012362081E+04  0.32010971463E+04 0.  0.
        1    1    3    3  502    0  0.90831022149E+03  0.10219295678E+04  0.81721573038E+03  0.15928619055E+04  0.50400001928E-02 0. -1.
       -1    1    3    3    0  502 -0.90831022149E+03 -0.10219295678E+04 -0.84705395163E+03  0.16083743025E+04  0.50400001928E-02 0.  1.
</event>
<event>
 5   0  0.3942564E-07  0.3201065E+04  0.7818609E-02  0.8188536E-01
       -2   -1    0    0    0  501  0.00000000000E+00  0.00000000000E+00  0.11506835210E+04  0.11506835210E+04  0.25500000920E-02 0.  1.
        2   -1    0    0  501    0  0.00000000000E+00  0.00000000000E+00 -0.22262458339E+04  0.22262458339E+04  0.25500000920E-02 0. -1.
    10030    2    1    2    0    0  0.00000000000E+00  0.00000000000E+00 -0.10755623129E+04  0.33769293549E+04  0.32010650694E+04 0.  0.
        3    1    3    3  502    0  0.11880173350E+04 -0.36009652864E+03  0.52799457357E+03  0.13490118525E+04  0.10100000352E+00 0.  1.
       -3    1    3    3    0  502 -0.11880173350E+04  0.36009652864E+03 -0.16035568865E+04  0.20279175024E+04  0.10100000352E+00 0. -1.
</event>
<event>
 5   0  0.3750285E-07  0.3197621E+04  0.7818609E-02  0.8189446E-01
        2   -1    0    0  501    0  0.00000000000E+00  0.00000000000E+00  0.22136109465E+04  0.22136109465E+04  0.25500000920E-02 0.  1.
       -2   -1    0    0    0  501  0.00000000000E+00  0.00000000000E+00 -0.11547627880E+04  0.11547627880E+04  0.25500000920E-02 0. -1.
    10030    2    1    2    0    0  0.00000000000E+00  0.00000000000E+00  0.10588481585E+04  0.33683737345E+04  0.31976213335E+04 0.  0.
        1    1    3    3  502    0 -0.10672951835E+04  0.31555502319E+03 -0.67969426356E+03  0.13041005610E+04  0.50400001928E-02 0. -1.
       -1    1    3    3    0  502  0.10672951835E+04 -0.31555502319E+03  0.17385424220E+04  0.20642731735E+04  0.50400001928E-02 0.  1.
</event>
<event>
 5   0  0.1288096E-07  0.3198071E+04  0.7818609E-02  0.8189327E-01
        1   -1    0    0  501    0  0.00000000000E+00  0.00000000000E+00  0.10568289308E+04  0.10568289308E+04  0.50400001928E-02 0.  1.
       -1   -1    0    0    0  501  0.00000000000E+00  0.00000000000E+00 -0.24194220748E+04  0.24194220748E+04  0.50400001928E-02 0. -1.
    10030    2    1    2    0    0  0.00000000000E+00  0.00000000000E+00 -0.13625931439E+04  0.34762510056E+04  0.31980714467E+04 0.  0.
        2    1    3    3  502    0  0.82993512823E+03 -0.22720236959E+03  0.78371450049E+03  0.11638821470E+04  0.25500000920E-02 0.  1.
       -2    1    3    3    0  502 -0.82993512823E+03  0.22720236959E+03 -0.21463076444E+04  0.23123688586E+04  0.25500000920E-02 0. -1.
</event>
<event>
 5   0  0.1317293E-07  0.3197939E+04  0.7818609E-02  0.8189362E-01
        1   -1    0    0  501    0  0.00000000000E+00  0.00000000000E+00  0.17889513823E+04  0.17889513824E+04  0.50400001928E-02 0.  1.
       -1   -1    0    0    0  501  0.00000000000E+00  0.00000000000E+00 -0.14291635467E+04  0.14291635467E+04  0.50400001928E-02 0. -1.
    10030    2    1    2    0    0  0.00000000000E+00  0.00000000000E+00  0.35978783564E+03  0.32181149291E+04  0.31979394006E+04 0.  0.
        1    1    3    3  502    0 -0.11025173993E+04 -0.64468950228E+03  0.11480106533E+04  0.17172936937E+04  0.50400001928E-02 0.  1.
       -1    1    3    3    0  502  0.11025173993E+04  0.64468950228E+03 -0.78822281771E+03  0.15008212354E+04  0.50400001928E-02 0. -1.
</event>
<event>
 5   0  0.1288096E-07  0.3173683E+04  0.7818609E-02  0.8195802E-01
        1   -1    0    0  501    0  0.00000000000E+00  0.00000000000E+00  0.19110198793E+04  0.19110198793E+04  0.50400001928E-02 0.  1.
       -1   -1    0    0    0  501  0.00000000000E+00  0.00000000000E+00 -0.13176551503E+04  0.13176551503E+04  0.50400001928E-02 0. -1.
    10030    2    1    2    0    0  0.00000000000E+00  0.00000000000E+00  0.59336472903E+03  0.32286750296E+04  0.31736825211E+04 0.  0.
        2    1    3    3  502    0 -0.77180457033E+03  0.72267269831E+03  0.15004553141E+04  0.18355664720E+04  0.25500000920E-02 0.  1.
       -2    1    3    3    0  502  0.77180457033E+03 -0.72267269831E+03 -0.90709058504E+03  0.13931085576E+04  0.25500000920E-02 0. -1.
</event>
<event>
 5   0  0.3942564E-07  0.3204080E+04  0.7818609E-02  0.8187740E-01
       -2   -1    0    0    0  501  0.00000000000E+00  0.00000000000E+00  0.12642890320E+04  0.12642890320E+04  0.25500000920E-02 0. -1.
        2   -1    0    0  501    0  0.00000000000E+00  0.00000000000E+00 -0.20300203500E+04  0.20300203500E+04  0.25500000920E-02 0.  1.
    10030    2    1    2    0    0  0.00000000000E+00  0.00000000000E+00 -0.76573131796E+03  0.32943093820E+04  0.32040801883E+04 0.  0.
        3    1    3    3  502    0  0.15220330633E+04 -0.22522485221E+03  0.76046103485E+02  0.15404849560E+04  0.10100000352E+00 0. -1.
       -3    1    3    3    0  502 -0.15220330633E+04  0.22522485221E+03 -0.84177742144E+03  0.17538244260E+04  0.10100000352E+00 0.  1.
</event>
<event>
 5   0  0.1288096E-07  0.3201070E+04  0.7818609E-02  0.8188535E-01
        1   -1    0    0  501    0  0.00000000000E+00  0.00000000000E+00  0.20191656350E+04  0.20191656350E+04  0.50400001928E-02 0.  1.
       -1   -1    0    0    0  501  0.00000000000E+00  0.00000000000E+00 -0.12686987900E+04  0.12686987900E+04  0.50400001928E-02 0. -1.
    10030    2    1    2    0    0  0.00000000000E+00  0.00000000000E+00  0.75046684499E+03  0.32878644249E+04  0.32010704446E+04 0.  0.
        2    1    3    3  502    0 -0.47544839593E+03 -0.13567492582E+04 -0.34732745607E+03  0.14790051009E+04  0.25500000920E-02 0. -1.
       -2    1    3    3    0  502  0.47544839593E+03  0.13567492582E+04  0.10977943011E+04  0.18088593240E+04  0.25500000920E-02 0.  1.
</event>
<event>
 5   0  0.3830207E-07  0.3201334E+04  0.7818609E-02  0.8188465E-01
       -2   -1    0    0    0  501  0.00000000000E+00  0.00000000000E+00  0.10059962810E+04  0.10059962810E+04  0.25500000920E-02 0. -1.
        2   -1    0    0  501    0  0.00000000000E+00  0.00000000000E+00 -0.25468636653E+04  0.25468636653E+04  0.25500000920E-02 0.  1.
    10030    2    1    2    0    0  0.00000000000E+00  0.00000000000E+00 -0.15408673843E+04  0.35528599463E+04  0.32013343314E+04 0.  0.
        4    1    3    3  502    0 -0.12304079851E+04  0.83758426426E+03 -0.14238847252E+04  0.20598302195E+04  0.12699999809E+01 0. -1.
       -4    1    3    3    0  502  0.12304079851E+04 -0.83758426426E+03 -0.11698265912E+03  0.14930297268E+04  0.12699999809E+01 0.  1.
</event>
<event>
 5   0  0.1365455E-07  0.3202728E+04  0.7818609E-02  0.8188097E-01
        1   -1    0    0  501    0  0.00000000000E+00  0.00000000000E+00  0.12344844863E+04  0.12344844863E+04  0.50400001928E-02 0.  1.
       -1   -1    0    0    0  501  0.00000000000E+00  0.00000000000E+00 -0.20772768759E+04  0.20772768759E+04  0.50400001928E-02 0. -1.
    10030    2    1    2    0    0  0.00000000000E+00  0.00000000000E+00 -0.84279238966E+03  0.33117613622E+04  0.32027276356E+04 0.  0.
        3    1    3    3  502    0 -0.42221674590E+03 -0.13833154687E+04 -0.11322120749E+04  0.18367724026E+04  0.10100000352E+00 0. -1.
       -3    1    3    3    0  502  0.42221674590E+03  0.13833154687E+04  0.28941968523E+03  0.14749889595E+04  0.10100000352E+00 0.  1.
</event>
<event>
 5   0  0.1317293E-07  0.3202458E+04  0.7818609E-02  0.8188168E-01
       -1   -1    0    0    0  501  0.00000000000E+00  0.00000000000E+00  0.12672189037E+04  0.12672189037E+04  0.50400001928E-02 0. -1.
        1   -1    0    0  501    0  0.00000000000E+00  0.00000000000E+00 -0.20232766920E+04  0.20232766920E+04  0.50400001928E-02 0.  1.
    10030    2    1    2    0    0  0.00000000000E+00  0.00000000000E+00 -0.75605778831E+03  0.32904955957E+04  0.32024581006E+04 0.  0.
        1    1    3    3  502    0 -0.12655568510E+04  0.83795724369E+03 -0.90207729123E+03  0.17656584960E+04  0.50400001928E-02 0.  1.
       -1    1    3    3    0  502  0.12655568510E+04 -0.83795724369E+03  0.14601950292E+03  0.15248370997E+04  0.50400001928E-02 0. -1.
</event>
<event>
 5   0  0.3830207E-07  0.3197608E+04  0.7818609E-02  0.8189449E-01
        2   -1    0    0  501    0  0.00000000000E+00  0.00000000000E+00  0.29912622248E+04  0.29912622248E+04  0.25500000920E-02 0. -1.
       -2   -1    0    0    0  501  0.00000000000E+00  0.00000000000E+00 -0.85454713110E+03  0.85454713110E+03  0.25500000920E-02 0.  1.
    10030    2    1    2    0    0  0.00000000000E+00  0.00000000000E+00  0.21367150937E+04  0.38458093559E+04  0.31976082015E+04 0.  0.
        4    1    3    3  502    0 -0.88394579492E+03 -0.45195015984E+03 -0.43890502450E+03  0.10854760931E+04  0.12699999809E+01 0.  1.
       -4    1    3    3    0  502  0.88394579492E+03  0.45195015984E+03  0.25756201182E+04  0.27603332628E+04  0.12699999809E+01 0. -1.
</event>
<event>
 5   0  0.3764056E-07  0.3197417E+04  0.7818609E-02  0.8189500E-01
        2   -1    0    0  501    0  0.00000000000E+00  0.00000000000E+00  0.11319005112E+04  0.11319005112E+04  0.25500000920E-02 0.  1.
       -2   -1    0    0    0  501  0.00000000000E+00  0.00000000000E+00 -0.22580327848E+04  0.22580327848E+04  0.25500000920E-02 0. -1.
    10030    2    1    2    0    0  0.00000000000E+00  0.00000000000E+00 -0.11261322737E+04  0.33899332960E+04  0.31974167469E+04 0.  0.
        5    1    3    3  502    0 -0.13515229752E+04  0.53265594511E+03 -0.12707193329E+04  0.19300482951E+04  0.46999998093E+01 0. -1.
       -5    1    3    3    0  502  0.13515229752E+04 -0.53265594511E+03  0.14458705924E+03  0.14598850009E+04  0.46999998093E+01 0.  1.
</event>
<event>
 5   0  0.1288096E-07  0.3202699E+04  0.7818609E-02  0.8188105E-01
        1   -1    0    0  501    0  0.00000000000E+00  0.00000000000E+00  0.23807285652E+04  0.23807285652E+04  0.50400001928E-02 0. -1.
       -1   -1    0    0    0  501  0.00000000000E+00  0.00000000000E+00 -0.10771156612E+04  0.10771156612E+04  0.50400001928E-02 0.  1.
    10030    2    1    2    0    0  0.00000000000E+00  0.00000000000E+00  0.13036129040E+04  0.34578442264E+04  0.32026988761E+04 0.  0.
        2    1    3    3  502    0 -0.54431632258E+03 -0.10585039229E+04  0.18084148187E+04  0.21649653508E+04  0.25500000920E-02 0. -1.
       -2    1    3    3    0  502  0.54431632258E+03  0.10585039229E+04 -0.50480191471E+03  0.12928788756E+04  0.25500000920E-02 0.  1.
</event>
<event>
 5   0  0.1270948E-07  0.3216471E+04  0.7818609E-02  0.8184481E-01
       -1   -1    0    0    0  501  0.00000000000E+00  0.00000000000E+00  0.12518632179E+04  0.12518632179E+04  0.50400001928E-02 0. -1.
        1   -1    0    0  501    0  0.00000000000E+00  0.00000000000E+00 -0.20660579729E+04  0.20660579729E+04  0.50400001928E-02 0.  1.
    10030    2    1    2    0    0  0.00000000000E+00  0.00000000000E+00 -0.81419475499E+03  0.33179211907E+04  0.32164713474E+04 0.  0.
        4    1    3    3  502    0 -0.55537443714E+03  0.14365035478E+04  0.70581902578E+02  0.15417414265E+04  0.12699999809E+01 0. -1.
       -4    1    3    3    0  502  0.55537443714E+03 -0.14365035478E+04 -0.88477665757E+03  0.17761797643E+04  0.12699999809E+01 0.  1.
</event>
<event>
 5   0  0.1317293E-07  0.3199506E+04  0.7818609E-02  0.8188948E-01
       -1   -1    0    0    0  501  0.00000000000E+00  0.00000000000E+00  0.16181758921E+04  0.16181758921E+04  0.50400001928E-02 0.  1.
        1   -1    0    0  501    0  0.00000000000E+00  0.00000000000E+00 -0.15815401969E+04  0.15815401969E+04  0.50400001928E-02 0. -1.
    10030    2    1    2    0    0  0.00000000000E+00  0.00000000000E+00  0.36635695126E+02  0.31997160890E+04  0.31995063488E+04 0.  0.
        1    1    3    3  502    0  0.94051705041E+03 -0.31466069350E+03 -0.12370040747E+04  0.15854850220E+04  0.50400001928E-02 0. -1.
       -1    1    3    3    0  502 -0.94051705041E+03  0.31466069350E+03  0.12736397699E+04  0.16142310670E+04  0.50400001928E-02 0.  1.
</event>
<event>
 5   0  0.1277374E-07  0.3201251E+04  0.7818609E-02  0.8188487E-01
        1   -1    0    0  501    0  0.00000000000E+00  0.00000000000E+00  0.21884317774E+04  0.21884317774E+04  0.50400001928E-02 0.  1.
       -1   -1    0    0    0  501  0.00000000000E+00  0.00000000000E+00 -0.11707025321E+04  0.11707025322E+04  0.50400001928E-02 0. -1.
    10030    2    1    2    0    0  0.00000000000E+00  0.00000000000E+00  0.10177292452E+04  0.33591343096E+04  0.32012513949E+04 0.  0.
        5    1    3    3  502    0  0.24717175185E+03  0.12773665429E+04  0.14871662735E+04  0.19759667950E+04  0.46999998093E+01 0.  1.
       -5    1    3    3    0  502 -0.24717175185E+03 -0.12773665429E+04 -0.46943702822E+03  0.13831675146E+04  0.46999998093E+01 0. -1.
</event>
<event>
 5   0  0.1365455E-07  0.3200706E+04  0.7818609E-02  0.8188631E-01
       -1   -1    0    0    0  501  0.00000000000E+00  0.00000000000E+00  0.14240796802E+04  0.14240796802E+04  0.50400001928E-02 0. -1.
        1   -1    0    0  501    0  0.00000000000E+00  0.00000000000E+00 -0.17984455197E+04  0.17984455197E+04  0.50400001928E-02 0.  1.
    10030    2    1    2    0    0  0.00000000000E+00  0.00000000000E+00 -0.37436583951E+03  0.32225252000E+04  0.32007059975E+04 0.  0.
        3    1    3    3  502    0 -0.30811599826E+03 -0.12157733822E+04  0.81362018102E+03  0.14949977239E+04  0.10100000352E+00 0. -1.
       -3    1    3    3    0  502  0.30811599826E+03  0.12157733822E+04 -0.11879860205E+04  0.17275274761E+04  0.10100000352E+00 0.  1.
</event>
<event>
 5   0  0.3750285E-07  0.3206105E+04  0.7818609E-02  0.8187207E-01
       -2   -1    0    0    0  501  0.00000000000E+00  0.00000000000E+00  0.10029908533E+04  0.10029908533E+04  0.25500000920E-02 0.  1.
        2   -1    0    0  501    0  0.00000000000E+00  0.00000000000E+00 -0.25621136692E+04  0.25621136692E+04  0.25500000920E-02 0. -1.
    10030    2    1    2    0    0  0.00000000000E+00  0.00000000000E+00 -0.15591228159E+04  0.35651045225E+04  0.32061045369E+04 0.  0.
        1    1    3    3  502    0 -0.82843527653E+03 -0.85382522219E+03 -0.19743275746E+04  0.23050578928E+04  0.50400001928E-02 0. -1.
       -1    1    3    3    0  502  0.82843527653E+03  0.85382522219E+03  0.41520475871E+03  0.12600466297E+04  0.50400001928E-02 0.  1.
</event>
<event>
 5   0  0.1277374E-07  0.3199030E+04  0.7818609E-02  0.8189074E-01
        1   -1    0    0  501    0  0.00000000000E+00  0.00000000000E+00  0.19388675764E+04  0.19388675764E+04  0.50400001928E-02 0.  1.
       -1   -1    0    0    0  501  0.00000000000E+00  0.00000000000E+00 -0.13195576102E+04  0.13195576102E+04  0.50400001928E-02 0. -1.
    10030    2    1    2    0    0  0.00000000000E+00  0.00000000000E+00  0.61930996622E+03  0.32584251865E+04  0.31990295188E+04 0.  0.
        5    1    3    3  502    0 -0.10190766255E+04 -0.29447103453E+03  0.15290436413E+04  0.18609747193E+04  0.46999998093E+01 0.  1.
       -5    1    3    3    0  502  0.10190766255E+04  0.29447103453E+03 -0.90973367505E+03  0.13974504673E+04  0.46999998093E+01 0. -1.
</event>
<event>
 5   0  0.1317293E-07  0.3199366E+04  0.7818609E-02  0.8188985E-01
       -1   -1    0    0    0  501  0.00000000000E+00  0.00000000000E+00  0.17848293185E+04  0.17848293185E+04  0.50400001928E-02 0. -1.
        1   -1    0    0  501    0  0.00000000000E+00  0.00000000000E+00 -0.14337424939E+04  0.14337424939E+04  0.50400001928E-02 0.  1.
    10030    2    1    2    0    0  0.00000000000E+00  0.00000000000E+00  0.35108682459E+03  0.32185718124E+04  0.31993659611E+04 0.  0.
        1    1    3    3  502    0  0.14611494415E+04 -0.43759976242E+03  0.66065638033E+03  0.16622027841E+04  0.50400001928E-02 0. -1.
       -1    1    3    3    0  502 -0.14611494415E+04  0.43759976242E+03 -0.30956955575E+03  0.15563690283E+04  0.50400001928E-02 0.  1.
</event>
<event>
 5   0  0.1365455E-07  0.3200186E+04  0.7818609E-02  0.8188768E-01
       -1   -1    0    0    0  501  0.00000000000E+00  0.00000000000E+00  0.15624185908E+04  0.15624185908E+04  0.50400001928E-02 0.  1.
        1   -1    0    0  501    0  0.00000000000E+00  0.00000000000E+00 -0.16386761256E+04  0.16386761256E+04  0.50400001928E-02 0. -1.
    10030    2    1    2    0    0  0.00000000000E+00  0.00000000000E+00 -0.76257534862E+02  0.32010947164E+04  0.32001862714E+04 0.  0.
        3    1    3    3  502    0 -0.13325333369E+04  0.68262580094E+02 -0.92155168938E+03  0.16215925506E+04  0.10100000352E+00 0. -1.
       -3    1    3    3    0  502  0.13325333369E+04 -0.68262580094E+02  0.84529415452E+03  0.15795021658E+04  0.10100000352E+00 0.  1.
</event>
<event>
 5   0  0.1270948E-07  0.3211393E+04  0.7818609E-02  0.8185815E-01
       -1   -1    0    0    0  501  0.00000000000E+00  0.00000000000E+00  0.13418922404E+04  0.13418922404E+04  0.50400001928E-02 0.  1.
        1   -1    0    0  501    0  0.00000000000E+00  0.00000000000E+00 -0.19213623249E+04  0.19213623249E+04  0.50400001928E-02 0. -1.
    10030    2    1    2    0    0  0.00000000000E+00  0.00000000000E+00 -0.57947008448E+03  0.32632545653E+04  0.32113929656E+04 0.  0.
        4    1    3    3  502    0 -0.41719855449E+03 -0.15057234809E+04 -0.66584995661E+03  0.16984156183E+04  0.12699999809E+01 0. -1.
       -4    1    3    3    0  502  0.41719855449E+03  0.15057234809E+04  0.86379872133E+02  0.15648389470E+04  0.12699999809E+01 0.  1.
</event>
<event>
 5   0  0.1365455E-07  0.3201155E+04  0.7818609E-02  0.8188512E-01
       -1   -1    0    0    0  501  0.00000000000E+00  0.00000000000E+00  0.13749429765E+04  0.13749429765E+04  0.50400001928E-02 0.  1.
        1   -1    0    0  501    0  0.00000000000E+00  0.00000000000E+00 -0.18632395359E+04  0.18632395359E+04  0.50400001928E-02 0. -1.
    10030    2    1    2    0    0  0.00000000000E+00  0.00000000000E+00 -0.48829655945E+03  0.32381825124E+04  0.32011548625E+04 0.  0.
        3    1    3    3  502    0  0.31394382794E+03  0.12478611105E+04 -0.12070675968E+04  0.17642931365E+04  0.10100000352E+00 0. -1.
       -3    1    3    3    0  502 -0.31394382794E+03 -0.12478611105E+04  0.71877103731E+03  0.14738893759E+04  0.10100000352E+00 0.  1.
</event>
<event>
 5   0  0.3750285E-07  0.3199813E+04  0.7818609E-02  0.8188867E-01
        2   -1    0    0  501    0  0.00000000000E+00  0.00000000000E+00  0.28867299908E+04  0.28867299908E+04  0.25500000920E-02 0.  1.
       -2   -1    0    0    0  501  0.00000000000E+00  0.00000000000E+00 -0.88671297779E+03  0.88671297779E+03  0.25500000920E-02 0. -1.
    10030    2    1    2    0    0  0.00000000000E+00  0.00000000000E+00  0.20000170131E+04  0.37734429686E+04  0.31998130859E+04 0.  0.
        1    1    3    3  502    0  0.46397727348E+03 -0.14260782634E+04  0.16573674144E+04  0.22351377742E+04  0.50400001928E-02 0.  1.
       -1    1    3    3    0  502 -0.46397727348E+03  0.14260782634E+04  0.34264959868E+03  0.15383051944E+04  0.50400001928E-02 0. -1.
</event>
<event>
 5   0  0.3942564E-07  0.3199860E+04  0.7818609E-02  0.8188854E-01
        2   -1    0    0  501    0  0.00000000000E+00  0.00000000000E+00  0.15688789134E+04  0.15688789135E+04  0.25500000920E-02 0. -1.
       -2   -1    0    0    0  501  0.00000000000E+00  0.00000000000E+00 -0.16315957275E+04  0.16315957275E+04  0.25500000920E-02 0.  1.
    10030    2    1    2    0    0  0.00000000000E+00  0.00000000000E+00 -0.62716814098E+02  0.32004746410E+04  0.31998600796E+04 0.  0.
        3    1    3    3  502    0  0.74883348438E+03  0.14138550340E+04 -0.37562623344E+02  0.16003588989E+04  0.10100000352E+00 0. -1.
       -3    1    3    3    0  502 -0.74883348438E+03 -0.14138550340E+04 -0.25154190754E+02  0.16001157421E+04  0.10100000352E+00 0.  1.
</event>
<event>
 5   0  0.1365455E-07  0.3199933E+04  0.7818609E-02  0.8188835E-01
       -1   -1    0    0    0  501  0.00000000000E+00  0.00000000000E+00  0.11182201647E+04  0.11182201647E+04  0.50400001928E-02 0. -1.
        1   -1    0    0  501    0  0.00000000000E+00  0.00000000000E+00 -0.22892571481E+04  0.22892571481E+04  0.50400001928E-02 0.  1.
    10030    2    1    2    0    0  0.00000000000E+00  0.00000000000E+00 -0.11710369834E+04  0.34074773127E+04  0.31999334400E+04 0.  0.
        3    1    3    3  502    0 -0.14128873956E+04  0.53985165921E+03 -0.11410879881E+04  0.18946694733E+04  0.10100000352E+00 0.  1.
       -3    1    3    3    0  502  0.14128873956E+04 -0.53985165921E+03 -0.29948995346E+02  0.15128078394E+04  0.10100000352E+00 0. -1.
</event>
<event>
 5   0  0.1288096E-07  0.3196652E+04  0.7818609E-02  0.8189702E-01
       -1   -1    0    0    0  501  0.00000000000E+00  0.00000000000E+00  0.14803907209E+04  0.14803907209E+04  0.50400001928E-02 0.  1.
        1   -1    0    0  501    0  0.00000000000E+00  0.00000000000E+00 -0.17256564717E+04  0.17256564717E+04  0.50400001928E-02 0. -1.
    10030    2    1    2    0    0  0.00000000000E+00  0.00000000000E+00 -0.24526575080E+03  0.32060471926E+04  0.31966518911E+04 0.  0.
        2    1    3    3  502    0  0.11219531781E+04  0.72757323599E+03 -0.10007082575E+04  0.16701972232E+04  0.25500000920E-02 0. -1.
       -2    1    3    3    0  502 -0.11219531781E+04 -0.72757323599E+03  0.75544250670E+03  0.15358499694E+04  0.25500000920E-02 0.  1.
</event>
<event>
 5   0  0.1270948E-07  0.3202351E+04  0.7818609E-02  0.8188197E-01
       -1   -1    0    0    0  501  0.00000000000E+00  0.00000000000E+00  0.14847225299E+04  0.14847225299E+04  0.50400001928E-02 0. -1.
        1   -1    0    0  501    0  0.00000000000E+00  0.00000000000E+00 -0.17267621161E+04  0.17267621161E+04  0.50400001928E-02 0.  1.
    10030    2    1    2    0    0  0.00000000000E+00  0.00000000000E+00 -0.24203958614E+03  0.32114846460E+04  0.32023507725E+04 0.  0.
        4    1    3    3  502    0 -0.10798208421E+04  0.11684289081E+04 -0.30187228864E+03  0.16193726118E+04  0.12699999809E+01 0. -1.
       -4    1    3    3    0  502  0.10798208421E+04 -0.11684289081E+04  0.59832702492E+02  0.15921120342E+04  0.12699999809E+01 0.  1.
</event>
<event>
 5   0  0.1288096E-07  0.3196827E+04  0.7818609E-02  0.8189656E-01
        1   -1    0    0  501    0  0.00000000000E+00  0.00000000000E+00  0.21109502334E+04  0.21109502334E+04  0.50400001928E-02 0.  1.
       -1   -1    0    0    0  501  0.00000000000E+00  0.00000000000E+00 -0.12103198274E+04  0.12103198274E+04  0.50400001928E-02 0. -1.
    10030    2    1    2    0    0  0.00000000000E+00  0.00000000000E+00  0.90063040606E+03  0.33212700608E+04  0.31968265027E+04 0.  0.
        2    1    3    3  502    0 -0.48097383022E+03  0.13691454184E+04  0.11464971603E+04  0.18494190279E+04  0.25500000920E-02 0.  1.
       -2    1    3    3    0  502  0.48097383022E+03 -0.13691454184E+04 -0.24586675426E+03  0.14718510329E+04  0.25500000920E-02 0. -1.
</event>
<event>
 5   0  0.1317293E-07  0.3196656E+04  0.7818609E-02  0.8189701E-01
        1   -1    0    0  501    0  0.00000000000E+00  0.00000000000E+00  0.19053489855E+04  0.19053489855E+04  0.50400001928E-02 0. -1.
       -1   -1    0    0    0  501  0.00000000000E+00  0.00000000000E+00 -0.13407789934E+04  0.13407789934E+04  0.50400001928E-02 0.  1.
    10030    2    1    2    0    0  0.00000000000E+00  0.00000000000E+00  0.56456999214E+03  0.32461279789E+04  0.31966556867E+04 0.  0.
        1    1    3    3  502    0  0.16978352190E+03 -0.15833487833E+04  0.14293115872E+03  0.15988274235E+04  0.50400001928E-02 0. -1.
       -1    1    3    3    0  502 -0.16978352190E+03  0.15833487833E+04  0.42163883342E+03  0.16473005554E+04  0.50400001928E-02 0.  1.
</event>
<event>
 5   0  0.1277374E-07  0.3195119E+04  0.7818609E-02  0.8190107E-01
        1   -1    0    0  501    0  0.00000000000E+00  0.00000000000E+00  0.24347467637E+04  0.24347467637E+04  0.50400001928E-02 0. -1.
       -1   -1    0    0    0  501  0.00000000000E+00  0.00000000000E+00 -0.10482389896E+04  0.10482389896E+04  0.50400001928E-02 0.  1.
    10030    2    1    2    0    0  0.00000000000E+00  0.00000000000E+00  0.13865077741E+04  0.34829857533E+04  0.31951190823E+04 0.  0.
        5    1    3    3  502    0  0.14840857397E+04  0.49114875492E+03  0.10522196475E+04  0.18843900496E+04  0.46999998093E+01 0. -1.
       -5    1    3    3    0  502 -0.14840857397E+04 -0.49114875492E+03  0.33428812661E+03  0.15985957037E+04  0.46999998093E+01 0.  1.
</event>
<event>
 5   0  0.3764056E-07  0.3192736E+04  0.7818609E-02  0.8190738E-01
       -2   -1    0    0    0  501  0.00000000000E+00  0.00000000000E+00  0.13349690796E+04  0.13349690796E+04  0.25500000920E-02 0. -1.
        2   -1    0    0  501    0  0.00000000000E+00  0.00000000000E+00 -0.19089516807E+04  0.19089516807E+04  0.25500000920E-02 0.  1.
    10030    2    1    2    0    0  0.00000000000E+00  0.00000000000E+00 -0.57398260113E+03  0.32439207603E+04  0.31927364239E+04 0.  0.
        5    1    3    3  502    0  0.59350784676E+03  0.40021583352E+03 -0.17367315676E+04  0.18784788807E+04  0.46999998093E+01 0.  1.
       -5    1    3    3    0  502 -0.59350784676E+03 -0.40021583352E+03  0.11627489664E+04  0.13654418796E+04  0.46999998093E+01 0. -1.
</event>
<event>
 5   0  0.3830207E-07  0.3198056E+04  0.7818609E-02  0.8189331E-01
       -2   -1    0    0    0  501  0.00000000000E+00  0.00000000000E+00  0.13419798465E+04  0.13419798465E+04  0.25500000920E-02 0.  1.
        2   -1    0    0  501    0  0.00000000000E+00  0.00000000000E+00 -0.19053116565E+04  0.19053116565E+04  0.25500000920E-02 0. -1.
    10030    2    1    2    0    0  0.00000000000E+00  0.00000000000E+00 -0.56333180994E+03  0.32472915030E+04  0.31980555619E+04 0.  0.
        4    1    3    3  502    0 -0.13934760017E+04  0.43850139403E+03 -0.94193026517E+03  0.17381867210E+04  0.12699999809E+01 0. -1.
       -4    1    3    3    0  502  0.13934760017E+04 -0.43850139403E+03  0.37859845523E+03  0.15091047820E+04  0.12699999809E+01 0.  1.
</event>
<event>
 5   0  0.1277374E-07  0.3197959E+04  0.7818609E-02  0.8189356E-01
        1   -1    0    0  501    0  0.00000000000E+00  0.00000000000E+00  0.20712698578E+04  0.20712698578E+04  0.50400001928E-02 0. -1.
       -1   -1    0    0    0  501  0.00000000000E+00  0.00000000000E+00 -0.12343806350E+04  0.12343806350E+04  0.50400001928E-02 0.  1.
    10030    2    1    2    0    0  0.00000000000E+00  0.00000000000E+00  0.83688922277E+03  0.33056504928E+04  0.31979589756E+04 0.  0.
        5    1    3    3  502    0 -0.14453809358E+04  0.22761617708E+03  0.10849671976E+04  0.18215683033E+04  0.46999998093E+01 0. -1.
       -5    1    3    3    0  502  0.14453809358E+04 -0.22761617708E+03 -0.24807797487E+03  0.14840821895E+04  0.46999998093E+01 0.  1.
</event>
<event>
 5   0  0.1230450E-07  0.3195122E+04  0.7818609E-02  0.8190107E-01
        3   -1    0    0  501    0  0.00000000000E+00  0.00000000000E+00  0.18095444328E+04  0.18095444356E+04  0.10100000352E+00 0. -1.
       -3   -1    0    0    0  501  0.00000000000E+00  0.00000000000E+00 -0.14104111253E+04  0.14104111289E+04  0.10100000352E+00 0.  1.
    10030    2    1    2    0    0  0.00000000000E+00  0.00000000000E+00  0.39913330747E+03  0.32199555645E+04  0.31951222888E+04 0.  0.
        5    1    3    3  502    0 -0.11884337170E+04 -0.67495430911E+03 -0.63405137682E+03  0.15066456974E+04  0.46999998093E+01 0.  1.
       -5    1    3    3    0  502  0.11884337170E+04  0.67495430911E+03  0.10331846843E+04  0.17133098671E+04  0.46999998093E+01 0. -1.
</event>
<event>
 5   0  0.3750285E-07  0.3202762E+04  0.7818609E-02  0.8188088E-01
        2   -1    0    0  501    0  0.00000000000E+00  0.00000000000E+00  0.24116496796E+04  0.24116496796E+04  0.25500000920E-02 0.  1.
       -2   -1    0    0    0  501  0.00000000000E+00  0.00000000000E+00 -0.10633471560E+04  0.10633471560E+04  0.25500000920E-02 0. -1.
    10030    2    1    2    0    0  0.00000000000E+00  0.00000000000E+00  0.13483025236E+04  0.34749968356E+04  0.32027618257E+04 0.  0.
        1    1    3    3  502    0  0.55053434919E+03 -0.19797132524E+03 -0.94324147890E+03  0.11099482883E+04  0.50400001928E-02 0. -1.
       -1    1    3    3    0  502 -0.55053434919E+03  0.19797132524E+03  0.22915440025E+04  0.23650485472E+04  0.50400001928E-02 0.  1.
</event>
<event>
 5   0  0.3830207E-07  0.3198839E+04  0.7818609E-02  0.8189124E-01
        2   -1    0    0  501    0  0.00000000000E+00  0.00000000000E+00  0.21121414541E+04  0.21121414541E+04  0.25500000920E-02 0. -1.
       -2   -1    0    0    0  501  0.00000000000E+00  0.00000000000E+00 -0.12111609798E+04  0.12111609798E+04  0.25500000920E-02 0.  1.
    10030    2    1    2    0    0  0.00000000000E+00  0.00000000000E+00  0.90098047439E+03  0.33233024339E+04  0.31988393601E+04 0.  0.
        4    1    3    3  502    0  0.98538788753E+03  0.12590400616E+04  0.49660813102E+03  0.16741542385E+04  0.12699999809E+01 0. -1.
       -4    1    3    3    0  502 -0.98538788753E+03 -0.12590400616E+04  0.40437234337E+03  0.16491481954E+04  0.12699999809E+01 0.  1.
</event>
<event>
 5   0  0.3830207E-07  0.3199591E+04  0.7818609E-02  0.8188925E-01
        2   -1    0    0  501    0  0.00000000000E+00  0.00000000000E+00  0.20703206848E+04  0.20703206848E+04  0.25500000920E-02 0. -1.
       -2   -1    0    0    0  501  0.00000000000E+00  0.00000000000E+00 -0.12362075517E+04  0.12362075517E+04  0.25500000920E-02 0.  1.
    10030    2    1    2    0    0  0.00000000000E+00  0.00000000000E+00  0.83411313311E+03  0.33065282364E+04  0.31995912645E+04 0.  0.
        4    1    3    3  502    0  0.47253372586E+03  0.15274383167E+04  0.36056212619E+03  0.16390126885E+04  0.12699999809E+01 0. -1.
       -4    1    3    3    0  502 -0.47253372586E+03 -0.15274383167E+04  0.47355100692E+03  0.16675155479E+04  0.12699999809E+01 0.  1.
</event>
<event>
 5   0  0.1317293E-07  0.3187895E+04  0.7818609E-02  0.8192021E-01
       -1   -1    0    0    0  501  0.00000000000E+00  0.00000000000E+00  0.11341466208E+04  0.11341466208E+04  0.50400001928E-02 0.  1.
        1   -1    0    0  501    0  0.00000000000E+00  0.00000000000E+00 -0.22401593626E+04  0.22401593626E+04  0.50400001928E-02 0. -1.
    10030    2    1    2    0    0  0.00000000000E+00  0.00000000000E+00 -0.11060127418E+04  0.33743059834E+04  0.31878953378E+04 0.  0.
        1    1    3    3  502    0 -0.52909006224E+03  0.88044586388E+03  0.73709472994E+03  0.12642902571E+04  0.50400001928E-02 0.  1.
       -1    1    3    3    0  502  0.52909006224E+03 -0.88044586388E+03 -0.18431074717E+04  0.21100157264E+04  0.50400001928E-02 0. -1.
</event>
<event>
 5   0  0.1365455E-07  0.3133042E+04  0.7818609E-02  0.8206728E-01
       -1   -1    0    0    0  501  0.00000000000E+00  0.00000000000E+00  0.16347250435E+04  0.16347250435E+04  0.50400001928E-02 0. -1.
        1   -1    0    0  501    0  0.00000000000E+00  0.00000000000E+00 -0.15011629533E+04  0.15011629533E+04  0.50400001928E-02 0.  1.
    10030    2    1    2    0    0  0.00000000000E+00  0.00000000000E+00  0.13356209015E+03  0.31358879968E+04  0.31330424026E+04 0.  0.
        3    1    3    3  502    0  0.13465470154E+03 -0.70056883750E+03  0.14627018508E+04  0.16273983222E+04  0.10100000352E+00 0. -1.
       -3    1    3    3    0  502 -0.13465470154E+03  0.70056883750E+03 -0.13291397606E+04  0.15084896745E+04  0.10100000352E+00 0.  1.
</event>
<event>
 5   0  0.1365455E-07  0.3201376E+04  0.7818609E-02  0.8188454E-01
        1   -1    0    0  501    0  0.00000000000E+00  0.00000000000E+00  0.15643870427E+04  0.15643870427E+04  0.50400001928E-02 0. -1.
       -1   -1    0    0    0  501  0.00000000000E+00  0.00000000000E+00 -0.16378312427E+04  0.16378312427E+04  0.50400001928E-02 0.  1.
    10030    2    1    2    0    0  0.00000000000E+00  0.00000000000E+00 -0.73444200034E+02  0.32022182854E+04  0.32013759380E+04 0.  0.
        3    1    3    3  502    0  0.51282177237E+03 -0.11888378791E+04 -0.97818189127E+03  0.16227019122E+04  0.10100000352E+00 0.  1.
       -3    1    3    3    0  502 -0.51282177237E+03  0.11888378791E+04  0.90473769123E+03  0.15795163732E+04  0.10100000352E+00 0. -1.
</event>
<event>
 5   0  0.3830207E-07  0.3198724E+04  0.7818609E-02  0.8189154E-01
       -2   -1    0    0    0  501  0.00000000000E+00  0.00000000000E+00  0.12362578364E+04  0.12362578364E+04  0.25500000920E-02 0. -1.
        2   -1    0    0  501    0  0.00000000000E+00  0.00000000000E+00 -0.20691139586E+04  0.20691139586E+04  0.25500000920E-02 0.  1.
    10030    2    1    2    0    0  0.00000000000E+00  0.00000000000E+00 -0.83285612217E+03  0.33053717950E+04  0.31987237116E+04 0.  0.
        4    1    3    3  502    0  0.66231232483E+03 -0.95420412517E+03  0.71968005943E+03  0.13664201875E+04  0.12699999809E+01 0. -1.
       -4    1    3    3    0  502 -0.66231232483E+03  0.95420412517E+03 -0.15525361816E+04  0.19389516075E+04  0.12699999809E+01 0.  1.
</event>
<event>
 5   0  0.1270948E-07  0.3178473E+04  0.7818609E-02  0.8194526E-01
        1   -1    0    0  501    0  0.00000000000E+00  0.00000000000E+00  0.13406786168E+04  0.13406786168E+04  0.50400001928E-02 0.  1.
       -1   -1    0    0    0  501  0.00000000000E+00  0.00000000000E+00 -0.18838765945E+04  0.18838765945E+04  0.50400001928E-02 0. -1.
    10030    2    1    2    0    0  0.00000000000E+00  0.00000000000E+00 -0.54319797774E+03  0.32245552113E+04  0.31784732605E+04 0.  0.
        4    1    3    3  502    0  0.73403033612E+02 -0.11600913736E+04 -0.13710414050E+04  0.17974860633E+04  0.12699999809E+01 0. -1.
       -4    1    3    3    0  502 -0.73403033612E+02  0.11600913736E+04  0.82784342730E+03  0.14270691481E+04  0.12699999809E+01 0.  1.
</event>
<event>
 5   0  0.3750285E-07  0.3199312E+04  0.7818609E-02  0.8188999E-01
       -2   -1    0    0    0  501  0.00000000000E+00  0.00000000000E+00  0.20759521868E+04  0.20759521868E+04  0.25500000920E-02 0.  1.
        2   -1    0    0  501    0  0.00000000000E+00  0.00000000000E+00 -0.12326387514E+04  0.12326387514E+04  0.25500000920E-02 0. -1.
    10030    2    1    2    0    0  0.00000000000E+00  0.00000000000E+00  0.84331343545E+03  0.33085909382E+04  0.31993118707E+04 0.  0.
        1    1    3    3  502    0  0.91661965494E+03  0.10389260885E+04  0.12485557271E+04  0.18650604314E+04  0.50400001928E-02 0.  1.
       -1    1    3    3    0  502 -0.91661965494E+03 -0.10389260885E+04 -0.40524229162E+03  0.14435305068E+04  0.50400001928E-02 0. -1.
</event>
<event>
 5   0  0.1277374E-07  0.3207703E+04  0.7818609E-02  0.8186786E-01
       -1   -1    0    0    0  501  0.00000000000E+00  0.00000000000E+00  0.20603886781E+04  0.20603886781E+04  0.50400001928E-02 0.  1.
        1   -1    0    0  501    0  0.00000000000E+00  0.00000000000E+00 -0.12484731784E+04  0.12484731784E+04  0.50400001928E-02 0. -1.
    10030    2    1    2    0    0  0.00000000000E+00  0.00000000000E+00  0.81191549968E+03  0.33088618566E+04  0.32077032293E+04 0.  0.
        5    1    3    3  502    0 -0.15019340273E+04 -0.42831714003E+03  0.29685205608E+02  0.15621026523E+04  0.46999998093E+01 0. -1.
       -5    1    3    3    0  502  0.15019340273E+04  0.42831714003E+03  0.78223029408E+03  0.17467592043E+04  0.46999998093E+01 0.  1.
</event>
<event>
 5   0  0.3942564E-07  0.3198784E+04  0.7818609E-02  0.8189139E-01
        2   -1    0    0  501    0  0.00000000000E+00  0.00000000000E+00  0.17183237954E+04  0.17183237954E+04  0.25500000920E-02 0. -1.
       -2   -1    0    0    0  501  0.00000000000E+00  0.00000000000E+00 -0.14886914715E+04  0.14886914715E+04  0.25500000920E-02 0.  1.
    10030    2    1    2    0    0  0.00000000000E+00  0.00000000000E+00  0.22963232385E+03  0.32070152669E+04  0.31987835059E+04 0.  0.
        3    1    3    3  502    0 -0.25323124922E+03 -0.22086528682E+03  0.16825365830E+04  0.17157613190E+04  0.10100000352E+00 0. -1.
       -3    1    3    3    0  502  0.25323124922E+03  0.22086528682E+03 -0.14529042592E+04  0.14912539478E+04  0.10100000352E+00 0.  1.
</event>
<event>
 5   0  0.3750285E-07  0.3214376E+04  0.7818609E-02  0.8185031E-01
        2   -1    0    0  501    0  0.00000000000E+00  0.00000000000E+00  0.24012274013E+04  0.24012274013E+04  0.25500000920E-02 0. -1.
       -2   -1    0    0    0  501  0.00000000000E+00  0.00000000000E+00 -0.10757222033E+04  0.10757222033E+04  0.25500000920E-02 0.  1.
    10030    2    1    2    0    0  0.00000000000E+00  0.00000000000E+00  0.13255051980E+04  0.34769496046E+04  0.32143762261E+04 0.  0.
        1    1    3    3  502    0  0.34146680399E+03 -0.15422732301E+04  0.98335442190E+03  0.18606967011E+04  0.50400001928E-02 0. -1.
       -1    1    3    3    0  502 -0.34146680399E+03  0.15422732301E+04  0.34215077611E+03  0.16162529035E+04  0.50400001928E-02 0.  1.
</event>
<event>
 5   0  0.1277374E-07  0.3167245E+04  0.7818609E-02  0.8197522E-01
        1   -1    0    0  501    0  0.00000000000E+00  0.00000000000E+00  0.22780049664E+04  0.22780049664E+04  0.50400001928E-02 0.  1.
       -1   -1    0    0    0  501  0.00000000000E+00  0.00000000000E+00 -0.11009018248E+04  0.11009018249E+04  0.50400001928E-02 0. -1.
    10030    2    1    2    0    0  0.00000000000E+00  0.00000000000E+00  0.11771031416E+04  0.33789067913E+04  0.31672447487E+04 0.  0.
        5    1    3    3  502    0 -0.21589425195E+03  0.10024954096E+04 -0.69883693585E+03  0.12409683828E+04  0.46999998093E+01 0. -1.
       -5    1    3    3    0  502  0.21589425195E+03 -0.10024954096E+04  0.18759400774E+04  0.21379384085E+04  0.46999998093E+01 0.  1.
</event>
<event>
 5   0  0.1288096E-07  0.3183245E+04  0.7818609E-02  0.8193256E-01
        1   -1    0    0  501    0  0.00000000000E+00  0.00000000000E+00  0.19185153582E+04  0.19185153582E+04  0.50400001928E-02 0. -1.
       -1   -1    0    0    0  501  0.00000000000E+00  0.00000000000E+00 -0.13204283773E+04  0.13204283773E+04  0.50400001928E-02 0.  1.
    10030    2    1    2    0    0  0.00000000000E+00  0.00000000000E+00  0.59808698097E+03  0.32389437355E+04  0.31832449615E+04 0.  0.
        2    1    3    3  502    0  0.97626393014E+03 -0.11902259788E+04 -0.11242446441E+03  0.15434922747E+04  0.25500000920E-02 0.  1.
       -2    1    3    3    0  502 -0.97626393014E+03  0.11902259788E+04  0.71051144537E+03  0.16954514608E+04  0.25500000920E-02 0. -1.
</event>
<event>
 5   0  0.3858721E-07  0.3204328E+04  0.7818609E-02  0.8187675E-01
       -2   -1    0    0    0  501  0.00000000000E+00  0.00000000000E+00  0.14293492524E+04  0.14293492524E+04  0.25500000920E-02 0. -1.
        2   -1    0    0  501    0  0.00000000000E+00  0.00000000000E+00 -0.17958724464E+04  0.17958724464E+04  0.25500000920E-02 0.  1.
    10030    2    1    2    0    0  0.00000000000E+00  0.00000000000E+00 -0.36652319396E+03  0.32252216988E+04  0.32043276604E+04 0.  0.
        2    1    3    3  502    0 -0.73467141559E+03  0.71852857935E+03  0.10539415679E+04  0.14720116293E+04  0.25500000920E-02 0. -1.
       -2    1    3    3    0  502  0.73467141559E+03 -0.71852857935E+03 -0.14204647619E+04  0.17532100695E+04  0.25500000920E-02 0.  1.
</event>
<event>
 5   0  0.3858721E-07  0.3197281E+04  0.7818609E-02  0.8189536E-01
       -2   -1    0    0    0  501  0.00000000000E+00  0.00000000000E+00  0.18202438190E+04  0.18202438190E+04  0.25500000920E-02 0.  1.
        2   -1    0    0  501    0  0.00000000000E+00  0.00000000000E+00 -0.14040160545E+04  0.14040160545E+04  0.25500000920E-02 0. -1.
    10030    2    1    2    0    0  0.00000000000E+00  0.00000000000E+00  0.41622776448E+03  0.32242598736E+04  0.31972810606E+04 0.  0.
        2    1    3    3  502    0 -0.10545572573E+04  0.97204475134E+02  0.14157628984E+04  0.17680283662E+04  0.25500000920E-02 0.  1.
       -2    1    3    3    0  502  0.10545572573E+04 -0.97204475134E+02 -0.99953513397E+03  0.14562315074E+04  0.25500000920E-02 0. -1.
</event>
<event>
 5   0  0.1365455E-07  0.3194910E+04  0.7818609E-02  0.8190163E-01
       -1   -1    0    0    0  501  0.00000000000E+00  0.00000000000E+00  0.29712547232E+04  0.29712547232E+04  0.50400001928E-02 0. -1.
        1   -1    0    0  501    0  0.00000000000E+00  0.00000000000E+00 -0.85885019387E+03  0.85885019389E+03  0.50400001928E-02 0.  1.
    10030    2    1    2    0    0  0.00000000000E+00  0.00000000000E+00  0.21124045293E+04  0.38301049171E+04  0.31949101365E+04 0.  0.
        3    1    3    3  502    0  0.36975689364E+03 -0.40994813596E+03  0.28532589590E+04  0.29061769271E+04  0.10100000352E+00 0. -1.
       -3    1    3    3    0  502 -0.36975689364E+03  0.40994813596E+03 -0.74085442963E+03  0.92392798999E+03  0.10100000352E+00 0.  1.
</event>
<event>
 5   0  0.1288096E-07  0.3200551E+04  0.7818609E-02  0.8188672E-01
       -1   -1    0    0    0  501  0.00000000000E+00  0.00000000000E+00  0.21549723779E+04  0.21549723779E+04  0.50400001928E-02 0.  1.
        1   -1    0    0  501    0  0.00000000000E+00  0.00000000000E+00 -0.11883596988E+04  0.11883596988E+04  0.50400001928E-02 0. -1.
    10030    2    1    2    0    0  0.00000000000E+00  0.00000000000E+00  0.96661267911E+03  0.33433320767E+04  0.32005514062E+04 0.  0.
        2    1    3    3  502    0 -0.15738780167E+04  0.14610386555E+03  0.22227059660E+03  0.15961962815E+04  0.25500000920E-02 0. -1.
       -2    1    3    3    0  502  0.15738780167E+04 -0.14610386555E+03  0.74434208251E+03  0.17471357952E+04  0.25500000920E-02 0.  1.
</event>
<event>
 5   0  0.3750285E-07  0.3203004E+04  0.7818609E-02  0.8188024E-01
       -2   -1    0    0    0  501  0.00000000000E+00  0.00000000000E+00  0.17685863066E+04  0.17685863066E+04  0.25500000920E-02 0.  1.
        2   -1    0    0  501    0  0.00000000000E+00  0.00000000000E+00 -0.14502023706E+04  0.14502023706E+04  0.25500000920E-02 0. -1.
    10030    2    1    2    0    0  0.00000000000E+00  0.00000000000E+00  0.31838393603E+03  0.32187886772E+04  0.32030036243E+04 0.  0.
        1    1    3    3  502    0  0.46087150781E+03 -0.16328664427E+03  0.16917463499E+04  0.17609857431E+04  0.50400001928E-02 0.  1.
       -1    1    3    3    0  502 -0.46087150781E+03  0.16328664427E+03 -0.13733624138E+04  0.14578029341E+04  0.50400001928E-02 0. -1.
</event>
<event>
 5   0  0.1270948E-07  0.3196428E+04  0.7818609E-02  0.8189761E-01
       -1   -1    0    0    0  501  0.00000000000E+00  0.00000000000E+00  0.19279016827E+04  0.19279016827E+04  0.50400001928E-02 0.  1.
        1   -1    0    0  501    0  0.00000000000E+00  0.00000000000E+00 -0.13249053697E+04  0.13249053697E+04  0.50400001928E-02 0. -1.
    10030    2    1    2    0    0  0.00000000000E+00  0.00000000000E+00  0.60299631305E+03  0.32528070524E+04  0.31964275632E+04 0.  0.
        4    1    3    3  502    0  0.61056654253E+03  0.60301143790E+03 -0.10705678740E+04  0.13720537464E+04  0.12699999809E+01 0. -1.
       -4    1    3    3    0  502 -0.61056654253E+03 -0.60301143790E+03  0.16735641871E+04  0.18807533061E+04  0.12699999809E+01 0.  1.
</event>
<event>
 5   0  0.3750285E-07  0.3199623E+04  0.7818609E-02  0.8188917E-01
        2   -1    0    0  501    0  0.00000000000E+00  0.00000000000E+00  0.11957057898E+04  0.11957057898E+04  0.25500000920E-02 0.  1.
       -2   -1    0    0    0  501  0.00000000000E+00  0.00000000000E+00 -0.21404902051E+04  0.21404902051E+04  0.25500000920E-02 0. -1.
    10030    2    1    2    0    0  0.00000000000E+00  0.00000000000E+00 -0.94478441533E+03  0.33361959949E+04  0.31996228098E+04 0.  0.
        1    1    3    3  502    0 -0.86646647217E+03 -0.12189161976E+03 -0.18688786822E+04  0.20635719622E+04  0.50400001928E-02 0. -1.
       -1    1    3    3    0  502  0.86646647217E+03  0.12189161976E+03  0.92409426691E+03  0.12726240327E+04  0.50400001928E-02 0.  1.
</event>
<event>
 5   0  0.1317293E-07  0.3193870E+04  0.7818609E-02  0.8190438E-01
        1   -1    0    0  501    0  0.00000000000E+00  0.00000000000E+00  0.14707881005E+04  0.14707881005E+04  0.50400001928E-02 0.  1.
       -1   -1    0    0    0  501  0.00000000000E+00  0.00000000000E+00 -0.17339010638E+04  0.17339010638E+04  0.50400001928E-02 0. -1.
    10030    2    1    2    0    0  0.00000000000E+00  0.00000000000E+00 -0.26311296336E+03  0.32046891643E+04  0.31938697857E+04 0.  0.
        1    1    3    3  502    0 -0.50755067463E+03 -0.11117358939E+03  0.13836031650E+04  0.14779462008E+04  0.50400001928E-02 0.  1.
       -1    1    3    3    0  502  0.50755067463E+03  0.11117358939E+03 -0.16467161284E+04  0.17267429634E+04  0.50400001928E-02 0. -1.
</event>
<event>
 5   0  0.3830207E-07  0.3209205E+04  0.7818609E-02  0.8186390E-01
        2   -1    0    0  501    0  0.00000000000E+00  0.00000000000E+00  0.25267614964E+04  0.25267614964E+04  0.25500000920E-02 0.  1.
       -2   -1    0    0    0  501  0.00000000000E+00  0.00000000000E+00 -0.10189918231E+04  0.10189918231E+04  0.25500000920E-02 0. -1.
    10030    2    1    2    0    0  0.00000000000E+00  0.00000000000E+00  0.15077696733E+04  0.35457533195E+04  0.32092050752E+04 0.  0.
        4    1    3    3  502    0  0.10884103383E+04  0.58448352528E+03 -0.37745510112E+03  0.12917941098E+04  0.12699999809E+01 0. -1.
       -4    1    3    3    0  502 -0.10884103383E+04 -0.58448352528E+03  0.18852247744E+04  0.22539592096E+04  0.12699999809E+01 0.  1.
</event>
<event>
 5   0  0.1230450E-07  0.3197700E+04  0.7818609E-02  0.8189425E-01
        3   -1    0    0  501    0  0.00000000000E+00  0.00000000000E+00  0.17854190526E+04  0.17854190555E+04  0.10100000352E+00 0. -1.
       -3   -1    0    0    0  501  0.00000000000E+00  0.00000000000E+00 -0.14317765321E+04  0.14317765356E+04  0.10100000352E+00 0.  1.
    10030    2    1    2    0    0  0.00000000000E+00  0.00000000000E+00  0.35364252055E+03  0.32171955911E+04  0.31976998669E+04 0.  0.
        3    1    3    3  502    0 -0.14390114890E+02  0.14198813910E+04 -0.56254069027E+03  0.15273252038E+04  0.10100000352E+00 0.  1.
       -3    1    3    3    0  502  0.14390114890E+02 -0.14198813910E+04  0.91618321082E+03  0.16898703873E+04  0.10100000352E+00 0. -1.
</event>
<event>
 5   0  0.3942564E-07  0.3199882E+04  0.7818609E-02  0.8188848E-01
        2   -1    0    0  501    0  0.00000000000E+00  0.00000000000E+00  0.22622457455E+04  0.22622457455E+04  0.25500000920E-02 0. -1.
       -2   -1    0    0    0  501  0.00000000000E+00  0.00000000000E+00 -0.11315355006E+04  0.11315355006E+04  0.25500000920E-02 0.  1.
    10030    2    1    2    0    0  0.00000000000E+00  0.00000000000E+00  0.11307102449E+04  0.33937812461E+04  0.31998821054E+04 0.  0.
        3    1    3    3  502    0 -0.23300045622E+03  0.87070626947E+03 -0.83663557313E+03  0.12297876698E+04  0.10100000352E+00 0.  1.
       -3    1    3    3    0  502  0.23300045622E+03 -0.87070626947E+03  0.19673458181E+04  0.21639935763E+04  0.10100000352E+00 0. -1.
</event>
<event>
 5   0  0.3858721E-07  0.3196794E+04  0.7818609E-02  0.8189664E-01
        2   -1    0    0  501    0  0.00000000000E+00  0.00000000000E+00  0.23223185522E+04  0.23223185522E+04  0.25500000920E-02 0. -1.
       -2   -1    0    0    0  501  0.00000000000E+00  0.00000000000E+00 -0.11001391427E+04  0.11001391427E+04  0.25500000920E-02 0.  1.
    10030    2    1    2    0    0  0.00000000000E+00  0.00000000000E+00  0.12221794095E+04  0.34224576950E+04  0.31967943576E+04 0.  0.
        2    1    3    3  502    0  0.27887646804E+03  0.94068116886E+03  0.19619952358E+04  0.21936450149E+04  0.25500000920E-02 0. -1.
       -2    1    3    3    0  502 -0.27887646804E+03 -0.94068116886E+03 -0.73981582634E+03  0.12288126801E+04  0.25500000920E-02 0.  1.
</event>
<event>
 5   0  0.3750285E-07  0.3204958E+04  0.7818609E-02  0.8187509E-01
        2   -1    0    0  501    0  0.00000000000E+00  0.00000000000E+00  0.17795018372E+04  0.17795018372E+04  0.25500000920E-02 0. -1.
       -2   -1    0    0    0  501  0.00000000000E+00  0.00000000000E+00 -0.14430663655E+04  0.14430663655E+04  0.25500000920E-02 0.  1.
    10030    2    1    2    0    0  0.00000000000E+00  0.00000000000E+00  0.33643547167E+03  0.32225682027E+04  0.32049581892E+04 0.  0.
        1    1    3    3  502    0 -0.35781906077E+03 -0.30174498931E+03  0.17092361496E+04  0.17721661136E+04  0.50400001928E-02 0. -1.
       -1    1    3    3    0  502  0.35781906077E+03  0.30174498931E+03 -0.13728006780E+04  0.14504020892E+04  0.50400001928E-02 0.  1.
</event>
<event>
 5   0  0.1270948E-07  0.3200909E+04  0.7818609E-02  0.8188577E-01
        1   -1    0    0  501    0  0.00000000000E+00  0.00000000000E+00  0.24050961829E+04  0.24050961829E+04  0.50400001928E-02 0.  1.
       -1   -1    0    0    0  501  0.00000000000E+00  0.00000000000E+00 -0.10650112691E+04  0.10650112691E+04  0.50400001928E-02 0. -1.
    10030    2    1    2    0    0  0.00000000000E+00  0.00000000000E+00  0.13400849138E+04  0.34701074519E+04  0.32009089571E+04 0.  0.
        4    1    3    3  502    0 -0.40079026038E+03 -0.12615658766E+04 -0.30520934076E+03  0.13584313189E+04  0.12699999809E+01 0. -1.
       -4    1    3    3    0  502  0.40079026038E+03  0.12615658766E+04  0.16452942546E+04  0.21116761330E+04  0.12699999809E+01 0.  1.
</event>
<event>
 5   0  0.3858721E-07  0.3198233E+04  0.7818609E-02  0.8189284E-01
        2   -1    0    0  501    0  0.00000000000E+00  0.00000000000E+00  0.14245735121E+04  0.14245735121E+04  0.25500000920E-02 0. -1.
       -2   -1    0    0    0  501  0.00000000000E+00  0.00000000000E+00 -0.17950451403E+04  0.17950451403E+04  0.25500000920E-02 0.  1.
    10030    2    1    2    0    0  0.00000000000E+00  0.00000000000E+00 -0.37047162826E+03  0.32196186524E+04  0.31982331121E+04 0.  0.
        2    1    3    3  502    0  0.42277814268E+03 -0.15025259395E+04 -0.53519259900E+03  0.16500777784E+04  0.25500000920E-02 0.  1.
       -2    1    3    3    0  502 -0.42277814268E+03  0.15025259395E+04  0.16472097074E+03  0.15695408739E+04  0.25500000920E-02 0. -1.
</event>
<event>
 5   0  0.1277374E-07  0.3200241E+04  0.7818609E-02  0.8188754E-01
        1   -1    0    0  501    0  0.00000000000E+00  0.00000000000E+00  0.90820424282E+03  0.90820424283E+03  0.50400001928E-02 0.  1.
       -1   -1    0    0    0  501  0.00000000000E+00  0.00000000000E+00 -0.28191733758E+04  0.28191733758E+04  0.50400001928E-02 0. -1.
    10030    2    1    2    0    0  0.00000000000E+00  0.00000000000E+00 -0.19109691330E+04  0.37273776187E+04  0.32002407542E+04 0.  0.
        5    1    3    3  502    0 -0.36188676238E+03  0.13653954230E+04 -0.18310367345E+04  0.23125709293E+04  0.46999998093E+01 0. -1.
       -5    1    3    3    0  502  0.36188676238E+03 -0.13653954230E+04 -0.79932398558E+02  0.14148066894E+04  0.46999998093E+01 0.  1.
</event>
<event>
 5   0  0.1270948E-07  0.3200969E+04  0.7818609E-02  0.8188561E-01
       -1   -1    0    0    0  501  0.00000000000E+00  0.00000000000E+00  0.94463098469E+03  0.94463098471E+03  0.50400001928E-02 0.  1.
        1   -1    0    0  501    0  0.00000000000E+00  0.00000000000E+00 -0.27116950181E+04  0.27116950181E+04  0.50400001928E-02 0. -1.
    10030    2    1    2    0    0  0.00000000000E+00  0.00000000000E+00 -0.17670640334E+04  0.36563260028E+04  0.32009693127E+04 0.  0.
        4    1    3    3  502    0  0.39676061975E+03  0.12710311491E+04 -0.18978979072E+04  0.23183954042E+04  0.12699999809E+01 0. -1.
       -4    1    3    3    0  502 -0.39676061975E+03 -0.12710311491E+04  0.13083387376E+03  0.13379305986E+04  0.12699999809E+01 0.  1.
</event>
<event>
 5   0  0.1288096E-07  0.3205223E+04  0.7818609E-02  0.8187439E-01
        1   -1    0    0  501    0  0.00000000000E+00  0.00000000000E+00  0.17218109888E+04  0.17218109888E+04  0.50400001928E-02 0.  1.
       -1   -1    0    0    0  501  0.00000000000E+00  0.00000000000E+00 -0.14916641607E+04  0.14916641607E+04  0.50400001928E-02 0. -1.
    10030    2    1    2    0    0  0.00000000000E+00  0.00000000000E+00  0.23014682809E+03  0.32134751495E+04  0.32052230771E+04 0.  0.
        2    1    3    3  502    0  0.91299282008E+02 -0.12380433817E+04 -0.90108266238E+03  0.15339611919E+04  0.25500000920E-02 0. -1.
       -2    1    3    3    0  502 -0.91299282008E+02  0.12380433817E+04  0.11312294905E+04  0.16795139576E+04  0.25500000920E-02 0.  1.
</event>
<event>
 5   0  0.1277374E-07  0.3201668E+04  0.7818609E-02  0.8188377E-01
        1   -1    0    0  501    0  0.00000000000E+00  0.00000000000E+00  0.80037537347E+03  0.80037537348E+03  0.50400001928E-02 0. -1.
       -1   -1    0    0    0  501  0.00000000000E+00  0.00000000000E+00 -0.32018344470E+04  0.32018344470E+04  0.50400001928E-02 0.  1.
    10030    2    1    2    0    0  0.00000000000E+00  0.00000000000E+00 -0.24014590735E+04  0.40022098205E+04  0.32016679661E+04 0.  0.
        5    1    3    3  502    0 -0.21898042915E+03 -0.15855868691E+04 -0.12315830599E+04  0.20196180508E+04  0.46999998093E+01 0.  1.
       -5    1    3    3    0  502  0.21898042915E+03  0.15855868691E+04 -0.11698760136E+04  0.19825917696E+04  0.46999998093E+01 0. -1.
</event>
<event>
 5   0  0.3942564E-07  0.3195587E+04  0.7818609E-02  0.8189984E-01
        2   -1    0    0  501    0  0.00000000000E+00  0.00000000000E+00  0.13824706321E+04  0.13824706321E+04  0.25500000920E-02 0.  1.
       -2   -1    0    0    0  501  0.00000000000E+00  0.00000000000E+00 -0.18466531375E+04  0.18466531375E+04  0.25500000920E-02 0. -1.
    10030    2    1    2    0    0  0.00000000000E+00  0.00000000000E+00 -0.46418250547E+03  0.32291237696E+04  0.31955867882E+04 0.  0.
        3    1    3    3  502    0  0.13647016523E+04 -0.23127964002E+03 -0.10386172983E+04  0.17304989957E+04  0.10100000352E+00 0. -1.
       -3    1    3    3    0  502 -0.13647016523E+04  0.23127964002E+03  0.57443479285E+03  0.14986247739E+04  0.10100000352E+00 0.  1.
</event>
<event>
 5   0  0.3830207E-07  0.3202785E+04  0.7818609E-02  0.8188082E-01
       -2   -1    0    0    0  501  0.00000000000E+00  0.00000000000E+00  0.14430415815E+04  0.14430415815E+04  0.25500000920E-02 0.  1.
        2   -1    0    0  501    0  0.00000000000E+00  0.00000000000E+00 -0.17771198556E+04  0.17771198556E+04  0.25500000920E-02 0. -1.
    10030    2    1    2    0    0  0.00000000000E+00  0.00000000000E+00 -0.33407827410E+03  0.32201614371E+04  0.32027849425E+04 0.  0.
        4    1    3    3  502    0  0.11370769755E+04 -0.72170933198E+03 -0.10381390740E+04  0.17004536918E+04  0.12699999809E+01 0. -1.
       -4    1    3    3    0  502 -0.11370769755E+04  0.72170933198E+03  0.70406079991E+03  0.15197077453E+04  0.12699999809E+01 0.  1.
</event>
<event>
 5   0  0.3764056E-07  0.3203835E+04  0.7818609E-02  0.8187805E-01
        2   -1    0    0  501    0  0.00000000000E+00  0.00000000000E+00  0.19342839124E+04  0.19342839124E+04  0.25500000920E-02 0. -1.
       -2   -1    0    0    0  501  0.00000000000E+00  0.00000000000E+00 -0.13266615063E+04  0.13266615063E+04  0.25500000920E-02 0.  1.
    10030    2    1    2    0    0  0.00000000000E+00  0.00000000000E+00  0.60762240610E+03  0.32609454187E+04  0.32038352073E+04 0.  0.
        5    1    3    3  502    0  0.22476871866E+03 -0.13203600494E+04  0.11982513271E+04  0.17971366030E+04  0.46999998093E+01 0. -1.
       -5    1    3    3    0  502 -0.22476871866E+03  0.13203600494E+04 -0.59062892095E+03  0.14638088158E+04  0.46999998093E+01 0.  1.
</event>
<event>
 5   0  0.1288096E-07  0.3200788E+04  0.7818609E-02  0.8188609E-01
       -1   -1    0    0    0  501  0.00000000000E+00  0.00000000000E+00  0.13195047284E+04  0.13195047284E+04  0.50400001928E-02 0.  1.
        1   -1    0    0  501    0  0.00000000000E+00  0.00000000000E+00 -0.19410778225E+04  0.19410778226E+04  0.50400001928E-02 0. -1.
    10030    2    1    2    0    0  0.00000000000E+00  0.00000000000E+00 -0.62157309414E+03  0.32605825510E+04  0.32007882561E+04 0.  0.
        2    1    3    3  502    0 -0.75475958365E+03 -0.14002958491E+04 -0.13209329600E+03  0.15962265293E+04  0.25500000920E-02 0.  1.
       -2    1    3    3    0  502  0.75475958365E+03  0.14002958491E+04 -0.48947979814E+03  0.16643560217E+04  0.25500000920E-02 0. -1.
</event>
<event>
 5   0  0.1288096E-07  0.3200546E+04  0.7818609E-02  0.8188673E-01
        1   -1    0    0  501    0  0.00000000000E+00  0.00000000000E+00  0.22715629438E+04  0.22715629438E+04  0.50400001928E-02 0. -1.
       -1   -1    0    0    0  501  0.00000000000E+00  0.00000000000E+00 -0.11273618379E+04  0.11273618379E+04  0.50400001928E-02 0.  1.
    10030    2    1    2    0    0  0.00000000000E+00  0.00000000000E+00  0.11442011058E+04  0.33989247817E+04  0.32005458130E+04 0.  0.
        2    1    3    3  502    0  0.65985096334E+03 -0.82524526635E+03  0.18484432823E+04  0.21291255509E+04  0.25500000920E-02 0. -1.
       -2    1    3    3    0  502 -0.65985096334E+03  0.82524526635E+03 -0.70424217650E+03  0.12697992308E+04  0.25500000920E-02 0.  1.
</event>
<event>
 5   0  0.1230450E-07  0.3199873E+04  0.7818609E-02  0.8188851E-01
       -3   -1    0    0    0  501  0.00000000000E+00  0.00000000000E+00  0.15770735758E+04  0.15770735790E+04  0.10100000352E+00 0.  1.
        3   -1    0    0  501    0  0.00000000000E+00  0.00000000000E+00 -0.16231306719E+04  0.16231306750E+04  0.10100000352E+00 0. -1.
    10030    2    1    2    0    0  0.00000000000E+00  0.00000000000E+00 -0.46057096090E+02  0.32002042540E+04  0.31998728118E+04 0.  0.
        3    1    3    3  502    0 -0.33314342621E+03  0.41416216442E+03 -0.15322513405E+04  0.16218227466E+04  0.10100000352E+00 0. -1.
       -3    1    3    3    0  502  0.33314342621E+03 -0.41416216442E+03  0.14861942444E+04  0.15783815074E+04  0.10100000352E+00 0.  1.
</event>
<event>
 5   0  0.1270948E-07  0.3201682E+04  0.7818609E-02  0.8188373E-01
        1   -1    0    0  501    0  0.00000000000E+00  0.00000000000E+00  0.19785279592E+04  0.19785279592E+04  0.50400001928E-02 0. -1.
       -1   -1    0    0    0  501  0.00000000000E+00  0.00000000000E+00 -0.12952521844E+04  0.12952521844E+04  0.50400001928E-02 0.  1.
    10030    2    1    2    0    0  0.00000000000E+00  0.00000000000E+00  0.68327577483E+03  0.32737801436E+04  0.32016824708E+04 0.  0.
        4    1    3    3  502    0  0.24342070140E+03 -0.64623072958E+03  0.18183981734E+04  0.19451070211E+04  0.12699999809E+01 0. -1.
       -4    1    3    3    0  502 -0.24342070140E+03  0.64623072958E+03 -0.11351223986E+04  0.13286731225E+04  0.12699999809E+01 0.  1.
</event>
<event>
 5   0  0.1365455E-07  0.3198727E+04  0.7818609E-02  0.8189153E-01
       -1   -1    0    0    0  501  0.00000000000E+00  0.00000000000E+00  0.15050307307E+04  0.15050307307E+04  0.50400001928E-02 0.  1.
        1   -1    0    0  501    0  0.00000000000E+00  0.00000000000E+00 -0.16996088804E+04  0.16996088804E+04  0.50400001928E-02 0. -1.
    10030    2    1    2    0    0  0.00000000000E+00  0.00000000000E+00 -0.19457814970E+03  0.32046396110E+04  0.31987269937E+04 0.  0.
        3    1    3    3  502    0  0.10993785585E+04  0.74963508115E+03 -0.98627227343E+03  0.16562967661E+04  0.10100000352E+00 0. -1.
       -3    1    3    3    0  502 -0.10993785585E+04 -0.74963508115E+03  0.79169412373E+03  0.15483428450E+04  0.10100000352E+00 0.  1.
</event>
<event>
 5   0  0.3830207E-07  0.3199763E+04  0.7818609E-02  0.8188880E-01
       -2   -1    0    0    0  501  0.00000000000E+00  0.00000000000E+00  0.18105223255E+04  0.18105223255E+04  0.25500000920E-02 0.  1.
        2   -1    0    0  501    0  0.00000000000E+00  0.00000000000E+00 -0.14137469557E+04  0.14137469557E+04  0.25500000920E-02 0. -1.
    10030    2    1    2    0    0  0.00000000000E+00  0.00000000000E+00  0.39677536977E+03  0.32242692811E+04  0.31997627573E+04 0.  0.
        4    1    3    3  502    0  0.15421586933E+04 -0.33954442136E+03  0.45740690534E+03  0.16440092881E+04  0.12699999809E+01 0. -1.
       -4    1    3    3    0  502 -0.15421586933E+04  0.33954442136E+03 -0.60631535570E+02  0.15802599930E+04  0.12699999809E+01 0.  1.
</event>
<event>
 5   0  0.3764056E-07  0.3192710E+04  0.7818609E-02  0.8190745E-01
        2   -1    0    0  501    0  0.00000000000E+00  0.00000000000E+00  0.23384332121E+04  0.23384332121E+04  0.25500000920E-02 0. -1.
       -2   -1    0    0    0  501  0.00000000000E+00  0.00000000000E+00 -0.10897676694E+04  0.10897676694E+04  0.25500000920E-02 0.  1.
    10030    2    1    2    0    0  0.00000000000E+00  0.00000000000E+00  0.12486655427E+04  0.34282008816E+04  0.31927097655E+04 0.  0.
        5    1    3    3  502    0 -0.13362380044E+04  0.36983164914E+03  0.14739057810E+04  0.20235433760E+04  0.46999998093E+01 0.  1.
       -5    1    3    3    0  502  0.13362380044E+04 -0.36983164914E+03 -0.22524023834E+03  0.14046575056E+04  0.46999998093E+01 0. -1.
</event>
<event>
 5   0  0.1277374E-07  0.3200543E+04  0.7818609E-02  0.8188674E-01
       -1   -1    0    0    0  501  0.00000000000E+00  0.00000000000E+00  0.15692014313E+04  0.15692014313E+04  0.50400001928E-02 0. -1.
        1   -1    0    0  501    0  0.00000000000E+00  0.00000000000E+00 -0.16319565672E+04  0.16319565672E+04  0.50400001928E-02 0.  1.
    10030    2    1    2    0    0  0.00000000000E+00  0.00000000000E+00 -0.62755135866E+02  0.32011579985E+04  0.32005428172E+04 0.  0.
        5    1    3    3  502    0  0.25367928864E+02 -0.57299152064E+02 -0.16307220587E+04  0.16319323660E+04  0.46999998093E+01 0.  1.
       -5    1    3    3    0  502 -0.25367928864E+02  0.57299152064E+02  0.15679669228E+04  0.15692256325E+04  0.46999998093E+01 0. -1.
</event>
<event>
 5   0  0.3750285E-07  0.3201367E+04  0.7818609E-02  0.8188456E-01
        2   -1    0    0  501    0  0.00000000000E+00  0.00000000000E+00  0.19404629020E+04  0.19404629020E+04  0.25500000920E-02 0.  1.
       -2   -1    0    0    0  501  0.00000000000E+00  0.00000000000E+00 -0.13204005215E+04  0.13204005215E+04  0.25500000920E-02 0. -1.
    10030    2    1    2    0    0  0.00000000000E+00  0.00000000000E+00  0.62006238053E+03  0.32608634235E+04  0.32013673502E+04 0.  0.
        1    1    3    3  502    0 -0.14823980866E+04 -0.58285049629E+03  0.14907729414E+03  0.15998258743E+04  0.50400001928E-02 0. -1.
       -1    1    3    3    0  502  0.14823980866E+04  0.58285049629E+03  0.47098508639E+03  0.16610375492E+04  0.50400001928E-02 0.  1.
</event>
<event>
 5   0  0.3858721E-07  0.3193640E+04  0.7818609E-02  0.8190499E-01
       -2   -1    0    0    0  501  0.00000000000E+00  0.00000000000E+00  0.12957822812E+04  0.12957822812E+04  0.25500000920E-02 0. -1.
        2   -1    0    0  501    0  0.00000000000E+00  0.00000000000E+00 -0.19677947346E+04  0.19677947346E+04  0.25500000920E-02 0.  1.
    10030    2    1    2    0    0  0.00000000000E+00  0.00000000000E+00 -0.67201245338E+03  0.32635770159E+04  0.31936396479E+04 0.  0.
        2    1    3    3  502    0 -0.13674695669E+04  0.30543711891E+03 -0.11186558799E+04  0.17929461307E+04  0.25500000920E-02 0.  1.
       -2    1    3    3    0  502  0.13674695669E+04 -0.30543711891E+03  0.44664342650E+03  0.14706308852E+04  0.25500000920E-02 0. -1.
</event>
<event>
 5   0  0.3858721E-07  0.3205917E+04  0.7818609E-02  0.8187256E-01
        2   -1    0    0  501    0  0.00000000000E+00  0.00000000000E+00  0.14839752938E+04  0.14839752938E+04  0.25500000920E-02 0. -1.
       -2   -1    0    0    0  501  0.00000000000E+00  0.00000000000E+00 -0.17314819663E+04  0.17314819663E+04  0.25500000920E-02 0.  1.
    10030    2    1    2    0    0  0.00000000000E+00  0.00000000000E+00 -0.24750667246E+03  0.32154572601E+04  0.32059173163E+04 0.  0.
        2    1    3    3  502    0 -0.38589831017E+01 -0.29931689579E+03 -0.17032000036E+04  0.17293049899E+04  0.25500000920E-02 0.  1.
       -2    1    3    3    0  502  0.38589831017E+01  0.29931689579E+03  0.14556933311E+04  0.14861522702E+04  0.25500000920E-02 0. -1.
</event>
<event>
 5   0  0.1270948E-07  0.3202822E+04  0.7818609E-02  0.8188072E-01
        1   -1    0    0  501    0  0.00000000000E+00  0.00000000000E+00  0.21161633646E+04  0.21161633646E+04  0.50400001928E-02 0.  1.
       -1   -1    0    0    0  501  0.00000000000E+00  0.00000000000E+00 -0.12118708891E+04  0.12118708891E+04  0.50400001928E-02 0. -1.
    10030    2    1    2    0    0  0.00000000000E+00  0.00000000000E+00  0.90429247552E+03  0.33280342537E+04  0.32028217422E+04 0.  0.
        4    1    3    3  502    0 -0.15785442964E+04  0.72966616406E+02  0.72188871400E+03  0.17373114721E+04  0.12699999809E+01 0. -1.
       -4    1    3    3    0  502  0.15785442964E+04 -0.72966616406E+02  0.18240376152E+03  0.15907227816E+04  0.12699999809E+01 0.  1.
</event>
<event>
 5   0  0.1317293E-07  0.3201268E+04  0.7818609E-02  0.8188482E-01
        1   -1    0    0  501    0  0.00000000000E+00  0.00000000000E+00  0.22103880079E+04  0.22103880079E+04  0.50400001928E-02 0.  1.
       -1   -1    0    0    0  501  0.00000000000E+00  0.00000000000E+00 -0.11590855639E+04  0.11590855639E+04  0.50400001928E-02 0. -1.
    10030    2    1    2    0    0  0.00000000000E+00  0.00000000000E+00  0.10513024440E+04  0.33694735718E+04  0.32012677680E+04 0.  0.
        1    1    3    3  502    0 -0.15159747852E+04  0.45391717403E+03  0.27258403979E+03  0.16057778205E+04  0.50400001928E-02 0. -1.
       -1    1    3    3    0  502  0.15159747852E+04 -0.45391717403E+03  0.77871840424E+03  0.17636957513E+04  0.50400001928E-02 0.  1.
</event>
<event>
 5   0  0.3764056E-07  0.3179789E+04  0.7818609E-02  0.8194175E-01
       -2   -1    0    0    0  501  0.00000000000E+00  0.00000000000E+00  0.17436286190E+04  0.17436286190E+04  0.25500000920E-02 0. -1.
        2   -1    0    0  501    0  0.00000000000E+00  0.00000000000E+00 -0.14497151353E+04  0.14497151353E+04  0.25500000920E-02 0.  1.
    10030    2    1    2    0    0  0.00000000000E+00  0.00000000000E+00  0.29391348373E+03  0.31933437544E+04  0.31797891750E+04 0.  0.
        5    1    3    3  502    0  0.10521432544E+04 -0.11232152741E+04 -0.25364809120E+03  0.15598004436E+04  0.46999998093E+01 0.  1.
       -5    1    3    3    0  502 -0.10521432544E+04  0.11232152741E+04  0.54756157492E+03  0.16335433107E+04  0.46999998093E+01 0. -1.
</event>
<event>
 5   0  0.1277374E-07  0.3190831E+04  0.7818609E-02  0.8191243E-01
       -1   -1    0    0    0  501  0.00000000000E+00  0.00000000000E+00  0.15972913088E+04  0.15972913088E+04  0.50400001928E-02 0. -1.
        1   -1    0    0  501    0  0.00000000000E+00  0.00000000000E+00 -0.15935421874E+04  0.15935421874E+04  0.50400001928E-02 0.  1.
    10030    2    1    2    0    0  0.00000000000E+00  0.00000000000E+00  0.37491213933E+01  0.31908334963E+04  0.31908312937E+04 0.  0.
        5    1    3    3  502    0 -0.53653451536E+03 -0.14761207335E+04 -0.27835284455E+03  0.15950874904E+04  0.46999998093E+01 0.  1.
       -5    1    3    3    0  502  0.53653451536E+03  0.14761207335E+04  0.28210196594E+03  0.15957460059E+04  0.46999998093E+01 0. -1.
</event>
<event>
 5   0  0.3858721E-07  0.3239817E+04  0.7818609E-02  0.8178380E-01
       -2   -1    0    0    0  501  0.00000000000E+00  0.00000000000E+00  0.16774231823E+04  0.16774231823E+04  0.25500000920E-02 0.  1.
        2   -1    0    0  501    0  0.00000000000E+00  0.00000000000E+00 -0.15643661939E+04  0.15643661939E+04  0.25500000920E-02 0. -1.
    10030    2    1    2    0    0  0.00000000000E+00  0.00000000000E+00  0.11305698837E+03  0.32417893761E+04  0.32398173524E+04 0.  0.
        2    1    3    3  502    0 -0.12927146987E+04  0.97589033517E+03  0.31395865856E+02  0.16200181909E+04  0.25500000920E-02 0.  1.
       -2    1    3    3    0  502  0.12927146987E+04 -0.97589033517E+03  0.81661122513E+02  0.16217711853E+04  0.25500000920E-02 0. -1.
</event>
<event>
 5   0  0.3830207E-07  0.3217608E+04  0.7818609E-02  0.8184182E-01
       -2   -1    0    0    0  501  0.00000000000E+00  0.00000000000E+00  0.90261755864E+03  0.90261755864E+03  0.25500000920E-02 0.  1.
        2   -1    0    0  501    0  0.00000000000E+00  0.00000000000E+00 -0.28674931096E+04  0.28674931097E+04  0.25500000920E-02 0. -1.
    10030    2    1    2    0    0  0.00000000000E+00  0.00000000000E+00 -0.19648755510E+04  0.37701106683E+04  0.32176075771E+04 0.  0.
        4    1    3    3  502    0 -0.15456687141E+04  0.10727552587E+03 -0.14900046021E+04  0.21495848761E+04  0.12699999809E+01 0. -1.
       -4    1    3    3    0  502  0.15456687141E+04 -0.10727552587E+03 -0.47487094893E+03  0.16205257922E+04  0.12699999809E+01 0.  1.
</event>
<event>
 5   0  0.1270948E-07  0.3204022E+04  0.7818609E-02  0.8187756E-01
        1   -1    0    0  501    0  0.00000000000E+00  0.00000000000E+00  0.21615560042E+04  0.21615560042E+04  0.50400001928E-02 0. -1.
       -1   -1    0    0    0  501  0.00000000000E+00  0.00000000000E+00 -0.11873111104E+04  0.11873111104E+04  0.50400001928E-02 0.  1.
    10030    2    1    2    0    0  0.00000000000E+00  0.00000000000E+00  0.97424489383E+03  0.33488671146E+04  0.32040221345E+04 0.  0.
        4    1    3    3  502    0  0.51808232399E+03  0.11297979184E+04  0.15435499686E+04  0.19817670774E+04  0.12699999809E+01 0. -1.
       -4    1    3    3    0  502 -0.51808232399E+03 -0.11297979184E+04 -0.56930507473E+03  0.13671000372E+04  0.12699999809E+01 0.  1.
</event>
<event>
 5   0  0.3764056E-07  0.3204817E+04  0.7818609E-02  0.8187546E-01
       -2   -1    0    0    0  501  0.00000000000E+00  0.00000000000E+00  0.16148327380E+04  0.16148327380E+04  0.25500000920E-02 0. -1.
        2   -1    0    0  501    0  0.00000000000E+00  0.00000000000E+00 -0.15900793717E+04  0.15900793717E+04  0.25500000920E-02 0.  1.
    10030    2    1    2    0    0  0.00000000000E+00  0.00000000000E+00  0.24753366269E+02  0.32049121096E+04  0.32048165160E+04 0.  0.
        5    1    3    3  502    0 -0.52739135346E+03  0.79473197321E+03 -0.12752756360E+04  0.15925107807E+04  0.46999998093E+01 0.  1.
       -5    1    3    3    0  502  0.52739135346E+03 -0.79473197321E+03  0.13000290022E+04  0.16124013289E+04  0.46999998093E+01 0. -1.
</event>
<event>
 5   0  0.3942564E-07  0.3199352E+04  0.7818609E-02  0.8188988E-01
        2   -1    0    0  501    0  0.00000000000E+00  0.00000000000E+00  0.15430344796E+04  0.15430344796E+04  0.25500000920E-02 0. -1.
       -2   -1    0    0    0  501  0.00000000000E+00  0.00000000000E+00 -0.16583970916E+04  0.16583970916E+04  0.25500000920E-02 0.  1.
    10030    2    1    2    0    0  0.00000000000E+00  0.00000000000E+00 -0.11536261195E+03  0.32014315712E+04  0.31993523677E+04 0.  0.
        3    1    3    3  502    0 -0.99438235448E+03  0.70264880597E+03  0.98051514047E+03  0.15633046927E+04  0.10100000352E+00 0.  1.
       -3    1    3    3    0  502  0.99438235448E+03 -0.70264880597E+03 -0.10958777524E+04  0.16381268784E+04  0.10100000352E+00 0. -1.
</event>
<event>
 5   0  0.3830207E-07  0.3198995E+04  0.7818609E-02  0.8189083E-01
       -2   -1    0    0    0  501  0.00000000000E+00  0.00000000000E+00  0.18244367894E+04  0.18244367894E+04  0.25500000920E-02 0. -1.
        2   -1    0    0  501    0  0.00000000000E+00  0.00000000000E+00 -0.14022916054E+04  0.14022916054E+04  0.25500000920E-02 0.  1.
    10030    2    1    2    0    0  0.00000000000E+00  0.00000000000E+00  0.42214518397E+03  0.32267283948E+04  0.31989950887E+04 0.  0.
        4    1    3    3  502    0  0.11785409348E+04  0.61654691096E+03 -0.68505618985E+03  0.14961258051E+04  0.12699999809E+01 0.  1.
       -4    1    3    3    0  502 -0.11785409348E+04 -0.61654691096E+03  0.11072013738E+04  0.17306025897E+04  0.12699999809E+01 0. -1.
</event>
<event>
 5   0  0.1288096E-07  0.3201980E+04  0.7818609E-02  0.8188294E-01
       -1   -1    0    0    0  501  0.00000000000E+00  0.00000000000E+00  0.15713872582E+04  0.15713872582E+04  0.50400001928E-02 0. -1.
        1   -1    0    0  501    0  0.00000000000E+00  0.00000000000E+00 -0.16311503691E+04  0.16311503691E+04  0.50400001928E-02 0.  1.
    10030    2    1    2    0    0  0.00000000000E+00  0.00000000000E+00 -0.59763110894E+02  0.32025376273E+04  0.32019799538E+04 0.  0.
        2    1    3    3  502    0  0.56671194843E+03 -0.14445872338E+04 -0.42387172553E+03  0.16086211326E+04  0.25500000920E-02 0.  1.
       -2    1    3    3    0  502 -0.56671194843E+03  0.14445872338E+04  0.36410861463E+03  0.15939164946E+04  0.25500000920E-02 0. -1.
</event>
<event>
 5   0  0.3764056E-07  0.3199537E+04  0.7818609E-02  0.8188939E-01
       -2   -1    0    0    0  501  0.00000000000E+00  0.00000000000E+00  0.11911844989E+04  0.11911844989E+04  0.25500000920E-02 0.  1.
        2   -1    0    0  501    0  0.00000000000E+00  0.00000000000E+00 -0.21484999904E+04  0.21484999904E+04  0.25500000920E-02 0. -1.
    10030    2    1    2    0    0  0.00000000000E+00  0.00000000000E+00 -0.95731549156E+03  0.33396844893E+04  0.31995373944E+04 0.  0.
        5    1    3    3  502    0 -0.24081319645E+03  0.55462300211E+03  0.10673118194E+04  0.12266924145E+04  0.46999998093E+01 0.  1.
       -5    1    3    3    0  502  0.24081319645E+03 -0.55462300211E+03 -0.20246273109E+04  0.21129920748E+04  0.46999998093E+01 0. -1.
</event>
<event>
 5   0  0.1277374E-07  0.3200839E+04  0.7818609E-02  0.8188596E-01
       -1   -1    0    0    0  501  0.00000000000E+00  0.00000000000E+00  0.15588179202E+04  0.15588179202E+04  0.50400001928E-02 0. -1.
        1   -1    0    0  501    0  0.00000000000E+00  0.00000000000E+00 -0.16431310722E+04  0.16431310722E+04  0.50400001928E-02 0.  1.
    10030    2    1    2    0    0  0.00000000000E+00  0.00000000000E+00 -0.84313151961E+02  0.32019489924E+04  0.32008387405E+04 0.  0.
        5    1    3    3  502    0  0.29991000002E+03 -0.23804326657E+03  0.15123159719E+04  0.15600424013E+04  0.46999998093E+01 0. -1.
       -5    1    3    3    0  502 -0.29991000002E+03  0.23804326657E+03 -0.15966291239E+04  0.16419065911E+04  0.46999998093E+01 0.  1.
</event>
<event>
 5   0  0.3830207E-07  0.3196716E+04  0.7818609E-02  0.8189685E-01
        2   -1    0    0  501    0  0.00000000000E+00  0.00000000000E+00  0.15935544505E+04  0.15935544505E+04  0.25500000920E-02 0. -1.
       -2   -1    0    0    0  501  0.00000000000E+00  0.00000000000E+00 -0.16031755412E+04  0.16031755412E+04  0.25500000920E-02 0.  1.
    10030    2    1    2    0    0  0.00000000000E+00  0.00000000000E+00 -0.96210906702E+01  0.31967299917E+04  0.31967155135E+04 0.  0.
        4    1    3    3  502    0 -0.31670971056E+03 -0.12876343167E+04  0.88762765737E+03  0.15956790546E+04  0.12699999809E+01 0. -1.
       -4    1    3    3    0  502  0.31670971056E+03  0.12876343167E+04 -0.89724874804E+03  0.16010509371E+04  0.12699999809E+01 0.  1.
</event>
<event>
 5   0  0.1317293E-07  0.3229670E+04  0.7818609E-02  0.8181025E-01
       -1   -1    0    0    0  501  0.00000000000E+00  0.00000000000E+00  0.20004523750E+04  0.20004523750E+04  0.50400001928E-02 0.  1.
        1   -1    0    0  501    0  0.00000000000E+00  0.00000000000E+00 -0.13035514549E+04  0.13035514549E+04  0.50400001928E-02 0. -1.
    10030    2    1    2    0    0  0.00000000000E+00  0.00000000000E+00  0.69690092009E+03  0.33040038298E+04  0.32296703261E+04 0.  0.
        1    1    3    3  502    0  0.14018291678E+02  0.11827807214E+04 -0.77618124327E+03  0.14147876412E+04  0.50400001928E-02 0. -1.
       -1    1    3    3    0  502 -0.14018291678E+02 -0.11827807214E+04  0.14730821634E+04  0.18892161886E+04  0.50400001928E-02 0.  1.
</event>
<event>
 5   0  0.3764056E-07  0.3201536E+04  0.7818609E-02  0.8188412E-01
        2   -1    0    0  501    0  0.00000000000E+00  0.00000000000E+00  0.28850534486E+04  0.28850534486E+04  0.25500000920E-02 0.  1.
       -2   -1    0    0    0  501  0.00000000000E+00  0.00000000000E+00 -0.88818370389E+03  0.88818370390E+03  0.25500000920E-02 0. -1.
    10030    2    1    2    0    0  0.00000000000E+00  0.00000000000E+00  0.19968697447E+04  0.37732371525E+04  0.32015355428E+04 0.  0.
        5    1    3    3  502    0 -0.76985426804E+03  0.13298478421E+04  0.15271714478E+04  0.21664361514E+04  0.46999998093E+01 0.  1.
       -5    1    3    3    0  502  0.76985426804E+03 -0.13298478421E+04  0.46969829692E+03  0.16068010011E+04  0.46999998093E+01 0. -1.
</event>
<event>
 5   0  0.1277374E-07  0.3204769E+04  0.7818609E-02  0.8187559E-01
        1   -1    0    0  501    0  0.00000000000E+00  0.00000000000E+00  0.17970330950E+04  0.17970330950E+04  0.50400001928E-02 0. -1.
       -1   -1    0    0    0  501  0.00000000000E+00  0.00000000000E+00 -0.14288191653E+04  0.14288191653E+04  0.50400001928E-02 0.  1.
    10030    2    1    2    0    0  0.00000000000E+00  0.00000000000E+00  0.36821392968E+03  0.32258522602E+04  0.32047685263E+04 0.  0.
        5    1    3    3  502    0 -0.12975154226E+04 -0.79934004730E+03  0.68246257791E+03  0.16698107807E+04  0.46999998093E+01 0. -1.
       -5    1    3    3    0  502  0.12975154226E+04  0.79934004730E+03 -0.31424864823E+03  0.15560414795E+04  0.46999998093E+01 0.  1.
</event>
<event>
 5   0  0.1277374E-07  0.3199414E+04  0.7818609E-02  0.8188972E-01
       -1   -1    0    0    0  501  0.00000000000E+00  0.00000000000E+00  0.12773897682E+04  0.12773897682E+04  0.50400001928E-02 0. -1.
        1   -1    0    0  501    0  0.00000000000E+00  0.00000000000E+00 -0.20033527229E+04  0.20033527229E+04  0.50400001928E-02 0.  1.
    10030    2    1    2    0    0  0.00000000000E+00  0.00000000000E+00 -0.72596295468E+03  0.32807424911E+04  0.31994138653E+04 0.  0.
        5    1    3    3  502    0 -0.13523468095E+04 -0.57798844239E+03  0.28240416334E+03  0.14975602606E+04  0.46999998093E+01 0. -1.
       -5    1    3    3    0  502  0.13523468095E+04  0.57798844239E+03 -0.10083671180E+04  0.17831822305E+04  0.46999998093E+01 0.  1.
</event>
<event>
 5   0  0.3764056E-07  0.3196996E+04  0.7818609E-02  0.8189611E-01
        2   -1    0    0  501    0  0.00000000000E+00  0.00000000000E+00  0.11741841889E+04  0.11741841889E+04  0.25500000920E-02 0.  1.
       -2   -1    0    0    0  501  0.00000000000E+00  0.00000000000E+00 -0.21761458798E+04  0.21761458798E+04  0.25500000920E-02 0. -1.
    10030    2    1    2    0    0  0.00000000000E+00  0.00000000000E+00 -0.10019616909E+04  0.33503300687E+04  0.31969961431E+04 0.  0.
        5    1    3    3  502    0 -0.12015342972E+04  0.91484416857E+03  0.48124651302E+02  0.15109475809E+04  0.46999998093E+01 0.  1.
       -5    1    3    3    0  502  0.12015342972E+04 -0.91484416857E+03 -0.10500863422E+04  0.18393824878E+04  0.46999998093E+01 0. -1.
</event>
<event>
 5   0  0.1270948E-07  0.3199423E+04  0.7818609E-02  0.8188970E-01
       -1   -1    0    0    0  501  0.00000000000E+00  0.00000000000E+00  0.29211875815E+04  0.29211875815E+04  0.50400001928E-02 0.  1.
        1   -1    0    0  501    0  0.00000000000E+00  0.00000000000E+00 -0.87604002778E+03  0.87604002779E+03  0.50400001928E-02 0. -1.
    10030    2    1    2    0    0  0.00000000000E+00  0.00000000000E+00  0.20451475537E+04  0.37972276093E+04  0.31994232293E+04 0.  0.
        4    1    3    3  502    0  0.36420400516E+03  0.14560108994E+04  0.36554528680E+03  0.15447450490E+04  0.12699999809E+01 0. -1.
       -4    1    3    3    0  502 -0.36420400516E+03 -0.14560108994E+04  0.16796022669E+04  0.22524825603E+04  0.12699999809E+01 0.  1.
</event>
<event>
 5   0  0.1270948E-07  0.3205515E+04  0.7818609E-02  0.8187362E-01
       -1   -1    0    0    0  501  0.00000000000E+00  0.00000000000E+00  0.19424324184E+04  0.19424324184E+04  0.50400001928E-02 0. -1.
        1   -1    0    0  501    0  0.00000000000E+00  0.00000000000E+00 -0.13224818119E+04  0.13224818119E+04  0.50400001928E-02 0.  1.
    10030    2    1    2    0    0  0.00000000000E+00  0.00000000000E+00  0.61995060650E+03  0.32649142303E+04  0.32055149628E+04 0.  0.
        4    1    3    3  502    0 -0.52106377771E+03 -0.52857052158E+03  0.17568390251E+04  0.19071914507E+04  0.12699999809E+01 0. -1.
       -4    1    3    3    0  502  0.52106377771E+03  0.52857052158E+03 -0.11368884186E+04  0.13577227795E+04  0.12699999809E+01 0.  1.
</event>
<event>
 5   0  0.1277374E-07  0.3188405E+04  0.7818609E-02  0.8191886E-01
       -1   -1    0    0    0  501  0.00000000000E+00  0.00000000000E+00  0.12623565059E+04  0.12623565059E+04  0.50400001928E-02 0.  1.
        1   -1    0    0  501    0  0.00000000000E+00  0.00000000000E+00 -0.20132830190E+04  0.20132830190E+04  0.50400001928E-02 0. -1.
    10030    2    1    2    0    0  0.00000000000E+00  0.00000000000E+00 -0.75092651305E+03  0.32756395249E+04  0.31884045648E+04 0.  0.
        5    1    3    3  502    0 -0.11173965272E+04 -0.10816347045E+04 -0.15227108319E+02  0.15552371484E+04  0.46999998093E+01 0.  1.
       -5    1    3    3    0  502  0.11173965272E+04  0.10816347045E+04 -0.73569940473E+03  0.17204023765E+04  0.46999998093E+01 0. -1.
</event>
<event>
 5   0  0.1270948E-07  0.3206778E+04  0.7818609E-02  0.8187029E-01
       -1   -1    0    0    0  501  0.00000000000E+00  0.00000000000E+00  0.14896877319E+04  0.14896877319E+04  0.50400001928E-02 0.  1.
        1   -1    0    0  501    0  0.00000000000E+00  0.00000000000E+00 -0.17257689264E+04  0.17257689264E+04  0.50400001928E-02 0. -1.
    10030    2    1    2    0    0  0.00000000000E+00  0.00000000000E+00 -0.23608119447E+03  0.32154566584E+04  0.32067783197E+04 0.  0.
        4    1    3    3  502    0  0.32424093334E+03  0.12416910079E+04  0.84577160362E+03  0.15369645280E+04  0.12699999809E+01 0.  1.
       -4    1    3    3    0  502 -0.32424093334E+03 -0.12416910079E+04 -0.10818527981E+04  0.16784921304E+04  0.12699999809E+01 0. -1.
</event>
<event>
 5   0  0.1270948E-07  0.3197885E+04  0.7818609E-02  0.8189376E-01
       -1   -1    0    0    0  501  0.00000000000E+00  0.00000000000E+00  0.11536626800E+04  0.11536626800E+04  0.50400001928E-02 0.  1.
        1   -1    0    0  501    0  0.00000000000E+00  0.00000000000E+00 -0.22160865443E+04  0.22160865443E+04  0.50400001928E-02 0. -1.
    10030    2    1    2    0    0  0.00000000000E+00  0.00000000000E+00 -0.10624238642E+04  0.33697492243E+04  0.31978845144E+04 0.  0.
        4    1    3    3  502    0  0.34402585957E+03  0.11569158650E+04  0.57386616305E+03  0.13364625310E+04  0.12699999809E+01 0.  1.
       -4    1    3    3    0  502 -0.34402585957E+03 -0.11569158650E+04 -0.16362900273E+04  0.20332866933E+04  0.12699999809E+01 0. -1.
</event>
<event>
 5   0  0.1270948E-07  0.3186058E+04  0.7818609E-02  0.8192509E-01
       -1   -1    0    0    0  501  0.00000000000E+00  0.00000000000E+00  0.11603006865E+04  0.11603006865E+04  0.50400001928E-02 0. -1.
        1   -1    0    0  501    0  0.00000000000E+00  0.00000000000E+00 -0.21871417500E+04  0.21871417500E+04  0.50400001928E-02 0.  1.
    10030    2    1    2    0    0  0.00000000000E+00  0.00000000000E+00 -0.10268410635E+04  0.33474424365E+04  0.31860584263E+04 0.  0.
        4    1    3    3  502    0  0.13730851335E+04  0.58855416017E+03 -0.10945957570E+04  0.18519989923E+04  0.12699999809E+01 0.  1.
       -4    1    3    3    0  502 -0.13730851335E+04 -0.58855416017E+03  0.67754693460E+02  0.14954434442E+04  0.12699999809E+01 0. -1.
</event>
<event>
 5   0  0.1317293E-07  0.3198474E+04  0.7818609E-02  0.8189220E-01
       -1   -1    0    0    0  501  0.00000000000E+00  0.00000000000E+00  0.14179334478E+04  0.14179334478E+04  0.50400001928E-02 0. -1.
        1   -1    0    0  501    0  0.00000000000E+00  0.00000000000E+00 -0.18037227862E+04  0.18037227862E+04  0.50400001928E-02 0.  1.
    10030    2    1    2    0    0  0.00000000000E+00  0.00000000000E+00 -0.38578933838E+03  0.32216562340E+04  0.31984739293E+04 0.  0.
        1    1    3    3  502    0  0.88115863757E+03 -0.13330029718E+04 -0.25833789768E+03  0.16186648624E+04  0.50400001928E-02 0.  1.
       -1    1    3    3    0  502 -0.88115863757E+03  0.13330029718E+04 -0.12745144070E+03  0.16029913716E+04  0.50400001928E-02 0. -1.
</event>
<event>
 5   0  0.3858721E-07  0.3197299E+04  0.7818609E-02  0.8189531E-01
       -2   -1    0    0    0  501  0.00000000000E+00  0.00000000000E+00  0.11175422049E+04  0.11175422049E+04  0.25500000920E-02 0. -1.
        2   -1    0    0  501    0  0.00000000000E+00  0.00000000000E+00 -0.22868753288E+04  0.22868753288E+04  0.25500000920E-02 0.  1.
    10030    2    1    2    0    0  0.00000000000E+00  0.00000000000E+00 -0.11693331239E+04  0.34044175337E+04  0.31972986706E+04 0.  0.
        2    1    3    3  502    0 -0.11316497454E+04  0.62920730079E+01 -0.17869759272E+04  0.21151722627E+04  0.25500000920E-02 0.  1.
       -2    1    3    3    0  502  0.11316497454E+04 -0.62920730079E+01  0.61764280324E+03  0.12892452710E+04  0.25500000920E-02 0. -1.
</event>
<event>
 5   0  0.1317293E-07  0.3198147E+04  0.7818609E-02  0.8189307E-01
        1   -1    0    0  501    0  0.00000000000E+00  0.00000000000E+00  0.99671476577E+03  0.99671476578E+03  0.50400001928E-02 0. -1.
       -1   -1    0    0    0  501  0.00000000000E+00  0.00000000000E+00 -0.25654647064E+04  0.25654647064E+04  0.50400001928E-02 0.  1.
    10030    2    1    2    0    0  0.00000000000E+00  0.00000000000E+00 -0.15687499407E+04  0.35621794722E+04  0.31981473099E+04 0.  0.
        1    1    3    3  502    0 -0.12803433181E+04 -0.69279634780E+02  0.27987268494E+03  0.13124051965E+04  0.50400001928E-02 0. -1.
       -1    1    3    3    0  502  0.12803433181E+04  0.69279634780E+02 -0.18486226256E+04  0.22497742758E+04  0.50400001928E-02 0.  1.
</event>
<event>
 5   0  0.1317293E-07  0.3199899E+04  0.7818609E-02  0.8188844E-01
       -1   -1    0    0    0  501  0.00000000000E+00  0.00000000000E+00  0.18148850294E+04  0.18148850294E+04  0.50400001928E-02 0. -1.
        1   -1    0    0  501    0  0.00000000000E+00  0.00000000000E+00 -0.14104686118E+04  0.14104686118E+04  0.50400001928E-02 0.  1.
    10030    2    1    2    0    0  0.00000000000E+00  0.00000000000E+00  0.40441641758E+03  0.32253536412E+04  0.31998989784E+04 0.  0.
        1    1    3    3  502    0  0.43505769248E+03  0.10806288664E+03  0.17502921653E+04  0.18067859439E+04  0.50400001928E-02 0. -1.
       -1    1    3    3    0  502 -0.43505769248E+03 -0.10806288664E+03 -0.13458757477E+04  0.14185676972E+04  0.50400001928E-02 0.  1.
</event>
<event>
 5   0  0.3764056E-07  0.3195036E+04  0.7818609E-02  0.8190129E-01
       -2   -1    0    0    0  501  0.00000000000E+00  0.00000000000E+00  0.13146188126E+04  0.13146188126E+04  0.25500000920E-02 0. -1.
        2   -1    0    0  501    0  0.00000000000E+00  0.00000000000E+00 -0.19412958365E+04  0.19412958365E+04  0.25500000920E-02 0.  1.
    10030    2    1    2    0    0  0.00000000000E+00  0.00000000000E+00 -0.62667702391E+03  0.32559146491E+04  0.31950361672E+04 0.  0.
        5    1    3    3  502    0 -0.15170758531E+04 -0.50031964960E+03 -0.32785928496E+03  0.16307521874E+04  0.46999998093E+01 0.  1.
       -5    1    3    3    0  502  0.15170758531E+04  0.50031964960E+03 -0.29881773895E+03  0.16251624617E+04  0.46999998093E+01 0. -1.
</event>
<event>
 5   0  0.1288096E-07  0.3177012E+04  0.7818609E-02  0.8194915E-01
       -1   -1    0    0    0  501  0.00000000000E+00  0.00000000000E+00  0.12674092614E+04  0.12674092615E+04  0.50400001928E-02 0. -1.
        1   -1    0    0  501    0  0.00000000000E+00  0.00000000000E+00 -0.19909526529E+04  0.19909526529E+04  0.50400001928E-02 0.  1.
    10030    2    1    2    0    0  0.00000000000E+00  0.00000000000E+00 -0.72354339143E+03  0.32583619143E+04  0.31770123269E+04 0.  0.
        2    1    3    3  502    0  0.10849684982E+04 -0.11261152113E+04 -0.64831740911E+03  0.16928105547E+04  0.25500000920E-02 0.  1.
       -2    1    3    3    0  502 -0.10849684982E+04  0.11261152113E+04 -0.75225982329E+02  0.15655513596E+04  0.25500000920E-02 0. -1.
</event>
<event>
 5   0  0.1365455E-07  0.3200464E+04  0.7818609E-02  0.8188695E-01
        1   -1    0    0  501    0  0.00000000000E+00  0.00000000000E+00  0.19966594288E+04  0.19966594288E+04  0.50400001928E-02 0.  1.
       -1   -1    0    0    0  501  0.00000000000E+00  0.00000000000E+00 -0.12825133291E+04  0.12825133291E+04  0.50400001928E-02 0. -1.
    10030    2    1    2    0    0  0.00000000000E+00  0.00000000000E+00  0.71414609966E+03  0.32791727579E+04  0.32004639233E+04 0.  0.
        3    1    3    3  502    0  0.11621197129E+04  0.10985713487E+04  0.41647369328E+03  0.16525227934E+04  0.10100000352E+00 0.  1.
       -3    1    3    3    0  502 -0.11621197129E+04 -0.10985713487E+04  0.29767240637E+03  0.16266499645E+04  0.10100000352E+00 0. -1.
</event>
<event>
 5   0  0.1270948E-07  0.3202968E+04  0.7818609E-02  0.8188034E-01
        1   -1    0    0  501    0  0.00000000000E+00  0.00000000000E+00  0.25672798487E+04  0.25672798487E+04  0.50400001928E-02 0. -1.
       -1   -1    0    0    0  501  0.00000000000E+00  0.00000000000E+00 -0.99901496437E+03  0.99901496438E+03  0.50400001928E-02 0.  1.
    10030    2    1    2    0    0  0.00000000000E+00  0.00000000000E+00  0.15682648844E+04  0.35662948131E+04  0.32029679902E+04 0.  0.
        4    1    3    3  502    0  0.11035783689E+04  0.32082737556E+03  0.20259657509E+04  0.23292389868E+04  0.12699999809E+01 0. -1.
       -4    1    3    3    0  502 -0.11035783689E+04 -0.32082737556E+03 -0.45770086651E+03  0.12370558263E+04  0.12699999809E+01 0.  1.
</event>
<event>
 5   0  0.1270948E-07  0.3200235E+04  0.7818609E-02  0.8188755E-01
        1   -1    0    0  501    0  0.00000000000E+00  0.00000000000E+00  0.20301221792E+04  0.20301221792E+04  0.50400001928E-02 0. -1.
       -1   -1    0    0    0  501  0.00000000000E+00  0.00000000000E+00 -0.12611933849E+04  0.12611933850E+04  0.50400001928E-02 0.  1.
    10030    2    1    2    0    0  0.00000000000E+00  0.00000000000E+00  0.76892879427E+03  0.32913155642E+04  0.32002354058E+04 0.  0.
        4    1    3    3  502    0  0.78839571154E+03 -0.66009994509E+03  0.16453566285E+04  0.19402318891E+04  0.12699999809E+01 0. -1.
       -4    1    3    3    0  502 -0.78839571154E+03  0.66009994509E+03 -0.87642783427E+03  0.13510836751E+04  0.12699999809E+01 0.  1.
</event>
<event>
 5   0  0.3830207E-07  0.3199993E+04  0.7818609E-02  0.8188819E-01
       -2   -1    0    0    0  501  0.00000000000E+00  0.00000000000E+00  0.12911375184E+04  0.12911375184E+04  0.25500000920E-02 0.  1.
        2   -1    0    0  501    0  0.00000000000E+00  0.00000000000E+00 -0.19827384543E+04  0.19827384543E+04  0.25500000920E-02 0. -1.
    10030    2    1    2    0    0  0.00000000000E+00  0.00000000000E+00 -0.69160093589E+03  0.32738759728E+04  0.31999925048E+04 0.  0.
        4    1    3    3  502    0  0.77524036018E+03 -0.67787414806E+03  0.90700297073E+03  0.13722853123E+04  0.12699999809E+01 0.  1.
       -4    1    3    3    0  502 -0.77524036018E+03  0.67787414806E+03 -0.15986039066E+04  0.19015906604E+04  0.12699999809E+01 0. -1.
</event>
<event>
 5   0  0.1365455E-07  0.3202891E+04  0.7818609E-02  0.8188054E-01
       -1   -1    0    0    0  501  0.00000000000E+00  0.00000000000E+00  0.11919317149E+04  0.11919317149E+04  0.50400001928E-02 0.  1.
        1   -1    0    0  501    0  0.00000000000E+00  0.00000000000E+00 -0.21516567362E+04  0.21516567362E+04  0.50400001928E-02 0. -1.
    10030    2    1    2    0    0  0.00000000000E+00  0.00000000000E+00 -0.95972502136E+03  0.33435884511E+04  0.32028911336E+04 0.  0.
        3    1    3    3  502    0  0.57385793560E+03  0.11156429643E+04  0.55917689660E+03  0.13735541365E+04  0.10100000352E+00 0.  1.
       -3    1    3    3    0  502 -0.57385793560E+03 -0.11156429643E+04 -0.15189019180E+04  0.19700343146E+04  0.10100000352E+00 0. -1.
</event>
<event>
 5   0  0.3858721E-07  0.3202668E+04  0.7818609E-02  0.8188113E-01
        2   -1    0    0  501    0  0.00000000000E+00  0.00000000000E+00  0.18378970133E+04  0.18378970133E+04  0.25500000920E-02 0. -1.
       -2   -1    0    0    0  501  0.00000000000E+00  0.00000000000E+00 -0.13952196376E+04  0.13952196376E+04  0.25500000920E-02 0.  1.
    10030    2    1    2    0    0  0.00000000000E+00  0.00000000000E+00  0.44267737578E+03  0.32331166509E+04  0.32026676411E+04 0.  0.
        2    1    3    3  502    0  0.68669962679E+02  0.57065450589E+03 -0.12874976406E+04  0.14099689015E+04  0.25500000920E-02 0.  1.
       -2    1    3    3    0  502 -0.68669962679E+02 -0.57065450589E+03  0.17301750163E+04  0.18231477494E+04  0.25500000920E-02 0. -1.
</event>
<event>
 5   0  0.3764056E-07  0.3185817E+04  0.7818609E-02  0.8192573E-01
        2   -1    0    0  501    0  0.00000000000E+00  0.00000000000E+00  0.10283507281E+04  0.10283507282E+04  0.25500000920E-02 0. -1.
       -2   -1    0    0    0  501  0.00000000000E+00  0.00000000000E+00 -0.24674054764E+04  0.24674054764E+04  0.25500000920E-02 0.  1.
    10030    2    1    2    0    0  0.00000000000E+00  0.00000000000E+00 -0.14390547482E+04  0.34957562045E+04  0.31858174576E+04 0.  0.
        5    1    3    3  502    0 -0.64511184680E+03  0.18537953117E+03  0.86558769546E+03  0.10953533740E+04  0.46999998093E+01 0. -1.
       -5    1    3    3    0  502  0.64511184680E+03 -0.18537953117E+03 -0.23046424437E+04  0.24004028305E+04  0.46999998093E+01 0.  1.
</event>
<event>
 5   0  0.3942564E-07  0.3199861E+04  0.7818609E-02  0.8188854E-01
        2   -1    0    0  501    0  0.00000000000E+00  0.00000000000E+00  0.29023452388E+04  0.29023452388E+04  0.25500000920E-02 0.  1.
       -2   -1    0    0    0  501  0.00000000000E+00  0.00000000000E+00 -0.88196880639E+03  0.88196880640E+03  0.25500000920E-02 0. -1.
    10030    2    1    2    0    0  0.00000000000E+00  0.00000000000E+00  0.20203764324E+04  0.37843140452E+04  0.31998612257E+04 0.  0.
        3    1    3    3  502    0  0.57555464461E+03  0.90571785822E+03 -0.39322851175E+03  0.11428983596E+04  0.10100000352E+00 0. -1.
       -3    1    3    3    0  502 -0.57555464461E+03 -0.90571785822E+03  0.24136049441E+04  0.26414156856E+04  0.10100000352E+00 0.  1.
</event>
<event>
 5   0  0.1288096E-07  0.3199318E+04  0.7818609E-02  0.8188997E-01
        1   -1    0    0  501    0  0.00000000000E+00  0.00000000000E+00  0.11233100962E+04  0.11233100962E+04  0.50400001928E-02 0.  1.
       -1   -1    0    0    0  501  0.00000000000E+00  0.00000000000E+00 -0.22780080696E+04  0.22780080696E+04  0.50400001928E-02 0. -1.
    10030    2    1    2    0    0  0.00000000000E+00  0.00000000000E+00 -0.11546979734E+04  0.34013181658E+04  0.31993183423E+04 0.  0.
        2    1    3    3  502    0  0.15591727594E+04  0.11312748028E+01 -0.19715474659E+03  0.15715886763E+04  0.25500000920E-02 0.  1.
       -2    1    3    3    0  502 -0.15591727594E+04 -0.11312748028E+01 -0.95754322683E+03  0.18297294895E+04  0.25500000920E-02 0. -1.
</event>
<event>
 5   0  0.3942564E-07  0.3178479E+04  0.7818609E-02  0.8194524E-01
       -2   -1    0    0    0  501  0.00000000000E+00  0.00000000000E+00  0.85192292749E+03  0.85192292749E+03  0.25500000920E-02 0. -1.
        2   -1    0    0  501    0  0.00000000000E+00  0.00000000000E+00 -0.29646839306E+04  0.29646839306E+04  0.25500000920E-02 0.  1.
    10030    2    1    2    0    0  0.00000000000E+00  0.00000000000E+00 -0.21127610031E+04  0.38166068581E+04  0.31784790156E+04 0.  0.
        3    1    3    3  502    0  0.11152787705E+04  0.99857751003E+03 -0.41570907696E+03  0.15536466221E+04  0.10100000352E+00 0. -1.
       -3    1    3    3    0  502 -0.11152787705E+04 -0.99857751003E+03 -0.16970519261E+04  0.22629602360E+04  0.10100000352E+00 0.  1.
</event>
<event>
 5   0  0.1277374E-07  0.3204698E+04  0.7818609E-02  0.8187578E-01
       -1   -1    0    0    0  501  0.00000000000E+00  0.00000000000E+00  0.14076492879E+04  0.14076492879E+04  0.50400001928E-02 0. -1.
        1   -1    0    0  501    0  0.00000000000E+00  0.00000000000E+00 -0.18239787750E+04  0.18239787750E+04  0.50400001928E-02 0.  1.
    10030    2    1    2    0    0  0.00000000000E+00  0.00000000000E+00 -0.41632948717E+03  0.32316280629E+04  0.32046980661E+04 0.  0.
        5    1    3    3  502    0 -0.45287663176E+02 -0.12367722997E+03  0.14021745755E+04  0.14083545931E+04  0.46999998093E+01 0. -1.
       -5    1    3    3    0  502  0.45287663176E+02  0.12367722997E+03 -0.18185040627E+04  0.18232734698E+04  0.46999998093E+01 0.  1.
</event>
<event>
 5   0  0.1365455E-07  0.3212499E+04  0.7818609E-02  0.8185524E-01
        1   -1    0    0  501    0  0.00000000000E+00  0.00000000000E+00  0.15105903143E+04  0.15105903143E+04  0.50400001928E-02 0.  1.
       -1   -1    0    0    0  501  0.00000000000E+00  0.00000000000E+00 -0.17079667529E+04  0.17079667529E+04  0.50400001928E-02 0. -1.
    10030    2    1    2    0    0  0.00000000000E+00  0.00000000000E+00 -0.19737643861E+03  0.32185570672E+04  0.32124993597E+04 0.  0.
        3    1    3    3  502    0  0.12201006765E+04 -0.10243188871E+04 -0.30441216570E+03  0.16218944540E+04  0.10100000352E+00 0.  1.
       -3    1    3    3    0  502 -0.12201006765E+04  0.10243188871E+04  0.10703572708E+03  0.15966626131E+04  0.10100000352E+00 0. -1.
</event>
<event>
 5   0  0.1270948E-07  0.3197925E+04  0.7818609E-02  0.8189365E-01
       -1   -1    0    0    0  501  0.00000000000E+00  0.00000000000E+00  0.10850876842E+04  0.10850876842E+04  0.50400001928E-02 0. -1.
        1   -1    0    0  501    0  0.00000000000E+00  0.00000000000E+00 -0.23561977132E+04  0.23561977132E+04  0.50400001928E-02 0.  1.
    10030    2    1    2    0    0  0.00000000000E+00  0.00000000000E+00 -0.12711100290E+04  0.34412853974E+04  0.31979250274E+04 0.  0.
        4    1    3    3  502    0 -0.21456747408E+03  0.13705220527E+04 -0.14912466855E+04  0.20367101384E+04  0.12699999809E+01 0.  1.
       -4    1    3    3    0  502  0.21456747408E+03 -0.13705220527E+04  0.22013665651E+03  0.14045752590E+04  0.12699999809E+01 0. -1.
</event>
<event>
 5   0  0.3830207E-07  0.3200827E+04  0.7818609E-02  0.8188599E-01
       -2   -1    0    0    0  501  0.00000000000E+00  0.00000000000E+00  0.16155727615E+04  0.16155727615E+04  0.25500000920E-02 0.  1.
        2   -1    0    0  501    0  0.00000000000E+00  0.00000000000E+00 -0.15853967230E+04  0.15853967230E+04  0.25500000920E-02 0. -1.
    10030    2    1    2    0    0  0.00000000000E+00  0.00000000000E+00  0.30176038509E+02  0.32009694845E+04  0.32008272442E+04 0.  0.
        4    1    3    3  502    0 -0.27801794838E+01 -0.14066751069E+04  0.77839093566E+03  0.16076805179E+04  0.12699999809E+01 0.  1.
       -4    1    3    3    0  502  0.27801794838E+01  0.14066751069E+04 -0.74821489715E+03  0.15932889666E+04  0.12699999809E+01 0. -1.
</event>
<event>
 5   0  0.1270948E-07  0.3202094E+04  0.7818609E-02  0.8188264E-01
       -1   -1    0    0    0  501  0.00000000000E+00  0.00000000000E+00  0.12162164723E+04  0.12162164723E+04  0.50400001928E-02 0. -1.
        1   -1    0    0  501    0  0.00000000000E+00  0.00000000000E+00 -0.21076447334E+04  0.21076447334E+04  0.50400001928E-02 0.  1.
    10030    2    1    2    0    0  0.00000000000E+00  0.00000000000E+00 -0.89142826108E+03  0.33238612056E+04  0.32020944661E+04 0.  0.
        4    1    3    3  502    0  0.89195588650E+03  0.61129240223E+03 -0.16713280020E+04  0.19906286966E+04  0.12699999809E+01 0.  1.
       -4    1    3    3    0  502 -0.89195588650E+03 -0.61129240223E+03  0.77989974091E+03  0.13332325091E+04  0.12699999809E+01 0. -1.
</event>
<event>
 5   0  0.1230450E-07  0.3194580E+04  0.7818609E-02  0.8190250E-01
       -4   -1    0    0    0  501  0.00000000000E+00  0.00000000000E+00  0.16786725255E+04  0.16786730059E+04  0.12699999809E+01 0.  1.
        4   -1    0    0  501    0  0.00000000000E+00  0.00000000000E+00 -0.15198516716E+04  0.15198522023E+04  0.12699999809E+01 0. -1.
    10030    2    1    2    0    0  0.00000000000E+00  0.00000000000E+00  0.15882085389E+03  0.31985252082E+04  0.31945796975E+04 0.  0.
        2    1    3    3  502    0 -0.28733120926E+03 -0.13528894043E+04 -0.72061704978E+03  0.15595377188E+04  0.25500000920E-02 0. -1.
       -2    1    3    3    0  502  0.28733120926E+03  0.13528894043E+04  0.87943790367E+03  0.16389874894E+04  0.25500000920E-02 0.  1.
</event>
<event>
 5   0  0.1365455E-07  0.3194850E+04  0.7818609E-02  0.8190179E-01
       -1   -1    0    0    0  501  0.00000000000E+00  0.00000000000E+00  0.13144581910E+04  0.13144581910E+04  0.50400001928E-02 0.  1.
        1   -1    0    0  501    0  0.00000000000E+00  0.00000000000E+00 -0.19413066998E+04  0.19413066998E+04  0.50400001928E-02 0. -1.
    10030    2    1    2    0    0  0.00000000000E+00  0.00000000000E+00 -0.62684850883E+03  0.32557648908E+04  0.31948499137E+04 0.  0.
        3    1    3    3  502    0 -0.14748022134E+04 -0.58661082754E+03 -0.49745722012E+03  0.16633152220E+04  0.10100000352E+00 0. -1.
       -3    1    3    3    0  502  0.14748022134E+04  0.58661082754E+03 -0.12939128871E+03  0.15924496688E+04  0.10100000352E+00 0.  1.
</event>
<event>
 5   0  0.3858721E-07  0.3200747E+04  0.7818609E-02  0.8188620E-01
       -2   -1    0    0    0  501  0.00000000000E+00  0.00000000000E+00  0.13885752886E+04  0.13885752886E+04  0.25500000920E-02 0. -1.
        2   -1    0    0  501    0  0.00000000000E+00  0.00000000000E+00 -0.18444775195E+04  0.18444775195E+04  0.25500000920E-02 0.  1.
    10030    2    1    2    0    0  0.00000000000E+00  0.00000000000E+00 -0.45590223091E+03  0.32330528082E+04  0.32007473528E+04 0.  0.
        2    1    3    3  502    0 -0.15370309948E+04 -0.43948432488E+03 -0.15246293605E+03  0.16058815951E+04  0.25500000920E-02 0. -1.
       -2    1    3    3    0  502  0.15370309948E+04  0.43948432488E+03 -0.30343929486E+03  0.16271712130E+04  0.25500000920E-02 0.  1.
</event>
<event>
 5   0  0.3830207E-07  0.3196794E+04  0.7818609E-02  0.8189664E-01
        2   -1    0    0  501    0  0.00000000000E+00  0.00000000000E+00  0.21891699209E+04  0.21891699209E+04  0.25500000920E-02 0. -1.
       -2   -1    0    0    0  501  0.00000000000E+00  0.00000000000E+00 -0.11670509139E+04  0.11670509139E+04  0.25500000920E-02 0.  1.
    10030    2    1    2    0    0  0.00000000000E+00  0.00000000000E+00  0.10221190070E+04  0.33562208348E+04  0.31967938669E+04 0.  0.
        4    1    3    3  502    0 -0.77822943897E+03  0.94024465927E+03 -0.57248155371E+03  0.13481238152E+04  0.12699999809E+01 0.  1.
       -4    1    3    3    0  502  0.77822943897E+03 -0.94024465927E+03  0.15946005607E+04  0.20080970196E+04  0.12699999809E+01 0. -1.
</event>
<event>
 5   0  0.3858721E-07  0.3198069E+04  0.7818609E-02  0.8189327E-01
        2   -1    0    0  501    0  0.00000000000E+00  0.00000000000E+00  0.23482119451E+04  0.23482119451E+04  0.25500000920E-02 0.  1.
       -2   -1    0    0    0  501  0.00000000000E+00  0.00000000000E+00 -0.10888761606E+04  0.10888761606E+04  0.25500000920E-02 0. -1.
    10030    2    1    2    0    0  0.00000000000E+00  0.00000000000E+00  0.12593357844E+04  0.34370881057E+04  0.31980694220E+04 0.  0.
        2    1    3    3  502    0 -0.84439473749E+03 -0.75972133826E+03  0.18392777685E+04  0.21617404317E+04  0.25500000920E-02 0.  1.
       -2    1    3    3    0  502  0.84439473749E+03  0.75972133826E+03 -0.57994198407E+03  0.12753476739E+04  0.25500000920E-02 0. -1.
</event>
<event>
 5   0  0.1270948E-07  0.3204465E+04  0.7818609E-02  0.8187639E-01
        1   -1    0    0  501    0  0.00000000000E+00  0.00000000000E+00  0.16733742164E+04  0.16733742164E+04  0.50400001928E-02 0.  1.
       -1   -1    0    0    0  501  0.00000000000E+00  0.00000000000E+00 -0.15341152329E+04  0.15341152329E+04  0.50400001928E-02 0. -1.
    10030    2    1    2    0    0  0.00000000000E+00  0.00000000000E+00  0.13925898357E+03  0.32074894493E+04  0.32044649324E+04 0.  0.
        4    1    3    3  502    0  0.11177142987E+03  0.10980294599E+04  0.12321841713E+04  0.16542191488E+04  0.12699999809E+01 0.  1.
       -4    1    3    3    0  502 -0.11177142987E+03 -0.10980294599E+04 -0.10929251877E+04  0.15532703005E+04  0.12699999809E+01 0. -1.
</event>
<event>
 5   0  0.3764056E-07  0.3203811E+04  0.7818609E-02  0.8187811E-01
        2   -1    0    0  501    0  0.00000000000E+00  0.00000000000E+00  0.23777404942E+04  0.23777404942E+04  0.25500000920E-02 0. -1.
       -2   -1    0    0    0  501  0.00000000000E+00  0.00000000000E+00 -0.10792186554E+04  0.10792186554E+04  0.25500000920E-02 0.  1.
    10030    2    1    2    0    0  0.00000000000E+00  0.00000000000E+00  0.12985218388E+04  0.34569591496E+04  0.32038114170E+04 0.  0.
        5    1    3    3  502    0  0.10509846281E+04  0.39963031459E+02 -0.65447896232E+03  0.12387616940E+04  0.46999998093E+01 0.  1.
       -5    1    3    3    0  502 -0.10509846281E+04 -0.39963031459E+02  0.19530008012E+04  0.22181974555E+04  0.46999998093E+01 0. -1.
</event>
<event>
 5   0  0.1288096E-07  0.3186346E+04  0.7818609E-02  0.8192432E-01
        1   -1    0    0  501    0  0.00000000000E+00  0.00000000000E+00  0.24714379856E+04  0.24714379856E+04  0.50400001928E-02 0. -1.
       -1   -1    0    0    0  501  0.00000000000E+00  0.00000000000E+00 -0.10270136149E+04  0.10270136149E+04  0.50400001928E-02 0.  1.
    10030    2    1    2    0    0  0.00000000000E+00  0.00000000000E+00  0.14444243707E+04  0.34984516005E+04  0.31863461580E+04 0.  0.
        2    1    3    3  502    0 -0.53492504788E+03 -0.11209463968E+04  0.18177090634E+04  0.22015294390E+04  0.25500000920E-02 0. -1.
       -2    1    3    3    0  502  0.53492504788E+03  0.11209463968E+04 -0.37328469274E+03  0.12969221615E+04  0.25500000920E-02 0.  1.
</event>
<event>
 5   0  0.1317293E-07  0.3194086E+04  0.7818609E-02  0.8190381E-01
       -1   -1    0    0    0  501  0.00000000000E+00  0.00000000000E+00  0.12708696465E+04  0.12708696465E+04  0.50400001928E-02 0.  1.
        1   -1    0    0  501    0  0.00000000000E+00  0.00000000000E+00 -0.20069296521E+04  0.20069296521E+04  0.50400001928E-02 0. -1.
    10030    2    1    2    0    0  0.00000000000E+00  0.00000000000E+00 -0.73606000565E+03  0.32777992986E+04  0.31940857706E+04 0.  0.
        1    1    3    3  502    0  0.51672678536E+03  0.13141926355E+03 -0.19128982752E+04  0.19858140408E+04  0.50400001928E-02 0. -1.
       -1    1    3    3    0  502 -0.51672678536E+03 -0.13141926355E+03  0.11768382695E+04  0.12919852577E+04  0.50400001928E-02 0.  1.
</event>
<event>
 5   0  0.1277374E-07  0.3200243E+04  0.7818609E-02  0.8188753E-01
        1   -1    0    0  501    0  0.00000000000E+00  0.00000000000E+00  0.18116207834E+04  0.18116207834E+04  0.50400001928E-02 0. -1.
       -1   -1    0    0    0  501  0.00000000000E+00  0.00000000000E+00 -0.14133137265E+04  0.14133137265E+04  0.50400001928E-02 0.  1.
    10030    2    1    2    0    0  0.00000000000E+00  0.00000000000E+00  0.39830705694E+03  0.32249345099E+04  0.32002428160E+04 0.  0.
        5    1    3    3  502    0  0.99705396409E+03 -0.76274818391E+03 -0.80070398727E+03  0.14889762807E+04  0.46999998093E+01 0.  1.
       -5    1    3    3    0  502 -0.99705396409E+03  0.76274818391E+03  0.11990110442E+04  0.17359582292E+04  0.46999998093E+01 0. -1.
</event>
<event>
 5   0  0.1270948E-07  0.3200713E+04  0.7818609E-02  0.8188629E-01
        1   -1    0    0  501    0  0.00000000000E+00  0.00000000000E+00  0.16428748216E+04  0.16428748216E+04  0.50400001928E-02 0.  1.
       -1   -1    0    0    0  501  0.00000000000E+00  0.00000000000E+00 -0.15589385918E+04  0.15589385918E+04  0.50400001928E-02 0. -1.
    10030    2    1    2    0    0  0.00000000000E+00  0.00000000000E+00  0.83936229806E+02  0.32018134134E+04  0.32007130211E+04 0.  0.
        4    1    3    3  502    0 -0.19641341012E+03 -0.14122752238E+04  0.76888141844E+03  0.16199628959E+04  0.12699999809E+01 0.  1.
       -4    1    3    3    0  502  0.19641341012E+03  0.14122752238E+04 -0.68494518863E+03  0.15818505175E+04  0.12699999809E+01 0. -1.
</event>
<event>
 5   0  0.3750285E-07  0.3201168E+04  0.7818609E-02  0.8188509E-01
       -2   -1    0    0    0  501  0.00000000000E+00  0.00000000000E+00  0.12624750055E+04  0.12624750055E+04  0.25500000920E-02 0.  1.
        2   -1    0    0  501    0  0.00000000000E+00  0.00000000000E+00 -0.20292440297E+04  0.20292440298E+04  0.25500000920E-02 0. -1.
    10030    2    1    2    0    0  0.00000000000E+00  0.00000000000E+00 -0.76676902421E+03  0.32917190353E+04  0.32011684540E+04 0.  0.
        1    1    3    3  502    0 -0.41617557481E+03 -0.62915105782E+03 -0.18349949664E+04  0.19839958894E+04  0.50400001928E-02 0. -1.
       -1    1    3    3    0  502  0.41617557481E+03  0.62915105782E+03  0.10682259422E+04  0.13077231459E+04  0.50400001928E-02 0.  1.
</event>
<event>
 5   0  0.1317293E-07  0.3181571E+04  0.7818609E-02  0.8193701E-01
        1   -1    0    0  501    0  0.00000000000E+00  0.00000000000E+00  0.89636148951E+03  0.89636148953E+03  0.50400001928E-02 0. -1.
       -1   -1    0    0    0  501  0.00000000000E+00  0.00000000000E+00 -0.28231904583E+04  0.28231904583E+04  0.50400001928E-02 0.  1.
    10030    2    1    2    0    0  0.00000000000E+00  0.00000000000E+00 -0.19268289688E+04  0.37195519478E+04  0.31815714384E+04 0.  0.
        1    1    3    3  502    0  0.18130046396E+03  0.12580871991E+04  0.15485549913E+03  0.12804817392E+04  0.50400001928E-02 0. -1.
       -1    1    3    3    0  502 -0.18130046396E+03 -0.12580871991E+04 -0.20816844679E+04  0.24390702087E+04  0.50400001928E-02 0.  1.
</event>
<event>
 5   0  0.3942564E-07  0.3201818E+04  0.7818609E-02  0.8188337E-01
        2   -1    0    0  501    0  0.00000000000E+00  0.00000000000E+00  0.19797431251E+04  0.19797431251E+04  0.25500000920E-02 0.  1.
       -2   -1    0    0    0  501  0.00000000000E+00  0.00000000000E+00 -0.12945664146E+04  0.12945664146E+04  0.25500000920E-02 0. -1.
    10030    2    1    2    0    0  0.00000000000E+00  0.00000000000E+00  0.68517671057E+03  0.32743095397E+04  0.32018175833E+04 0.  0.
        3    1    3    3  502    0  0.12397421232E+03  0.84589009288E+03  0.17267505538E+04  0.19268023094E+04  0.10100000352E+00 0.  1.
       -3    1    3    3    0  502 -0.12397421232E+03 -0.84589009288E+03 -0.10415738432E+04  0.13475072302E+04  0.10100000352E+00 0. -1.
</event>
<event>
 5   0  0.3750285E-07  0.3201983E+04  0.7818609E-02  0.8188294E-01
       -2   -1    0    0    0  501  0.00000000000E+00  0.00000000000E+00  0.19351807609E+04  0.19351807609E+04  0.25500000920E-02 0.  1.
        2   -1    0    0  501    0  0.00000000000E+00  0.00000000000E+00 -0.13245142181E+04  0.13245142181E+04  0.25500000920E-02 0. -1.
    10030    2    1    2    0    0  0.00000000000E+00  0.00000000000E+00  0.61066654274E+03  0.32596949790E+04  0.32019834056E+04 0.  0.
        1    1    3    3  502    0 -0.56818573819E+02 -0.12391650342E+04 -0.72504355909E+03  0.14368181843E+04  0.50400001928E-02 0. -1.
       -1    1    3    3    0  502  0.56818573819E+02  0.12391650342E+04  0.13357101018E+04  0.18228767946E+04  0.50400001928E-02 0.  1.
</event>
<event>
 5   0  0.3750285E-07  0.3202396E+04  0.7818609E-02  0.8188185E-01
       -2   -1    0    0    0  501  0.00000000000E+00  0.00000000000E+00  0.88366723083E+03  0.88366723083E+03  0.25500000920E-02 0.  1.
        2   -1    0    0  501    0  0.00000000000E+00  0.00000000000E+00 -0.29013580256E+04  0.29013580256E+04  0.25500000920E-02 0. -1.
    10030    2    1    2    0    0  0.00000000000E+00  0.00000000000E+00 -0.20176907948E+04  0.37850252565E+04  0.32023959856E+04 0.  0.
        1    1    3    3  502    0  0.41076093306E+03 -0.10104772173E+04  0.37661598974E+03  0.11539620247E+04  0.50400001928E-02 0.  1.
       -1    1    3    3    0  502 -0.41076093306E+03  0.10104772173E+04 -0.23943067845E+04  0.26310632317E+04  0.50400001928E-02 0. -1.
</event>
<event>
 5   0  0.3764056E-07  0.3196391E+04  0.7818609E-02  0.8189771E-01
       -2   -1    0    0    0  501  0.00000000000E+00  0.00000000000E+00  0.14934557113E+04  0.14934557113E+04  0.25500000920E-02 0. -1.
        2   -1    0    0  501    0  0.00000000000E+00  0.00000000000E+00 -0.17102804537E+04  0.17102804537E+04  0.25500000920E-02 0.  1.
    10030    2    1    2    0    0  0.00000000000E+00  0.00000000000E+00 -0.21682474238E+03  0.32037361650E+04  0.31963905341E+04 0.  0.
        5    1    3    3  502    0  0.11924219721E+04  0.32813798908E+03 -0.11229941992E+04  0.16705336755E+04  0.46999998093E+01 0.  1.
       -5    1    3    3    0  502 -0.11924219721E+04 -0.32813798908E+03  0.90616945681E+03  0.15332024896E+04  0.46999998093E+01 0. -1.
</event>
<event>
 5   0  0.1277374E-07  0.3198052E+04  0.7818609E-02  0.8189332E-01
       -1   -1    0    0    0  501  0.00000000000E+00  0.00000000000E+00  0.14627756953E+04  0.14627756953E+04  0.50400001928E-02 0.  1.
        1   -1    0    0  501    0  0.00000000000E+00  0.00000000000E+00 -0.17479678725E+04  0.17479678725E+04  0.50400001928E-02 0. -1.
    10030    2    1    2    0    0  0.00000000000E+00  0.00000000000E+00 -0.28519217720E+03  0.32107435677E+04  0.31980524823E+04 0.  0.
        5    1    3    3  502    0  0.14004591728E+04  0.38298371771E+03  0.53006303060E+03  0.15456232818E+04  0.46999998093E+01 0.  1.
       -5    1    3    3    0  502 -0.14004591728E+04 -0.38298371771E+03 -0.81525520781E+03  0.16651202859E+04  0.46999998093E+01 0. -1.
</event>
<event>
 5   0  0.3942564E-07  0.3203526E+04  0.7818609E-02  0.8187887E-01
        2   -1    0    0  501    0  0.00000000000E+00  0.00000000000E+00  0.18550261530E+04  0.18550261530E+04  0.25500000920E-02 0. -1.
       -2   -1    0    0    0  501  0.00000000000E+00  0.00000000000E+00 -0.13830771558E+04  0.13830771558E+04  0.25500000920E-02 0.  1.
    10030    2    1    2    0    0  0.00000000000E+00  0.00000000000E+00  0.47194899717E+03  0.32381033088E+04  0.32035257424E+04 0.  0.
        3    1    3    3  502    0 -0.11525821636E+04 -0.68074679975E+03 -0.65316912023E+03  0.14894602241E+04  0.10100000352E+00 0.  1.
       -3    1    3    3    0  502  0.11525821636E+04  0.68074679975E+03  0.11251181174E+04  0.17486430847E+04  0.10100000352E+00 0. -1.
</event>
<event>
 5   0  0.1288096E-07  0.3195941E+04  0.7818609E-02  0.8189890E-01
       -1   -1    0    0    0  501  0.00000000000E+00  0.00000000000E+00  0.13386359834E+04  0.13386359834E+04  0.50400001928E-02 0.  1.
        1   -1    0    0  501    0  0.00000000000E+00  0.00000000000E+00 -0.19075460980E+04  0.19075460980E+04  0.50400001928E-02 0. -1.
    10030    2    1    2    0    0  0.00000000000E+00  0.00000000000E+00 -0.56891011457E+03  0.32461820813E+04  0.31959410800E+04 0.  0.
        2    1    3    3  502    0 -0.14249037779E+04  0.18353791568E+03  0.42616660096E+03  0.14985509382E+04  0.25500000920E-02 0.  1.
       -2    1    3    3    0  502  0.14249037779E+04 -0.18353791568E+03 -0.99507671553E+03  0.17476311431E+04  0.25500000920E-02 0. -1.
</event>
<event>
 5   0  0.1317293E-07  0.3198611E+04  0.7818609E-02  0.8189184E-01
       -1   -1    0    0    0  501  0.00000000000E+00  0.00000000000E+00  0.19424565687E+04  0.19424565687E+04  0.50400001928E-02 0. -1.
        1   -1    0    0  501    0  0.00000000000E+00  0.00000000000E+00 -0.13167749656E+04  0.13167749656E+04  0.50400001928E-02 0.  1.
    10030    2    1    2    0    0  0.00000000000E+00  0.00000000000E+00  0.62568160305E+03  0.32592315343E+04  0.31986110620E+04 0.  0.
        1    1    3    3  502    0 -0.14002241093E+04 -0.74080516645E+03  0.88767853159E+02  0.15866000071E+04  0.50400001928E-02 0. -1.
       -1    1    3    3    0  502  0.14002241093E+04  0.74080516645E+03  0.53691374989E+03  0.16726315272E+04  0.50400001928E-02 0.  1.
</event>
<event>
 5   0  0.1365455E-07  0.3211698E+04  0.7818609E-02  0.8185735E-01
       -1   -1    0    0    0  501  0.00000000000E+00  0.00000000000E+00  0.13966496927E+04  0.13966496927E+04  0.50400001928E-02 0. -1.
        1   -1    0    0  501    0  0.00000000000E+00  0.00000000000E+00 -0.18463833904E+04  0.18463833904E+04  0.50400001928E-02 0.  1.
    10030    2    1    2    0    0  0.00000000000E+00  0.00000000000E+00 -0.44973369773E+03  0.32430330831E+04  0.32116978655E+04 0.  0.
        3    1    3    3  502    0 -0.49617928010E+03 -0.12490583463E+04 -0.11123102883E+04  0.17445844256E+04  0.10100000352E+00 0.  1.
       -3    1    3    3    0  502  0.49617928010E+03  0.12490583463E+04  0.66257659055E+03  0.14984486575E+04  0.10100000352E+00 0. -1.
</event>
<event>
 5   0  0.1365455E-07  0.3198997E+04  0.7818609E-02  0.8189082E-01
        1   -1    0    0  501    0  0.00000000000E+00  0.00000000000E+00  0.17218610533E+04  0.17218610533E+04  0.50400001928E-02 0. -1.
       -1   -1    0    0    0  501  0.00000000000E+00  0.00000000000E+00 -0.14858312446E+04  0.14858312446E+04  0.50400001928E-02 0.  1.
    10030    2    1    2    0    0  0.00000000000E+00  0.00000000000E+00  0.23602980872E+03  0.32076922980E+04  0.31989966877E+04 0.  0.
        3    1    3    3  502    0  0.24271925387E+03  0.10742471844E+04  0.12811141510E+04  0.16894298232E+04  0.10100000352E+00 0. -1.
       -3    1    3    3    0  502 -0.24271925387E+03 -0.10742471844E+04 -0.10450843423E+04  0.15182624747E+04  0.10100000352E+00 0.  1.
</event>
<event>
 5   0  0.3858721E-07  0.3223858E+04  0.7818609E-02  0.8182545E-01
       -2   -1    0    0    0  501  0.00000000000E+00  0.00000000000E+00  0.13042531490E+04  0.13042531490E+04  0.25500000920E-02 0. -1.
        2   -1    0    0  501    0  0.00000000000E+00  0.00000000000E+00 -0.19921864176E+04  0.19921864176E+04  0.25500000920E-02 0.  1.
    10030    2    1    2    0    0  0.00000000000E+00  0.00000000000E+00 -0.68793326860E+03  0.32964395666E+04  0.32238581907E+04 0.  0.
        2    1    3    3  502    0 -0.50804627723E+03  0.13046287904E+04 -0.11607933454E+04  0.18186831750E+04  0.25500000920E-02 0.  1.
       -2    1    3    3    0  502  0.50804627723E+03 -0.13046287904E+04  0.47286007678E+03  0.14777563915E+04  0.25500000920E-02 0. -1.
</event>
<event>
 5   0  0.1277374E-07  0.3221651E+04  0.7818609E-02  0.8183122E-01
        1   -1    0    0  501    0  0.00000000000E+00  0.00000000000E+00  0.17541118165E+04  0.17541118165E+04  0.50400001928E-02 0. -1.
       -1   -1    0    0    0  501  0.00000000000E+00  0.00000000000E+00 -0.14792438157E+04  0.14792438157E+04  0.50400001928E-02 0.  1.
    10030    2    1    2    0    0  0.00000000000E+00  0.00000000000E+00  0.27486800078E+03  0.32333556322E+04  0.32216511646E+04 0.  0.
        5    1    3    3  502    0 -0.12577116273E+04  0.99288626213E+03 -0.27709542387E+02  0.16026389411E+04  0.46999998093E+01 0. -1.
       -5    1    3    3    0  502  0.12577116273E+04 -0.99288626213E+03  0.30257754317E+03  0.16307166911E+04  0.46999998093E+01 0.  1.
</event>
<event>
 5   0  0.3764056E-07  0.3198356E+04  0.7818609E-02  0.8189251E-01
       -2   -1    0    0    0  501  0.00000000000E+00  0.00000000000E+00  0.13315639093E+04  0.13315639093E+04  0.25500000920E-02 0. -1.
        2   -1    0    0  501    0  0.00000000000E+00  0.00000000000E+00 -0.19205769592E+04  0.19205769592E+04  0.25500000920E-02 0.  1.
    10030    2    1    2    0    0  0.00000000000E+00  0.00000000000E+00 -0.58901304987E+03  0.32521408685E+04  0.31983564304E+04 0.  0.
        5    1    3    3  502    0  0.12517110177E+04 -0.42049175056E+03 -0.12117599613E+04  0.17921992294E+04  0.46999998093E+01 0.  1.
       -5    1    3    3    0  502 -0.12517110177E+04  0.42049175056E+03  0.62274691138E+03  0.14599416391E+04  0.46999998093E+01 0. -1.
</event>
<event>
 5   0  0.1288096E-07  0.3193342E+04  0.7818609E-02  0.8190578E-01
        1   -1    0    0  501    0  0.00000000000E+00  0.00000000000E+00  0.24430409929E+04  0.24430409929E+04  0.50400001928E-02 0. -1.
       -1   -1    0    0    0  501  0.00000000000E+00  0.00000000000E+00 -0.10435186552E+04  0.10435186552E+04  0.50400001928E-02 0.  1.
    10030    2    1    2    0    0  0.00000000000E+00  0.00000000000E+00  0.13995223377E+04  0.34865596481E+04  0.31933423565E+04 0.  0.
        2    1    3    3  502    0  0.65479027589E+03 -0.62720428360E+03  0.21346751464E+04  0.23192614125E+04  0.25500000920E-02 0. -1.
       -2    1    3    3    0  502 -0.65479027589E+03  0.62720428360E+03 -0.73515280870E+03  0.11672982356E+04  0.25500000920E-02 0.  1.
</event>
<event>
 5   0  0.1288096E-07  0.3204907E+04  0.7818609E-02  0.8187523E-01
       -1   -1    0    0    0  501  0.00000000000E+00  0.00000000000E+00  0.98436988462E+03  0.98436988463E+03  0.50400001928E-02 0. -1.
        1   -1    0    0  501    0  0.00000000000E+00  0.00000000000E+00 -0.26086299961E+04  0.26086299961E+04  0.50400001928E-02 0.  1.
    10030    2    1    2    0    0  0.00000000000E+00  0.00000000000E+00 -0.16242601115E+04  0.35929998807E+04  0.32049067433E+04 0.  0.
        2    1    3    3  502    0 -0.53170484288E+03 -0.24523996438E+03  0.86014309292E+03  0.10405281449E+04  0.25500000920E-02 0. -1.
       -2    1    3    3    0  502  0.53170484288E+03  0.24523996438E+03 -0.24844032044E+04  0.25524717358E+04  0.25500000920E-02 0.  1.
</event>
<event>
 5   0  0.1317293E-07  0.3195288E+04  0.7818609E-02  0.8190063E-01
        1   -1    0    0  501    0  0.00000000000E+00  0.00000000000E+00  0.97089897662E+03  0.97089897663E+03  0.50400001928E-02 0.  1.
       -1   -1    0    0    0  501  0.00000000000E+00  0.00000000000E+00 -0.26289722824E+04  0.26289722824E+04  0.50400001928E-02 0. -1.
    10030    2    1    2    0    0  0.00000000000E+00  0.00000000000E+00 -0.16580733058E+04  0.35998712591E+04  0.31952880926E+04 0.  0.
        1    1    3    3  502    0 -0.79853754471E+03 -0.12216529246E+04 -0.96848549684E+02  0.14626953614E+04  0.50400001928E-02 0.  1.
       -1    1    3    3    0  502  0.79853754471E+03  0.12216529246E+04 -0.15612247561E+04  0.21371758977E+04  0.50400001928E-02 0. -1.
</event>
<event>
 5   0  0.1288096E-07  0.3198442E+04  0.7818609E-02  0.8189229E-01
        1   -1    0    0  501    0  0.00000000000E+00  0.00000000000E+00  0.21157878082E+04  0.21157878082E+04  0.50400001928E-02 0. -1.
       -1   -1    0    0    0  501  0.00000000000E+00  0.00000000000E+00 -0.12087731324E+04  0.12087731324E+04  0.50400001928E-02 0.  1.
    10030    2    1    2    0    0  0.00000000000E+00  0.00000000000E+00  0.90701467576E+03  0.33245609406E+04  0.31984417808E+04 0.  0.
        2    1    3    3  502    0 -0.62953956965E+02 -0.12625217524E+04  0.14717168246E+04  0.19400708203E+04  0.25500000920E-02 0. -1.
       -2    1    3    3    0  502  0.62953956965E+02  0.12625217524E+04 -0.56470214886E+03  0.13844901202E+04  0.25500000920E-02 0.  1.
</event>
<event>
 5   0  0.3750285E-07  0.3194075E+04  0.7818609E-02  0.8190384E-01
        2   -1    0    0  501    0  0.00000000000E+00  0.00000000000E+00  0.17714016347E+04  0.17714016347E+04  0.25500000920E-02 0.  1.
       -2   -1    0    0    0  501  0.00000000000E+00  0.00000000000E+00 -0.14398365952E+04  0.14398365952E+04  0.25500000920E-02 0. -1.
    10030    2    1    2    0    0  0.00000000000E+00  0.00000000000E+00  0.33156503958E+03  0.32112382299E+04  0.31940750764E+04 0.  0.
        1    1    3    3  502    0 -0.14057355637E+04 -0.51329721649E+03  0.72641898099E+03  0.16635056488E+04  0.50400001928E-02 0.  1.
       -1    1    3    3    0  502  0.14057355637E+04  0.51329721649E+03 -0.39485394141E+03  0.15477325811E+04  0.50400001928E-02 0. -1.
</event>
<event>
 5   0  0.3750285E-07  0.3196784E+04  0.7818609E-02  0.8189667E-01
       -2   -1    0    0    0  501  0.00000000000E+00  0.00000000000E+00  0.81902663409E+03  0.81902663409E+03  0.25500000920E-02 0. -1.
        2   -1    0    0  501    0  0.00000000000E+00  0.00000000000E+00 -0.31193824787E+04  0.31193824787E+04  0.25500000920E-02 0.  1.
    10030    2    1    2    0    0  0.00000000000E+00  0.00000000000E+00 -0.23003558446E+04  0.39384091128E+04  0.31967842167E+04 0.  0.
        1    1    3    3  502    0  0.13024279248E+04  0.11633389114E+03 -0.22826753157E+04  0.26306764663E+04  0.50400001928E-02 0. -1.
       -1    1    3    3    0  502 -0.13024279248E+04 -0.11633389114E+03 -0.17680528898E+02  0.13077326465E+04  0.50400001928E-02 0.  1.
</event>
<event>
 5   0  0.1270948E-07  0.3198503E+04  0.7818609E-02  0.8189213E-01
       -1   -1    0    0    0  501  0.00000000000E+00  0.00000000000E+00  0.15529135511E+04  0.15529135511E+04  0.50400001928E-02 0. -1.
        1   -1    0    0  501    0  0.00000000000E+00  0.00000000000E+00 -0.16469723558E+04  0.16469723558E+04  0.50400001928E-02 0.  1.
    10030    2    1    2    0    0  0.00000000000E+00  0.00000000000E+00 -0.94058804733E+02  0.31998859069E+04  0.31985032059E+04 0.  0.
        4    1    3    3  502    0 -0.11955953288E+04 -0.53881057738E+03 -0.96276058242E+03  0.16268603445E+04  0.12699999809E+01 0.  1.
       -4    1    3    3    0  502  0.11955953288E+04  0.53881057738E+03  0.86870177768E+03  0.15730255624E+04  0.12699999809E+01 0. -1.
</event>
<event>
 5   0  0.3764056E-07  0.3215163E+04  0.7818609E-02  0.8184824E-01
        2   -1    0    0  501    0  0.00000000000E+00  0.00000000000E+00  0.14362192059E+04  0.14362192059E+04  0.25500000920E-02 0.  1.
       -2   -1    0    0    0  501  0.00000000000E+00  0.00000000000E+00 -0.17993896255E+04  0.17993896255E+04  0.25500000920E-02 0. -1.
    10030    2    1    2    0    0  0.00000000000E+00  0.00000000000E+00 -0.36317041954E+03  0.32356088314E+04  0.32151627885E+04 0.  0.
        5    1    3    3  502    0  0.61767821314E+02  0.65651978985E+03 -0.16570130249E+04  0.17834090257E+04  0.46999998093E+01 0. -1.
       -5    1    3    3    0  502 -0.61767821314E+02 -0.65651978985E+03  0.12938426054E+04  0.14521998057E+04  0.46999998093E+01 0.  1.
</event>
<event>
 5   0  0.1277374E-07  0.3199891E+04  0.7818609E-02  0.8188846E-01
        1   -1    0    0  501    0  0.00000000000E+00  0.00000000000E+00  0.23164465261E+04  0.23164465261E+04  0.50400001928E-02 0.  1.
       -1   -1    0    0    0  501  0.00000000000E+00  0.00000000000E+00 -0.11050655376E+04  0.11050655377E+04  0.50400001928E-02 0. -1.
    10030    2    1    2    0    0  0.00000000000E+00  0.00000000000E+00  0.12113809885E+04  0.34215120638E+04  0.31998907643E+04 0.  0.
        5    1    3    3  502    0 -0.75314052061E+03 -0.14078891440E+04  0.49648647670E+03  0.16720925205E+04  0.46999998093E+01 0.  1.
       -5    1    3    3    0  502  0.75314052061E+03  0.14078891440E+04  0.71489451180E+03  0.17494195433E+04  0.46999998093E+01 0. -1.
</event>
<event>
 5   0  0.1288096E-07  0.3199677E+04  0.7818609E-02  0.8188902E-01
       -1   -1    0    0    0  501  0.00000000000E+00  0.00000000000E+00  0.10828881582E+04  0.10828881582E+04  0.50400001928E-02 0. -1.
        1   -1    0    0  501    0  0.00000000000E+00  0.00000000000E+00 -0.23635718641E+04  0.23635718641E+04  0.50400001928E-02 0.  1.
    10030    2    1    2    0    0  0.00000000000E+00  0.00000000000E+00 -0.12806837059E+04  0.34464600223E+04  0.31996774729E+04 0.  0.
        2    1    3    3  502    0  0.95097617355E+03 -0.26562663184E+03 -0.19962268797E+04  0.22270686890E+04  0.25500000920E-02 0.  1.
       -2    1    3    3    0  502 -0.95097617355E+03  0.26562663184E+03  0.71554317382E+03  0.12193913333E+04  0.25500000920E-02 0. -1.
</event>
<event>
 5   0  0.3764056E-07  0.3210033E+04  0.7818609E-02  0.8186173E-01
       -2   -1    0    0    0  501  0.00000000000E+00  0.00000000000E+00  0.12769315273E+04  0.12769315273E+04  0.25500000920E-02 0.  1.
        2   -1    0    0  501    0  0.00000000000E+00  0.00000000000E+00 -0.20173970253E+04  0.20173970253E+04  0.25500000920E-02 0. -1.
    10030    2    1    2    0    0  0.00000000000E+00  0.00000000000E+00 -0.74046549803E+03  0.32943285526E+04  0.32100329374E+04 0.  0.
        5    1    3    3  502    0 -0.54988633736E+03 -0.84607810367E+03  0.91067490375E+03  0.13592549473E+04  0.46999998093E+01 0. -1.
       -5    1    3    3    0  502  0.54988633736E+03  0.84607810367E+03 -0.16511404018E+04  0.19350736053E+04  0.46999998093E+01 0.  1.
</event>
<event>
 5   0  0.3750285E-07  0.3226872E+04  0.7818609E-02  0.8181756E-01
        2   -1    0    0  501    0  0.00000000000E+00  0.00000000000E+00  0.28873097783E+04  0.28873097783E+04  0.25500000920E-02 0.  1.
       -2   -1    0    0    0  501  0.00000000000E+00  0.00000000000E+00 -0.90159211081E+03  0.90159211082E+03  0.25500000920E-02 0. -1.
    10030    2    1    2    0    0  0.00000000000E+00  0.00000000000E+00  0.19857176674E+04  0.37889018891E+04  0.32268719947E+04 0.  0.
        1    1    3    3  502    0 -0.94235027508E+03 -0.67793488970E+03 -0.32281930662E+03  0.12049199394E+04  0.50400001928E-02 0. -1.
       -1    1    3    3    0  502  0.94235027508E+03  0.67793488970E+03  0.23085369741E+04  0.25839819497E+04  0.50400001928E-02 0.  1.
</event>
<event>
 5   0  0.1270948E-07  0.3185272E+04  0.7818609E-02  0.8192718E-01
       -1   -1    0    0    0  501  0.00000000000E+00  0.00000000000E+00  0.16422636235E+04  0.16422636235E+04  0.50400001928E-02 0. -1.
        1   -1    0    0  501    0  0.00000000000E+00  0.00000000000E+00 -0.15445084776E+04  0.15445084776E+04  0.50400001928E-02 0.  1.
    10030    2    1    2    0    0  0.00000000000E+00  0.00000000000E+00  0.97755145848E+02  0.31867721011E+04  0.31852724147E+04 0.  0.
        4    1    3    3  502    0 -0.15854418828E+04 -0.94222984574E+01  0.19985830764E+03  0.15980174278E+04  0.12699999809E+01 0. -1.
       -4    1    3    3    0  502  0.15854418828E+04  0.94222984574E+01 -0.10210316179E+03  0.15887546733E+04  0.12699999809E+01 0.  1.
</event>
<event>
 5   0  0.1230450E-07  0.3192145E+04  0.7818609E-02  0.8190895E-01
        3   -1    0    0  501    0  0.00000000000E+00  0.00000000000E+00  0.20377110054E+04  0.20377110079E+04  0.10100000352E+00 0.  1.
       -3   -1    0    0    0  501  0.00000000000E+00  0.00000000000E+00 -0.12501516264E+04  0.12501516305E+04  0.10100000352E+00 0. -1.
    10030    2    1    2    0    0  0.00000000000E+00  0.00000000000E+00  0.78755937899E+03  0.32878626384E+04  0.31921451962E+04 0.  0.
        2    1    3    3  502    0 -0.10977639202E+04 -0.40538038283E+03  0.15116952284E+04  0.19117116265E+04  0.25500000920E-02 0.  1.
       -2    1    3    3    0  502  0.10977639202E+04  0.40538038283E+03 -0.72413584938E+03  0.13761510119E+04  0.25500000920E-02 0. -1.
</event>
<event>
 5   0  0.1365455E-07  0.3196115E+04  0.7818609E-02  0.8189844E-01
       -1   -1    0    0    0  501  0.00000000000E+00  0.00000000000E+00  0.22060277399E+04  0.22060277399E+04  0.50400001928E-02 0.  1.
        1   -1    0    0  501    0  0.00000000000E+00  0.00000000000E+00 -0.11576407448E+04  0.11576407448E+04  0.50400001928E-02 0. -1.
    10030    2    1    2    0    0  0.00000000000E+00  0.00000000000E+00  0.10483869951E+04  0.33636684847E+04  0.31961148889E+04 0.  0.
        3    1    3    3  502    0  0.13174502945E+03 -0.15908566661E+04  0.60299119100E+03  0.17063938794E+04  0.10100000352E+00 0.  1.
       -3    1    3    3    0  502 -0.13174502945E+03  0.15908566661E+04  0.44539580408E+03  0.16572746053E+04  0.10100000352E+00 0. -1.
</event>
<event>
 5   0  0.1365455E-07  0.3203149E+04  0.7818609E-02  0.8187986E-01
        1   -1    0    0  501    0  0.00000000000E+00  0.00000000000E+00  0.11406307723E+04  0.11406307724E+04  0.50400001928E-02 0.  1.
       -1   -1    0    0    0  501  0.00000000000E+00  0.00000000000E+00 -0.22487919478E+04  0.22487919478E+04  0.50400001928E-02 0. -1.
    10030    2    1    2    0    0  0.00000000000E+00  0.00000000000E+00 -0.11081611754E+04  0.33894227202E+04  0.32031492605E+04 0.  0.
        3    1    3    3  502    0 -0.81043039856E+03 -0.10800632550E+04 -0.14653878125E+04  0.19926604118E+04  0.10100000352E+00 0. -1.
       -3    1    3    3    0  502  0.81043039856E+03  0.10800632550E+04  0.35722663701E+03  0.13967623084E+04  0.10100000352E+00 0.  1.
</event>
<event>
 5   0  0.1277374E-07  0.3199996E+04  0.7818609E-02  0.8188818E-01
       -1   -1    0    0    0  501  0.00000000000E+00  0.00000000000E+00  0.24012588230E+04  0.24012588230E+04  0.50400001928E-02 0.  1.
        1   -1    0    0  501    0  0.00000000000E+00  0.00000000000E+00 -0.10661046541E+04  0.10661046541E+04  0.50400001928E-02 0. -1.
    10030    2    1    2    0    0  0.00000000000E+00  0.00000000000E+00  0.13351541688E+04  0.34673634771E+04  0.31999957544E+04 0.  0.
        5    1    3    3  502    0  0.10374256234E+04  0.92974119405E+03 -0.18513159838E+03  0.14053349817E+04  0.46999998093E+01 0. -1.
       -5    1    3    3    0  502 -0.10374256234E+04 -0.92974119405E+03  0.15202857672E+04  0.20620284954E+04  0.46999998093E+01 0.  1.
</event>
<event>
 5   0  0.1270948E-07  0.3218578E+04  0.7818609E-02  0.8183928E-01
        1   -1    0    0  501    0  0.00000000000E+00  0.00000000000E+00  0.20097937030E+04  0.20097937030E+04  0.50400001928E-02 0.  1.
       -1   -1    0    0    0  501  0.00000000000E+00  0.00000000000E+00 -0.12885953074E+04  0.12885953074E+04  0.50400001928E-02 0. -1.
    10030    2    1    2    0    0  0.00000000000E+00  0.00000000000E+00  0.72119839560E+03  0.32983890104E+04  0.32185777819E+04 0.  0.
        4    1    3    3  502    0  0.13711459037E+04  0.45399891659E+03 -0.36668405198E+03  0.14901727794E+04  0.12699999809E+01 0. -1.
       -4    1    3    3    0  502 -0.13711459037E+04 -0.45399891659E+03  0.10878824476E+04  0.18082162310E+04  0.12699999809E+01 0.  1.
</event>
<event>
 5   0  0.1277374E-07  0.3206222E+04  0.7818609E-02  0.8187176E-01
       -1   -1    0    0    0  501  0.00000000000E+00  0.00000000000E+00  0.96225174299E+03  0.96225174301E+03  0.50400001928E-02 0. -1.
        1   -1    0    0  501    0  0.00000000000E+00  0.00000000000E+00 -0.26707819100E+04  0.26707819100E+04  0.50400001928E-02 0.  1.
    10030    2    1    2    0    0  0.00000000000E+00  0.00000000000E+00 -0.17085301670E+04  0.36330336530E+04  0.32062217940E+04 0.  0.
        5    1    3    3  502    0  0.12983499218E+03 -0.15594009384E+04 -0.45953248876E+03  0.16308833834E+04  0.46999998093E+01 0. -1.
       -5    1    3    3    0  502 -0.12983499218E+03  0.15594009384E+04 -0.12489976783E+04  0.20021502696E+04  0.46999998093E+01 0.  1.
</event>
<event>
 5   0  0.3830207E-07  0.3201822E+04  0.7818609E-02  0.8188336E-01
       -2   -1    0    0    0  501  0.00000000000E+00  0.00000000000E+00  0.12083230119E+04  0.12083230119E+04  0.25500000920E-02 0.  1.
        2   -1    0    0  501    0  0.00000000000E+00  0.00000000000E+00 -0.21210525859E+04  0.21210525859E+04  0.25500000920E-02 0. -1.
    10030    2    1    2    0    0  0.00000000000E+00  0.00000000000E+00 -0.91272957400E+03  0.33293755977E+04  0.32018223866E+04 0.  0.
        4    1    3    3  502    0  0.36354832713E+02 -0.61668478115E+03 -0.19921220656E+04  0.20857070097E+04  0.12699999809E+01 0. -1.
       -4    1    3    3    0  502 -0.36354832713E+02  0.61668478115E+03  0.10793924916E+04  0.12436685881E+04  0.12699999809E+01 0.  1.
</event>
<event>
 5   0  0.1277374E-07  0.3200972E+04  0.7818609E-02  0.8188561E-01
        1   -1    0    0  501    0  0.00000000000E+00  0.00000000000E+00  0.24166850195E+04  0.24166850195E+04  0.50400001928E-02 0. -1.
       -1   -1    0    0    0  501  0.00000000000E+00  0.00000000000E+00 -0.10599458712E+04  0.10599458712E+04  0.50400001928E-02 0.  1.
    10030    2    1    2    0    0  0.00000000000E+00  0.00000000000E+00  0.13567391484E+04  0.34766308907E+04  0.32009719202E+04 0.  0.
        5    1    3    3  502    0 -0.58771811157E+03  0.14389528702E+04  0.26402576067E+03  0.15766196858E+04  0.46999998093E+01 0. -1.
       -5    1    3    3    0  502  0.58771811157E+03 -0.14389528702E+04  0.10927133877E+04  0.19000112050E+04  0.46999998093E+01 0.  1.
</event>
<event>
 5   0  0.3942564E-07  0.3229752E+04  0.7818609E-02  0.8181004E-01
        2   -1    0    0  501    0  0.00000000000E+00  0.00000000000E+00  0.21782957694E+04  0.21782957694E+04  0.25500000920E-02 0.  1.
       -2   -1    0    0    0  501  0.00000000000E+00  0.00000000000E+00 -0.11971855448E+04  0.11971855448E+04  0.25500000920E-02 0. -1.
    10030    2    1    2    0    0  0.00000000000E+00  0.00000000000E+00  0.98111022454E+03  0.33754813142E+04  0.32297518217E+04 0.  0.
        3    1    3    3  502    0  0.59537301093E+03 -0.49159703163E+03 -0.99178144280E+03  0.12568878646E+04  0.10100000352E+00 0. -1.
       -3    1    3    3    0  502 -0.59537301093E+03  0.49159703163E+03  0.19728916673E+04  0.21185934496E+04  0.10100000352E+00 0.  1.
</event>
<event>
 5   0  0.3942564E-07  0.3199892E+04  0.7818609E-02  0.8188846E-01
        2   -1    0    0  501    0  0.00000000000E+00  0.00000000000E+00  0.17692479097E+04  0.17692479097E+04  0.25500000920E-02 0.  1.
       -2   -1    0    0    0  501  0.00000000000E+00  0.00000000000E+00 -0.14468448509E+04  0.14468448509E+04  0.25500000920E-02 0. -1.
    10030    2    1    2    0    0  0.00000000000E+00  0.00000000000E+00  0.32240305881E+03  0.32160927606E+04  0.31998920158E+04 0.  0.
        3    1    3    3  502    0 -0.12484270835E+04  0.55024831009E+03 -0.67878326165E+03  0.15238405796E+04  0.10100000352E+00 0. -1.
       -3    1    3    3    0  502  0.12484270835E+04 -0.55024831009E+03  0.10011863205E+04  0.16922521810E+04  0.10100000352E+00 0.  1.
</event>
<event>
 5   0  0.1288096E-07  0.3199053E+04  0.7818609E-02  0.8189067E-01
       -1   -1    0    0    0  501  0.00000000000E+00  0.00000000000E+00  0.10852156155E+04  0.10852156155E+04  0.50400001928E-02 0. -1.
        1   -1    0    0  501    0  0.00000000000E+00  0.00000000000E+00 -0.23575817269E+04  0.23575817269E+04  0.50400001928E-02 0.  1.
    10030    2    1    2    0    0  0.00000000000E+00  0.00000000000E+00 -0.12723661114E+04  0.34427973424E+04  0.31990526753E+04 0.  0.
        2    1    3    3  502    0 -0.11582277734E+04  0.88186537293E+03 -0.13494856933E+04  0.19850163091E+04  0.25500000920E-02 0.  1.
       -2    1    3    3    0  502  0.11582277734E+04 -0.88186537293E+03  0.77119581870E+02  0.14577810333E+04  0.25500000920E-02 0. -1.
</event>
<event>
 5   0  0.3764056E-07  0.3208003E+04  0.7818609E-02  0.8186707E-01
        2   -1    0    0  501    0  0.00000000000E+00  0.00000000000E+00  0.27800924064E+04  0.27800924064E+04  0.25500000920E-02 0.  1.
       -2   -1    0    0    0  501  0.00000000000E+00  0.00000000000E+00 -0.92544460048E+03  0.92544460048E+03  0.25500000920E-02 0. -1.
    10030    2    1    2    0    0  0.00000000000E+00  0.00000000000E+00  0.18546478060E+04  0.37055370069E+04  0.32080034329E+04 0.  0.
        5    1    3    3  502    0  0.15397410042E+04  0.37253947089E+03  0.63691225448E+03  0.17074153939E+04  0.46999998093E+01 0. -1.
       -5    1    3    3    0  502 -0.15397410042E+04 -0.37253947089E+03  0.12177355515E+04  0.19981216131E+04  0.46999998093E+01 0.  1.
</event>
<event>
 5   0  0.1277374E-07  0.3201287E+04  0.7818609E-02  0.8188477E-01
        1   -1    0    0  501    0  0.00000000000E+00  0.00000000000E+00  0.15118562670E+04  0.15118562670E+04  0.50400001928E-02 0. -1.
       -1   -1    0    0    0  501  0.00000000000E+00  0.00000000000E+00 -0.16946445454E+04  0.16946445454E+04  0.50400001928E-02 0.  1.
    10030    2    1    2    0    0  0.00000000000E+00  0.00000000000E+00 -0.18278827843E+03  0.32065008125E+04  0.32012866016E+04 0.  0.
        5    1    3    3  502    0  0.54381273892E+03 -0.95366335645E+03 -0.12581221999E+04  0.16697603578E+04  0.46999998093E+01 0.  1.
       -5    1    3    3    0  502 -0.54381273892E+03  0.95366335645E+03  0.10753339215E+04  0.15367404547E+04  0.46999998093E+01 0. -1.
</event>
<event>
 5   0  0.1288096E-07  0.3204946E+04  0.7818609E-02  0.8187512E-01
        1   -1    0    0  501    0  0.00000000000E+00  0.00000000000E+00  0.18938015536E+04  0.18938015536E+04  0.50400001928E-02 0.  1.
       -1   -1    0    0    0  501  0.00000000000E+00  0.00000000000E+00 -0.13559606594E+04  0.13559606594E+04  0.50400001928E-02 0. -1.
    10030    2    1    2    0    0  0.00000000000E+00  0.00000000000E+00  0.53784089425E+03  0.32497622130E+04  0.32049464291E+04 0.  0.
        2    1    3    3  502    0  0.81225245458E+03 -0.13679834113E+04  0.74437125871E+02  0.15926938028E+04  0.25500000920E-02 0.  1.
       -2    1    3    3    0  502 -0.81225245458E+03  0.13679834113E+04  0.46340376838E+03  0.16570684102E+04  0.25500000920E-02 0. -1.
</event>
<event>
 5   0  0.3764056E-07  0.3196872E+04  0.7818609E-02  0.8189644E-01
       -2   -1    0    0    0  501  0.00000000000E+00  0.00000000000E+00  0.88950080247E+03  0.88950080248E+03  0.25500000920E-02 0. -1.
        2   -1    0    0  501    0  0.00000000000E+00  0.00000000000E+00 -0.28723943782E+04  0.28723943782E+04  0.25500000920E-02 0.  1.
    10030    2    1    2    0    0  0.00000000000E+00  0.00000000000E+00 -0.19828935758E+04  0.37618951807E+04  0.31968716612E+04 0.  0.
        5    1    3    3  502    0 -0.54488760590E+03 -0.82908978828E+03  0.48332801778E+03  0.11035943289E+04  0.46999998093E+01 0. -1.
       -5    1    3    3    0  502  0.54488760590E+03  0.82908978828E+03 -0.24662215935E+04  0.26583008518E+04  0.46999998093E+01 0.  1.
</event>
<event>
 5   0  0.3750285E-07  0.3199280E+04  0.7818609E-02  0.8189007E-01
       -2   -1    0    0    0  501  0.00000000000E+00  0.00000000000E+00  0.16978923571E+04  0.16978923571E+04  0.25500000920E-02 0.  1.
        2   -1    0    0  501    0  0.00000000000E+00  0.00000000000E+00 -0.15070734095E+04  0.15070734095E+04  0.25500000920E-02 0. -1.
    10030    2    1    2    0    0  0.00000000000E+00  0.00000000000E+00  0.19081894754E+03  0.32049657666E+04  0.31992801838E+04 0.  0.
        1    1    3    3  502    0 -0.41729559100E+03  0.21652774257E+03 -0.14363037015E+04  0.15112869338E+04  0.50400001928E-02 0. -1.
       -1    1    3    3    0  502  0.41729559100E+03 -0.21652774257E+03  0.16271226490E+04  0.16936788327E+04  0.50400001928E-02 0.  1.
</event>
<event>
 5   0  0.1288096E-07  0.3193133E+04  0.7818609E-02  0.8190633E-01
        1   -1    0    0  501    0  0.00000000000E+00  0.00000000000E+00  0.21840281779E+04  0.21840281779E+04  0.50400001928E-02 0. -1.
       -1   -1    0    0    0  501  0.00000000000E+00  0.00000000000E+00 -0.11671207459E+04  0.11671207460E+04  0.50400001928E-02 0.  1.
    10030    2    1    2    0    0  0.00000000000E+00  0.00000000000E+00  0.10169074319E+04  0.33511489238E+04  0.31931330045E+04 0.  0.
        2    1    3    3  502    0  0.64936092463E+03  0.94086575672E+03  0.16781137557E+04  0.20305082516E+04  0.25500000920E-02 0. -1.
       -2    1    3    3    0  502 -0.64936092463E+03 -0.94086575672E+03 -0.66120632378E+03  0.13206406723E+04  0.25500000920E-02 0.  1.
</event>
<event>
 5   0  0.3750285E-07  0.3207978E+04  0.7818609E-02  0.8186713E-01
        2   -1    0    0  501    0  0.00000000000E+00  0.00000000000E+00  0.12025311423E+04  0.12025311423E+04  0.25500000920E-02 0.  1.
       -2   -1    0    0    0  501  0.00000000000E+00  0.00000000000E+00 -0.21394715868E+04  0.21394715868E+04  0.25500000920E-02 0. -1.
    10030    2    1    2    0    0  0.00000000000E+00  0.00000000000E+00 -0.93694044448E+03  0.33420027291E+04  0.32079783112E+04 0.  0.
        1    1    3    3  502    0  0.11230886418E+04  0.58991859517E+03 -0.14910325272E+04  0.19576797602E+04  0.50400001928E-02 0.  1.
       -1    1    3    3    0  502 -0.11230886418E+04 -0.58991859517E+03  0.55409208272E+03  0.13843229689E+04  0.50400001928E-02 0. -1.
</event>
<event>
 5   0  0.1270948E-07  0.3199611E+04  0.7818609E-02  0.8188920E-01
       -1   -1    0    0    0  501  0.00000000000E+00  0.00000000000E+00  0.15654192895E+04  0.15654192895E+04  0.50400001928E-02 0. -1.
        1   -1    0    0  501    0  0.00000000000E+00  0.00000000000E+00 -0.16349465521E+04  0.16349465522E+04  0.50400001928E-02 0.  1.
    10030    2    1    2    0    0  0.00000000000E+00  0.00000000000E+00 -0.69527262651E+02  0.32003658417E+04  0.31996105201E+04 0.  0.
        4    1    3    3  502    0  0.87816799091E+03  0.89155499308E+03  0.96212902536E+03  0.15785256413E+04  0.12699999809E+01 0.  1.
       -4    1    3    3    0  502 -0.87816799091E+03 -0.89155499308E+03 -0.10316562880E+04  0.16218402003E+04  0.12699999809E+01 0. -1.
</event>
<event>
 5   0  0.3942564E-07  0.3196984E+04  0.7818609E-02  0.8189614E-01
        2   -1    0    0  501    0  0.00000000000E+00  0.00000000000E+00  0.22949917367E+04  0.22949917367E+04  0.25500000920E-02 0. -1.
       -2   -1    0    0    0  501  0.00000000000E+00  0.00000000000E+00 -0.11133706004E+04  0.11133706004E+04  0.25500000920E-02 0.  1.
    10030    2    1    2    0    0  0.00000000000E+00  0.00000000000E+00  0.11816211364E+04  0.34083623371E+04  0.31969837834E+04 0.  0.
        3    1    3    3  502    0  0.21253665347E+03  0.21028895436E+03 -0.10832946698E+04  0.11237974129E+04  0.10100000352E+00 0.  1.
       -3    1    3    3    0  502 -0.21253665347E+03 -0.21028895436E+03  0.22649158062E+04  0.22845649242E+04  0.10100000352E+00 0. -1.
</event>
<event>
 5   0  0.1270948E-07  0.3201633E+04  0.7818609E-02  0.8188386E-01
        1   -1    0    0  501    0  0.00000000000E+00  0.00000000000E+00  0.12820100311E+04  0.12820100311E+04  0.50400001928E-02 0.  1.
       -1   -1    0    0    0  501  0.00000000000E+00  0.00000000000E+00 -0.19989026683E+04  0.19989026683E+04  0.50400001928E-02 0. -1.
    10030    2    1    2    0    0  0.00000000000E+00  0.00000000000E+00 -0.71689263715E+03  0.32809126994E+04  0.32016328784E+04 0.  0.
        4    1    3    3  502    0  0.73915717827E+02 -0.45176929566E+03  0.12135045347E+04  0.12969787580E+04  0.12699999809E+01 0.  1.
       -4    1    3    3    0  502 -0.73915717827E+02  0.45176929566E+03 -0.19303971719E+04  0.19839339414E+04  0.12699999809E+01 0. -1.
</event>
<event>
 5   0  0.3942564E-07  0.3198826E+04  0.7818609E-02  0.8189127E-01
       -2   -1    0    0    0  501  0.00000000000E+00  0.00000000000E+00  0.14936509810E+04  0.14936509810E+04  0.25500000920E-02 0.  1.
        2   -1    0    0  501    0  0.00000000000E+00  0.00000000000E+00 -0.17126632911E+04  0.17126632911E+04  0.25500000920E-02 0. -1.
    10030    2    1    2    0    0  0.00000000000E+00  0.00000000000E+00 -0.21901231010E+03  0.32063142722E+04  0.31988255376E+04 0.  0.
        3    1    3    3  502    0  0.14733515216E+04 -0.54845216753E+03 -0.40440013036E+03  0.16233003302E+04  0.10100000352E+00 0.  1.
       -3    1    3    3    0  502 -0.14733515216E+04  0.54845216753E+03  0.18538782027E+03  0.15830139420E+04  0.10100000352E+00 0. -1.
</event>
<event>
 5   0  0.3830207E-07  0.3179187E+04  0.7818609E-02  0.8194336E-01
        2   -1    0    0  501    0  0.00000000000E+00  0.00000000000E+00  0.24294848759E+04  0.24294848759E+04  0.25500000920E-02 0. -1.
       -2   -1    0    0    0  501  0.00000000000E+00  0.00000000000E+00 -0.10400588556E+04  0.10400588556E+04  0.25500000920E-02 0.  1.
    10030    2    1    2    0    0  0.00000000000E+00  0.00000000000E+00  0.13894260203E+04  0.34695437315E+04  0.31791868518E+04 0.  0.
        4    1    3    3  502    0 -0.81761414539E+03  0.12236373730E+04  0.13504422515E+04  0.19973675673E+04  0.12699999809E+01 0. -1.
       -4    1    3    3    0  502  0.81761414539E+03 -0.12236373730E+04  0.38983768868E+02  0.14721761642E+04  0.12699999809E+01 0.  1.
</event>
<event>
 5   0  0.3858721E-07  0.3205965E+04  0.7818609E-02  0.8187244E-01
        2   -1    0    0  501    0  0.00000000000E+00  0.00000000000E+00  0.15395904432E+04  0.15395904432E+04  0.25500000920E-02 0.  1.
       -2   -1    0    0    0  501  0.00000000000E+00  0.00000000000E+00 -0.16689847351E+04  0.16689847351E+04  0.25500000920E-02 0. -1.
    10030    2    1    2    0    0  0.00000000000E+00  0.00000000000E+00 -0.12939429188E+03  0.32085751783E+04  0.32059650329E+04 0.  0.
        2    1    3    3  502    0 -0.75754257039E+03 -0.14115315157E+04 -0.75456435282E+01  0.16019828035E+04  0.25500000920E-02 0. -1.
       -2    1    3    3    0  502  0.75754257039E+03  0.14115315157E+04 -0.12184864835E+03  0.16065923749E+04  0.25500000920E-02 0.  1.
</event>
<event>
 5   0  0.3858721E-07  0.3194256E+04  0.7818609E-02  0.8190336E-01
       -2   -1    0    0    0  501  0.00000000000E+00  0.00000000000E+00  0.10323140328E+04  0.10323140328E+04  0.25500000920E-02 0. -1.
        2   -1    0    0  501    0  0.00000000000E+00  0.00000000000E+00 -0.24709708387E+04  0.24709708387E+04  0.25500000920E-02 0.  1.
    10030    2    1    2    0    0  0.00000000000E+00  0.00000000000E+00 -0.14386568059E+04  0.35032848715E+04  0.31942560144E+04 0.  0.
        2    1    3    3  502    0 -0.87135728861E+03 -0.75672591742E+03 -0.19301868490E+04  0.22488928188E+04  0.25500000920E-02 0.  1.
       -2    1    3    3    0  502  0.87135728861E+03  0.75672591742E+03  0.49153004311E+03  0.12543920527E+04  0.25500000920E-02 0. -1.
</event>
<event>
 5   0  0.1270948E-07  0.3266220E+04  0.7818609E-02  0.8171544E-01
       -1   -1    0    0    0  501  0.00000000000E+00  0.00000000000E+00  0.11494955034E+04  0.11494955034E+04  0.50400001928E-02 0.  1.
        1   -1    0    0  501    0  0.00000000000E+00  0.00000000000E+00 -0.23201900932E+04  0.23201900933E+04  0.50400001928E-02 0. -1.
    10030    2    1    2    0    0  0.00000000000E+00  0.00000000000E+00 -0.11706945899E+04  0.34696855966E+04  0.32662198819E+04 0.  0.
        4    1    3    3  502    0  0.13793246785E+04 -0.86927806689E+03 -0.68536970274E+03  0.17685910122E+04  0.12699999809E+01 0. -1.
       -4    1    3    3    0  502 -0.13793246785E+04  0.86927806689E+03 -0.48532488713E+03  0.17010945844E+04  0.12699999809E+01 0.  1.
</event>
<event>
 5   0  0.3858721E-07  0.3211075E+04  0.7818609E-02  0.8185898E-01
       -2   -1    0    0    0  501  0.00000000000E+00  0.00000000000E+00  0.11936141743E+04  0.11936141743E+04  0.25500000920E-02 0.  1.
        2   -1    0    0  501    0  0.00000000000E+00  0.00000000000E+00 -0.21596184411E+04  0.21596184411E+04  0.25500000920E-02 0. -1.
    10030    2    1    2    0    0  0.00000000000E+00  0.00000000000E+00 -0.96600426686E+03  0.33532326154E+04  0.32110753229E+04 0.  0.
        2    1    3    3  502    0  0.84120239511E+03 -0.28991866946E+03 -0.18786095310E+04  0.20786649740E+04  0.25500000920E-02 0. -1.
       -2    1    3    3    0  502 -0.84120239511E+03  0.28991866946E+03  0.91260526410E+03  0.12745676414E+04  0.25500000920E-02 0.  1.
</event>
<event>
 5   0  0.3764056E-07  0.3198644E+04  0.7818609E-02  0.8189175E-01
        2   -1    0    0  501    0  0.00000000000E+00  0.00000000000E+00  0.12562895225E+04  0.12562895225E+04  0.25500000920E-02 0. -1.
       -2   -1    0    0    0  501  0.00000000000E+00  0.00000000000E+00 -0.20360207416E+04  0.20360207416E+04  0.25500000920E-02 0.  1.
    10030    2    1    2    0    0  0.00000000000E+00  0.00000000000E+00 -0.77973121914E+03  0.32923102641E+04  0.31986444162E+04 0.  0.
        5    1    3    3  502    0 -0.24230190106E+02 -0.12502952596E+03  0.12510548680E+04  0.12575292670E+04  0.46999998093E+01 0. -1.
       -5    1    3    3    0  502  0.24230190106E+02  0.12502952596E+03 -0.20307860872E+04  0.20347809971E+04  0.46999998093E+01 0.  1.
</event>
<event>
 5   0  0.3764056E-07  0.3195592E+04  0.7818609E-02  0.8189982E-01
       -2   -1    0    0    0  501  0.00000000000E+00  0.00000000000E+00  0.23128371377E+04  0.23128371377E+04  0.25500000920E-02 0.  1.
        2   -1    0    0  501    0  0.00000000000E+00  0.00000000000E+00 -0.11038186565E+04  0.11038186565E+04  0.25500000920E-02 0. -1.
    10030    2    1    2    0    0  0.00000000000E+00  0.00000000000E+00  0.12090184811E+04  0.34166557942E+04  0.31955924534E+04 0.  0.
        5    1    3    3  502    0  0.56958005351E+03  0.10379281198E+04  0.17516797190E+04  0.21142658648E+04  0.46999998093E+01 0.  1.
       -5    1    3    3    0  502 -0.56958005351E+03 -0.10379281198E+04 -0.54266123784E+03  0.13023899294E+04  0.46999998093E+01 0. -1.
</event>
<event>
 5   0  0.3942564E-07  0.3200926E+04  0.7818609E-02  0.8188573E-01
        2   -1    0    0  501    0  0.00000000000E+00  0.00000000000E+00  0.20683608185E+04  0.20683608185E+04  0.25500000920E-02 0.  1.
       -2   -1    0    0    0  501  0.00000000000E+00  0.00000000000E+00 -0.12384118708E+04  0.12384118708E+04  0.25500000920E-02 0. -1.
    10030    2    1    2    0    0  0.00000000000E+00  0.00000000000E+00  0.82994894764E+03  0.33067726893E+04  0.32009264851E+04 0.  0.
        3    1    3    3  502    0 -0.65539867186E+03 -0.80115085489E+03 -0.84608407940E+03  0.13368800960E+04  0.10100000352E+00 0. -1.
       -3    1    3    3    0  502  0.65539867186E+03  0.80115085489E+03  0.16760330270E+04  0.19698925933E+04  0.10100000352E+00 0.  1.
</event>
<event>
 5   0  0.1277374E-07  0.3201800E+04  0.7818609E-02  0.8188342E-01
       -1   -1    0    0    0  501  0.00000000000E+00  0.00000000000E+00  0.28228288701E+04  0.28228288701E+04  0.50400001928E-02 0. -1.
        1   -1    0    0  501    0  0.00000000000E+00  0.00000000000E+00 -0.90791227129E+03  0.90791227130E+03  0.50400001928E-02 0.  1.
    10030    2    1    2    0    0  0.00000000000E+00  0.00000000000E+00  0.19149165988E+04  0.37307411414E+04  0.32018001005E+04 0.  0.
        5    1    3    3  502    0  0.14390399674E+04  0.19102737962E+03  0.17438882747E+04  0.22690297249E+04  0.46999998093E+01 0. -1.
       -5    1    3    3    0  502 -0.14390399674E+04 -0.19102737962E+03  0.17102832404E+03  0.14617114165E+04  0.46999998093E+01 0.  1.
</event>
<event>
 5   0  0.1317293E-07  0.3206127E+04  0.7818609E-02  0.8187201E-01
        1   -1    0    0  501    0  0.00000000000E+00  0.00000000000E+00  0.30008198290E+04  0.30008198290E+04  0.50400001928E-02 0. -1.
       -1   -1    0    0    0  501  0.00000000000E+00  0.00000000000E+00 -0.85637026168E+03  0.85637026170E+03  0.50400001928E-02 0.  1.
    10030    2    1    2    0    0  0.00000000000E+00  0.00000000000E+00  0.21444495673E+04  0.38571900907E+04  0.32061271729E+04 0.  0.
        1    1    3    3  502    0 -0.12353712268E+04  0.10052171057E+04  0.12914651805E+04  0.20504842867E+04  0.50400001928E-02 0. -1.
       -1    1    3    3    0  502  0.12353712268E+04 -0.10052171057E+04  0.85298438684E+03  0.18067058039E+04  0.50400001928E-02 0.  1.
</event>
<event>
 5   0  0.3942564E-07  0.3198712E+04  0.7818609E-02  0.8189157E-01
        2   -1    0    0  501    0  0.00000000000E+00  0.00000000000E+00  0.27293651814E+04  0.27293651814E+04  0.25500000920E-02 0. -1.
       -2   -1    0    0    0  501  0.00000000000E+00  0.00000000000E+00 -0.93719233538E+03  0.93719233538E+03  0.25500000920E-02 0.  1.
    10030    2    1    2    0    0  0.00000000000E+00  0.00000000000E+00  0.17921728461E+04  0.36665575168E+04  0.31987123212E+04 0.  0.
        3    1    3    3  502    0 -0.60780042536E+03  0.14690867650E+04  0.10956241272E+04  0.19308105859E+04  0.10100000352E+00 0. -1.
       -3    1    3    3    0  502  0.60780042536E+03 -0.14690867650E+04  0.69654871882E+03  0.17357469309E+04  0.10100000352E+00 0.  1.
</event>
<event>
 5   0  0.1288096E-07  0.3181126E+04  0.7818609E-02  0.8193820E-01
        1   -1    0    0  501    0  0.00000000000E+00  0.00000000000E+00  0.11916003434E+04  0.11916003435E+04  0.50400001928E-02 0.  1.
       -1   -1    0    0    0  501  0.00000000000E+00  0.00000000000E+00 -0.21231028687E+04  0.21231028687E+04  0.50400001928E-02 0. -1.
    10030    2    1    2    0    0  0.00000000000E+00  0.00000000000E+00 -0.93150252527E+03  0.33147032122E+04  0.31811256546E+04 0.  0.
        2    1    3    3  502    0 -0.57943882473E+03 -0.70176393181E+03 -0.18250072632E+04  0.20393316254E+04  0.25500000920E-02 0. -1.
       -2    1    3    3    0  502  0.57943882473E+03  0.70176393181E+03  0.89350473795E+03  0.12753715868E+04  0.25500000920E-02 0.  1.
</event>
<event>
 5   0  0.3830207E-07  0.3204983E+04  0.7818609E-02  0.8187502E-01
        2   -1    0    0  501    0  0.00000000000E+00  0.00000000000E+00  0.20963172123E+04  0.20963172123E+04  0.25500000920E-02 0. -1.
       -2   -1    0    0    0  501  0.00000000000E+00  0.00000000000E+00 -0.12249953234E+04  0.12249953235E+04  0.25500000920E-02 0.  1.
    10030    2    1    2    0    0  0.00000000000E+00  0.00000000000E+00  0.87132188885E+03  0.33213125358E+04  0.32049828589E+04 0.  0.
        4    1    3    3  502    0  0.13594902903E+04  0.80183526035E+03  0.14843003358E+03  0.15853033533E+04  0.12699999809E+01 0. -1.
       -4    1    3    3    0  502 -0.13594902903E+04 -0.80183526035E+03  0.72289185527E+03  0.17360091824E+04  0.12699999809E+01 0.  1.
</event>
<event>
 5   0  0.1270948E-07  0.3203046E+04  0.7818609E-02  0.8188013E-01
       -1   -1    0    0    0  501  0.00000000000E+00  0.00000000000E+00  0.17640940459E+04  0.17640940459E+04  0.50400001928E-02 0. -1.
        1   -1    0    0  501    0  0.00000000000E+00  0.00000000000E+00 -0.14539333811E+04  0.14539333811E+04  0.50400001928E-02 0.  1.
    10030    2    1    2    0    0  0.00000000000E+00  0.00000000000E+00  0.31016066481E+03  0.32180274270E+04  0.32030455637E+04 0.  0.
        4    1    3    3  502    0  0.60597114514E+03  0.87131082052E+03  0.13600609278E+04  0.17251524324E+04  0.12699999809E+01 0. -1.
       -4    1    3    3    0  502 -0.60597114514E+03 -0.87131082052E+03 -0.10499002630E+04  0.14928749947E+04  0.12699999809E+01 0.  1.
</event>
<event>
 5   0  0.3830207E-07  0.3195531E+04  0.7818609E-02  0.8189998E-01
       -2   -1    0    0    0  501  0.00000000000E+00  0.00000000000E+00  0.11315670772E+04  0.11315670772E+04  0.25500000920E-02 0. -1.
        2   -1    0    0  501    0  0.00000000000E+00  0.00000000000E+00 -0.22560351746E+04  0.22560351746E+04  0.25500000920E-02 0.  1.
    10030    2    1    2    0    0  0.00000000000E+00  0.00000000000E+00 -0.11244680974E+04  0.33876022519E+04  0.31955313353E+04 0.  0.
        4    1    3    3  502    0 -0.30405075964E+03 -0.10066543049E+04 -0.18374732822E+04  0.21170992962E+04  0.12699999809E+01 0.  1.
       -4    1    3    3    0  502  0.30405075964E+03  0.10066543049E+04  0.71300518484E+03  0.12705029557E+04  0.12699999809E+01 0. -1.
</event>
<event>
 5   0  0.3750285E-07  0.3197739E+04  0.7818609E-02  0.8189414E-01
       -2   -1    0    0    0  501  0.00000000000E+00  0.00000000000E+00  0.93195484761E+03  0.93195484762E+03  0.25500000920E-02 0. -1.
        2   -1    0    0  501    0  0.00000000000E+00  0.00000000000E+00 -0.27430343418E+04  0.27430343418E+04  0.25500000920E-02 0.  1.
    10030    2    1    2    0    0  0.00000000000E+00  0.00000000000E+00 -0.18110794942E+04  0.36749891894E+04  0.31977392964E+04 0.  0.
        1    1    3    3  502    0 -0.80945993677E+03 -0.24022616712E+03 -0.24659137684E+04  0.26064659434E+04  0.50400001928E-02 0.  1.
       -1    1    3    3    0  502  0.80945993677E+03  0.24022616712E+03  0.65483427424E+03  0.10685232461E+04  0.50400001928E-02 0. -1.
</event>
<event>
 5   0  0.3858721E-07  0.3214000E+04  0.7818609E-02  0.8185130E-01
        2   -1    0    0  501    0  0.00000000000E+00  0.00000000000E+00  0.15789621857E+04  0.15789621857E+04  0.25500000920E-02 0.  1.
       -2   -1    0    0    0  501  0.00000000000E+00  0.00000000000E+00 -0.16355353335E+04  0.16355353335E+04  0.25500000920E-02 0. -1.
    10030    2    1    2    0    0  0.00000000000E+00  0.00000000000E+00 -0.56573147786E+02  0.32144975192E+04  0.32139996546E+04 0.  0.
        2    1    3    3  502    0 -0.14564195947E+04  0.31852271379E+03 -0.62824088756E+03  0.16178075806E+04  0.25500000920E-02 0. -1.
       -2    1    3    3    0  502  0.14564195947E+04 -0.31852271379E+03  0.57166773978E+03  0.15966899385E+04  0.25500000920E-02 0.  1.
</event>
<event>
 5   0  0.1365455E-07  0.3201553E+04  0.7818609E-02  0.8188407E-01
        1   -1    0    0  501    0  0.00000000000E+00  0.00000000000E+00  0.17308591318E+04  0.17308591318E+04  0.50400001928E-02 0. -1.
       -1   -1    0    0    0  501  0.00000000000E+00  0.00000000000E+00 -0.14804702441E+04  0.14804702441E+04  0.50400001928E-02 0.  1.
    10030    2    1    2    0    0  0.00000000000E+00  0.00000000000E+00  0.25038888763E+03  0.32113293759E+04  0.32015530240E+04 0.  0.
        3    1    3    3  502    0 -0.93332559904E+03  0.11717959608E+04 -0.44069404969E+03  0.15615420914E+04  0.10100000352E+00 0.  1.
       -3    1    3    3    0  502  0.93332559904E+03 -0.11717959608E+04  0.69108293732E+03  0.16497872845E+04  0.10100000352E+00 0. -1.
</event>
<event>
 5   0  0.1317293E-07  0.3196389E+04  0.7818609E-02  0.8189771E-01
       -1   -1    0    0    0  501  0.00000000000E+00  0.00000000000E+00  0.10986258379E+04  0.10986258380E+04  0.50400001928E-02 0. -1.
        1   -1    0    0  501    0  0.00000000000E+00  0.00000000000E+00 -0.23249282743E+04  0.23249282743E+04  0.50400001928E-02 0.  1.
    10030    2    1    2    0    0  0.00000000000E+00  0.00000000000E+00 -0.12263024363E+04  0.34235541122E+04  0.31963893840E+04 0.  0.
        1    1    3    3  502    0 -0.80492847961E+03  0.25727757112E+03  0.83976690387E+03  0.11913480007E+04  0.50400001928E-02 0. -1.
       -1    1    3    3    0  502  0.80492847961E+03 -0.25727757112E+03 -0.20660693402E+04  0.22322061116E+04  0.50400001928E-02 0.  1.
</event>
<event>
 5   0  0.1288096E-07  0.3163301E+04  0.7818609E-02  0.8198577E-01
       -1   -1    0    0    0  501  0.00000000000E+00  0.00000000000E+00  0.17671516939E+04  0.17671516939E+04  0.50400001928E-02 0.  1.
        1   -1    0    0  501    0  0.00000000000E+00  0.00000000000E+00 -0.14156219433E+04  0.14156219433E+04  0.50400001928E-02 0. -1.
    10030    2    1    2    0    0  0.00000000000E+00  0.00000000000E+00  0.35152975061E+03  0.31827736372E+04  0.31633012597E+04 0.  0.
        2    1    3    3  502    0  0.55179191968E+03 -0.14025053708E+04 -0.30689954323E+03  0.15380776857E+04  0.25500000920E-02 0.  1.
       -2    1    3    3    0  502 -0.55179191968E+03  0.14025053708E+04  0.65842929384E+03  0.16446959514E+04  0.25500000920E-02 0. -1.
</event>
<event>
 5   0  0.3858721E-07  0.3204352E+04  0.7818609E-02  0.8187669E-01
        2   -1    0    0  501    0  0.00000000000E+00  0.00000000000E+00  0.22784466308E+04  0.22784466309E+04  0.25500000920E-02 0. -1.
       -2   -1    0    0    0  501  0.00000000000E+00  0.00000000000E+00 -0.11266309169E+04  0.11266309169E+04  0.25500000920E-02 0.  1.
    10030    2    1    2    0    0  0.00000000000E+00  0.00000000000E+00  0.11518157139E+04  0.34050775478E+04  0.32043523008E+04 0.  0.
        2    1    3    3  502    0  0.94966527677E+03 -0.67123670866E+02  0.19452724504E+04  0.21657457449E+04  0.25500000920E-02 0. -1.
       -2    1    3    3    0  502 -0.94966527677E+03  0.67123670866E+02 -0.79345673649E+03  0.12393318029E+04  0.25500000920E-02 0.  1.
</event>
<event>
 5   0  0.3764056E-07  0.3205971E+04  0.7818609E-02  0.8187242E-01
        2   -1    0    0  501    0  0.00000000000E+00  0.00000000000E+00  0.18648654044E+04  0.18648654044E+04  0.25500000920E-02 0.  1.
       -2   -1    0    0    0  501  0.00000000000E+00  0.00000000000E+00 -0.13778811670E+04  0.13778811670E+04  0.25500000920E-02 0. -1.
    10030    2    1    2    0    0  0.00000000000E+00  0.00000000000E+00  0.48698423738E+03  0.32427465714E+04  0.32059712536E+04 0.  0.
        5    1    3    3  502    0 -0.32773626598E+03  0.14081442482E+04  0.94371898672E+03  0.17265308859E+04  0.46999998093E+01 0.  1.
       -5    1    3    3    0  502  0.32773626598E+03 -0.14081442482E+04 -0.45673474934E+03  0.15162156856E+04  0.46999998093E+01 0. -1.
</event>
<event>
 5   0  0.1317293E-07  0.3198927E+04  0.7818609E-02  0.8189101E-01
        1   -1    0    0  501    0  0.00000000000E+00  0.00000000000E+00  0.12804907424E+04  0.12804907424E+04  0.50400001928E-02 0.  1.
       -1   -1    0    0    0  501  0.00000000000E+00  0.00000000000E+00 -0.19978924567E+04  0.19978924567E+04  0.50400001928E-02 0. -1.
    10030    2    1    2    0    0  0.00000000000E+00  0.00000000000E+00 -0.71740171434E+03  0.32783831991E+04  0.31989265669E+04 0.  0.
        1    1    3    3  502    0 -0.46458809738E+03  0.82741963203E+03 -0.16782446183E+04  0.19279445912E+04  0.50400001928E-02 0. -1.
       -1    1    3    3    0  502  0.46458809738E+03 -0.82741963203E+03  0.96084290398E+03  0.13504386080E+04  0.50400001928E-02 0.  1.
</event>
<event>
 5   0  0.3750285E-07  0.3203672E+04  0.7818609E-02  0.8187848E-01
       -2   -1    0    0    0  501  0.00000000000E+00  0.00000000000E+00  0.10954856578E+04  0.10954856578E+04  0.25500000920E-02 0. -1.
        2   -1    0    0  501    0  0.00000000000E+00  0.00000000000E+00 -0.23422299463E+04  0.23422299463E+04  0.25500000920E-02 0.  1.
    10030    2    1    2    0    0  0.00000000000E+00  0.00000000000E+00 -0.12467442886E+04  0.34377156041E+04  0.32036724635E+04 0.  0.
        1    1    3    3  502    0  0.72746090696E+03  0.11813560593E+04 -0.14825383915E+04  0.20304486185E+04  0.50400001928E-02 0.  1.
       -1    1    3    3    0  502 -0.72746090696E+03 -0.11813560593E+04  0.23579410292E+03  0.14072669857E+04  0.50400001928E-02 0. -1.
</event>
<event>
 5   0  0.1317293E-07  0.3215426E+04  0.7818609E-02  0.8184755E-01
        1   -1    0    0  501    0  0.00000000000E+00  0.00000000000E+00  0.16195609820E+04  0.16195609820E+04  0.50400001928E-02 0. -1.
       -1   -1    0    0    0  501  0.00000000000E+00  0.00000000000E+00 -0.15959512618E+04  0.15959512618E+04  0.50400001928E-02 0.  1.
    10030    2    1    2    0    0  0.00000000000E+00  0.00000000000E+00  0.23609720165E+02  0.32155122438E+04  0.32154255661E+04 0.  0.
        1    1    3    3  502    0  0.11005712010E+04  0.83408388906E+03 -0.81149583398E+03  0.16017110822E+04  0.50400001928E-02 0.  1.
       -1    1    3    3    0  502 -0.11005712010E+04 -0.83408388906E+03  0.83510555415E+03  0.16138011615E+04  0.50400001928E-02 0. -1.
</event>
<event>
 5   0  0.3764056E-07  0.3197765E+04  0.7818609E-02  0.8189408E-01
        2   -1    0    0  501    0  0.00000000000E+00  0.00000000000E+00  0.10903150692E+04  0.10903150692E+04  0.25500000920E-02 0. -1.
       -2   -1    0    0    0  501  0.00000000000E+00  0.00000000000E+00 -0.23446666621E+04  0.23446666621E+04  0.25500000920E-02 0.  1.
    10030    2    1    2    0    0  0.00000000000E+00  0.00000000000E+00 -0.12543515929E+04  0.34349817313E+04  0.31977650907E+04 0.  0.
        5    1    3    3  502    0  0.33205572906E+02  0.15946510084E+04 -0.50761371635E+03  0.16738304047E+04  0.46999998093E+01 0. -1.
       -5    1    3    3    0  502 -0.33205572906E+02 -0.15946510084E+04 -0.74673787655E+03  0.17611513266E+04  0.46999998093E+01 0.  1.
</event>
<event>
 5   0  0.3750285E-07  0.3198971E+04  0.7818609E-02  0.8189089E-01
        2   -1    0    0  501    0  0.00000000000E+00  0.00000000000E+00  0.22347294827E+04  0.22347294827E+04  0.25500000920E-02 0.  1.
       -2   -1    0    0    0  501  0.00000000000E+00  0.00000000000E+00 -0.11448156891E+04  0.11448156891E+04  0.25500000920E-02 0. -1.
    10030    2    1    2    0    0  0.00000000000E+00  0.00000000000E+00  0.10899137936E+04  0.33795451718E+04  0.31989706924E+04 0.  0.
        1    1    3    3  502    0  0.97783178453E+03  0.46887712461E+03 -0.69714553991E+03  0.12891906999E+04  0.50400001928E-02 0. -1.
       -1    1    3    3    0  502 -0.97783178453E+03 -0.46887712461E+03  0.17870593335E+04  0.20903544719E+04  0.50400001928E-02 0.  1.
</event>
<event>
 5   0  0.3764056E-07  0.3199328E+04  0.7818609E-02  0.8188995E-01
        2   -1    0    0  501    0  0.00000000000E+00  0.00000000000E+00  0.13287443606E+04  0.13287443606E+04  0.25500000920E-02 0. -1.
       -2   -1    0    0    0  501  0.00000000000E+00  0.00000000000E+00 -0.19258217297E+04  0.19258217297E+04  0.25500000920E-02 0.  1.
    10030    2    1    2    0    0  0.00000000000E+00  0.00000000000E+00 -0.59707736917E+03  0.32545660903E+04  0.31993279062E+04 0.  0.
        5    1    3    3  502    0  0.58309385930E+03  0.14538565382E+04 -0.62849263846E+03  0.16878158576E+04  0.46999998093E+01 0.  1.
       -5    1    3    3    0  502 -0.58309385930E+03 -0.14538565382E+04  0.31415269297E+02  0.15667502327E+04  0.46999998093E+01 0. -1.
</event>
<event>
 5   0  0.3764056E-07  0.3203315E+04  0.7818609E-02  0.8187942E-01
        2   -1    0    0  501    0  0.00000000000E+00  0.00000000000E+00  0.13652702223E+04  0.13652702223E+04  0.25500000920E-02 0. -1.
       -2   -1    0    0    0  501  0.00000000000E+00  0.00000000000E+00 -0.18789741656E+04  0.18789741656E+04  0.25500000920E-02 0.  1.
    10030    2    1    2    0    0  0.00000000000E+00  0.00000000000E+00 -0.51370394331E+03  0.32442443879E+04  0.32033154555E+04 0.  0.
        5    1    3    3  502    0 -0.12015778295E+04 -0.10549531380E+04 -0.16309494335E+03  0.16072764088E+04  0.46999998093E+01 0.  1.
       -5    1    3    3    0  502  0.12015778295E+04  0.10549531380E+04 -0.35060899996E+03  0.16369679791E+04  0.46999998093E+01 0. -1.
</event>
<event>
 5   0  0.1288096E-07  0.3195386E+04  0.7818609E-02  0.8190037E-01
        1   -1    0    0  501    0  0.00000000000E+00  0.00000000000E+00  0.19039380677E+04  0.19039380677E+04  0.50400001928E-02 0. -1.
       -1   -1    0    0    0  501  0.00000000000E+00  0.00000000000E+00 -0.13407065950E+04  0.13407065950E+04  0.50400001928E-02 0.  1.
    10030    2    1    2    0    0  0.00000000000E+00  0.00000000000E+00  0.56323147261E+03  0.32446446627E+04  0.31953856255E+04 0.  0.
        2    1    3    3  502    0 -0.35831917881E+03  0.11015640830E+04  0.13989358244E+04  0.18162757235E+04  0.25500000920E-02 0. -1.
       -2    1    3    3    0  502  0.35831917881E+03 -0.11015640830E+04 -0.83570435178E+03  0.14283689392E+04  0.25500000920E-02 0.  1.
</event>
<event>
 5   0  0.3750285E-07  0.3205498E+04  0.7818609E-02  0.8187367E-01
       -2   -1    0    0    0  501  0.00000000000E+00  0.00000000000E+00  0.12211349665E+04  0.12211349665E+04  0.25500000920E-02 0. -1.
        2   -1    0    0  501    0  0.00000000000E+00  0.00000000000E+00 -0.21036206117E+04  0.21036206117E+04  0.25500000920E-02 0.  1.
    10030    2    1    2    0    0  0.00000000000E+00  0.00000000000E+00 -0.88248564514E+03  0.33247555782E+04  0.32054982048E+04 0.  0.
        1    1    3    3  502    0  0.83056545042E+03  0.13521578608E+04 -0.20784924887E+03  0.16004284296E+04  0.50400001928E-02 0.  1.
       -1    1    3    3    0  502 -0.83056545042E+03 -0.13521578608E+04 -0.67463639626E+03  0.17243271486E+04  0.50400001928E-02 0. -1.
</event>
<event>
 5   0  0.1288096E-07  0.3201144E+04  0.7818609E-02  0.8188515E-01
        1   -1    0    0  501    0  0.00000000000E+00  0.00000000000E+00  0.14806462331E+04  0.14806462331E+04  0.50400001928E-02 0. -1.
       -1   -1    0    0    0  501  0.00000000000E+00  0.00000000000E+00 -0.17302116934E+04  0.17302116934E+04  0.50400001928E-02 0.  1.
    10030    2    1    2    0    0  0.00000000000E+00  0.00000000000E+00 -0.24956546038E+03  0.32108579265E+04  0.32011444368E+04 0.  0.
        2    1    3    3  502    0  0.13057690236E+04  0.47188434883E+03 -0.92351799868E+03  0.16675110421E+04  0.25500000920E-02 0.  1.
       -2    1    3    3    0  502 -0.13057690236E+04 -0.47188434883E+03  0.67395253830E+03  0.15433468844E+04  0.25500000920E-02 0. -1.
</event>
<event>
 5   0  0.3830207E-07  0.3193371E+04  0.7818609E-02  0.8190570E-01
       -2   -1    0    0    0  501  0.00000000000E+00  0.00000000000E+00  0.84313127367E+03  0.84313127367E+03  0.25500000920E-02 0. -1.
        2   -1    0    0  501    0  0.00000000000E+00  0.00000000000E+00 -0.30237332158E+04  0.30237332158E+04  0.25500000920E-02 0.  1.
    10030    2    1    2    0    0  0.00000000000E+00  0.00000000000E+00 -0.21806019421E+04  0.38668644895E+04  0.31933706565E+04 0.  0.
        4    1    3    3  502    0 -0.60896141434E+03  0.14603005128E+04 -0.83033476256E+03  0.17868321193E+04  0.12699999809E+01 0. -1.
       -4    1    3    3    0  502  0.60896141434E+03 -0.14603005128E+04 -0.13502671796E+04  0.20800323702E+04  0.12699999809E+01 0.  1.
</event>
<event>
 5   0  0.1365455E-07  0.3196836E+04  0.7818609E-02  0.8189653E-01
        1   -1    0    0  501    0  0.00000000000E+00  0.00000000000E+00  0.20233219955E+04  0.20233219955E+04  0.50400001928E-02 0.  1.
       -1   -1    0    0    0  501  0.00000000000E+00  0.00000000000E+00 -0.12627452446E+04  0.12627452446E+04  0.50400001928E-02 0. -1.
    10030    2    1    2    0    0  0.00000000000E+00  0.00000000000E+00  0.76057675092E+03  0.32860672401E+04  0.31968360784E+04 0.  0.
        3    1    3    3  502    0  0.41050171417E+03 -0.64487634932E+03 -0.10626615031E+04  0.13090556305E+04  0.10100000352E+00 0. -1.
       -3    1    3    3    0  502 -0.41050171417E+03  0.64487634932E+03  0.18232382541E+04  0.19770116096E+04  0.10100000352E+00 0.  1.
</event>
<event>
 5   0  0.3942564E-07  0.3196916E+04  0.7818609E-02  0.8189632E-01
        2   -1    0    0  501    0  0.00000000000E+00  0.00000000000E+00  0.22838629950E+04  0.22838629950E+04  0.25500000920E-02 0. -1.
       -2   -1    0    0    0  501  0.00000000000E+00  0.00000000000E+00 -0.11187485545E+04  0.11187485545E+04  0.25500000920E-02 0.  1.
    10030    2    1    2    0    0  0.00000000000E+00  0.00000000000E+00  0.11651144405E+04  0.34026115494E+04  0.31969162793E+04 0.  0.
        3    1    3    3  502    0 -0.55860747957E+03 -0.10552985058E+04  0.17136531916E+04  0.20886130623E+04  0.10100000352E+00 0. -1.
       -3    1    3    3    0  502  0.55860747957E+03  0.10552985058E+04 -0.54853875109E+03  0.13139984872E+04  0.10100000352E+00 0.  1.
</event>
<event>
 5   0  0.1270948E-07  0.3201556E+04  0.7818609E-02  0.8188406E-01
       -1   -1    0    0    0  501  0.00000000000E+00  0.00000000000E+00  0.17481180830E+04  0.17481180830E+04  0.50400001928E-02 0. -1.
        1   -1    0    0  501    0  0.00000000000E+00  0.00000000000E+00 -0.14658561510E+04  0.14658561510E+04  0.50400001928E-02 0.  1.
    10030    2    1    2    0    0  0.00000000000E+00  0.00000000000E+00  0.28226193207E+03  0.32139742340E+04  0.32015556497E+04 0.  0.
        4    1    3    3  502    0 -0.63734881365E+03  0.77157644516E+03  0.13953547733E+04  0.17171372331E+04  0.12699999809E+01 0. -1.
       -4    1    3    3    0  502  0.63734881365E+03 -0.77157644516E+03 -0.11130928413E+04  0.14968370009E+04  0.12699999809E+01 0.  1.
</event>
<event>
 5   0  0.3750285E-07  0.3206904E+04  0.7818609E-02  0.8186996E-01
        2   -1    0    0  501    0  0.00000000000E+00  0.00000000000E+00  0.28137540977E+04  0.28137540977E+04  0.25500000920E-02 0. -1.
       -2   -1    0    0    0  501  0.00000000000E+00  0.00000000000E+00 -0.91374679048E+03  0.91374679048E+03  0.25500000920E-02 0.  1.
    10030    2    1    2    0    0  0.00000000000E+00  0.00000000000E+00  0.19000073072E+04  0.37275008882E+04  0.32069042867E+04 0.  0.
        1    1    3    3  502    0  0.67262046254E+03 -0.17055221104E+03 -0.73018634056E+03  0.10073124814E+04  0.50400001928E-02 0.  1.
       -1    1    3    3    0  502 -0.67262046254E+03  0.17055221104E+03  0.26301936478E+04  0.27201884068E+04  0.50400001928E-02 0. -1.
</event>
<event>
 5   0  0.1277374E-07  0.3190847E+04  0.7818609E-02  0.8191239E-01
        1   -1    0    0  501    0  0.00000000000E+00  0.00000000000E+00  0.16541432189E+04  0.16541432189E+04  0.50400001928E-02 0.  1.
       -1   -1    0    0    0  501  0.00000000000E+00  0.00000000000E+00 -0.15387880843E+04  0.15387880843E+04  0.50400001928E-02 0. -1.
    10030    2    1    2    0    0  0.00000000000E+00  0.00000000000E+00  0.11535513467E+03  0.31929313032E+04  0.31908468312E+04 0.  0.
        5    1    3    3  502    0  0.39578971642E+03  0.14441052147E+04 -0.49337666624E+03  0.15765570068E+04  0.46999998093E+01 0. -1.
       -5    1    3    3    0  502 -0.39578971642E+03 -0.14441052147E+04  0.60873180091E+03  0.16163742964E+04  0.46999998093E+01 0.  1.
</event>
<event>
 5   0  0.1270948E-07  0.3198746E+04  0.7818609E-02  0.8189148E-01
        1   -1    0    0  501    0  0.00000000000E+00  0.00000000000E+00  0.19155457248E+04  0.19155457248E+04  0.50400001928E-02 0. -1.
       -1   -1    0    0    0  501  0.00000000000E+00  0.00000000000E+00 -0.13353868616E+04  0.13353868616E+04  0.50400001928E-02 0.  1.
    10030    2    1    2    0    0  0.00000000000E+00  0.00000000000E+00  0.58015886320E+03  0.32509325864E+04  0.31987463755E+04 0.  0.
        4    1    3    3  502    0  0.55618762190E+03 -0.21396589190E+02 -0.12337793101E+04  0.13535196650E+04  0.12699999809E+01 0.  1.
       -4    1    3    3    0  502 -0.55618762190E+03  0.21396589190E+02  0.18139381733E+04  0.18974129213E+04  0.12699999809E+01 0. -1.
</event>
<event>
 5   0  0.3942564E-07  0.3228942E+04  0.7818609E-02  0.8181215E-01
        2   -1    0    0  501    0  0.00000000000E+00  0.00000000000E+00  0.21399671275E+04  0.21399671275E+04  0.25500000920E-02 0. -1.
       -2   -1    0    0    0  501  0.00000000000E+00  0.00000000000E+00 -0.12180172803E+04  0.12180172803E+04  0.25500000920E-02 0.  1.
    10030    2    1    2    0    0  0.00000000000E+00  0.00000000000E+00  0.92194984719E+03  0.33579844079E+04  0.32289422049E+04 0.  0.
        3    1    3    3  502    0 -0.41696493806E+03 -0.13706058835E+04 -0.31315022944E+03  0.14664526326E+04  0.10100000352E+00 0.  1.
       -3    1    3    3    0  502  0.41696493806E+03  0.13706058835E+04  0.12351000766E+04  0.18915317753E+04  0.10100000352E+00 0. -1.
</event>
<event>
 5   0  0.1277374E-07  0.3200944E+04  0.7818609E-02  0.8188568E-01
        1   -1    0    0  501    0  0.00000000000E+00  0.00000000000E+00  0.15021617229E+04  0.15021617229E+04  0.50400001928E-02 0.  1.
       -1   -1    0    0    0  501  0.00000000000E+00  0.00000000000E+00 -0.17052163013E+04  0.17052163014E+04  0.50400001928E-02 0. -1.
    10030    2    1    2    0    0  0.00000000000E+00  0.00000000000E+00 -0.20305457842E+03  0.32073780243E+04  0.32009440215E+04 0.  0.
        5    1    3    3  502    0  0.15041759340E+04 -0.97250842088E+01 -0.64929671928E+03  0.16383675221E+04  0.46999998093E+01 0. -1.
       -5    1    3    3    0  502 -0.15041759340E+04  0.97250842088E+01  0.44624214087E+03  0.15690105022E+04  0.46999998093E+01 0.  1.
</event>
<event>
 5   0  0.1365455E-07  0.3201104E+04  0.7818609E-02  0.8188526E-01
        1   -1    0    0  501    0  0.00000000000E+00  0.00000000000E+00  0.15358311169E+04  0.15358311169E+04  0.50400001928E-02 0. -1.
       -1   -1    0    0    0  501  0.00000000000E+00  0.00000000000E+00 -0.16680003412E+04  0.16680003412E+04  0.50400001928E-02 0.  1.
    10030    2    1    2    0    0  0.00000000000E+00  0.00000000000E+00 -0.13216922428E+03  0.32038314580E+04  0.32011040764E+04 0.  0.
        3    1    3    3  502    0  0.14128372045E+04 -0.23717723128E+03 -0.78041872152E+03  0.16313845030E+04  0.10100000352E+00 0.  1.
       -3    1    3    3    0  502 -0.14128372045E+04  0.23717723128E+03  0.64824949724E+03  0.15724469550E+04  0.10100000352E+00 0. -1.
</event>
<event>
 5   0  0.1288096E-07  0.3202480E+04  0.7818609E-02  0.8188163E-01
        1   -1    0    0  501    0  0.00000000000E+00  0.00000000000E+00  0.17685117758E+04  0.17685117758E+04  0.50400001928E-02 0. -1.
       -1   -1    0    0    0  501  0.00000000000E+00  0.00000000000E+00 -0.14497891640E+04  0.14497891640E+04  0.50400001928E-02 0.  1.
    10030    2    1    2    0    0  0.00000000000E+00  0.00000000000E+00  0.31872261180E+03  0.32183009398E+04  0.32024797948E+04 0.  0.
        2    1    3    3  502    0  0.60054418220E+03  0.36295333112E+03 -0.12870479409E+04  0.14659061489E+04  0.25500000920E-02 0.  1.
       -2    1    3    3    0  502 -0.60054418220E+03 -0.36295333112E+03  0.16057705527E+04  0.17523947909E+04  0.25500000920E-02 0. -1.
</event>
<event>
 5   0  0.3858721E-07  0.3201170E+04  0.7818609E-02  0.8188508E-01
        2   -1    0    0  501    0  0.00000000000E+00  0.00000000000E+00  0.25015612929E+04  0.25015612929E+04  0.25500000920E-02 0.  1.
       -2   -1    0    0    0  501  0.00000000000E+00  0.00000000000E+00 -0.10241096365E+04  0.10241096365E+04  0.25500000920E-02 0. -1.
    10030    2    1    2    0    0  0.00000000000E+00  0.00000000000E+00  0.14774516563E+04  0.35256709294E+04  0.32011704274E+04 0.  0.
        2    1    3    3  502    0 -0.98600091104E+03 -0.38146155456E+03  0.20622777473E+04  0.23174771242E+04  0.25500000920E-02 0.  1.
       -2    1    3    3    0  502  0.98600091104E+03  0.38146155456E+03 -0.58482609096E+03  0.12081938052E+04  0.25500000920E-02 0. -1.
</event>
<event>
 5   0  0.1270948E-07  0.3197370E+04  0.7818609E-02  0.8189512E-01
        1   -1    0    0  501    0  0.00000000000E+00  0.00000000000E+00  0.18947893822E+04  0.18947893822E+04  0.50400001928E-02 0. -1.
       -1   -1    0    0    0  501  0.00000000000E+00  0.00000000000E+00 -0.13488535641E+04  0.13488535642E+04  0.50400001928E-02 0.  1.
    10030    2    1    2    0    0  0.00000000000E+00  0.00000000000E+00  0.54593581801E+03  0.32436429463E+04  0.31973698012E+04 0.  0.
        4    1    3    3  502    0 -0.84261171074E+03 -0.24666524471E+03  0.16283246929E+04  0.18499408521E+04  0.12699999809E+01 0. -1.
       -4    1    3    3    0  502  0.84261171074E+03  0.24666524471E+03 -0.10823888749E+04  0.13937020942E+04  0.12699999809E+01 0.  1.
</event>
<event>
 5   0  0.1288096E-07  0.3201756E+04  0.7818609E-02  0.8188354E-01
        1   -1    0    0  501    0  0.00000000000E+00  0.00000000000E+00  0.12542979076E+04  0.12542979076E+04  0.50400001928E-02 0.  1.
       -1   -1    0    0    0  501  0.00000000000E+00  0.00000000000E+00 -0.20432227705E+04  0.20432227705E+04  0.50400001928E-02 0. -1.
    10030    2    1    2    0    0  0.00000000000E+00  0.00000000000E+00 -0.78892486290E+03  0.32975206781E+04  0.32017557970E+04 0.  0.
        2    1    3    3  502    0  0.43434047378E+03  0.67846113987E+02  0.11909152781E+04  0.12694620680E+04  0.25500000920E-02 0.  1.
       -2    1    3    3    0  502 -0.43434047378E+03 -0.67846113987E+02 -0.19798401410E+04  0.20280586102E+04  0.25500000920E-02 0. -1.
</event>
<event>
 5   0  0.1365455E-07  0.3200621E+04  0.7818609E-02  0.8188653E-01
       -1   -1    0    0    0  501  0.00000000000E+00  0.00000000000E+00  0.17799646233E+04  0.17799646233E+04  0.50400001928E-02 0. -1.
        1   -1    0    0  501    0  0.00000000000E+00  0.00000000000E+00 -0.14387893642E+04  0.14387893642E+04  0.50400001928E-02 0.  1.
    10030    2    1    2    0    0  0.00000000000E+00  0.00000000000E+00  0.34117525913E+03  0.32187539875E+04  0.32006212951E+04 0.  0.
        3    1    3    3  502    0  0.23402118035E+03 -0.15581866046E+04 -0.11078803465E+03  0.15795522803E+04  0.10100000352E+00 0.  1.
       -3    1    3    3    0  502 -0.23402118035E+03  0.15581866046E+04  0.45196329379E+03  0.16392017071E+04  0.10100000352E+00 0. -1.
</event>
<event>
 5   0  0.3750285E-07  0.3199718E+04  0.7818609E-02  0.8188892E-01
        2   -1    0    0  501    0  0.00000000000E+00  0.00000000000E+00  0.14770190767E+04  0.14770190767E+04  0.25500000920E-02 0.  1.
       -2   -1    0    0    0  501  0.00000000000E+00  0.00000000000E+00 -0.17329154192E+04  0.17329154192E+04  0.25500000920E-02 0. -1.
    10030    2    1    2    0    0  0.00000000000E+00  0.00000000000E+00 -0.25589634255E+03  0.32099344959E+04  0.31997181953E+04 0.  0.
        1    1    3    3  502    0  0.11759810945E+04 -0.34291290406E+03  0.90442861291E+03  0.15226660535E+04  0.50400001928E-02 0.  1.
       -1    1    3    3    0  502 -0.11759810945E+04  0.34291290406E+03 -0.11603249555E+04  0.16872684424E+04  0.50400001928E-02 0. -1.
</event>
<event>
 5   0  0.3830207E-07  0.3206709E+04  0.7818609E-02  0.8187048E-01
        2   -1    0    0  501    0  0.00000000000E+00  0.00000000000E+00  0.17182883596E+04  0.17182883596E+04  0.25500000920E-02 0. -1.
       -2   -1    0    0    0  501  0.00000000000E+00  0.00000000000E+00 -0.14961079428E+04  0.14961079428E+04  0.25500000920E-02 0.  1.
    10030    2    1    2    0    0  0.00000000000E+00  0.00000000000E+00  0.22218041680E+03  0.32143963024E+04  0.32067085074E+04 0.  0.
        4    1    3    3  502    0  0.41659422792E+03  0.25055733418E+03  0.16426319255E+04  0.17130589552E+04  0.12699999809E+01 0. -1.
       -4    1    3    3    0  502 -0.41659422792E+03 -0.25055733418E+03 -0.14204515087E+04  0.15013373472E+04  0.12699999809E+01 0.  1.
</event>
<event>
 5   0  0.1317293E-07  0.3196938E+04  0.7818609E-02  0.8189626E-01
        1   -1    0    0  501    0  0.00000000000E+00  0.00000000000E+00  0.15283002810E+04  0.15283002811E+04  0.50400001928E-02 0.  1.
       -1   -1    0    0    0  501  0.00000000000E+00  0.00000000000E+00 -0.16718598608E+04  0.16718598608E+04  0.50400001928E-02 0. -1.
    10030    2    1    2    0    0  0.00000000000E+00  0.00000000000E+00 -0.14355957975E+03  0.32001601419E+04  0.31969384700E+04 0.  0.
        1    1    3    3  502    0 -0.40372077330E+03  0.66570957852E+03  0.13256729690E+04  0.15373901673E+04  0.50400001928E-02 0.  1.
       -1    1    3    3    0  502  0.40372077330E+03 -0.66570957852E+03 -0.14692325488E+04  0.16627699745E+04  0.50400001928E-02 0. -1.
</event>
<event>
 5   0  0.3750285E-07  0.3190926E+04  0.7818609E-02  0.8191218E-01
       -2   -1    0    0    0  501  0.00000000000E+00  0.00000000000E+00  0.10936787892E+04  0.10936787892E+04  0.25500000920E-02 0. -1.
        2   -1    0    0  501    0  0.00000000000E+00  0.00000000000E+00 -0.23274679153E+04  0.23274679153E+04  0.25500000920E-02 0.  1.
    10030    2    1    2    0    0  0.00000000000E+00  0.00000000000E+00 -0.12337891261E+04  0.34211467045E+04  0.31909260672E+04 0.  0.
        1    1    3    3  502    0 -0.72603728917E+03  0.13496066183E+04 -0.14110441857E+03  0.15389862333E+04  0.50400001928E-02 0.  1.
       -1    1    3    3    0  502  0.72603728917E+03 -0.13496066183E+04 -0.10926847075E+04  0.18821604712E+04  0.50400001928E-02 0. -1.
</event>
<event>
 5   0  0.3830207E-07  0.3199428E+04  0.7818609E-02  0.8188968E-01
        2   -1    0    0  501    0  0.00000000000E+00  0.00000000000E+00  0.17381004261E+04  0.17381004261E+04  0.25500000920E-02 0. -1.
       -2   -1    0    0    0  501  0.00000000000E+00  0.00000000000E+00 -0.14723457333E+04  0.14723457333E+04  0.25500000920E-02 0.  1.
    10030    2    1    2    0    0  0.00000000000E+00  0.00000000000E+00  0.26575469274E+03  0.32104461594E+04  0.31994279154E+04 0.  0.
        4    1    3    3  502    0 -0.12314676355E+04  0.92250035342E+03 -0.30630984225E+03  0.15688679905E+04  0.12699999809E+01 0. -1.
       -4    1    3    3    0  502  0.12314676355E+04 -0.92250035342E+03  0.57206453499E+03  0.16415781688E+04  0.12699999809E+01 0.  1.
</event>
<event>
 5   0  0.3764056E-07  0.3199021E+04  0.7818609E-02  0.8189076E-01
       -2   -1    0    0    0  501  0.00000000000E+00  0.00000000000E+00  0.16681330948E+04  0.16681330948E+04  0.25500000920E-02 0. -1.
        2   -1    0    0  501    0  0.00000000000E+00  0.00000000000E+00 -0.15337108050E+04  0.15337108050E+04  0.25500000920E-02 0.  1.
    10030    2    1    2    0    0  0.00000000000E+00  0.00000000000E+00  0.13442228979E+03  0.32018438999E+04  0.31990209451E+04 0.  0.
        5    1    3    3  502    0 -0.39344152785E+03  0.14851877377E+04  0.51238764493E+03  0.16196116945E+04  0.46999998093E+01 0. -1.
       -5    1    3    3    0  502  0.39344152785E+03 -0.14851877377E+04 -0.37796535514E+03  0.15822322054E+04  0.46999998093E+01 0.  1.
</event>
<event>
 5   0  0.3750285E-07  0.3203255E+04  0.7818609E-02  0.8187958E-01
       -2   -1    0    0    0  501  0.00000000000E+00  0.00000000000E+00  0.14672437615E+04  0.14672437615E+04  0.25500000920E-02 0. -1.
        2   -1    0    0  501    0  0.00000000000E+00  0.00000000000E+00 -0.17483197635E+04  0.17483197636E+04  0.25500000920E-02 0.  1.
    10030    2    1    2    0    0  0.00000000000E+00  0.00000000000E+00 -0.28107600203E+03  0.32155635251E+04  0.32032553855E+04 0.  0.
        1    1    3    3  502    0 -0.22841433843E+03  0.42988488332E+03 -0.16722571276E+04  0.17416710435E+04  0.50400001928E-02 0.  1.
       -1    1    3    3    0  502  0.22841433843E+03 -0.42988488332E+03  0.13911811256E+04  0.14738924815E+04  0.50400001928E-02 0. -1.
</event>
<event>
 5   0  0.3764056E-07  0.3202733E+04  0.7818609E-02  0.8188096E-01
        2   -1    0    0  501    0  0.00000000000E+00  0.00000000000E+00  0.22494142722E+04  0.22494142722E+04  0.25500000920E-02 0. -1.
       -2   -1    0    0    0  501  0.00000000000E+00  0.00000000000E+00 -0.11400191569E+04  0.11400191569E+04  0.25500000920E-02 0.  1.
    10030    2    1    2    0    0  0.00000000000E+00  0.00000000000E+00  0.11093951153E+04  0.33894334291E+04  0.32027334338E+04 0.  0.
        5    1    3    3  502    0  0.10703166151E+04  0.10908947346E+04  0.10608280030E+04  0.18603782198E+04  0.46999998093E+01 0. -1.
       -5    1    3    3    0  502 -0.10703166151E+04 -0.10908947346E+04  0.48567112240E+02  0.15290552093E+04  0.46999998093E+01 0.  1.
</event>
<event>
 5   0  0.3750285E-07  0.3171828E+04  0.7818609E-02  0.8196297E-01
       -2   -1    0    0    0  501  0.00000000000E+00  0.00000000000E+00  0.12269561568E+04  0.12269561568E+04  0.25500000920E-02 0. -1.
        2   -1    0    0  501    0  0.00000000000E+00  0.00000000000E+00 -0.20498888620E+04  0.20498888620E+04  0.25500000920E-02 0.  1.
    10030    2    1    2    0    0  0.00000000000E+00  0.00000000000E+00 -0.82293270517E+03  0.32768450189E+04  0.31718283435E+04 0.  0.
        1    1    3    3  502    0 -0.88812387260E+02 -0.13399936409E+04 -0.12829924928E+04  0.18572938201E+04  0.50400001928E-02 0. -1.
       -1    1    3    3    0  502  0.88812387260E+02  0.13399936409E+04  0.46005978762E+03  0.14195511987E+04  0.50400001928E-02 0.  1.
</event>
<event>
 5   0  0.1270948E-07  0.3200726E+04  0.7818609E-02  0.8188626E-01
        1   -1    0    0  501    0  0.00000000000E+00  0.00000000000E+00  0.16187166360E+04  0.16187166360E+04  0.50400001928E-02 0. -1.
       -1   -1    0    0    0  501  0.00000000000E+00  0.00000000000E+00 -0.15822171178E+04  0.15822171178E+04  0.50400001928E-02 0.  1.
    10030    2    1    2    0    0  0.00000000000E+00  0.00000000000E+00  0.36499518147E+02  0.32009337538E+04  0.32007256492E+04 0.  0.
        4    1    3    3  502    0  0.99683250327E+03  0.11622583003E+04  0.48372621735E+03  0.16057745989E+04  0.12699999809E+01 0.  1.
       -4    1    3    3    0  502 -0.99683250327E+03 -0.11622583003E+04 -0.44722669920E+03  0.15951591549E+04  0.12699999809E+01 0. -1.
</event>
<event>
 5   0  0.1365455E-07  0.3208736E+04  0.7818609E-02  0.8186514E-01
        1   -1    0    0  501    0  0.00000000000E+00  0.00000000000E+00  0.26779143255E+04  0.26779143256E+04  0.50400001928E-02 0. -1.
       -1   -1    0    0    0  501  0.00000000000E+00  0.00000000000E+00 -0.96119448829E+03  0.96119448830E+03  0.50400001928E-02 0.  1.
    10030    2    1    2    0    0  0.00000000000E+00  0.00000000000E+00  0.17167198373E+04  0.36391088139E+04  0.32087358818E+04 0.  0.
        3    1    3    3  502    0 -0.22072669345E+03 -0.98600816616E+03 -0.55500973281E+03  0.11528088266E+04  0.10100000352E+00 0.  1.
       -3    1    3    3    0  502  0.22072669345E+03  0.98600816616E+03  0.22717295701E+04  0.24862999873E+04  0.10100000352E+00 0. -1.
</event>
<event>
 5   0  0.3750285E-07  0.3202098E+04  0.7818609E-02  0.8188263E-01
       -2   -1    0    0    0  501  0.00000000000E+00  0.00000000000E+00  0.18401078316E+04  0.18401078316E+04  0.25500000920E-02 0. -1.
        2   -1    0    0  501    0  0.00000000000E+00  0.00000000000E+00 -0.13930475066E+04  0.13930475066E+04  0.25500000920E-02 0.  1.
    10030    2    1    2    0    0  0.00000000000E+00  0.00000000000E+00  0.44706032498E+03  0.32331553382E+04  0.32020978291E+04 0.  0.
        1    1    3    3  502    0  0.91150747844E+03  0.11963183918E+04  0.77779340533E+03  0.16932176940E+04  0.50400001928E-02 0. -1.
       -1    1    3    3    0  502 -0.91150747844E+03 -0.11963183918E+04 -0.33073308035E+03  0.15399376443E+04  0.50400001928E-02 0.  1.
</event>
<event>
 5   0  0.1288096E-07  0.3201124E+04  0.7818609E-02  0.8188520E-01
       -1   -1    0    0    0  501  0.00000000000E+00  0.00000000000E+00  0.16726583333E+04  0.16726583333E+04  0.50400001928E-02 0. -1.
        1   -1    0    0  501    0  0.00000000000E+00  0.00000000000E+00 -0.15315734800E+04  0.15315734800E+04  0.50400001928E-02 0.  1.
    10030    2    1    2    0    0  0.00000000000E+00  0.00000000000E+00  0.14108485328E+03  0.32042318133E+04  0.32011242677E+04 0.  0.
        2    1    3    3  502    0 -0.77649472477E+03 -0.52424593163E+03  0.13695006482E+04  0.16593100614E+04  0.25500000920E-02 0. -1.
       -2    1    3    3    0  502  0.77649472477E+03  0.52424593163E+03 -0.12284157949E+04  0.15449217519E+04  0.25500000920E-02 0.  1.
</event>
<event>
 5   0  0.3858721E-07  0.3197618E+04  0.7818609E-02  0.8189447E-01
       -2   -1    0    0    0  501  0.00000000000E+00  0.00000000000E+00  0.11166237792E+04  0.11166237792E+04  0.25500000920E-02 0.  1.
        2   -1    0    0  501    0  0.00000000000E+00  0.00000000000E+00 -0.22892129423E+04  0.22892129423E+04  0.25500000920E-02 0. -1.
    10030    2    1    2    0    0  0.00000000000E+00  0.00000000000E+00 -0.11725891632E+04  0.34058367215E+04  0.31976176176E+04 0.  0.
        2    1    3    3  502    0  0.97467747164E+03  0.44968789983E+03  0.67575629626E+03  0.12684092214E+04  0.25500000920E-02 0.  1.
       -2    1    3    3    0  502 -0.97467747164E+03 -0.44968789983E+03 -0.18483454594E+04  0.21374275001E+04  0.25500000920E-02 0. -1.
</event>
<event>
 5   0  0.1270948E-07  0.3214295E+04  0.7818609E-02  0.8185052E-01
       -1   -1    0    0    0  501  0.00000000000E+00  0.00000000000E+00  0.32212703649E+04  0.32212703649E+04  0.50400001928E-02 0.  1.
        1   -1    0    0  501    0  0.00000000000E+00  0.00000000000E+00 -0.80183351330E+03  0.80183351331E+03  0.50400001928E-02 0. -1.
    10030    2    1    2    0    0  0.00000000000E+00  0.00000000000E+00  0.24194368516E+04  0.40231038782E+04  0.32142946561E+04 0.  0.
        4    1    3    3  502    0  0.21170227075E+03 -0.30846829442E+03 -0.74656998959E+03  0.83506820222E+03  0.12699999809E+01 0. -1.
       -4    1    3    3    0  502 -0.21170227075E+03  0.30846829442E+03  0.31660068412E+04  0.31880356760E+04  0.12699999809E+01 0.  1.
</event>
<event>
 5   0  0.3764056E-07  0.3201171E+04  0.7818609E-02  0.8188508E-01
       -2   -1    0    0    0  501  0.00000000000E+00  0.00000000000E+00  0.12555786232E+04  0.12555786232E+04  0.25500000920E-02 0. -1.
        2   -1    0    0  501    0  0.00000000000E+00  0.00000000000E+00 -0.20403935065E+04  0.20403935065E+04  0.25500000920E-02 0.  1.
    10030    2    1    2    0    0  0.00000000000E+00  0.00000000000E+00 -0.78481488329E+03  0.32959721297E+04  0.32011713292E+04 0.  0.
        5    1    3    3  502    0 -0.14461319740E+04 -0.62940442649E+03 -0.67325779598E+03  0.17148602766E+04  0.46999998093E+01 0.  1.
       -5    1    3    3    0  502  0.14461319740E+04  0.62940442649E+03 -0.11155708731E+03  0.15811118531E+04  0.46999998093E+01 0. -1.
</event>
<event>
 5   0  0.1317293E-07  0.3199667E+04  0.7818609E-02  0.8188905E-01
       -1   -1    0    0    0  501  0.00000000000E+00  0.00000000000E+00  0.10697501243E+04  0.10697501243E+04  0.50400001928E-02 0.  1.
        1   -1    0    0  501    0  0.00000000000E+00  0.00000000000E+00 -0.23925837900E+04  0.23925837900E+04  0.50400001928E-02 0. -1.
    10030    2    1    2    0    0  0.00000000000E+00  0.00000000000E+00 -0.13228336657E+04  0.34623339143E+04  0.31996667369E+04 0.  0.
        1    1    3    3  502    0 -0.13830492982E+03 -0.15935233257E+04 -0.62682433386E+03  0.17179504034E+04  0.50400001928E-02 0.  1.
       -1    1    3    3    0  502  0.13830492982E+03  0.15935233257E+04 -0.69600933183E+03  0.17443835109E+04  0.50400001928E-02 0. -1.
</event>
<event>
 5   0  0.3750285E-07  0.3199704E+04  0.7818609E-02  0.8188895E-01
       -2   -1    0    0    0  501  0.00000000000E+00  0.00000000000E+00  0.16190758501E+04  0.16190758501E+04  0.25500000920E-02 0. -1.
        2   -1    0    0  501    0  0.00000000000E+00  0.00000000000E+00 -0.15808560595E+04  0.15808560595E+04  0.25500000920E-02 0.  1.
    10030    2    1    2    0    0  0.00000000000E+00  0.00000000000E+00  0.38219790627E+02  0.31999319096E+04  0.31997036540E+04 0.  0.
        1    1    3    3  502    0  0.74160005795E+03 -0.50213852060E+03  0.13448786808E+04  0.16158008559E+04  0.50400001928E-02 0. -1.
       -1    1    3    3    0  502 -0.74160005795E+03  0.50213852060E+03 -0.13066588902E+04  0.15841310537E+04  0.50400001928E-02 0.  1.
</event>
<event>
 5   0  0.1288096E-07  0.3203425E+04  0.7818609E-02  0.8187913E-01
       -1   -1    0    0    0  501  0.00000000000E+00  0.00000000000E+00  0.91844898090E+03  0.91844898091E+03  0.50400001928E-02 0.  1.
        1   -1    0    0  501    0  0.00000000000E+00  0.00000000000E+00 -0.27932778286E+04  0.27932778286E+04  0.50400001928E-02 0. -1.
    10030    2    1    2    0    0  0.00000000000E+00  0.00000000000E+00 -0.18748288477E+04  0.37117268095E+04  0.32034251513E+04 0.  0.
        2    1    3    3  502    0  0.46474179641E+03  0.69824317277E+02  0.83676653895E+03  0.95970756657E+03  0.25500000920E-02 0.  1.
       -2    1    3    3    0  502 -0.46474179641E+03 -0.69824317277E+02 -0.27115953866E+04  0.27520192429E+04  0.25500000920E-02 0. -1.
</event>
<event>
 5   0  0.1288096E-07  0.3167728E+04  0.7818609E-02  0.8197392E-01
       -1   -1    0    0    0  501  0.00000000000E+00  0.00000000000E+00  0.81235652991E+03  0.81235652992E+03  0.50400001928E-02 0. -1.
        1   -1    0    0  501    0  0.00000000000E+00  0.00000000000E+00 -0.30880847299E+04  0.30880847299E+04  0.50400001928E-02 0.  1.
    10030    2    1    2    0    0  0.00000000000E+00  0.00000000000E+00 -0.22757282000E+04  0.39004412598E+04  0.31677283944E+04 0.  0.
        2    1    3    3  502    0  0.26914522266E+02 -0.12645329144E+04  0.35989133424E+02  0.12653312218E+04  0.25500000920E-02 0.  1.
       -2    1    3    3    0  502 -0.26914522266E+02  0.12645329144E+04 -0.23117173334E+04  0.26351100380E+04  0.25500000920E-02 0. -1.
</event>
<event>
 5   0  0.1277374E-07  0.3205088E+04  0.7818609E-02  0.8187475E-01
       -1   -1    0    0    0  501  0.00000000000E+00  0.00000000000E+00  0.11794644590E+04  0.11794644591E+04  0.50400001928E-02 0.  1.
        1   -1    0    0  501    0  0.00000000000E+00  0.00000000000E+00 -0.21773835542E+04  0.21773835542E+04  0.50400001928E-02 0. -1.
    10030    2    1    2    0    0  0.00000000000E+00  0.00000000000E+00 -0.99791909515E+03  0.33568480133E+04  0.32050875282E+04 0.  0.
        5    1    3    3  502    0  0.77956723136E+03 -0.67432593194E+03 -0.17841239473E+04  0.20604758868E+04  0.46999998093E+01 0. -1.
       -5    1    3    3    0  502 -0.77956723136E+03  0.67432593194E+03  0.78620485217E+03  0.12963721265E+04  0.46999998093E+01 0.  1.
</event>
<event>
 5   0  0.1277374E-07  0.3198714E+04  0.7818609E-02  0.8189157E-01
        1   -1    0    0  501    0  0.00000000000E+00  0.00000000000E+00  0.16138128913E+04  0.16138128913E+04  0.50400001928E-02 0. -1.
       -1   -1    0    0    0  501  0.00000000000E+00  0.00000000000E+00 -0.15850306467E+04  0.15850306467E+04  0.50400001928E-02 0.  1.
    10030    2    1    2    0    0  0.00000000000E+00  0.00000000000E+00  0.28782244575E+02  0.31988435380E+04  0.31987140483E+04 0.  0.
        5    1    3    3  502    0  0.11368748388E+04  0.11058615656E+04 -0.19178851004E+03  0.15975666259E+04  0.46999998093E+01 0. -1.
       -5    1    3    3    0  502 -0.11368748388E+04 -0.11058615656E+04  0.22057075462E+03  0.16012769121E+04  0.46999998093E+01 0.  1.
</event>
<event>
 5   0  0.1270948E-07  0.3167981E+04  0.7818609E-02  0.8197325E-01
       -1   -1    0    0    0  501  0.00000000000E+00  0.00000000000E+00  0.10893388589E+04  0.10893388589E+04  0.50400001928E-02 0. -1.
        1   -1    0    0  501    0  0.00000000000E+00  0.00000000000E+00 -0.23032552498E+04  0.23032552498E+04  0.50400001928E-02 0.  1.
    10030    2    1    2    0    0  0.00000000000E+00  0.00000000000E+00 -0.12139163909E+04  0.33925941087E+04  0.31679807106E+04 0.  0.
        4    1    3    3  502    0 -0.78797908585E+03 -0.53816094639E+03 -0.19609158944E+04  0.21807615646E+04  0.12699999809E+01 0.  1.
       -4    1    3    3    0  502  0.78797908585E+03  0.53816094639E+03  0.74699950349E+03  0.12118325442E+04  0.12699999809E+01 0. -1.
</event>
<event>
 5   0  0.3830207E-07  0.3199842E+04  0.7818609E-02  0.8188859E-01
       -2   -1    0    0    0  501  0.00000000000E+00  0.00000000000E+00  0.14542326665E+04  0.14542326665E+04  0.25500000920E-02 0.  1.
        2   -1    0    0  501    0  0.00000000000E+00  0.00000000000E+00 -0.17602045740E+04  0.17602045740E+04  0.25500000920E-02 0. -1.
    10030    2    1    2    0    0  0.00000000000E+00  0.00000000000E+00 -0.30597190750E+03  0.32144372404E+04  0.31998418656E+04 0.  0.
        4    1    3    3  502    0  0.99422096594E+03 -0.10298077195E+04  0.56495292322E+03  0.15388803354E+04  0.12699999809E+01 0.  1.
       -4    1    3    3    0  502 -0.99422096594E+03  0.10298077195E+04 -0.87092483072E+03  0.16755569050E+04  0.12699999809E+01 0. -1.
</event>
<event>
 5   0  0.3750285E-07  0.3197283E+04  0.7818609E-02  0.8189535E-01
       -2   -1    0    0    0  501  0.00000000000E+00  0.00000000000E+00  0.13649085079E+04  0.13649085079E+04  0.25500000920E-02 0. -1.
        2   -1    0    0  501    0  0.00000000000E+00  0.00000000000E+00 -0.18724003286E+04  0.18724003286E+04  0.25500000920E-02 0.  1.
    10030    2    1    2    0    0  0.00000000000E+00  0.00000000000E+00 -0.50749182072E+03  0.32373088364E+04  0.31972833084E+04 0.  0.
        1    1    3    3  502    0  0.48034865863E+03 -0.15131185063E+04 -0.63261339954E+02  0.15887933928E+04  0.50400001928E-02 0. -1.
       -1    1    3    3    0  502 -0.48034865863E+03  0.15131185063E+04 -0.44423048077E+03  0.16485154436E+04  0.50400001928E-02 0.  1.
</event>
<event>
 5   0  0.3764056E-07  0.3200646E+04  0.7818609E-02  0.8188647E-01
       -2   -1    0    0    0  501  0.00000000000E+00  0.00000000000E+00  0.11442757682E+04  0.11442757682E+04  0.25500000920E-02 0.  1.
        2   -1    0    0  501    0  0.00000000000E+00  0.00000000000E+00 -0.22381266345E+04  0.22381266345E+04  0.25500000920E-02 0. -1.
    10030    2    1    2    0    0  0.00000000000E+00  0.00000000000E+00 -0.10938508663E+04  0.33824024027E+04  0.32006462311E+04 0.  0.
        5    1    3    3  502    0 -0.59628935141E+02  0.90686503025E+03  0.84508942747E+03  0.12410310324E+04  0.46999998093E+01 0.  1.
       -5    1    3    3    0  502  0.59628935141E+02 -0.90686503025E+03 -0.19389402937E+04  0.21413713703E+04  0.46999998093E+01 0. -1.
</event>
<event>
 5   0  0.3858721E-07  0.3200516E+04  0.7818609E-02  0.8188681E-01
       -2   -1    0    0    0  501  0.00000000000E+00  0.00000000000E+00  0.10822405332E+04  0.10822405332E+04  0.25500000920E-02 0.  1.
        2   -1    0    0  501    0  0.00000000000E+00  0.00000000000E+00 -0.23662254881E+04  0.23662254881E+04  0.25500000920E-02 0. -1.
    10030    2    1    2    0    0  0.00000000000E+00  0.00000000000E+00 -0.12839849549E+04  0.34484660213E+04  0.32005156672E+04 0.  0.
        2    1    3    3  502    0 -0.15537571258E+04  0.76207615538E+01 -0.22943767526E+03  0.15706243755E+04  0.25500000920E-02 0. -1.
       -2    1    3    3    0  502  0.15537571258E+04 -0.76207615538E+01 -0.10545472796E+04  0.18778416459E+04  0.25500000920E-02 0.  1.
</event>
<event>
 5   0  0.1288096E-07  0.3198173E+04  0.7818609E-02  0.8189300E-01
       -1   -1    0    0    0  501  0.00000000000E+00  0.00000000000E+00  0.30917037240E+04  0.30917037240E+04  0.50400001928E-02 0. -1.
        1   -1    0    0  501    0  0.00000000000E+00  0.00000000000E+00 -0.82707744207E+03  0.82707744209E+03  0.50400001928E-02 0.  1.
    10030    2    1    2    0    0  0.00000000000E+00  0.00000000000E+00  0.22646262819E+04  0.39187811660E+04  0.31981734835E+04 0.  0.
        2    1    3    3  502    0 -0.12189999979E+04  0.18735731776E+03  0.23795011937E+04  0.26801286705E+04  0.25500000920E-02 0. -1.
       -2    1    3    3    0  502  0.12189999979E+04 -0.18735731776E+03 -0.11487491179E+03  0.12386524956E+04  0.25500000920E-02 0.  1.
</event>
<event>
 5   0  0.1317293E-07  0.3198938E+04  0.7818609E-02  0.8189098E-01
       -1   -1    0    0    0  501  0.00000000000E+00  0.00000000000E+00  0.13446124841E+04  0.13446124841E+04  0.50400001928E-02 0.  1.
        1   -1    0    0  501    0  0.00000000000E+00  0.00000000000E+00 -0.19026304299E+04  0.19026304299E+04  0.50400001928E-02 0. -1.
    10030    2    1    2    0    0  0.00000000000E+00  0.00000000000E+00 -0.55801794579E+03  0.32472429141E+04  0.31989377167E+04 0.  0.
        1    1    3    3  502    0 -0.14025687273E+04  0.63691708893E+03  0.15811901453E+03  0.15485038055E+04  0.50400001928E-02 0.  1.
       -1    1    3    3    0  502  0.14025687273E+04 -0.63691708893E+03 -0.71613696032E+03  0.16987391085E+04  0.50400001928E-02 0. -1.
</event>
<event>
 5   0  0.3764056E-07  0.3135225E+04  0.7818609E-02  0.8206137E-01
        2   -1    0    0  501    0  0.00000000000E+00  0.00000000000E+00  0.17013825278E+04  0.17013825278E+04  0.25500000920E-02 0. -1.
       -2   -1    0    0    0  501  0.00000000000E+00  0.00000000000E+00 -0.14443598214E+04  0.14443598214E+04  0.25500000920E-02 0.  1.
    10030    2    1    2    0    0  0.00000000000E+00  0.00000000000E+00  0.25702270644E+03  0.31457423492E+04  0.31352247537E+04 0.  0.
        5    1    3    3  502    0 -0.11334107194E+04  0.27809069008E+03  0.11786513933E+04  0.16586728091E+04  0.46999998093E+01 0. -1.
       -5    1    3    3    0  502  0.11334107194E+04 -0.27809069008E+03 -0.92162868686E+03  0.14870695401E+04  0.46999998093E+01 0.  1.
</event>
<event>
 5   0  0.3750285E-07  0.3198472E+04  0.7818609E-02  0.8189221E-01
        2   -1    0    0  501    0  0.00000000000E+00  0.00000000000E+00  0.18479547695E+04  0.18479547695E+04  0.25500000920E-02 0.  1.
       -2   -1    0    0    0  501  0.00000000000E+00  0.00000000000E+00 -0.13839927128E+04  0.13839927128E+04  0.25500000920E-02 0. -1.
    10030    2    1    2    0    0  0.00000000000E+00  0.00000000000E+00  0.46396205670E+03  0.32319474823E+04  0.31984720943E+04 0.  0.
        1    1    3    3  502    0  0.14145978167E+04 -0.62049514869E+03 -0.18642357523E+03  0.15559096895E+04  0.50400001928E-02 0. -1.
       -1    1    3    3    0  502 -0.14145978167E+04  0.62049514869E+03  0.65038563193E+03  0.16760377928E+04  0.50400001928E-02 0.  1.
</event>
<event>
 5   0  0.1277374E-07  0.3194979E+04  0.7818609E-02  0.8190144E-01
       -1   -1    0    0    0  501  0.00000000000E+00  0.00000000000E+00  0.79502678611E+03  0.79502678613E+03  0.50400001928E-02 0. -1.
        1   -1    0    0  501    0  0.00000000000E+00  0.00000000000E+00 -0.32099210995E+04  0.32099210995E+04  0.50400001928E-02 0.  1.
    10030    2    1    2    0    0  0.00000000000E+00  0.00000000000E+00 -0.24148943134E+04  0.40049478856E+04  0.31949793461E+04 0.  0.
        5    1    3    3  502    0 -0.19018584639E+03 -0.14901029773E+04 -0.18887099512E+04  0.24132602240E+04  0.46999998093E+01 0. -1.
       -5    1    3    3    0  502  0.19018584639E+03  0.14901029773E+04 -0.52618436214E+03  0.15916876616E+04  0.46999998093E+01 0.  1.
</event>
<event>
 5   0  0.1365455E-07  0.3200745E+04  0.7818609E-02  0.8188620E-01
        1   -1    0    0  501    0  0.00000000000E+00  0.00000000000E+00  0.30185885326E+04  0.30185885326E+04  0.50400001928E-02 0.  1.
       -1   -1    0    0    0  501  0.00000000000E+00  0.00000000000E+00 -0.84847359129E+03  0.84847359130E+03  0.50400001928E-02 0. -1.
    10030    2    1    2    0    0  0.00000000000E+00  0.00000000000E+00  0.21701149413E+04  0.38670621239E+04  0.32007453213E+04 0.  0.
        3    1    3    3  502    0 -0.34041761403E+03 -0.15534647744E+04  0.86874449870E+03  0.18121407151E+04  0.10100000352E+00 0. -1.
       -3    1    3    3    0  502  0.34041761403E+03  0.15534647744E+04  0.13013704426E+04  0.20549214088E+04  0.10100000352E+00 0.  1.
</event>
<event>
 5   0  0.3764056E-07  0.3210010E+04  0.7818609E-02  0.8186179E-01
       -2   -1    0    0    0  501  0.00000000000E+00  0.00000000000E+00  0.12545439405E+04  0.12545439405E+04  0.25500000920E-02 0.  1.
        2   -1    0    0  501    0  0.00000000000E+00  0.00000000000E+00 -0.20533686511E+04  0.20533686511E+04  0.25500000920E-02 0. -1.
    10030    2    1    2    0    0  0.00000000000E+00  0.00000000000E+00 -0.79882471057E+03  0.33079125916E+04  0.32100100928E+04 0.  0.
        5    1    3    3  502    0  0.81388164960E+03  0.16134667842E+03  0.10163835702E+04  0.13120570651E+04  0.46999998093E+01 0.  1.
       -5    1    3    3    0  502 -0.81388164960E+03 -0.16134667842E+03 -0.18152082808E+04  0.19958555266E+04  0.46999998093E+01 0. -1.
</event>
<event>
 5   0  0.1365455E-07  0.3197576E+04  0.7818609E-02  0.8189458E-01
        1   -1    0    0  501    0  0.00000000000E+00  0.00000000000E+00  0.17908194725E+04  0.17908194725E+04  0.50400001928E-02 0. -1.
       -1   -1    0    0    0  501  0.00000000000E+00  0.00000000000E+00 -0.14273487110E+04  0.14273487111E+04  0.50400001928E-02 0.  1.
    10030    2    1    2    0    0  0.00000000000E+00  0.00000000000E+00  0.36347076141E+03  0.32181681835E+04  0.31975764984E+04 0.  0.
        3    1    3    3  502    0  0.11600017366E+03 -0.13638192524E+04 -0.64982074722E+03  0.15151653399E+04  0.10100000352E+00 0.  1.
       -3    1    3    3    0  502 -0.11600017366E+03  0.13638192524E+04  0.10132915086E+04  0.17030028436E+04  0.10100000352E+00 0. -1.
</event>
<event>
 5   0  0.3764056E-07  0.3203041E+04  0.7818609E-02  0.8188015E-01
        2   -1    0    0  501    0  0.00000000000E+00  0.00000000000E+00  0.17567652358E+04  0.17567652358E+04  0.25500000920E-02 0.  1.
       -2   -1    0    0    0  501  0.00000000000E+00  0.00000000000E+00 -0.14599945745E+04  0.14599945745E+04  0.25500000920E-02 0. -1.
    10030    2    1    2    0    0  0.00000000000E+00  0.00000000000E+00  0.29677066135E+03  0.32167598103E+04  0.32030408757E+04 0.  0.
        5    1    3    3  502    0  0.75217366820E+03  0.12302729008E+04 -0.55138381416E+03  0.15438208569E+04  0.46999998093E+01 0. -1.
       -5    1    3    3    0  502 -0.75217366820E+03 -0.12302729008E+04  0.84815447551E+03  0.16729389534E+04  0.46999998093E+01 0.  1.
</event>
<event>
 5   0  0.1288096E-07  0.3200931E+04  0.7818609E-02  0.8188571E-01
        1   -1    0    0  501    0  0.00000000000E+00  0.00000000000E+00  0.24259836766E+04  0.24259836766E+04  0.50400001928E-02 0.  1.
       -1   -1    0    0    0  501  0.00000000000E+00  0.00000000000E+00 -0.10558561850E+04  0.10558561850E+04  0.50400001928E-02 0. -1.
    10030    2    1    2    0    0  0.00000000000E+00  0.00000000000E+00  0.13701274915E+04  0.34818398616E+04  0.32009310331E+04 0.  0.
        2    1    3    3  502    0 -0.80725475241E+03  0.13639504573E+04  0.44312908307E+03  0.16457170077E+04  0.25500000920E-02 0.  1.
       -2    1    3    3    0  502  0.80725475241E+03 -0.13639504573E+04  0.92699840848E+03  0.18361228539E+04  0.25500000920E-02 0. -1.
</event>
<event>
 5   0  0.3750285E-07  0.3199565E+04  0.7818609E-02  0.8188932E-01
        2   -1    0    0  501    0  0.00000000000E+00  0.00000000000E+00  0.14318728547E+04  0.14318728547E+04  0.25500000920E-02 0.  1.
       -2   -1    0    0    0  501  0.00000000000E+00  0.00000000000E+00 -0.17873823654E+04  0.17873823654E+04  0.25500000920E-02 0. -1.
    10030    2    1    2    0    0  0.00000000000E+00  0.00000000000E+00 -0.35550951068E+03  0.32192552202E+04  0.31995651518E+04 0.  0.
        1    1    3    3  502    0  0.14984977927E+04 -0.71762037897E+02 -0.73674448436E+03  0.16713580885E+04  0.50400001928E-02 0. -1.
       -1    1    3    3    0  502 -0.14984977927E+04  0.71762037897E+02  0.38123497368E+03  0.15478971316E+04  0.50400001928E-02 0.  1.
</event>
<event>
 5   0  0.1288096E-07  0.3203427E+04  0.7818609E-02  0.8187913E-01
        1   -1    0    0  501    0  0.00000000000E+00  0.00000000000E+00  0.20760902825E+04  0.20760902826E+04  0.50400001928E-02 0.  1.
       -1   -1    0    0    0  501  0.00000000000E+00  0.00000000000E+00 -0.12357298991E+04  0.12357298991E+04  0.50400001928E-02 0. -1.
    10030    2    1    2    0    0  0.00000000000E+00  0.00000000000E+00  0.84036038350E+03  0.33118201816E+04  0.32034274365E+04 0.  0.
        2    1    3    3  502    0 -0.94300667461E+02 -0.15912434062E+04  0.25823162250E+03  0.16148163254E+04  0.25500000920E-02 0.  1.
       -2    1    3    3    0  502  0.94300667461E+02  0.15912434062E+04  0.58212876100E+03  0.16970038563E+04  0.25500000920E-02 0. -1.
</event>
<event>
 5   0  0.3830207E-07  0.3200699E+04  0.7818609E-02  0.8188633E-01
        2   -1    0    0  501    0  0.00000000000E+00  0.00000000000E+00  0.27662385894E+04  0.27662385894E+04  0.25500000920E-02 0.  1.
       -2   -1    0    0    0  501  0.00000000000E+00  0.00000000000E+00 -0.92584890796E+03  0.92584890796E+03  0.25500000920E-02 0. -1.
    10030    2    1    2    0    0  0.00000000000E+00  0.00000000000E+00  0.18403896815E+04  0.36920874974E+04  0.32006992843E+04 0.  0.
        4    1    3    3  502    0  0.73274567441E+03 -0.12994545187E+04  0.25192718354E+03  0.15129333060E+04  0.12699999809E+01 0.  1.
       -4    1    3    3    0  502 -0.73274567441E+03  0.12994545187E+04  0.15884624979E+04  0.21791541914E+04  0.12699999809E+01 0. -1.
</event>
<event>
 5   0  0.1270948E-07  0.3201298E+04  0.7818609E-02  0.8188475E-01
       -1   -1    0    0    0  501  0.00000000000E+00  0.00000000000E+00  0.19813335695E+04  0.19813335695E+04  0.50400001928E-02 0.  1.
        1   -1    0    0  501    0  0.00000000000E+00  0.00000000000E+00 -0.12931070929E+04  0.12931070929E+04  0.50400001928E-02 0. -1.
    10030    2    1    2    0    0  0.00000000000E+00  0.00000000000E+00  0.68822647660E+03  0.32744406624E+04  0.32012975445E+04 0.  0.
        4    1    3    3  502    0  0.10732022616E+04 -0.90570702985E+03 -0.44155555583E+03  0.14720873752E+04  0.12699999809E+01 0. -1.
       -4    1    3    3    0  502 -0.10732022616E+04  0.90570702985E+03  0.11297820324E+04  0.18023532872E+04  0.12699999809E+01 0.  1.
</event>
<event>
 5   0  0.1288096E-07  0.3196205E+04  0.7818609E-02  0.8189820E-01
       -1   -1    0    0    0  501  0.00000000000E+00  0.00000000000E+00  0.11583939001E+04  0.11583939001E+04  0.50400001928E-02 0.  1.
        1   -1    0    0  501    0  0.00000000000E+00  0.00000000000E+00 -0.22047180517E+04  0.22047180517E+04  0.50400001928E-02 0. -1.
    10030    2    1    2    0    0  0.00000000000E+00  0.00000000000E+00 -0.10463241516E+04  0.33631119519E+04  0.31962052141E+04 0.  0.
        2    1    3    3  502    0  0.79473134315E+03  0.13158165479E+03  0.92913837801E+03  0.12297193847E+04  0.25500000920E-02 0.  1.
       -2    1    3    3    0  502 -0.79473134315E+03 -0.13158165479E+03 -0.19754625296E+04  0.21333925671E+04  0.25500000920E-02 0. -1.
</event>
<event>
 5   0  0.1277374E-07  0.3176661E+04  0.7818609E-02  0.8195008E-01
        1   -1    0    0  501    0  0.00000000000E+00  0.00000000000E+00  0.21656957249E+04  0.21656957249E+04  0.50400001928E-02 0. -1.
       -1   -1    0    0    0  501  0.00000000000E+00  0.00000000000E+00 -0.11648884835E+04  0.11648884835E+04  0.50400001928E-02 0.  1.
    10030    2    1    2    0    0  0.00000000000E+00  0.00000000000E+00  0.10008072414E+04  0.33305842085E+04  0.31766611458E+04 0.  0.
        5    1    3    3  502    0 -0.59958501590E+03  0.73907126541E+03  0.18336498511E+04  0.20659192611E+04  0.46999998093E+01 0. -1.
       -5    1    3    3    0  502  0.59958501590E+03 -0.73907126541E+03 -0.83284260970E+03  0.12646649474E+04  0.46999998093E+01 0.  1.
</event>
<event>
 5   0  0.1288096E-07  0.3207670E+04  0.7818609E-02  0.8186795E-01
        1   -1    0    0  501    0  0.00000000000E+00  0.00000000000E+00  0.26650060803E+04  0.26650060803E+04  0.50400001928E-02 0.  1.
       -1   -1    0    0    0  501  0.00000000000E+00  0.00000000000E+00 -0.96520831398E+03  0.96520831399E+03  0.50400001928E-02 0. -1.
    10030    2    1    2    0    0  0.00000000000E+00  0.00000000000E+00  0.16997977663E+04  0.36302143943E+04  0.32076695750E+04 0.  0.
        2    1    3    3  502    0  0.10412534635E+04 -0.82047943216E+03  0.18715258409E+04  0.22934699141E+04  0.25500000920E-02 0.  1.
       -2    1    3    3    0  502 -0.10412534635E+04  0.82047943216E+03 -0.17172807452E+03  0.13367444802E+04  0.25500000920E-02 0. -1.
</event>
<event>
 5   0  0.1365455E-07  0.3205010E+04  0.7818609E-02  0.8187495E-01
        1   -1    0    0  501    0  0.00000000000E+00  0.00000000000E+00  0.28124238456E+04  0.28124238456E+04  0.50400001928E-02 0. -1.
       -1   -1    0    0    0  501  0.00000000000E+00  0.00000000000E+00 -0.91309933790E+03  0.91309933791E+03  0.50400001928E-02 0.  1.
    10030    2    1    2    0    0  0.00000000000E+00  0.00000000000E+00  0.18993245077E+04  0.37255231835E+04  0.32050100476E+04 0.  0.
        3    1    3    3  502    0  0.66350175911E+03 -0.65581812968E+03 -0.56489994530E+03  0.10906163221E+04  0.10100000352E+00 0.  1.
       -3    1    3    3    0  502 -0.66350175911E+03  0.65581812968E+03  0.24642244530E+04  0.26349068614E+04  0.10100000352E+00 0. -1.
</event>
<event>
 5   0  0.1277374E-07  0.3179841E+04  0.7818609E-02  0.8194161E-01
        1   -1    0    0  501    0  0.00000000000E+00  0.00000000000E+00  0.19336540234E+04  0.19336540234E+04  0.50400001928E-02 0. -1.
       -1   -1    0    0    0  501  0.00000000000E+00  0.00000000000E+00 -0.13072906012E+04  0.13072906012E+04  0.50400001928E-02 0.  1.
    10030    2    1    2    0    0  0.00000000000E+00  0.00000000000E+00  0.62636342217E+03  0.32409446246E+04  0.31798413361E+04 0.  0.
        5    1    3    3  502    0  0.45108293729E+03 -0.15206275219E+04  0.20133809123E+03  0.15988567771E+04  0.46999998093E+01 0. -1.
       -5    1    3    3    0  502 -0.45108293729E+03  0.15206275219E+04  0.42502533094E+03  0.16420878474E+04  0.46999998093E+01 0.  1.
</event>
<event>
 5   0  0.1277374E-07  0.3205500E+04  0.7818609E-02  0.8187366E-01
        1   -1    0    0  501    0  0.00000000000E+00  0.00000000000E+00  0.19179817065E+04  0.19179817065E+04  0.50400001928E-02 0. -1.
       -1   -1    0    0    0  501  0.00000000000E+00  0.00000000000E+00 -0.13393285686E+04  0.13393285686E+04  0.50400001928E-02 0.  1.
    10030    2    1    2    0    0  0.00000000000E+00  0.00000000000E+00  0.57865313788E+03  0.32573102751E+04  0.32055000818E+04 0.  0.
        5    1    3    3  502    0 -0.45994171644E+03  0.54582016842E+03 -0.11689006813E+04  0.13696046625E+04  0.46999998093E+01 0.  1.
       -5    1    3    3    0  502  0.45994171644E+03 -0.54582016842E+03  0.17475538192E+04  0.18877056126E+04  0.46999998093E+01 0. -1.
</event>
<event>
 5   0  0.1277374E-07  0.3147189E+04  0.7818609E-02  0.8202905E-01
        1   -1    0    0  501    0  0.00000000000E+00  0.00000000000E+00  0.15396301726E+04  0.15396301726E+04  0.50400001928E-02 0. -1.
       -1   -1    0    0    0  501  0.00000000000E+00  0.00000000000E+00 -0.16083078688E+04  0.16083078688E+04  0.50400001928E-02 0.  1.
    10030    2    1    2    0    0  0.00000000000E+00  0.00000000000E+00 -0.68677696193E+02  0.31479380413E+04  0.31471887910E+04 0.  0.
        5    1    3    3  502    0 -0.10327306605E+04  0.11187101681E+04  0.36341418608E+03  0.15652913524E+04  0.46999998093E+01 0.  1.
       -5    1    3    3    0  502  0.10327306605E+04 -0.11187101681E+04 -0.43209188227E+03  0.15826466889E+04  0.46999998093E+01 0. -1.
</event>
<event>
 5   0  0.3830207E-07  0.3199417E+04  0.7818609E-02  0.8188971E-01
       -2   -1    0    0    0  501  0.00000000000E+00  0.00000000000E+00  0.21136711763E+04  0.21136711763E+04  0.25500000920E-02 0. -1.
        2   -1    0    0  501    0  0.00000000000E+00  0.00000000000E+00 -0.12107218356E+04  0.12107218356E+04  0.25500000920E-02 0.  1.
    10030    2    1    2    0    0  0.00000000000E+00  0.00000000000E+00  0.90294934067E+03  0.33243930120E+04  0.31994173510E+04 0.  0.
        4    1    3    3  502    0 -0.14107396741E+04 -0.69739705361E+03  0.74995353777E+03  0.17432673347E+04  0.12699999809E+01 0. -1.
       -4    1    3    3    0  502  0.14107396741E+04  0.69739705361E+03  0.15299580291E+03  0.15811256772E+04  0.12699999809E+01 0.  1.
</event>
<event>
 5   0  0.1270948E-07  0.3196592E+04  0.7818609E-02  0.8189718E-01
       -1   -1    0    0    0  501  0.00000000000E+00  0.00000000000E+00  0.14058974827E+04  0.14058974827E+04  0.50400001928E-02 0.  1.
        1   -1    0    0  501    0  0.00000000000E+00  0.00000000000E+00 -0.18170243661E+04  0.18170243661E+04  0.50400001928E-02 0. -1.
    10030    2    1    2    0    0  0.00000000000E+00  0.00000000000E+00 -0.41112688347E+03  0.32229218488E+04  0.31965919241E+04 0.  0.
        4    1    3    3  502    0  0.51877726155E+03 -0.46820384767E+03  0.12437060231E+04  0.14265871774E+04  0.12699999809E+01 0.  1.
       -4    1    3    3    0  502 -0.51877726155E+03  0.46820384767E+03 -0.16548329065E+04  0.17963346714E+04  0.12699999809E+01 0. -1.
</event>
<event>
 5   0  0.3942564E-07  0.3209346E+04  0.7818609E-02  0.8186353E-01
        2   -1    0    0  501    0  0.00000000000E+00  0.00000000000E+00  0.13496895864E+04  0.13496895864E+04  0.25500000920E-02 0. -1.
       -2   -1    0    0    0  501  0.00000000000E+00  0.00000000000E+00 -0.19078282915E+04  0.19078282915E+04  0.25500000920E-02 0.  1.
    10030    2    1    2    0    0  0.00000000000E+00  0.00000000000E+00 -0.55813870513E+03  0.32575178779E+04  0.32093463370E+04 0.  0.
        3    1    3    3  502    0  0.13972754347E+04  0.46493791636E+03 -0.92615703438E+03  0.17396300667E+04  0.10100000352E+00 0.  1.
       -3    1    3    3    0  502 -0.13972754347E+04 -0.46493791636E+03  0.36801832925E+03  0.15178878112E+04  0.10100000352E+00 0. -1.
</event>
<event>
 5   0  0.3750285E-07  0.3202187E+04  0.7818609E-02  0.8188240E-01
       -2   -1    0    0    0  501  0.00000000000E+00  0.00000000000E+00  0.18113405408E+04  0.18113405408E+04  0.25500000920E-02 0.  1.
        2   -1    0    0  501    0  0.00000000000E+00  0.00000000000E+00 -0.14152500570E+04  0.14152500570E+04  0.25500000920E-02 0. -1.
    10030    2    1    2    0    0  0.00000000000E+00  0.00000000000E+00  0.39609048383E+03  0.32265905978E+04  0.32021866302E+04 0.  0.
        1    1    3    3  502    0 -0.12333681816E+04  0.96170069411E+03 -0.14725357403E+03  0.15709070346E+04  0.50400001928E-02 0.  1.
       -1    1    3    3    0  502  0.12333681816E+04 -0.96170069411E+03  0.54334405785E+03  0.16556835632E+04  0.50400001928E-02 0. -1.
</event>
<event>
 5   0  0.1270948E-07  0.3210218E+04  0.7818609E-02  0.8186124E-01
       -1   -1    0    0    0  501  0.00000000000E+00  0.00000000000E+00  0.16493115480E+04  0.16493115480E+04  0.50400001928E-02 0.  1.
        1   -1    0    0  501    0  0.00000000000E+00  0.00000000000E+00 -0.15620912641E+04  0.15620912642E+04  0.50400001928E-02 0. -1.
    10030    2    1    2    0    0  0.00000000000E+00  0.00000000000E+00  0.87220283869E+02  0.32114028122E+04  0.32102181615E+04 0.  0.
        4    1    3    3  502    0 -0.37445986630E+03  0.31458184045E+02  0.16046871239E+04  0.16480995683E+04  0.12699999809E+01 0.  1.
       -4    1    3    3    0  502  0.37445986630E+03 -0.31458184045E+02 -0.15174668400E+04  0.15633032438E+04  0.12699999809E+01 0. -1.
</event>
<event>
 5   0  0.3750285E-07  0.3128293E+04  0.7818609E-02  0.8208016E-01
        2   -1    0    0  501    0  0.00000000000E+00  0.00000000000E+00  0.23750080192E+04  0.23750080192E+04  0.25500000920E-02 0. -1.
       -2   -1    0    0    0  501  0.00000000000E+00  0.00000000000E+00 -0.10301248437E+04  0.10301248437E+04  0.25500000920E-02 0.  1.
    10030    2    1    2    0    0  0.00000000000E+00  0.00000000000E+00  0.13448831755E+04  0.34051328630E+04  0.31282933141E+04 0.  0.
        1    1    3    3  502    0  0.65536100797E+03 -0.10430939841E+04  0.17215906014E+04  0.21169358302E+04  0.50400001928E-02 0. -1.
       -1    1    3    3    0  502 -0.65536100797E+03  0.10430939841E+04 -0.37670742592E+03  0.12881970327E+04  0.50400001928E-02 0.  1.
</event>
<event>
 5   0  0.3942564E-07  0.3144860E+04  0.7818609E-02  0.8203533E-01
       -2   -1    0    0    0  501  0.00000000000E+00  0.00000000000E+00  0.12457423523E+04  0.12457423523E+04  0.25500000920E-02 0. -1.
        2   -1    0    0  501    0  0.00000000000E+00  0.00000000000E+00 -0.19847895127E+04  0.19847895127E+04  0.25500000920E-02 0.  1.
    10030    2    1    2    0    0  0.00000000000E+00  0.00000000000E+00 -0.73904716044E+03  0.32305318650E+04  0.31448601599E+04 0.  0.
        3    1    3    3  502    0 -0.29790995510E+03  0.12771863696E+04 -0.12606704995E+04  0.18191331679E+04  0.10100000352E+00 0.  1.
       -3    1    3    3    0  502  0.29790995510E+03 -0.12771863696E+04  0.52162333910E+03  0.14113986971E+04  0.10100000352E+00 0. -1.
</event>
<event>
 5   0  0.1288096E-07  0.3200048E+04  0.7818609E-02  0.8188805E-01
        1   -1    0    0  501    0  0.00000000000E+00  0.00000000000E+00  0.14813332791E+04  0.14813332791E+04  0.50400001928E-02 0.  1.
       -1   -1    0    0    0  501  0.00000000000E+00  0.00000000000E+00 -0.17282244052E+04  0.17282244052E+04  0.50400001928E-02 0. -1.
    10030    2    1    2    0    0  0.00000000000E+00  0.00000000000E+00 -0.24689112614E+03  0.32095576843E+04  0.32000477028E+04 0.  0.
        2    1    3    3  502    0 -0.40930424913E+03  0.71152535599E+03 -0.15009454940E+04  0.17107412652E+04  0.25500000920E-02 0. -1.
       -2    1    3    3    0  502  0.40930424913E+03 -0.71152535599E+03  0.12540543678E+04  0.14988164191E+04  0.25500000920E-02 0.  1.
</event>
<event>
 5   0  0.3942564E-07  0.3199181E+04  0.7818609E-02  0.8189034E-01
       -2   -1    0    0    0  501  0.00000000000E+00  0.00000000000E+00  0.16518155055E+04  0.16518155055E+04  0.25500000920E-02 0. -1.
        2   -1    0    0  501    0  0.00000000000E+00  0.00000000000E+00 -0.15490165788E+04  0.15490165788E+04  0.25500000920E-02 0.  1.
    10030    2    1    2    0    0  0.00000000000E+00  0.00000000000E+00  0.10279892671E+03  0.32008320843E+04  0.31991808972E+04 0.  0.
        3    1    3    3  502    0  0.13450216287E+04  0.15308484741E+02  0.91750904372E+03  0.16282322890E+04  0.10100000352E+00 0. -1.
       -3    1    3    3    0  502 -0.13450216287E+04 -0.15308484741E+02 -0.81471011700E+03  0.15725997953E+04  0.10100000352E+00 0.  1.
</event>
<event>
 5   0  0.1317293E-07  0.3100969E+04  0.7818609E-02  0.8215472E-01
        1   -1    0    0  501    0  0.00000000000E+00  0.00000000000E+00  0.19065623625E+04  0.19065623625E+04  0.50400001928E-02 0. -1.
       -1   -1    0    0    0  501  0.00000000000E+00  0.00000000000E+00 -0.12609096021E+04  0.12609096021E+04  0.50400001928E-02 0.  1.
    10030    2    1    2    0    0  0.00000000000E+00  0.00000000000E+00  0.64565276040E+03  0.31674719647E+04  0.31009693904E+04 0.  0.
        1    1    3    3  502    0 -0.30102260134E+03 -0.10956078075E+04  0.14004548839E+04  0.18033981690E+04  0.50400001928E-02 0. -1.
       -1    1    3    3    0  502  0.30102260134E+03  0.10956078075E+04 -0.75480212349E+03  0.13640737956E+04  0.50400001928E-02 0.  1.
</event>
<event>
 5   0  0.1288096E-07  0.3200672E+04  0.7818609E-02  0.8188640E-01
        1   -1    0    0  501    0  0.00000000000E+00  0.00000000000E+00  0.16742890390E+04  0.16742890390E+04  0.50400001928E-02 0. -1.
       -1   -1    0    0    0  501  0.00000000000E+00  0.00000000000E+00 -0.15296495238E+04  0.15296495238E+04  0.50400001928E-02 0.  1.
    10030    2    1    2    0    0  0.00000000000E+00  0.00000000000E+00  0.14463951523E+03  0.32039385628E+04  0.32006720740E+04 0.  0.
        2    1    3    3  502    0  0.67832624973E+02 -0.12263241075E+04 -0.95469189911E+03  0.15556055746E+04  0.25500000920E-02 0.  1.
       -2    1    3    3    0  502 -0.67832624973E+02  0.12263241075E+04  0.10993314143E+04  0.16483329882E+04  0.25500000920E-02 0. -1.
</event>
<event>
 5   0  0.1317293E-07  0.3196739E+04  0.7818609E-02  0.8189679E-01
        1   -1    0    0  501    0  0.00000000000E+00  0.00000000000E+00  0.16841574808E+04  0.16841574808E+04  0.50400001928E-02 0. -1.
       -1   -1    0    0    0  501  0.00000000000E+00  0.00000000000E+00 -0.15169518400E+04  0.15169518400E+04  0.50400001928E-02 0.  1.
    10030    2    1    2    0    0  0.00000000000E+00  0.00000000000E+00  0.16720564080E+03  0.32011093208E+04  0.31967394572E+04 0.  0.
        1    1    3    3  502    0  0.12659208224E+04 -0.56667347819E+03  0.87911399980E+03  0.16421071171E+04  0.50400001928E-02 0. -1.
       -1    1    3    3    0  502 -0.12659208224E+04  0.56667347819E+03 -0.71190835901E+03  0.15590022037E+04  0.50400001928E-02 0.  1.
</event>
<event>
 5   0  0.3750285E-07  0.3202795E+04  0.7818609E-02  0.8188079E-01
       -2   -1    0    0    0  501  0.00000000000E+00  0.00000000000E+00  0.12042992765E+04  0.12042992765E+04  0.25500000920E-02 0. -1.
        2   -1    0    0  501    0  0.00000000000E+00  0.00000000000E+00 -0.21294328763E+04  0.21294328763E+04  0.25500000920E-02 0.  1.
    10030    2    1    2    0    0  0.00000000000E+00  0.00000000000E+00 -0.92513359981E+03  0.33337321528E+04  0.32027953243E+04 0.  0.
        1    1    3    3  502    0 -0.64044191590E+03  0.36063847080E+03  0.10183594557E+04  0.12558988556E+04  0.50400001928E-02 0. -1.
       -1    1    3    3    0  502  0.64044191590E+03 -0.36063847080E+03 -0.19434930556E+04  0.20778332973E+04  0.50400001928E-02 0.  1.
</event>
<event>
 5   0  0.1317293E-07  0.3214921E+04  0.7818609E-02  0.8184888E-01
       -1   -1    0    0    0  501  0.00000000000E+00  0.00000000000E+00  0.13655147333E+04  0.13655147333E+04  0.50400001928E-02 0. -1.
        1   -1    0    0  501    0  0.00000000000E+00  0.00000000000E+00 -0.18922748387E+04  0.18922748387E+04  0.50400001928E-02 0.  1.
    10030    2    1    2    0    0  0.00000000000E+00  0.00000000000E+00 -0.52676010543E+03  0.32577895720E+04  0.32149209456E+04 0.  0.
        1    1    3    3  502    0  0.42096070663E+03  0.56964879767E+03  0.11988516450E+04  0.13924629029E+04  0.50400001928E-02 0. -1.
       -1    1    3    3    0  502 -0.42096070663E+03 -0.56964879767E+03 -0.17256117504E+04  0.18653266691E+04  0.50400001928E-02 0.  1.
</event>
<event>
 5   0  0.1270948E-07  0.3196514E+04  0.7818609E-02  0.8189739E-01
        1   -1    0    0  501    0  0.00000000000E+00  0.00000000000E+00  0.11699434261E+04  0.11699434261E+04  0.50400001928E-02 0. -1.
       -1   -1    0    0    0  501  0.00000000000E+00  0.00000000000E+00 -0.21833745476E+04  0.21833745476E+04  0.50400001928E-02 0.  1.
    10030    2    1    2    0    0  0.00000000000E+00  0.00000000000E+00 -0.10134311216E+04  0.33533179737E+04  0.31965135374E+04 0.  0.
        4    1    3    3  502    0 -0.43630665088E+03 -0.47490555383E+03  0.10273901414E+04  0.12130255126E+04  0.12699999809E+01 0. -1.
       -4    1    3    3    0  502  0.43630665088E+03  0.47490555383E+03 -0.20408212630E+04  0.21402924611E+04  0.12699999809E+01 0.  1.
</event>
<event>
 5   0  0.3858721E-07  0.3191708E+04  0.7818609E-02  0.8191010E-01
       -2   -1    0    0    0  501  0.00000000000E+00  0.00000000000E+00  0.15670014973E+04  0.15670014973E+04  0.25500000920E-02 0.  1.
        2   -1    0    0  501    0  0.00000000000E+00  0.00000000000E+00 -0.16252378085E+04  0.16252378085E+04  0.25500000920E-02 0. -1.
    10030    2    1    2    0    0  0.00000000000E+00  0.00000000000E+00 -0.58236311248E+02  0.31922393058E+04  0.31917080565E+04 0.  0.
        2    1    3    3  502    0 -0.10184481122E+04 -0.58457660411E+03 -0.11099384441E+04  0.16158371555E+04  0.25500000920E-02 0. -1.
       -2    1    3    3    0  502  0.10184481122E+04  0.58457660411E+03  0.10517021329E+04  0.15764021503E+04  0.25500000920E-02 0.  1.
</event>
<event>
 5   0  0.3858721E-07  0.3223701E+04  0.7818609E-02  0.8182586E-01
       -2   -1    0    0    0  501  0.00000000000E+00  0.00000000000E+00  0.11123671994E+04  0.11123671994E+04  0.25500000920E-02 0.  1.
        2   -1    0    0  501    0  0.00000000000E+00  0.00000000000E+00 -0.23356160515E+04  0.23356160515E+04  0.25500000920E-02 0. -1.
    10030    2    1    2    0    0  0.00000000000E+00  0.00000000000E+00 -0.12232488521E+04  0.34479832509E+04  0.32237014044E+04 0.  0.
        2    1    3    3  502    0  0.42764499454E+03 -0.99657521578E+03  0.66382497663E+03  0.12714975429E+04  0.25500000920E-02 0.  1.
       -2    1    3    3    0  502 -0.42764499454E+03  0.99657521578E+03 -0.18870738288E+04  0.21764857080E+04  0.25500000920E-02 0. -1.
</event>
<event>
 5   0  0.1230450E-07  0.3199375E+04  0.7818609E-02  0.8188982E-01
       -4   -1    0    0    0  501  0.00000000000E+00  0.00000000000E+00  0.15847193884E+04  0.15847198973E+04  0.12699999809E+01 0.  1.
        4   -1    0    0  501    0  0.00000000000E+00  0.00000000000E+00 -0.16147960258E+04  0.16147965252E+04  0.12699999809E+01 0. -1.
    10030    2    1    2    0    0  0.00000000000E+00  0.00000000000E+00 -0.30076637379E+02  0.31995164226E+04  0.31993750537E+04 0.  0.
        3    1    3    3  502    0  0.15935708345E+04 -0.11847738545E+03  0.59095097686E+02  0.15990613298E+04  0.10100000352E+00 0.  1.
       -3    1    3    3    0  502 -0.15935708345E+04  0.11847738545E+03 -0.89171735065E+02  0.16004550928E+04  0.10100000352E+00 0. -1.
</event>
<event>
 5   0  0.3750285E-07  0.3209469E+04  0.7818609E-02  0.8186321E-01
       -2   -1    0    0    0  501  0.00000000000E+00  0.00000000000E+00  0.18173625233E+04  0.18173625233E+04  0.25500000920E-02 0. -1.
        2   -1    0    0  501    0  0.00000000000E+00  0.00000000000E+00 -0.14169833320E+04  0.14169833320E+04  0.25500000920E-02 0.  1.
    10030    2    1    2    0    0  0.00000000000E+00  0.00000000000E+00  0.40037919123E+03  0.32343458553E+04  0.32094687434E+04 0.  0.
        1    1    3    3  502    0 -0.14392263492E+04  0.10939872529E+03  0.90693277691E+03  0.17046605607E+04  0.50400001928E-02 0. -1.
       -1    1    3    3    0  502  0.14392263492E+04 -0.10939872529E+03 -0.50655358568E+03  0.15296852946E+04  0.50400001928E-02 0.  1.
</event>
<event>
 5   0  0.1365455E-07  0.3198398E+04  0.7818609E-02  0.8189240E-01
        1   -1    0    0  501    0  0.00000000000E+00  0.00000000000E+00  0.16146898800E+04  0.16146898800E+04  0.50400001928E-02 0. -1.
       -1   -1    0    0    0  501  0.00000000000E+00  0.00000000000E+00 -0.15838564410E+04  0.15838564410E+04  0.50400001928E-02 0.  1.
    10030    2    1    2    0    0  0.00000000000E+00  0.00000000000E+00  0.30833439047E+02  0.31985463210E+04  0.31983977031E+04 0.  0.
        3    1    3    3  502    0  0.12946072652E+04  0.24574305927E+03 -0.89073759272E+03  0.15905379881E+04  0.10100000352E+00 0.  1.
       -3    1    3    3    0  502 -0.12946072652E+04 -0.24574305927E+03  0.92157103176E+03  0.16080083330E+04  0.10100000352E+00 0. -1.
</event>
<event>
 5   0  0.3830207E-07  0.3199079E+04  0.7818609E-02  0.8189061E-01
        2   -1    0    0  501    0  0.00000000000E+00  0.00000000000E+00  0.11427347902E+04  0.11427347902E+04  0.25500000920E-02 0.  1.
       -2   -1    0    0    0  501  0.00000000000E+00  0.00000000000E+00 -0.22389502013E+04  0.22389502013E+04  0.25500000920E-02 0. -1.
    10030    2    1    2    0    0  0.00000000000E+00  0.00000000000E+00 -0.10962154111E+04  0.33816849914E+04  0.31990787977E+04 0.  0.
        4    1    3    3  502    0  0.10980284313E+04 -0.25333645747E+03  0.65189042053E+03  0.13018481209E+04  0.12699999809E+01 0.  1.
       -4    1    3    3    0  502 -0.10980284313E+04  0.25333645747E+03 -0.17481058316E+04  0.20798368705E+04  0.12699999809E+01 0. -1.
</event>
<event>
 5   0  0.3764056E-07  0.3242284E+04  0.7818609E-02  0.8177738E-01
        2   -1    0    0  501    0  0.00000000000E+00  0.00000000000E+00  0.18210920836E+04  0.18210920836E+04  0.25500000920E-02 0. -1.
       -2   -1    0    0    0  501  0.00000000000E+00  0.00000000000E+00 -0.14431458669E+04  0.14431458669E+04  0.25500000920E-02 0.  1.
    10030    2    1    2    0    0  0.00000000000E+00  0.00000000000E+00  0.37794621667E+03  0.32642379505E+04  0.32422840799E+04 0.  0.
        5    1    3    3  502    0 -0.74073449754E+03  0.45497276362E+03 -0.11886457818E+04  0.14726128806E+04  0.46999998093E+01 0.  1.
       -5    1    3    3    0  502  0.74073449754E+03 -0.45497276362E+03  0.15665919985E+04  0.17916250699E+04  0.46999998093E+01 0. -1.
</event>
<event>
 5   0  0.3942564E-07  0.3202413E+04  0.7818609E-02  0.8188180E-01
       -2   -1    0    0    0  501  0.00000000000E+00  0.00000000000E+00  0.10014913345E+04  0.10014913345E+04  0.25500000920E-02 0. -1.
        2   -1    0    0  501    0  0.00000000000E+00  0.00000000000E+00 -0.25600448777E+04  0.25600448777E+04  0.25500000920E-02 0.  1.
    10030    2    1    2    0    0  0.00000000000E+00  0.00000000000E+00 -0.15585535431E+04  0.35615362122E+04  0.32024133156E+04 0.  0.
        3    1    3    3  502    0  0.39480360695E+03 -0.14575266813E+04 -0.18700660075E+03  0.15215864726E+04  0.10100000352E+00 0. -1.
       -3    1    3    3    0  502 -0.39480360695E+03  0.14575266813E+04 -0.13715469424E+04  0.20399497396E+04  0.10100000352E+00 0.  1.
</event>
<event>
 5   0  0.1317293E-07  0.3200866E+04  0.7818609E-02  0.8188588E-01
        1   -1    0    0  501    0  0.00000000000E+00  0.00000000000E+00  0.25263461271E+04  0.25263461271E+04  0.50400001928E-02 0.  1.
       -1   -1    0    0    0  501  0.00000000000E+00  0.00000000000E+00 -0.10138699811E+04  0.10138699811E+04  0.50400001928E-02 0. -1.
    10030    2    1    2    0    0  0.00000000000E+00  0.00000000000E+00  0.15124761461E+04  0.35402161082E+04  0.32008664452E+04 0.  0.
        1    1    3    3  502    0 -0.25957877336E+03 -0.83521873775E+03 -0.72616244780E+03  0.11367864268E+04  0.50400001928E-02 0. -1.
       -1    1    3    3    0  502  0.25957877336E+03  0.83521873775E+03  0.22386385939E+04  0.24034296814E+04  0.50400001928E-02 0.  1.
</event>
<event>
 5   0  0.1288096E-07  0.3199843E+04  0.7818609E-02  0.8188859E-01
        1   -1    0    0  501    0  0.00000000000E+00  0.00000000000E+00  0.21177748458E+04  0.21177748458E+04  0.50400001928E-02 0. -1.
       -1   -1    0    0    0  501  0.00000000000E+00  0.00000000000E+00 -0.12086972774E+04  0.12086972774E+04  0.50400001928E-02 0.  1.
    10030    2    1    2    0    0  0.00000000000E+00  0.00000000000E+00  0.90907756838E+03  0.33264721232E+04  0.31998429276E+04 0.  0.
        2    1    3    3  502    0 -0.70347796474E+03 -0.11591602834E+03 -0.10344234284E+04  0.12563238443E+04  0.25500000920E-02 0.  1.
       -2    1    3    3    0  502  0.70347796474E+03  0.11591602834E+03  0.19435009967E+04  0.20701482789E+04  0.25500000920E-02 0. -1.
</event>
<event>
 5   0  0.1288096E-07  0.3198802E+04  0.7818609E-02  0.8189134E-01
       -1   -1    0    0    0  501  0.00000000000E+00  0.00000000000E+00  0.13328987528E+04  0.13328987528E+04  0.50400001928E-02 0. -1.
        1   -1    0    0  501    0  0.00000000000E+00  0.00000000000E+00 -0.19191887093E+04  0.19191887093E+04  0.50400001928E-02 0.  1.
    10030    2    1    2    0    0  0.00000000000E+00  0.00000000000E+00 -0.58628995645E+03  0.32520874621E+04  0.31988024241E+04 0.  0.
        2    1    3    3  502    0 -0.12987935890E+04  0.54130175097E+03 -0.10662140524E+04  0.17654134864E+04  0.25500000920E-02 0.  1.
       -2    1    3    3    0  502  0.12987935890E+04 -0.54130175097E+03  0.47992409592E+03  0.14866739758E+04  0.25500000920E-02 0. -1.
</event>
<event>
 5   0  0.3858721E-07  0.3198910E+04  0.7818609E-02  0.8189105E-01
        2   -1    0    0  501    0  0.00000000000E+00  0.00000000000E+00  0.24266920587E+04  0.24266920587E+04  0.25500000920E-02 0.  1.
       -2   -1    0    0    0  501  0.00000000000E+00  0.00000000000E+00 -0.10542156607E+04  0.10542156607E+04  0.25500000920E-02 0. -1.
    10030    2    1    2    0    0  0.00000000000E+00  0.00000000000E+00  0.13724763981E+04  0.34809077194E+04  0.31989102969E+04 0.  0.
        2    1    3    3  502    0 -0.56815578345E+03  0.16724228046E+03  0.23029753096E+04  0.23779121623E+04  0.25500000920E-02 0.  1.
       -2    1    3    3    0  502  0.56815578345E+03 -0.16724228046E+03 -0.93049891157E+03  0.11029955571E+04  0.25500000920E-02 0. -1.
</event>
<event>
 5   0  0.3830207E-07  0.3247296E+04  0.7818609E-02  0.8176437E-01
        2   -1    0    0  501    0  0.00000000000E+00  0.00000000000E+00  0.17142004623E+04  0.17142004623E+04  0.25500000920E-02 0.  1.
       -2   -1    0    0    0  501  0.00000000000E+00  0.00000000000E+00 -0.15378792632E+04  0.15378792632E+04  0.25500000920E-02 0. -1.
    10030    2    1    2    0    0  0.00000000000E+00  0.00000000000E+00  0.17632119910E+03  0.32520797254E+04  0.32472963178E+04 0.  0.
        4    1    3    3  502    0  0.56526045885E+03 -0.19419349574E+03  0.16000204840E+04  0.17080098543E+04  0.12699999809E+01 0.  1.
       -4    1    3    3    0  502 -0.56526045885E+03  0.19419349574E+03 -0.14236992849E+04  0.15440698711E+04  0.12699999809E+01 0. -1.
</event>
<event>
 5   0  0.3764056E-07  0.3200684E+04  0.7818609E-02  0.8188637E-01
       -2   -1    0    0    0  501  0.00000000000E+00  0.00000000000E+00  0.77218161825E+03  0.77218161825E+03  0.25500000920E-02 0. -1.
        2   -1    0    0  501    0  0.00000000000E+00  0.00000000000E+00 -0.33166992846E+04  0.33166992846E+04  0.25500000920E-02 0.  1.
    10030    2    1    2    0    0  0.00000000000E+00  0.00000000000E+00 -0.25445176663E+04  0.40888809028E+04  0.32006838149E+04 0.  0.
        5    1    3    3  502    0  0.13344619928E+03  0.69081318007E+03 -0.31085062440E+04  0.31871403949E+04  0.46999998093E+01 0.  1.
       -5    1    3    3    0  502 -0.13344619928E+03 -0.69081318007E+03  0.56398857768E+03  0.90174050791E+03  0.46999998093E+01 0. -1.
</event>
<event>
 5   0  0.1317293E-07  0.3192557E+04  0.7818609E-02  0.8190786E-01
        1   -1    0    0  501    0  0.00000000000E+00  0.00000000000E+00  0.10669297577E+04  0.10669297577E+04  0.50400001928E-02 0.  1.
       -1   -1    0    0    0  501  0.00000000000E+00  0.00000000000E+00 -0.23882588585E+04  0.23882588586E+04  0.50400001928E-02 0. -1.
    10030    2    1    2    0    0  0.00000000000E+00  0.00000000000E+00 -0.13213291009E+04  0.34551886162E+04  0.31925566214E+04 0.  0.
        1    1    3    3  502    0 -0.62955444651E+03  0.29022180084E+03 -0.22168444151E+04  0.23227067520E+04  0.50400001928E-02 0. -1.
       -1    1    3    3    0  502  0.62955444651E+03 -0.29022180084E+03  0.89551531424E+03  0.11324818643E+04  0.50400001928E-02 0.  1.
</event>
<event>
 5   0  0.1270948E-07  0.3196496E+04  0.7818609E-02  0.8189743E-01
       -1   -1    0    0    0  501  0.00000000000E+00  0.00000000000E+00  0.13724267908E+04  0.13724267909E+04  0.50400001928E-02 0.  1.
        1   -1    0    0  501    0  0.00000000000E+00  0.00000000000E+00 -0.18612259075E+04  0.18612259075E+04  0.50400001928E-02 0. -1.
    10030    2    1    2    0    0  0.00000000000E+00  0.00000000000E+00 -0.48879911662E+03  0.32336526983E+04  0.31964957683E+04 0.  0.
        4    1    3    3  502    0  0.65205881220E+03 -0.13883398270E+04 -0.69876023190E+03  0.16855075331E+04  0.12699999809E+01 0. -1.
       -4    1    3    3    0  502 -0.65205881220E+03  0.13883398270E+04  0.20996111528E+03  0.15481451652E+04  0.12699999809E+01 0.  1.
</event>
<event>
 5   0  0.3858721E-07  0.3198423E+04  0.7818609E-02  0.8189234E-01
        2   -1    0    0  501    0  0.00000000000E+00  0.00000000000E+00  0.19223042691E+04  0.19223042691E+04  0.25500000920E-02 0.  1.
       -2   -1    0    0    0  501  0.00000000000E+00  0.00000000000E+00 -0.13304224904E+04  0.13304224904E+04  0.25500000920E-02 0. -1.
    10030    2    1    2    0    0  0.00000000000E+00  0.00000000000E+00  0.59188177874E+03  0.32527267595E+04  0.31984226319E+04 0.  0.
        2    1    3    3  502    0  0.31823072520E+03  0.64886241134E+03  0.17467608797E+04  0.18903615511E+04  0.25500000920E-02 0.  1.
       -2    1    3    3    0  502 -0.31823072520E+03 -0.64886241134E+03 -0.11548791009E+04  0.13623652084E+04  0.25500000920E-02 0. -1.
</event>
<event>
 5   0  0.3750285E-07  0.3131754E+04  0.7818609E-02  0.8207077E-01
        2   -1    0    0  501    0  0.00000000000E+00  0.00000000000E+00  0.14355499221E+04  0.14355499221E+04  0.25500000920E-02 0.  1.
       -2   -1    0    0    0  501  0.00000000000E+00  0.00000000000E+00 -0.17080360206E+04  0.17080360206E+04  0.25500000920E-02 0. -1.
    10030    2    1    2    0    0  0.00000000000E+00  0.00000000000E+00 -0.27248609849E+03  0.31435859426E+04  0.31317541259E+04 0.  0.
        1    1    3    3  502    0 -0.11634557119E+04  0.44189432874E+03  0.81764777749E+03  0.14891096935E+04  0.50400001928E-02 0.  1.
       -1    1    3    3    0  502  0.11634557119E+04 -0.44189432874E+03 -0.10901338760E+04  0.16544762491E+04  0.50400001928E-02 0. -1.
</event>
<event>
 5   0  0.3750285E-07  0.3196955E+04  0.7818609E-02  0.8189622E-01
       -2   -1    0    0    0  501  0.00000000000E+00  0.00000000000E+00  0.15261266272E+04  0.15261266272E+04  0.25500000920E-02 0. -1.
        2   -1    0    0  501    0  0.00000000000E+00  0.00000000000E+00 -0.16742585128E+04  0.16742585128E+04  0.25500000920E-02 0.  1.
    10030    2    1    2    0    0  0.00000000000E+00  0.00000000000E+00 -0.14813188563E+03  0.32003851401E+04  0.31969551122E+04 0.  0.
        1    1    3    3  502    0 -0.10097753501E+04 -0.12307677915E+04  0.69945564030E+02  0.15935269048E+04  0.50400001928E-02 0. -1.
       -1    1    3    3    0  502  0.10097753501E+04  0.12307677915E+04 -0.21807744966E+03  0.16068582353E+04  0.50400001928E-02 0.  1.
</event>
<event>
 5   0  0.1288096E-07  0.3199355E+04  0.7818609E-02  0.8188988E-01
       -1   -1    0    0    0  501  0.00000000000E+00  0.00000000000E+00  0.19539583038E+04  0.19539583038E+04  0.50400001928E-02 0. -1.
        1   -1    0    0  501    0  0.00000000000E+00  0.00000000000E+00 -0.13096327065E+04  0.13096327065E+04  0.50400001928E-02 0.  1.
    10030    2    1    2    0    0  0.00000000000E+00  0.00000000000E+00  0.64432559729E+03  0.32635910104E+04  0.31993547486E+04 0.  0.
        2    1    3    3  502    0  0.14441543908E+04 -0.47109602065E+03 -0.18935752687E+03  0.15308068586E+04  0.25500000920E-02 0.  1.
       -2    1    3    3    0  502 -0.14441543908E+04  0.47109602065E+03  0.83368312416E+03  0.17327841518E+04  0.25500000920E-02 0. -1.
</event>
<event>
 5   0  0.3764056E-07  0.3190561E+04  0.7818609E-02  0.8191314E-01
        2   -1    0    0  501    0  0.00000000000E+00  0.00000000000E+00  0.18545229814E+04  0.18545229814E+04  0.25500000920E-02 0. -1.
       -2   -1    0    0    0  501  0.00000000000E+00  0.00000000000E+00 -0.13722772232E+04  0.13722772232E+04  0.25500000920E-02 0.  1.
    10030    2    1    2    0    0  0.00000000000E+00  0.00000000000E+00  0.48224575821E+03  0.32268002047E+04  0.31905608581E+04 0.  0.
        5    1    3    3  502    0 -0.12279178257E+04  0.90855231684E+03 -0.22415476647E+03  0.15438642908E+04  0.46999998093E+01 0. -1.
       -5    1    3    3    0  502  0.12279178257E+04 -0.90855231684E+03  0.70640052468E+03  0.16829359139E+04  0.46999998093E+01 0.  1.
</event>
<event>
 5   0  0.1270948E-07  0.3203501E+04  0.7818609E-02  0.8187893E-01
       -1   -1    0    0    0  501  0.00000000000E+00  0.00000000000E+00  0.13895780359E+04  0.13895780359E+04  0.50400001928E-02 0. -1.
        1   -1    0    0  501    0  0.00000000000E+00  0.00000000000E+00 -0.18463193789E+04  0.18463193789E+04  0.50400001928E-02 0.  1.
    10030    2    1    2    0    0  0.00000000000E+00  0.00000000000E+00 -0.45674134299E+03  0.32358974148E+04  0.32035011199E+04 0.  0.
        4    1    3    3  502    0  0.75838282055E+02 -0.51446996632E+03 -0.17586740118E+04  0.18339483864E+04  0.12699999809E+01 0.  1.
       -4    1    3    3    0  502 -0.75838282055E+02  0.51446996632E+03  0.13019326688E+04  0.14019490284E+04  0.12699999809E+01 0. -1.
</event>
<event>
 5   0  0.1317293E-07  0.3201576E+04  0.7818609E-02  0.8188401E-01
       -1   -1    0    0    0  501  0.00000000000E+00  0.00000000000E+00  0.21112802318E+04  0.21112802318E+04  0.50400001928E-02 0. -1.
        1   -1    0    0  501    0  0.00000000000E+00  0.00000000000E+00 -0.12137289332E+04  0.12137289332E+04  0.50400001928E-02 0.  1.
    10030    2    1    2    0    0  0.00000000000E+00  0.00000000000E+00  0.89755129857E+03  0.33250091650E+04  0.32015758017E+04 0.  0.
        1    1    3    3  502    0 -0.95447985657E+02  0.10947535922E+03 -0.12068717632E+04  0.12155799542E+04  0.50400001928E-02 0.  1.
       -1    1    3    3    0  502  0.95447985657E+02 -0.10947535922E+03  0.21044230618E+04  0.21094292108E+04  0.50400001928E-02 0. -1.
</event>
<event>
 5   0  0.1317293E-07  0.3203337E+04  0.7818609E-02  0.8187936E-01
       -1   -1    0    0    0  501  0.00000000000E+00  0.00000000000E+00  0.24394805260E+04  0.24394805260E+04  0.50400001928E-02 0.  1.
        1   -1    0    0  501    0  0.00000000000E+00  0.00000000000E+00 -0.10515936932E+04  0.10515936932E+04  0.50400001928E-02 0. -1.
    10030    2    1    2    0    0  0.00000000000E+00  0.00000000000E+00  0.13878868328E+04  0.34910742192E+04  0.32033372197E+04 0.  0.
        1    1    3    3  502    0 -0.11437383484E+03 -0.10946137547E+04  0.19621174446E+04  0.22497034277E+04  0.50400001928E-02 0.  1.
       -1    1    3    3    0  502  0.11437383484E+03  0.10946137547E+04 -0.57423061185E+03  0.12413707914E+04  0.50400001928E-02 0. -1.
</event>
<event>
 5   0  0.1288096E-07  0.3144888E+04  0.7818609E-02  0.8203526E-01
        1   -1    0    0  501    0  0.00000000000E+00  0.00000000000E+00  0.19761605670E+04  0.19761605670E+04  0.50400001928E-02 0.  1.
       -1   -1    0    0    0  501  0.00000000000E+00  0.00000000000E+00 -0.12512041831E+04  0.12512041831E+04  0.50400001928E-02 0. -1.
    10030    2    1    2    0    0  0.00000000000E+00  0.00000000000E+00  0.72495638384E+03  0.32273647501E+04  0.31448881493E+04 0.  0.
        2    1    3    3  502    0  0.28644703708E+03  0.45143368157E+03  0.18800212904E+04  0.19545649967E+04  0.25500000920E-02 0.  1.
       -2    1    3    3    0  502 -0.28644703708E+03 -0.45143368157E+03 -0.11550649066E+04  0.12727997534E+04  0.25500000920E-02 0. -1.
</event>
<event>
 5   0  0.1365455E-07  0.3201332E+04  0.7818609E-02  0.8188465E-01
       -1   -1    0    0    0  501  0.00000000000E+00  0.00000000000E+00  0.11598972536E+04  0.11598972536E+04  0.50400001928E-02 0.  1.
        1   -1    0    0  501    0  0.00000000000E+00  0.00000000000E+00 -0.22089300760E+04  0.22089300760E+04  0.50400001928E-02 0. -1.
    10030    2    1    2    0    0  0.00000000000E+00  0.00000000000E+00 -0.10490328223E+04  0.33688273296E+04  0.32013321781E+04 0.  0.
        3    1    3    3  502    0 -0.11392226160E+04  0.11243770146E+04 -0.53393328692E+03  0.16873460240E+04  0.10100000352E+00 0.  1.
       -3    1    3    3    0  502  0.11392226160E+04 -0.11243770146E+04 -0.51509953543E+03  0.16814813056E+04  0.10100000352E+00 0. -1.
</event>
<event>
 5   0  0.3942564E-07  0.3203886E+04  0.7818609E-02  0.8187792E-01
       -2   -1    0    0    0  501  0.00000000000E+00  0.00000000000E+00  0.13455507783E+04  0.13455507783E+04  0.25500000920E-02 0.  1.
        2   -1    0    0  501    0  0.00000000000E+00  0.00000000000E+00 -0.19071902188E+04  0.19071902188E+04  0.25500000920E-02 0. -1.
    10030    2    1    2    0    0  0.00000000000E+00  0.00000000000E+00 -0.56163944045E+03  0.32527409971E+04  0.32038859426E+04 0.  0.
        3    1    3    3  502    0 -0.26131110783E+03  0.28356280272E+03 -0.18593698017E+04  0.18989332342E+04  0.10100000352E+00 0. -1.
       -3    1    3    3    0  502  0.26131110783E+03 -0.28356280272E+03  0.12977303613E+04  0.13538077629E+04  0.10100000352E+00 0.  1.
</event>
<event>
 5   0  0.1365455E-07  0.3208593E+04  0.7818609E-02  0.8186552E-01
        1   -1    0    0  501    0  0.00000000000E+00  0.00000000000E+00  0.25103341779E+04  0.25103341779E+04  0.50400001928E-02 0.  1.
       -1   -1    0    0    0  501  0.00000000000E+00  0.00000000000E+00 -0.10252686371E+04  0.10252686371E+04  0.50400001928E-02 0. -1.
    10030    2    1    2    0    0  0.00000000000E+00  0.00000000000E+00  0.14850655408E+04  0.35356028150E+04  0.32085927765E+04 0.  0.
        3    1    3    3  502    0 -0.33229013417E+03 -0.15689368735E+04  0.78911721018E+03  0.17873683526E+04  0.10100000352E+00 0.  1.
       -3    1    3    3    0  502  0.33229013417E+03  0.15689368735E+04  0.69594833064E+03  0.17482344624E+04  0.10100000352E+00 0. -1.
</event>
<event>
 5   0  0.3830207E-07  0.3199449E+04  0.7818609E-02  0.8188963E-01
        2   -1    0    0  501    0  0.00000000000E+00  0.00000000000E+00  0.20292863063E+04  0.20292863063E+04  0.25500000920E-02 0. -1.
       -2   -1    0    0    0  501  0.00000000000E+00  0.00000000000E+00 -0.12610927766E+04  0.12610927766E+04  0.25500000920E-02 0.  1.
    10030    2    1    2    0    0  0.00000000000E+00  0.00000000000E+00  0.76819352974E+03  0.32903790830E+04  0.31994488917E+04 0.  0.
        4    1    3    3  502    0 -0.11995120110E+04 -0.27186837909E+03  0.14360937121E+04  0.18907956640E+04  0.12699999809E+01 0. -1.
       -4    1    3    3    0  502  0.11995120110E+04  0.27186837909E+03 -0.66790018233E+03  0.13995834190E+04  0.12699999809E+01 0.  1.
</event>
<event>
 5   0  0.3942564E-07  0.3197347E+04  0.7818609E-02  0.8189518E-01
        2   -1    0    0  501    0  0.00000000000E+00  0.00000000000E+00  0.26159037609E+04  0.26159037609E+04  0.25500000920E-02 0. -1.
       -2   -1    0    0    0  501  0.00000000000E+00  0.00000000000E+00 -0.97700705723E+03  0.97700705723E+03  0.25500000920E-02 0.  1.
    10030    2    1    2    0    0  0.00000000000E+00  0.00000000000E+00  0.16388967036E+04  0.35929108181E+04  0.31973466721E+04 0.  0.
        3    1    3    3  502    0 -0.54209895143E+03 -0.24939407383E+03 -0.84717410033E+03  0.10362300148E+04  0.10100000352E+00 0.  1.
       -3    1    3    3    0  502  0.54209895143E+03  0.24939407383E+03  0.24860708040E+04  0.25566808033E+04  0.10100000352E+00 0. -1.
</event>
<event>
 5   0  0.3858721E-07  0.3204687E+04  0.7818609E-02  0.8187580E-01
       -2   -1    0    0    0  501  0.00000000000E+00  0.00000000000E+00  0.13047758493E+04  0.13047758493E+04  0.25500000920E-02 0. -1.
        2   -1    0    0  501    0  0.00000000000E+00  0.00000000000E+00 -0.19677750613E+04  0.19677750613E+04  0.25500000920E-02 0.  1.
    10030    2    1    2    0    0  0.00000000000E+00  0.00000000000E+00 -0.66299921201E+03  0.32725509106E+04  0.32046874274E+04 0.  0.
        2    1    3    3  502    0  0.12739769250E+04  0.33649628430E+03 -0.12625405158E+04  0.18248987667E+04  0.25500000920E-02 0.  1.
       -2    1    3    3    0  502 -0.12739769250E+04 -0.33649628430E+03  0.59954130376E+03  0.14476521439E+04  0.25500000920E-02 0. -1.
</event>
<event>
 5   0  0.1277374E-07  0.3188866E+04  0.7818609E-02  0.8191764E-01
        1   -1    0    0  501    0  0.00000000000E+00  0.00000000000E+00  0.10192503851E+04  0.10192503851E+04  0.50400001928E-02 0.  1.
       -1   -1    0    0    0  501  0.00000000000E+00  0.00000000000E+00 -0.24942019964E+04  0.24942019964E+04  0.50400001928E-02 0. -1.
    10030    2    1    2    0    0  0.00000000000E+00  0.00000000000E+00 -0.14749516114E+04  0.35134523815E+04  0.31888658456E+04 0.  0.
        5    1    3    3  502    0 -0.55242517056E+03 -0.23085906026E+03 -0.23656346550E+04  0.24402292691E+04  0.46999998093E+01 0. -1.
       -5    1    3    3    0  502  0.55242517056E+03  0.23085906026E+03  0.89068304365E+03  0.10732231124E+04  0.46999998093E+01 0.  1.
</event>
<event>
 5   0  0.1317293E-07  0.3201509E+04  0.7818609E-02  0.8188419E-01
       -1   -1    0    0    0  501  0.00000000000E+00  0.00000000000E+00  0.16870998885E+04  0.16870998885E+04  0.50400001928E-02 0.  1.
        1   -1    0    0  501    0  0.00000000000E+00  0.00000000000E+00 -0.15188281676E+04  0.15188281676E+04  0.50400001928E-02 0. -1.
    10030    2    1    2    0    0  0.00000000000E+00  0.00000000000E+00  0.16827172088E+03  0.32059280561E+04  0.32015089144E+04 0.  0.
        1    1    3    3  502    0 -0.15039037176E+04 -0.52826067140E+03  0.23140722685E+03  0.16106939602E+04  0.50400001928E-02 0.  1.
       -1    1    3    3    0  502  0.15039037176E+04  0.52826067140E+03 -0.63135505972E+02  0.15952340959E+04  0.50400001928E-02 0. -1.
</event>
<event>
 5   0  0.3830207E-07  0.3206336E+04  0.7818609E-02  0.8187146E-01
        2   -1    0    0  501    0  0.00000000000E+00  0.00000000000E+00  0.12911810312E+04  0.12911810312E+04  0.25500000920E-02 0.  1.
       -2   -1    0    0    0  501  0.00000000000E+00  0.00000000000E+00 -0.19905398570E+04  0.19905398570E+04  0.25500000920E-02 0. -1.
    10030    2    1    2    0    0  0.00000000000E+00  0.00000000000E+00 -0.69935882579E+03  0.32817208882E+04  0.32063357936E+04 0.  0.
        4    1    3    3  502    0 -0.10559386098E+04 -0.61459243683E+03  0.71271124704E+03  0.14144571911E+04  0.12699999809E+01 0.  1.
       -4    1    3    3    0  502  0.10559386098E+04  0.61459243683E+03 -0.14120700728E+04  0.18672636971E+04  0.12699999809E+01 0. -1.
</event>
<event>
 5   0  0.3830207E-07  0.3200688E+04  0.7818609E-02  0.8188636E-01
        2   -1    0    0  501    0  0.00000000000E+00  0.00000000000E+00  0.21405303516E+04  0.21405303516E+04  0.25500000920E-02 0. -1.
       -2   -1    0    0    0  501  0.00000000000E+00  0.00000000000E+00 -0.11964793593E+04  0.11964793593E+04  0.25500000920E-02 0.  1.
    10030    2    1    2    0    0  0.00000000000E+00  0.00000000000E+00  0.94405099223E+03  0.33370097109E+04  0.32006876659E+04 0.  0.
        4    1    3    3  502    0 -0.58049013885E+03 -0.14507683376E+04  0.11176344249E+03  0.15665855389E+04  0.12699999809E+01 0.  1.
       -4    1    3    3    0  502  0.58049013885E+03  0.14507683376E+04  0.83228754974E+03  0.17704241720E+04  0.12699999809E+01 0. -1.
</event>
<event>
 5   0  0.3764056E-07  0.3202205E+04  0.7818609E-02  0.8188235E-01
        2   -1    0    0  501    0  0.00000000000E+00  0.00000000000E+00  0.15580574407E+04  0.15580574407E+04  0.25500000920E-02 0.  1.
       -2   -1    0    0    0  501  0.00000000000E+00  0.00000000000E+00 -0.16453369327E+04  0.16453369327E+04  0.25500000920E-02 0. -1.
    10030    2    1    2    0    0  0.00000000000E+00  0.00000000000E+00 -0.87279492035E+02  0.32033943734E+04  0.32022051468E+04 0.  0.
        5    1    3    3  502    0 -0.14288536614E+04 -0.62726904702E+03  0.31484807562E+03  0.15919298489E+04  0.46999998093E+01 0. -1.
       -5    1    3    3    0  502  0.14288536614E+04  0.62726904702E+03 -0.40212756766E+03  0.16114645245E+04  0.46999998093E+01 0.  1.
</event>
<event>
 5   0  0.3942564E-07  0.3201339E+04  0.7818609E-02  0.8188464E-01
        2   -1    0    0  501    0  0.00000000000E+00  0.00000000000E+00  0.16088138842E+04  0.16088138842E+04  0.25500000920E-02 0. -1.
       -2   -1    0    0    0  501  0.00000000000E+00  0.00000000000E+00 -0.15925663482E+04  0.15925663482E+04  0.25500000920E-02 0.  1.
    10030    2    1    2    0    0  0.00000000000E+00  0.00000000000E+00  0.16247535963E+02  0.32013802324E+04  0.32013390027E+04 0.  0.
        3    1    3    3  502    0  0.12871826853E+04 -0.37121040330E+03  0.88420948457E+03  0.16051363966E+04  0.10100000352E+00 0. -1.
       -3    1    3    3    0  502 -0.12871826853E+04  0.37121040330E+03 -0.86796194861E+03  0.15962438358E+04  0.10100000352E+00 0.  1.
</event>
<event>
 5   0  0.3830207E-07  0.3200611E+04  0.7818609E-02  0.8188656E-01
       -2   -1    0    0    0  501  0.00000000000E+00  0.00000000000E+00  0.95864656875E+03  0.95864656875E+03  0.25500000920E-02 0. -1.
        2   -1    0    0  501    0  0.00000000000E+00  0.00000000000E+00 -0.26714517866E+04  0.26714517866E+04  0.25500000920E-02 0.  1.
    10030    2    1    2    0    0  0.00000000000E+00  0.00000000000E+00 -0.17128052179E+04  0.36300983554E+04  0.32006112471E+04 0.  0.
        4    1    3    3  502    0 -0.13172839055E+04 -0.89094248662E+03 -0.10591690812E+04  0.19107213710E+04  0.12699999809E+01 0.  1.
       -4    1    3    3    0  502  0.13172839055E+04  0.89094248662E+03 -0.65363613662E+03  0.17193769843E+04  0.12699999809E+01 0. -1.
</event>
<event>
 5   0  0.1277374E-07  0.3196022E+04  0.7818609E-02  0.8189869E-01
       -1   -1    0    0    0  501  0.00000000000E+00  0.00000000000E+00  0.15640119639E+04  0.15640119639E+04  0.50400001928E-02 0.  1.
        1   -1    0    0  501    0  0.00000000000E+00  0.00000000000E+00 -0.16327488631E+04  0.16327488631E+04  0.50400001928E-02 0. -1.
    10030    2    1    2    0    0  0.00000000000E+00  0.00000000000E+00 -0.68736899168E+02  0.31967608270E+04  0.31960217496E+04 0.  0.
        5    1    3    3  502    0 -0.15873382917E+04  0.17459964420E+03 -0.93447987240E+02  0.15996507444E+04  0.46999998093E+01 0. -1.
       -5    1    3    3    0  502  0.15873382917E+04 -0.17459964420E+03  0.24711088072E+02  0.15971100825E+04  0.46999998093E+01 0.  1.
</event>
<event>
 5   0  0.1288096E-07  0.3199956E+04  0.7818609E-02  0.8188829E-01
        1   -1    0    0  501    0  0.00000000000E+00  0.00000000000E+00  0.16486537083E+04  0.16486537083E+04  0.50400001928E-02 0. -1.
       -1   -1    0    0    0  501  0.00000000000E+00  0.00000000000E+00 -0.15527393797E+04  0.15527393797E+04  0.50400001928E-02 0.  1.
    10030    2    1    2    0    0  0.00000000000E+00  0.00000000000E+00  0.95914328568E+02  0.32013930880E+04  0.31999559600E+04 0.  0.
        2    1    3    3  502    0  0.14752170617E+04 -0.14953899768E+03 -0.55339701292E+03  0.15826798617E+04  0.25500000920E-02 0. -1.
       -2    1    3    3    0  502 -0.14752170617E+04  0.14953899768E+03  0.64931134149E+03  0.16187132263E+04  0.25500000920E-02 0.  1.
</event>
<event>
 5   0  0.3830207E-07  0.3180675E+04  0.7818609E-02  0.8193940E-01
       -2   -1    0    0    0  501  0.00000000000E+00  0.00000000000E+00  0.20987384880E+04  0.20987384880E+04  0.25500000920E-02 0.  1.
        2   -1    0    0  501    0  0.00000000000E+00  0.00000000000E+00 -0.12050919039E+04  0.12050919039E+04  0.25500000920E-02 0. -1.
    10030    2    1    2    0    0  0.00000000000E+00  0.00000000000E+00  0.89364658412E+03  0.33038303920E+04  0.31806746205E+04 0.  0.
        4    1    3    3  502    0  0.13996551943E+04 -0.10318133141E+03 -0.33012962675E+03  0.14417587292E+04  0.12699999809E+01 0. -1.
       -4    1    3    3    0  502 -0.13996551943E+04  0.10318133141E+03  0.12237762109E+04  0.18620716627E+04  0.12699999809E+01 0.  1.
</event>
<event>
 5   0  0.3942564E-07  0.3200348E+04  0.7818609E-02  0.8188725E-01
       -2   -1    0    0    0  501  0.00000000000E+00  0.00000000000E+00  0.17963941045E+04  0.17963941045E+04  0.25500000920E-02 0.  1.
        2   -1    0    0  501    0  0.00000000000E+00  0.00000000000E+00 -0.14253867459E+04  0.14253867459E+04  0.25500000920E-02 0. -1.
    10030    2    1    2    0    0  0.00000000000E+00  0.00000000000E+00  0.37100735868E+03  0.32217808504E+04  0.32003476979E+04 0.  0.
        3    1    3    3  502    0  0.25696714351E+03 -0.13543802390E+04 -0.63245145777E+03  0.15166979928E+04  0.10100000352E+00 0. -1.
       -3    1    3    3    0  502 -0.25696714351E+03  0.13543802390E+04  0.10034588165E+04  0.17050828576E+04  0.10100000352E+00 0.  1.
</event>
<event>
 5   0  0.1230450E-07  0.3209198E+04  0.7818609E-02  0.8186392E-01
       -3   -1    0    0    0  501  0.00000000000E+00  0.00000000000E+00  0.19936894641E+04  0.19936894666E+04  0.10100000352E+00 0.  1.
        3   -1    0    0  501    0  0.00000000000E+00  0.00000000000E+00 -0.12914441571E+04  0.12914441610E+04  0.10100000352E+00 0. -1.
    10030    2    1    2    0    0  0.00000000000E+00  0.00000000000E+00  0.70224530703E+03  0.32851336276E+04  0.32091984171E+04 0.  0.
        5    1    3    3  502    0 -0.11000376064E+04  0.11469741597E+04  0.12433116017E+03  0.15940868188E+04  0.46999998093E+01 0.  1.
       -5    1    3    3    0  502  0.11000376064E+04 -0.11469741597E+04  0.57791414686E+03  0.16910468088E+04  0.46999998093E+01 0. -1.
</event>
<event>
 5   0  0.3858721E-07  0.3196730E+04  0.7818609E-02  0.8189681E-01
        2   -1    0    0  501    0  0.00000000000E+00  0.00000000000E+00  0.13917153623E+04  0.13917153623E+04  0.25500000920E-02 0. -1.
       -2   -1    0    0    0  501  0.00000000000E+00  0.00000000000E+00 -0.18356986333E+04  0.18356986333E+04  0.25500000920E-02 0.  1.
    10030    2    1    2    0    0  0.00000000000E+00  0.00000000000E+00 -0.44398327099E+03  0.32274139955E+04  0.31967295715E+04 0.  0.
        2    1    3    3  502    0 -0.92562733580E+03 -0.12962085861E+04 -0.35679224902E+03  0.16322510139E+04  0.25500000920E-02 0. -1.
       -2    1    3    3    0  502  0.92562733580E+03  0.12962085861E+04 -0.87191021967E+02  0.15951629816E+04  0.25500000920E-02 0.  1.
</event>
<event>
 5   0  0.3830207E-07  0.3202959E+04  0.7818609E-02  0.8188036E-01
       -2   -1    0    0    0  501  0.00000000000E+00  0.00000000000E+00  0.20970313228E+04  0.20970313228E+04  0.25500000920E-02 0. -1.
        2   -1    0    0  501    0  0.00000000000E+00  0.00000000000E+00 -0.12230317411E+04  0.12230317411E+04  0.25500000920E-02 0.  1.
    10030    2    1    2    0    0  0.00000000000E+00  0.00000000000E+00  0.87399958176E+03  0.33200630639E+04  0.32029585510E+04 0.  0.
        4    1    3    3  502    0  0.13306201069E+04 -0.68851423951E+03  0.10234888543E+04  0.18144235379E+04  0.12699999809E+01 0. -1.
       -4    1    3    3    0  502 -0.13306201069E+04  0.68851423951E+03 -0.14948927259E+03  0.15056395261E+04  0.12699999809E+01 0.  1.
</event>
<event>
 5   0  0.1317293E-07  0.3254699E+04  0.7818609E-02  0.8174519E-01
       -1   -1    0    0    0  501  0.00000000000E+00  0.00000000000E+00  0.12950088985E+04  0.12950088985E+04  0.50400001928E-02 0.  1.
        1   -1    0    0  501    0  0.00000000000E+00  0.00000000000E+00 -0.20449789477E+04  0.20449789477E+04  0.50400001928E-02 0. -1.
    10030    2    1    2    0    0  0.00000000000E+00  0.00000000000E+00 -0.74997004917E+03  0.33399878462E+04  0.32546987170E+04 0.  0.
        1    1    3    3  502    0  0.74569395501E+03  0.14463629953E+04 -0.39090099158E+03  0.16735677381E+04  0.50400001928E-02 0. -1.
       -1    1    3    3    0  502 -0.74569395501E+03 -0.14463629953E+04 -0.35906905759E+03  0.16664201081E+04  0.50400001928E-02 0.  1.
</event>
<event>
 5   0  0.3858721E-07  0.3198104E+04  0.7818609E-02  0.8189318E-01
        2   -1    0    0  501    0  0.00000000000E+00  0.00000000000E+00  0.20387201437E+04  0.20387201437E+04  0.25500000920E-02 0. -1.
       -2   -1    0    0    0  501  0.00000000000E+00  0.00000000000E+00 -0.12542025203E+04  0.12542025203E+04  0.25500000920E-02 0.  1.
    10030    2    1    2    0    0  0.00000000000E+00  0.00000000000E+00  0.78451762340E+03  0.32929226640E+04  0.31981044025E+04 0.  0.
        2    1    3    3  502    0  0.33101603911E+03  0.71958970745E+03  0.18225388375E+04  0.19872163393E+04  0.25500000920E-02 0. -1.
       -2    1    3    3    0  502 -0.33101603911E+03 -0.71958970745E+03 -0.10380212141E+04  0.13057063246E+04  0.25500000920E-02 0.  1.
</event>
<event>
 5   0  0.1277374E-07  0.3194895E+04  0.7818609E-02  0.8190167E-01
        1   -1    0    0  501    0  0.00000000000E+00  0.00000000000E+00  0.10740631074E+04  0.10740631074E+04  0.50400001928E-02 0. -1.
       -1   -1    0    0    0  501  0.00000000000E+00  0.00000000000E+00 -0.23758744687E+04  0.23758744687E+04  0.50400001928E-02 0.  1.
    10030    2    1    2    0    0  0.00000000000E+00  0.00000000000E+00 -0.13018113613E+04  0.34499375762E+04  0.31948953753E+04 0.  0.
        5    1    3    3  502    0 -0.72196809254E+03  0.35174210395E+03  0.84021781116E+03  0.11623030992E+04  0.46999998093E+01 0. -1.
       -5    1    3    3    0  502  0.72196809254E+03 -0.35174210395E+03 -0.21420291725E+04  0.22876344769E+04  0.46999998093E+01 0.  1.
</event>
<event>
 5   0  0.1365455E-07  0.3190562E+04  0.7818609E-02  0.8191314E-01
       -1   -1    0    0    0  501  0.00000000000E+00  0.00000000000E+00  0.18125324788E+04  0.18125324788E+04  0.50400001928E-02 0.  1.
        1   -1    0    0  501    0  0.00000000000E+00  0.00000000000E+00 -0.14040696686E+04  0.14040696687E+04  0.50400001928E-02 0. -1.
    10030    2    1    2    0    0  0.00000000000E+00  0.00000000000E+00  0.40846281014E+03  0.32166021475E+04  0.31905622557E+04 0.  0.
        3    1    3    3  502    0  0.70353018307E+03  0.12604461070E+04 -0.48046004581E+03  0.15213549793E+04  0.10100000352E+00 0. -1.
       -3    1    3    3    0  502 -0.70353018307E+03 -0.12604461070E+04  0.88892285595E+03  0.16952471682E+04  0.10100000352E+00 0.  1.
</event>
<event>
 5   0  0.3764056E-07  0.3193811E+04  0.7818609E-02  0.8190453E-01
       -2   -1    0    0    0  501  0.00000000000E+00  0.00000000000E+00  0.15492090414E+04  0.15492090414E+04  0.25500000920E-02 0. -1.
        2   -1    0    0  501    0  0.00000000000E+00  0.00000000000E+00 -0.16460709300E+04  0.16460709300E+04  0.25500000920E-02 0.  1.
    10030    2    1    2    0    0  0.00000000000E+00  0.00000000000E+00 -0.96861888575E+02  0.31952799713E+04  0.31938114957E+04 0.  0.
        5    1    3    3  502    0 -0.13826186993E+04  0.77475990052E+03 -0.24396518919E+03  0.16035674213E+04  0.46999998093E+01 0. -1.
       -5    1    3    3    0  502  0.13826186993E+04 -0.77475990052E+03  0.14710330061E+03  0.15917125501E+04  0.46999998093E+01 0.  1.
</event>
<event>
 5   0  0.1277374E-07  0.3204891E+04  0.7818609E-02  0.8187527E-01
       -1   -1    0    0    0  501  0.00000000000E+00  0.00000000000E+00  0.15344192938E+04  0.15344192939E+04  0.50400001928E-02 0.  1.
        1   -1    0    0  501    0  0.00000000000E+00  0.00000000000E+00 -0.16734874522E+04  0.16734874522E+04  0.50400001928E-02 0. -1.
    10030    2    1    2    0    0  0.00000000000E+00  0.00000000000E+00 -0.13906815836E+03  0.32079067461E+04  0.32048909090E+04 0.  0.
        5    1    3    3  502    0  0.11018759289E+04  0.28414409575E+03  0.10597744457E+04  0.15549959471E+04  0.46999998093E+01 0.  1.
       -5    1    3    3    0  502 -0.11018759289E+04 -0.28414409575E+03 -0.11988426041E+04  0.16529107989E+04  0.46999998093E+01 0. -1.
</event>
<event>
 5   0  0.3942564E-07  0.3200043E+04  0.7818609E-02  0.8188806E-01
        2   -1    0    0  501    0  0.00000000000E+00  0.00000000000E+00  0.14872009635E+04  0.14872009635E+04  0.25500000920E-02 0. -1.
       -2   -1    0    0    0  501  0.00000000000E+00  0.00000000000E+00 -0.17214006054E+04  0.17214006054E+04  0.25500000920E-02 0.  1.
    10030    2    1    2    0    0  0.00000000000E+00  0.00000000000E+00 -0.23419964182E+03  0.32086015689E+04  0.32000428990E+04 0.  0.
        3    1    3    3  502    0 -0.46714289078E+03  0.95286773983E+03 -0.13177535962E+04  0.16919379304E+04  0.10100000352E+00 0.  1.
       -3    1    3    3    0  502  0.46714289078E+03 -0.95286773983E+03  0.10835539544E+04  0.15166636385E+04  0.10100000352E+00 0. -1.
</event>
<event>
 5   0  0.1317293E-07  0.3201339E+04  0.7818609E-02  0.8188464E-01
       -1   -1    0    0    0  501  0.00000000000E+00  0.00000000000E+00  0.10440161331E+04  0.10440161331E+04  0.50400001928E-02 0.  1.
        1   -1    0    0  501    0  0.00000000000E+00  0.00000000000E+00 -0.24541223665E+04  0.24541223665E+04  0.50400001928E-02 0. -1.
    10030    2    1    2    0    0  0.00000000000E+00  0.00000000000E+00 -0.14101062334E+04  0.34981384996E+04  0.32013393092E+04 0.  0.
        1    1    3    3  502    0 -0.10407472999E+02  0.27067201969E+03 -0.24288965605E+04  0.24439537964E+04  0.50400001928E-02 0. -1.
       -1    1    3    3    0  502  0.10407472999E+02 -0.27067201969E+03  0.10187903271E+04  0.10541847031E+04  0.50400001928E-02 0.  1.
</event>
<event>
 5   0  0.1277374E-07  0.3200393E+04  0.7818609E-02  0.8188713E-01
       -1   -1    0    0    0  501  0.00000000000E+00  0.00000000000E+00  0.11303998896E+04  0.11303998896E+04  0.50400001928E-02 0. -1.
        1   -1    0    0  501    0  0.00000000000E+00  0.00000000000E+00 -0.22652417195E+04  0.22652417195E+04  0.50400001928E-02 0.  1.
    10030    2    1    2    0    0  0.00000000000E+00  0.00000000000E+00 -0.11348418299E+04  0.33956416092E+04  0.32003930944E+04 0.  0.
        5    1    3    3  502    0 -0.93709362217E+03 -0.12104960102E+04 -0.72984680051E+02  0.15325775351E+04  0.46999998093E+01 0. -1.
       -5    1    3    3    0  502  0.93709362217E+03  0.12104960102E+04 -0.10618571498E+04  0.18630640741E+04  0.46999998093E+01 0.  1.
</event>
<event>
 5   0  0.3942564E-07  0.3201238E+04  0.7818609E-02  0.8188490E-01
       -2   -1    0    0    0  501  0.00000000000E+00  0.00000000000E+00  0.18323545880E+04  0.18323545880E+04  0.25500000920E-02 0.  1.
        2   -1    0    0  501    0  0.00000000000E+00  0.00000000000E+00 -0.13981904487E+04  0.13981904487E+04  0.25500000920E-02 0. -1.
    10030    2    1    2    0    0  0.00000000000E+00  0.00000000000E+00  0.43416413931E+03  0.32305450366E+04  0.32012376878E+04 0.  0.
        3    1    3    3  502    0  0.12979783792E+04  0.87773463626E+03 -0.11273521300E+03  0.15709472311E+04  0.10100000352E+00 0. -1.
       -3    1    3    3    0  502 -0.12979783792E+04 -0.87773463626E+03  0.54689935231E+03  0.16595978056E+04  0.10100000352E+00 0.  1.
</event>
<event>
 5   0  0.3764056E-07  0.3199780E+04  0.7818609E-02  0.8188875E-01
       -2   -1    0    0    0  501  0.00000000000E+00  0.00000000000E+00  0.18208057069E+04  0.18208057069E+04  0.25500000920E-02 0.  1.
        2   -1    0    0  501    0  0.00000000000E+00  0.00000000000E+00 -0.14057777926E+04  0.14057777926E+04  0.25500000920E-02 0. -1.
    10030    2    1    2    0    0  0.00000000000E+00  0.00000000000E+00  0.41502791432E+03  0.32265834995E+04  0.31997801345E+04 0.  0.
        5    1    3    3  502    0 -0.45937900521E+03 -0.60555395691E+03 -0.12120788848E+04  0.14306928316E+04  0.46999998093E+01 0. -1.
       -5    1    3    3    0  502  0.45937900521E+03  0.60555395691E+03  0.16271067992E+04  0.17958906679E+04  0.46999998093E+01 0.  1.
</event>
<event>
 5   0  0.3764056E-07  0.3216192E+04  0.7818609E-02  0.8184554E-01
        2   -1    0    0  501    0  0.00000000000E+00  0.00000000000E+00  0.17167107370E+04  0.17167107370E+04  0.25500000920E-02 0. -1.
       -2   -1    0    0    0  501  0.00000000000E+00  0.00000000000E+00 -0.15063529714E+04  0.15063529714E+04  0.25500000920E-02 0.  1.
    10030    2    1    2    0    0  0.00000000000E+00  0.00000000000E+00  0.21035776559E+03  0.32230637085E+04  0.32161917355E+04 0.  0.
        5    1    3    3  502    0  0.17314072099E+02 -0.11425985677E+04 -0.10286620318E+04  0.15375301394E+04  0.46999998093E+01 0.  1.
       -5    1    3    3    0  502 -0.17314072099E+02  0.11425985677E+04  0.12390197974E+04  0.16855335690E+04  0.46999998093E+01 0. -1.
</event>
<event>
 5   0  0.1270948E-07  0.3228049E+04  0.7818609E-02  0.8181449E-01
        1   -1    0    0  501    0  0.00000000000E+00  0.00000000000E+00  0.23330824154E+04  0.23330824154E+04  0.50400001928E-02 0.  1.
       -1   -1    0    0    0  501  0.00000000000E+00  0.00000000000E+00 -0.11165806037E+04  0.11165806037E+04  0.50400001928E-02 0. -1.
    10030    2    1    2    0    0  0.00000000000E+00  0.00000000000E+00  0.12165018117E+04  0.34496630191E+04  0.32280486811E+04 0.  0.
        4    1    3    3  502    0 -0.15068120550E+04  0.57597335395E+03  0.55124967241E+03  0.17047303856E+04  0.12699999809E+01 0.  1.
       -4    1    3    3    0  502  0.15068120550E+04 -0.57597335395E+03  0.66525213930E+03  0.17449326334E+04  0.12699999809E+01 0. -1.
</event>
<event>
 5   0  0.1230450E-07  0.3201442E+04  0.7818609E-02  0.8188436E-01
        3   -1    0    0  501    0  0.00000000000E+00  0.00000000000E+00  0.19284954350E+04  0.19284954376E+04  0.10100000352E+00 0.  1.
       -3   -1    0    0    0  501  0.00000000000E+00  0.00000000000E+00 -0.13286565701E+04  0.13286565739E+04  0.10100000352E+00 0. -1.
    10030    2    1    2    0    0  0.00000000000E+00  0.00000000000E+00  0.59983886489E+03  0.32571520116E+04  0.32014422629E+04 0.  0.
        4    1    3    3  502    0 -0.98005291367E+03 -0.56721506233E+03  0.14510092027E+04  0.18405613165E+04  0.12699999809E+01 0.  1.
       -4    1    3    3    0  502  0.98005291367E+03  0.56721506233E+03 -0.85117033780E+03  0.14165906951E+04  0.12699999809E+01 0. -1.
</event>
<event>
 5   0  0.1270948E-07  0.3197244E+04  0.7818609E-02  0.8189545E-01
       -1   -1    0    0    0  501  0.00000000000E+00  0.00000000000E+00  0.20947155191E+04  0.20947155191E+04  0.50400001928E-02 0.  1.
        1   -1    0    0  501    0  0.00000000000E+00  0.00000000000E+00 -0.12200185256E+04  0.12200185256E+04  0.50400001928E-02 0. -1.
    10030    2    1    2    0    0  0.00000000000E+00  0.00000000000E+00  0.87469699357E+03  0.33147340447E+04  0.31972436499E+04 0.  0.
        4    1    3    3  502    0  0.51578614248E+03  0.14163352266E+02  0.20060107588E+04  0.20713079739E+04  0.12699999809E+01 0.  1.
       -4    1    3    3    0  502 -0.51578614248E+03 -0.14163352266E+02 -0.11313137652E+04  0.12434260708E+04  0.12699999809E+01 0. -1.
</event>
<event>
 5   0  0.1365455E-07  0.3203578E+04  0.7818609E-02  0.8187873E-01
       -1   -1    0    0    0  501  0.00000000000E+00  0.00000000000E+00  0.25501045912E+04  0.25501045912E+04  0.50400001928E-02 0.  1.
        1   -1    0    0  501    0  0.00000000000E+00  0.00000000000E+00 -0.10061266309E+04  0.10061266309E+04  0.50400001928E-02 0. -1.
    10030    2    1    2    0    0  0.00000000000E+00  0.00000000000E+00  0.15439779603E+04  0.35562312221E+04  0.32035780875E+04 0.  0.
        3    1    3    3  502    0  0.95591892600E+03 -0.12808659906E+04  0.89014588931E+03  0.18294147680E+04  0.10100000352E+00 0.  1.
       -3    1    3    3    0  502 -0.95591892600E+03  0.12808659906E+04  0.65383207102E+03  0.17268164541E+04  0.10100000352E+00 0. -1.
</event>
<event>
 5   0  0.1317293E-07  0.3201725E+04  0.7818609E-02  0.8188362E-01
        1   -1    0    0  501    0  0.00000000000E+00  0.00000000000E+00  0.11890661017E+04  0.11890661017E+04  0.50400001928E-02 0. -1.
       -1   -1    0    0    0  501  0.00000000000E+00  0.00000000000E+00 -0.21552715289E+04  0.21552715289E+04  0.50400001928E-02 0.  1.
    10030    2    1    2    0    0  0.00000000000E+00  0.00000000000E+00 -0.96620542720E+03  0.33443376306E+04  0.32017247321E+04 0.  0.
        1    1    3    3  502    0 -0.38132333435E+03 -0.62731503193E+03  0.10028774015E+04  0.12428574806E+04  0.50400001928E-02 0. -1.
       -1    1    3    3    0  502  0.38132333435E+03  0.62731503193E+03 -0.19690828287E+04  0.21014801500E+04  0.50400001928E-02 0.  1.
</event>
<event>
 5   0  0.3942564E-07  0.3200165E+04  0.7818609E-02  0.8188774E-01
       -2   -1    0    0    0  501  0.00000000000E+00  0.00000000000E+00  0.20718340829E+04  0.20718340829E+04  0.25500000920E-02 0. -1.
        2   -1    0    0  501    0  0.00000000000E+00  0.00000000000E+00 -0.12357474683E+04  0.12357474683E+04  0.25500000920E-02 0.  1.
    10030    2    1    2    0    0  0.00000000000E+00  0.00000000000E+00  0.83608661461E+03  0.33075815512E+04  0.32001648224E+04 0.  0.
        3    1    3    3  502    0 -0.22054964203E+03  0.26864273264E+03 -0.11962573008E+04  0.12457297469E+04  0.10100000352E+00 0.  1.
       -3    1    3    3    0  502  0.22054964203E+03 -0.26864273264E+03  0.20323439154E+04  0.20618518043E+04  0.10100000352E+00 0. -1.
</event>
<event>
 5   0  0.3764056E-07  0.3204978E+04  0.7818609E-02  0.8187504E-01
       -2   -1    0    0    0  501  0.00000000000E+00  0.00000000000E+00  0.11229481558E+04  0.11229481558E+04  0.25500000920E-02 0.  1.
        2   -1    0    0  501    0  0.00000000000E+00  0.00000000000E+00 -0.22868123952E+04  0.22868123952E+04  0.25500000920E-02 0. -1.
    10030    2    1    2    0    0  0.00000000000E+00  0.00000000000E+00 -0.11638642394E+04  0.34097605509E+04  0.32049784784E+04 0.  0.
        5    1    3    3  502    0  0.75048638263E+03  0.10217033254E+04 -0.16247891985E+04  0.20608419457E+04  0.46999998093E+01 0. -1.
       -5    1    3    3    0  502 -0.75048638263E+03 -0.10217033254E+04  0.46092495914E+03  0.13489186052E+04  0.46999998093E+01 0.  1.
</event>
<event>
 5   0  0.3764056E-07  0.3275040E+04  0.7818609E-02  0.8169276E-01
       -2   -1    0    0    0  501  0.00000000000E+00  0.00000000000E+00  0.14326546125E+04  0.14326546125E+04  0.25500000920E-02 0. -1.
        2   -1    0    0  501    0  0.00000000000E+00  0.00000000000E+00 -0.18716801661E+04  0.18716801661E+04  0.25500000920E-02 0.  1.
    10030    2    1    2    0    0  0.00000000000E+00  0.00000000000E+00 -0.43902555361E+03  0.33043347787E+04  0.32750396781E+04 0.  0.
        5    1    3    3  502    0 -0.72985440482E+03 -0.13072761396E+04  0.44958645862E+03  0.15632685090E+04  0.46999998093E+01 0. -1.
       -5    1    3    3    0  502  0.72985440482E+03  0.13072761396E+04 -0.88861201222E+03  0.17410662697E+04  0.46999998093E+01 0.  1.
</event>
<event>
 5   0  0.1317293E-07  0.3193687E+04  0.7818609E-02  0.8190486E-01
        1   -1    0    0  501    0  0.00000000000E+00  0.00000000000E+00  0.23905189745E+04  0.23905189745E+04  0.50400001928E-02 0.  1.
       -1   -1    0    0    0  501  0.00000000000E+00  0.00000000000E+00 -0.10666758329E+04  0.10666758329E+04  0.50400001928E-02 0. -1.
    10030    2    1    2    0    0  0.00000000000E+00  0.00000000000E+00  0.13238431416E+04  0.34571948075E+04  0.31936867838E+04 0.  0.
        1    1    3    3  502    0 -0.11753356838E+04 -0.40496445904E+03  0.17468627831E+04  0.21440475195E+04  0.50400001928E-02 0.  1.
       -1    1    3    3    0  502  0.11753356838E+04  0.40496445904E+03 -0.42301964152E+03  0.13131472880E+04  0.50400001928E-02 0. -1.
</event>
<event>
 5   0  0.3750285E-07  0.3204653E+04  0.7818609E-02  0.8187589E-01
       -2   -1    0    0    0  501  0.00000000000E+00  0.00000000000E+00  0.11530279304E+04  0.11530279304E+04  0.25500000920E-02 0.  1.
        2   -1    0    0  501    0  0.00000000000E+00  0.00000000000E+00 -0.22267026065E+04  0.22267026065E+04  0.25500000920E-02 0. -1.
    10030    2    1    2    0    0  0.00000000000E+00  0.00000000000E+00 -0.10736746761E+04  0.33797305369E+04  0.32046530533E+04 0.  0.
        1    1    3    3  502    0 -0.10741668749E+04 -0.63627371702E+03 -0.15960849089E+04  0.20263676257E+04  0.50400001928E-02 0. -1.
       -1    1    3    3    0  502  0.10741668749E+04  0.63627371702E+03  0.52241023283E+03  0.13533629112E+04  0.50400001928E-02 0.  1.
</event>
<event>
 5   0  0.3750285E-07  0.3198127E+04  0.7818609E-02  0.8189312E-01
       -2   -1    0    0    0  501  0.00000000000E+00  0.00000000000E+00  0.17264648838E+04  0.17264648838E+04  0.25500000920E-02 0.  1.
        2   -1    0    0  501    0  0.00000000000E+00  0.00000000000E+00 -0.14810631621E+04  0.14810631621E+04  0.25500000920E-02 0. -1.
    10030    2    1    2    0    0  0.00000000000E+00  0.00000000000E+00  0.24540172167E+03  0.32075280459E+04  0.31981266642E+04 0.  0.
        1    1    3    3  502    0  0.14010370978E+04 -0.15442000580E+03  0.88007175562E+03  0.16617089946E+04  0.50400001928E-02 0.  1.
       -1    1    3    3    0  502 -0.14010370978E+04  0.15442000580E+03 -0.63467003395E+03  0.15458190514E+04  0.50400001928E-02 0. -1.
</event>
<event>
 5   0  0.1365455E-07  0.3200049E+04  0.7818609E-02  0.8188804E-01
        1   -1    0    0  501    0  0.00000000000E+00  0.00000000000E+00  0.22705684401E+04  0.22705684401E+04  0.50400001928E-02 0. -1.
       -1   -1    0    0    0  501  0.00000000000E+00  0.00000000000E+00 -0.11275055252E+04  0.11275055252E+04  0.50400001928E-02 0.  1.
    10030    2    1    2    0    0  0.00000000000E+00  0.00000000000E+00  0.11430629149E+04  0.33980739652E+04  0.32000490380E+04 0.  0.
        3    1    3    3  502    0 -0.34854833375E+03 -0.10984023277E+04  0.17502226150E+04  0.20955316334E+04  0.10100000352E+00 0. -1.
       -3    1    3    3    0  502  0.34854833375E+03  0.10984023277E+04 -0.60715970010E+03  0.13025423318E+04  0.10100000352E+00 0.  1.
</event>
<event>
 5   0  0.3830207E-07  0.3201036E+04  0.7818609E-02  0.8188544E-01
       -2   -1    0    0    0  501  0.00000000000E+00  0.00000000000E+00  0.11058539683E+04  0.11058539683E+04  0.25500000920E-02 0.  1.
        2   -1    0    0  501    0  0.00000000000E+00  0.00000000000E+00 -0.23164520241E+04  0.23164520241E+04  0.25500000920E-02 0. -1.
    10030    2    1    2    0    0  0.00000000000E+00  0.00000000000E+00 -0.12105980557E+04  0.34223059924E+04  0.32010358718E+04 0.  0.
        4    1    3    3  502    0  0.58598368202E+02 -0.10019042628E+04  0.72764252135E+03  0.12396415500E+04  0.12699999809E+01 0.  1.
       -4    1    3    3    0  502 -0.58598368202E+02  0.10019042628E+04 -0.19382405771E+04  0.21826644424E+04  0.12699999809E+01 0. -1.
</event>
<event>
 5   0  0.1288096E-07  0.3202080E+04  0.7818609E-02  0.8188268E-01
        1   -1    0    0  501    0  0.00000000000E+00  0.00000000000E+00  0.20924190181E+04  0.20924190181E+04  0.50400001928E-02 0.  1.
       -1   -1    0    0    0  501  0.00000000000E+00  0.00000000000E+00 -0.12250552918E+04  0.12250552919E+04  0.50400001928E-02 0. -1.
    10030    2    1    2    0    0  0.00000000000E+00  0.00000000000E+00  0.86736372625E+03  0.33174743100E+04  0.32020799434E+04 0.  0.
        2    1    3    3  502    0 -0.66072767923E+02  0.14306577159E+04 -0.30777775495E+03  0.14648802876E+04  0.25500000920E-02 0. -1.
       -2    1    3    3    0  502  0.66072767923E+02 -0.14306577159E+04  0.11751414812E+04  0.18525940223E+04  0.25500000920E-02 0.  1.
</event>
<event>
 5   0  0.3858721E-07  0.3217982E+04  0.7818609E-02  0.8184084E-01
        2   -1    0    0  501    0  0.00000000000E+00  0.00000000000E+00  0.28974169894E+04  0.28974169894E+04  0.25500000920E-02 0.  1.
       -2   -1    0    0    0  501  0.00000000000E+00  0.00000000000E+00 -0.89350316508E+03  0.89350316508E+03  0.25500000920E-02 0. -1.
    10030    2    1    2    0    0  0.00000000000E+00  0.00000000000E+00  0.20039138243E+04  0.37909201545E+04  0.32179815106E+04 0.  0.
        2    1    3    3  502    0  0.12627298060E+04  0.45793577297E+03  0.20454791673E+04  0.24470751437E+04  0.25500000920E-02 0.  1.
       -2    1    3    3    0  502 -0.12627298060E+04 -0.45793577297E+03 -0.41565342968E+02  0.13438450108E+04  0.25500000920E-02 0. -1.
</event>
<event>
 5   0  0.1317293E-07  0.3199441E+04  0.7818609E-02  0.8188965E-01
       -1   -1    0    0    0  501  0.00000000000E+00  0.00000000000E+00  0.14798341148E+04  0.14798341148E+04  0.50400001928E-02 0.  1.
        1   -1    0    0  501    0  0.00000000000E+00  0.00000000000E+00 -0.17293195333E+04  0.17293195333E+04  0.50400001928E-02 0. -1.
    10030    2    1    2    0    0  0.00000000000E+00  0.00000000000E+00 -0.24948541847E+03  0.32091536481E+04  0.31994412267E+04 0.  0.
        1    1    3    3  502    0 -0.69415283162E+03  0.10292261769E+04 -0.11367412550E+04  0.16832514244E+04  0.50400001928E-02 0. -1.
       -1    1    3    3    0  502  0.69415283162E+03 -0.10292261769E+04  0.88725583654E+03  0.15259022237E+04  0.50400001928E-02 0.  1.
</event>
<event>
 5   0  0.3858721E-07  0.3197574E+04  0.7818609E-02  0.8189458E-01
        2   -1    0    0  501    0  0.00000000000E+00  0.00000000000E+00  0.21860365157E+04  0.21860365157E+04  0.25500000920E-02 0. -1.
       -2   -1    0    0    0  501  0.00000000000E+00  0.00000000000E+00 -0.11692944513E+04  0.11692944513E+04  0.25500000920E-02 0.  1.
    10030    2    1    2    0    0  0.00000000000E+00  0.00000000000E+00  0.10167420643E+04  0.33553309670E+04  0.31975743108E+04 0.  0.
        2    1    3    3  502    0 -0.75426557178E+03  0.59528017145E+03  0.18492427900E+04  0.20839803098E+04  0.25500000920E-02 0. -1.
       -2    1    3    3    0  502  0.75426557178E+03 -0.59528017145E+03 -0.83250072568E+03  0.12713506572E+04  0.25500000920E-02 0.  1.
</event>
<event>
 5   0  0.3764056E-07  0.3201986E+04  0.7818609E-02  0.8188293E-01
        2   -1    0    0  501    0  0.00000000000E+00  0.00000000000E+00  0.14087498724E+04  0.14087498724E+04  0.25500000920E-02 0.  1.
       -2   -1    0    0    0  501  0.00000000000E+00  0.00000000000E+00 -0.18194702346E+04  0.18194702346E+04  0.25500000920E-02 0. -1.
    10030    2    1    2    0    0  0.00000000000E+00  0.00000000000E+00 -0.41072036214E+03  0.32282201070E+04  0.32019859218E+04 0.  0.
        5    1    3    3  502    0 -0.71070176975E+03  0.10657602955E+04  0.76282773914E+03  0.14909293285E+04  0.46999998093E+01 0.  1.
       -5    1    3    3    0  502  0.71070176975E+03 -0.10657602955E+04 -0.11735481013E+04  0.17372907785E+04  0.46999998093E+01 0. -1.
</event>
<event>
 5   0  0.3764056E-07  0.3195073E+04  0.7818609E-02  0.8190120E-01
       -2   -1    0    0    0  501  0.00000000000E+00  0.00000000000E+00  0.13531731739E+04  0.13531731739E+04  0.25500000920E-02 0.  1.
        2   -1    0    0  501    0  0.00000000000E+00  0.00000000000E+00 -0.18860279924E+04  0.18860279924E+04  0.25500000920E-02 0. -1.
    10030    2    1    2    0    0  0.00000000000E+00  0.00000000000E+00 -0.53285481847E+03  0.32392011663E+04  0.31950727594E+04 0.  0.
        5    1    3    3  502    0  0.88062985951E+03 -0.10061972318E+04 -0.11526624412E+04  0.17653879495E+04  0.46999998093E+01 0. -1.
       -5    1    3    3    0  502 -0.88062985951E+03  0.10061972318E+04  0.61980762277E+03  0.14738132168E+04  0.46999998093E+01 0.  1.
</event>
<event>
 5   0  0.1230450E-07  0.3199771E+04  0.7818609E-02  0.8188878E-01
       -4   -1    0    0    0  501  0.00000000000E+00  0.00000000000E+00  0.15024007529E+04  0.15024012897E+04  0.12699999809E+01 0. -1.
        4   -1    0    0  501    0  0.00000000000E+00  0.00000000000E+00 -0.17036949343E+04  0.17036954077E+04  0.12699999809E+01 0.  1.
    10030    2    1    2    0    0  0.00000000000E+00  0.00000000000E+00 -0.20129418141E+03  0.32060966974E+04  0.31997713489E+04 0.  0.
        4    1    3    3  502    0 -0.13697606747E+04  0.48966485394E+03 -0.76800921925E+03  0.16449485551E+04  0.12699999809E+01 0.  1.
       -4    1    3    3    0  502  0.13697606747E+04 -0.48966485394E+03  0.56671503784E+03  0.15611481423E+04  0.12699999809E+01 0. -1.
</event>
<event>
 5   0  0.1365455E-07  0.3199058E+04  0.7818609E-02  0.8189066E-01
       -1   -1    0    0    0  501  0.00000000000E+00  0.00000000000E+00  0.15635600635E+04  0.15635600635E+04  0.50400001928E-02 0. -1.
        1   -1    0    0  501    0  0.00000000000E+00  0.00000000000E+00 -0.16363254505E+04  0.16363254505E+04  0.50400001928E-02 0.  1.
    10030    2    1    2    0    0  0.00000000000E+00  0.00000000000E+00 -0.72765386985E+02  0.31998855140E+04  0.31990580647E+04 0.  0.
        3    1    3    3  502    0  0.83916652090E+03  0.79799174308E+03  0.10673073664E+04  0.15748448484E+04  0.10100000352E+00 0. -1.
       -3    1    3    3    0  502 -0.83916652090E+03 -0.79799174308E+03 -0.11400727534E+04  0.16250406657E+04  0.10100000352E+00 0.  1.
</event>
<event>
 5   0  0.1365455E-07  0.3183128E+04  0.7818609E-02  0.8193287E-01
        1   -1    0    0  501    0  0.00000000000E+00  0.00000000000E+00  0.22434036636E+04  0.22434036636E+04  0.50400001928E-02 0. -1.
       -1   -1    0    0    0  501  0.00000000000E+00  0.00000000000E+00 -0.11291219409E+04  0.11291219409E+04  0.50400001928E-02 0.  1.
    10030    2    1    2    0    0  0.00000000000E+00  0.00000000000E+00  0.11142817227E+04  0.33725256045E+04  0.31831282091E+04 0.  0.
        3    1    3    3  502    0  0.10552534328E+04 -0.14021533090E+03 -0.69641250584E+03  0.12720890437E+04  0.10100000352E+00 0.  1.
       -3    1    3    3    0  502 -0.10552534328E+04  0.14021533090E+03  0.18106942286E+04  0.21004365609E+04  0.10100000352E+00 0. -1.
</event>
<event>
 5   0  0.1277374E-07  0.3182132E+04  0.7818609E-02  0.8193552E-01
       -1   -1    0    0    0  501  0.00000000000E+00  0.00000000000E+00  0.12843070217E+04  0.12843070217E+04  0.50400001928E-02 0.  1.
        1   -1    0    0  501    0  0.00000000000E+00  0.00000000000E+00 -0.19710945740E+04  0.19710945740E+04  0.50400001928E-02 0. -1.
    10030    2    1    2    0    0  0.00000000000E+00  0.00000000000E+00 -0.68678755235E+03  0.32554015957E+04  0.31821317395E+04 0.  0.
        5    1    3    3  502    0 -0.88950038368E+03 -0.77583463007E+03 -0.14348895860E+04  0.18579721526E+04  0.46999998093E+01 0. -1.
       -5    1    3    3    0  502  0.88950038368E+03  0.77583463007E+03  0.74810203364E+03  0.13974294431E+04  0.46999998093E+01 0.  1.
</event>
<event>
 5   0  0.3750285E-07  0.3198297E+04  0.7818609E-02  0.8189267E-01
       -2   -1    0    0    0  501  0.00000000000E+00  0.00000000000E+00  0.14908727672E+04  0.14908727672E+04  0.25500000920E-02 0. -1.
        2   -1    0    0  501    0  0.00000000000E+00  0.00000000000E+00 -0.17152881333E+04  0.17152881333E+04  0.25500000920E-02 0.  1.
    10030    2    1    2    0    0  0.00000000000E+00  0.00000000000E+00 -0.22441536614E+03  0.32061609005E+04  0.31982972756E+04 0.  0.
        1    1    3    3  502    0  0.51814089723E+03 -0.69954997298E+03 -0.14569365052E+04  0.16972048003E+04  0.50400001928E-02 0.  1.
       -1    1    3    3    0  502 -0.51814089723E+03  0.69954997298E+03  0.12325211390E+04  0.15089561002E+04  0.50400001928E-02 0. -1.
</event>
<event>
 5   0  0.1277374E-07  0.3181221E+04  0.7818609E-02  0.8193794E-01
        1   -1    0    0  501    0  0.00000000000E+00  0.00000000000E+00  0.14710395734E+04  0.14710395734E+04  0.50400001928E-02 0. -1.
       -1   -1    0    0    0  501  0.00000000000E+00  0.00000000000E+00 -0.17199007438E+04  0.17199007438E+04  0.50400001928E-02 0.  1.
    10030    2    1    2    0    0  0.00000000000E+00  0.00000000000E+00 -0.24886117039E+03  0.31909403172E+04  0.31812211847E+04 0.  0.
        5    1    3    3  502    0  0.64606702314E+01 -0.13233679251E+04 -0.10095524878E+04  0.16645007423E+04  0.46999998093E+01 0.  1.
       -5    1    3    3    0  502 -0.64606702314E+01  0.13233679251E+04  0.76069131738E+03  0.15264395749E+04  0.46999998093E+01 0. -1.
</event>
<event>
 5   0  0.3750285E-07  0.3197082E+04  0.7818609E-02  0.8189588E-01
       -2   -1    0    0    0  501  0.00000000000E+00  0.00000000000E+00  0.12965720156E+04  0.12965720156E+04  0.25500000920E-02 0. -1.
        2   -1    0    0  501    0  0.00000000000E+00  0.00000000000E+00 -0.19708378321E+04  0.19708378321E+04  0.25500000920E-02 0.  1.
    10030    2    1    2    0    0  0.00000000000E+00  0.00000000000E+00 -0.67426581652E+03  0.32674098478E+04  0.31970819073E+04 0.  0.
        1    1    3    3  502    0 -0.14278759935E+04 -0.17555670719E+03  0.37510712091E+03  0.14867263913E+04  0.50400001928E-02 0. -1.
       -1    1    3    3    0  502  0.14278759935E+04  0.17555670719E+03 -0.10493729374E+04  0.17806834565E+04  0.50400001928E-02 0.  1.
</event>
<event>
 5   0  0.3942564E-07  0.3205587E+04  0.7818609E-02  0.8187343E-01
       -2   -1    0    0    0  501  0.00000000000E+00  0.00000000000E+00  0.11848187702E+04  0.11848187702E+04  0.25500000920E-02 0.  1.
        2   -1    0    0  501    0  0.00000000000E+00  0.00000000000E+00 -0.21682191688E+04  0.21682191688E+04  0.25500000920E-02 0. -1.
    10030    2    1    2    0    0  0.00000000000E+00  0.00000000000E+00 -0.98340039857E+03  0.33530379390E+04  0.32055868537E+04 0.  0.
        3    1    3    3  502    0  0.31550136389E+03  0.15215610357E+04 -0.90252276728E+03  0.17970076381E+04  0.10100000352E+00 0.  1.
       -3    1    3    3    0  502 -0.31550136389E+03 -0.15215610357E+04 -0.80877631294E+02  0.15560303009E+04  0.10100000352E+00 0. -1.
</event>
<event>
 5   0  0.3858721E-07  0.3199725E+04  0.7818609E-02  0.8188890E-01
        2   -1    0    0  501    0  0.00000000000E+00  0.00000000000E+00  0.18297669675E+04  0.18297669675E+04  0.25500000920E-02 0.  1.
       -2   -1    0    0    0  501  0.00000000000E+00  0.00000000000E+00 -0.13988446429E+04  0.13988446429E+04  0.25500000920E-02 0. -1.
    10030    2    1    2    0    0  0.00000000000E+00  0.00000000000E+00  0.43092232460E+03  0.32286116105E+04  0.31997248134E+04 0.  0.
        2    1    3    3  502    0  0.86738554044E+03  0.78093582773E+03  0.13195706768E+04  0.17616711424E+04  0.25500000920E-02 0.  1.
       -2    1    3    3    0  502 -0.86738554044E+03 -0.78093582773E+03 -0.88864835225E+03  0.14669404680E+04  0.25500000920E-02 0. -1.
</event>
<event>
 5   0  0.1288096E-07  0.3200471E+04  0.7818609E-02  0.8188693E-01
        1   -1    0    0  501    0  0.00000000000E+00  0.00000000000E+00  0.26097787595E+04  0.26097787595E+04  0.50400001928E-02 0.  1.
       -1   -1    0    0    0  501  0.00000000000E+00  0.00000000000E+00 -0.98121468556E+03  0.98121468558E+03  0.50400001928E-02 0. -1.
    10030    2    1    2    0    0  0.00000000000E+00  0.00000000000E+00  0.16285640739E+04  0.35909934451E+04  0.32004707435E+04 0.  0.
        2    1    3    3  502    0  0.78376271679E+03 -0.13243606142E+04  0.13066153452E+04  0.20187765337E+04  0.25500000920E-02 0. -1.
       -2    1    3    3    0  502 -0.78376271679E+03  0.13243606142E+04  0.32194872869E+03  0.15722169114E+04  0.25500000920E-02 0.  1.
</event>
<event>
 5   0  0.3764056E-07  0.3199938E+04  0.7818609E-02  0.8188834E-01
        2   -1    0    0  501    0  0.00000000000E+00  0.00000000000E+00  0.21481852842E+04  0.21481852842E+04  0.25500000920E-02 0.  1.
       -2   -1    0    0    0  501  0.00000000000E+00  0.00000000000E+00 -0.11916572029E+04  0.11916572029E+04  0.25500000920E-02 0. -1.
    10030    2    1    2    0    0  0.00000000000E+00  0.00000000000E+00  0.95652808137E+03  0.33398424871E+04  0.31999377913E+04 0.  0.
        5    1    3    3  502    0 -0.11295820832E+04 -0.30945607873E+03 -0.65942047134E+03  0.13440893555E+04  0.46999998093E+01 0. -1.
       -5    1    3    3    0  502  0.11295820832E+04  0.30945607873E+03  0.16159485527E+04  0.19957531316E+04  0.46999998093E+01 0.  1.
</event>
<event>
 5   0  0.3764056E-07  0.3202366E+04  0.7818609E-02  0.8188192E-01
       -2   -1    0    0    0  501  0.00000000000E+00  0.00000000000E+00  0.15281204395E+04  0.15281204395E+04  0.25500000920E-02 0.  1.
        2   -1    0    0  501    0  0.00000000000E+00  0.00000000000E+00 -0.16777393313E+04  0.16777393313E+04  0.25500000920E-02 0. -1.
    10030    2    1    2    0    0  0.00000000000E+00  0.00000000000E+00 -0.14961889177E+03  0.32058597708E+04  0.32023664777E+04 0.  0.
        5    1    3    3  502    0  0.71734368713E+03  0.62234845384E+03 -0.13653495550E+04  0.16631599624E+04  0.46999998093E+01 0. -1.
       -5    1    3    3    0  502 -0.71734368713E+03 -0.62234845384E+03  0.12157306632E+04  0.15426998084E+04  0.46999998093E+01 0.  1.
</event>
<event>
 5   0  0.3750285E-07  0.3199391E+04  0.7818609E-02  0.8188978E-01
       -2   -1    0    0    0  501  0.00000000000E+00  0.00000000000E+00  0.11815741147E+04  0.11815741147E+04  0.25500000920E-02 0. -1.
        2   -1    0    0  501    0  0.00000000000E+00  0.00000000000E+00 -0.21657772718E+04  0.21657772718E+04  0.25500000920E-02 0.  1.
    10030    2    1    2    0    0  0.00000000000E+00  0.00000000000E+00 -0.98420315704E+03  0.33473513865E+04  0.31993914188E+04 0.  0.
        1    1    3    3  502    0  0.11671409161E+04  0.10577642559E+03  0.64711592565E+03  0.13387178909E+04  0.50400001928E-02 0. -1.
       -1    1    3    3    0  502 -0.11671409161E+04 -0.10577642559E+03 -0.16313190827E+04  0.20086334956E+04  0.50400001928E-02 0.  1.
</event>
<event>
 5   0  0.3830207E-07  0.3198115E+04  0.7818609E-02  0.8189315E-01
       -2   -1    0    0    0  501  0.00000000000E+00  0.00000000000E+00  0.14196287365E+04  0.14196287365E+04  0.25500000920E-02 0. -1.
        2   -1    0    0  501    0  0.00000000000E+00  0.00000000000E+00 -0.18011649128E+04  0.18011649128E+04  0.25500000920E-02 0.  1.
    10030    2    1    2    0    0  0.00000000000E+00  0.00000000000E+00 -0.38153617631E+03  0.32207936493E+04  0.31981153634E+04 0.  0.
        4    1    3    3  502    0  0.51365207530E+03  0.48694381961E+03  0.12532865217E+04  0.14393336849E+04  0.12699999809E+01 0. -1.
       -4    1    3    3    0  502 -0.51365207530E+03 -0.48694381961E+03 -0.16348226980E+04  0.17814599644E+04  0.12699999809E+01 0.  1.
</event>
<event>
 5   0  0.1288096E-07  0.3199061E+04  0.7818609E-02  0.8189065E-01
        1   -1    0    0  501    0  0.00000000000E+00  0.00000000000E+00  0.24193382597E+04  0.24193382597E+04  0.50400001928E-02 0. -1.
       -1   -1    0    0    0  501  0.00000000000E+00  0.00000000000E+00 -0.10575195830E+04  0.10575195830E+04  0.50400001928E-02 0.  1.
    10030    2    1    2    0    0  0.00000000000E+00  0.00000000000E+00  0.13618186768E+04  0.34768578427E+04  0.31990608544E+04 0.  0.
        2    1    3    3  502    0 -0.10610073524E+04  0.55016836516E+03 -0.47445301295E+03  0.12858955997E+04  0.25500000920E-02 0.  1.
       -2    1    3    3    0  502  0.10610073524E+04 -0.55016836516E+03  0.18362716897E+04  0.21909622430E+04  0.25500000920E-02 0. -1.
</event>
<event>
 5   0  0.1288096E-07  0.3195843E+04  0.7818609E-02  0.8189916E-01
       -1   -1    0    0    0  501  0.00000000000E+00  0.00000000000E+00  0.12978593001E+04  0.12978593001E+04  0.50400001928E-02 0. -1.
        1   -1    0    0  501    0  0.00000000000E+00  0.00000000000E+00 -0.19673573992E+04  0.19673573992E+04  0.50400001928E-02 0.  1.
    10030    2    1    2    0    0  0.00000000000E+00  0.00000000000E+00 -0.66949809916E+03  0.32652166993E+04  0.31958429856E+04 0.  0.
        2    1    3    3  502    0  0.13578611918E+04  0.11553452746E+03  0.51776030489E+03  0.14578103363E+04  0.25500000920E-02 0. -1.
       -2    1    3    3    0  502 -0.13578611918E+04 -0.11553452746E+03 -0.11872584040E+04  0.18074063630E+04  0.25500000920E-02 0.  1.
</event>
<event>
 5   0  0.3764056E-07  0.3200025E+04  0.7818609E-02  0.8188811E-01
       -2   -1    0    0    0  501  0.00000000000E+00  0.00000000000E+00  0.11165748017E+04  0.11165748017E+04  0.25500000920E-02 0. -1.
        2   -1    0    0  501    0  0.00000000000E+00  0.00000000000E+00 -0.22927615025E+04  0.22927615025E+04  0.25500000920E-02 0.  1.
    10030    2    1    2    0    0  0.00000000000E+00  0.00000000000E+00 -0.11761867008E+04  0.34093363042E+04  0.32000248249E+04 0.  0.
        5    1    3    3  502    0  0.11025423288E+04  0.78215937298E+03 -0.15000269537E+04  0.20192760642E+04  0.46999998093E+01 0.  1.
       -5    1    3    3    0  502 -0.11025423288E+04 -0.78215937298E+03  0.32384025291E+03  0.13900602400E+04  0.46999998093E+01 0. -1.
</event>
<event>
 5   0  0.3942564E-07  0.3173294E+04  0.7818609E-02  0.8195906E-01
        2   -1    0    0  501    0  0.00000000000E+00  0.00000000000E+00  0.25168638570E+04  0.25168638570E+04  0.25500000920E-02 0.  1.
       -2   -1    0    0    0  501  0.00000000000E+00  0.00000000000E+00 -0.10002322691E+04  0.10002322692E+04  0.25500000920E-02 0. -1.
    10030    2    1    2    0    0  0.00000000000E+00  0.00000000000E+00  0.15166315879E+04  0.35170961262E+04  0.31732938388E+04 0.  0.
        3    1    3    3  502    0  0.85608518848E+03 -0.66885746961E+03  0.20399719513E+04  0.23112199672E+04  0.10100000352E+00 0.  1.
       -3    1    3    3    0  502 -0.85608518848E+03  0.66885746961E+03 -0.52334036342E+03  0.12058761590E+04  0.10100000352E+00 0. -1.
</event>
<event>
 5   0  0.1288096E-07  0.3192752E+04  0.7818609E-02  0.8190734E-01
        1   -1    0    0  501    0  0.00000000000E+00  0.00000000000E+00  0.21723745303E+04  0.21723745303E+04  0.50400001928E-02 0. -1.
       -1   -1    0    0    0  501  0.00000000000E+00  0.00000000000E+00 -0.11731014319E+04  0.11731014319E+04  0.50400001928E-02 0.  1.
    10030    2    1    2    0    0  0.00000000000E+00  0.00000000000E+00  0.99927309835E+03  0.33454759622E+04  0.31927515858E+04 0.  0.
        2    1    3    3  502    0  0.48580271829E+03  0.10130904201E+03 -0.10902253151E+04  0.11978560184E+04  0.25500000920E-02 0.  1.
       -2    1    3    3    0  502 -0.48580271829E+03 -0.10130904201E+03  0.20894984135E+04  0.21476199438E+04  0.25500000920E-02 0. -1.
</event>
<event>
 5   0  0.3830207E-07  0.3197305E+04  0.7818609E-02  0.8189529E-01
       -2   -1    0    0    0  501  0.00000000000E+00  0.00000000000E+00  0.15159836218E+04  0.15159836218E+04  0.25500000920E-02 0.  1.
        2   -1    0    0  501    0  0.00000000000E+00  0.00000000000E+00 -0.16858293140E+04  0.16858293140E+04  0.25500000920E-02 0. -1.
    10030    2    1    2    0    0  0.00000000000E+00  0.00000000000E+00 -0.16984569225E+03  0.32018129358E+04  0.31973048833E+04 0.  0.
        4    1    3    3  502    0 -0.12532504471E+04 -0.74021336892E+03  0.57717159765E+03  0.15657845256E+04  0.12699999809E+01 0.  1.
       -4    1    3    3    0  502  0.12532504471E+04  0.74021336892E+03 -0.74701728991E+03  0.16360284102E+04  0.12699999809E+01 0. -1.
</event>
<event>
 5   0  0.1270948E-07  0.3197699E+04  0.7818609E-02  0.8189425E-01
       -1   -1    0    0    0  501  0.00000000000E+00  0.00000000000E+00  0.97113805027E+03  0.97113805028E+03  0.50400001928E-02 0. -1.
        1   -1    0    0  501    0  0.00000000000E+00  0.00000000000E+00 -0.26322926895E+04  0.26322926895E+04  0.50400001928E-02 0.  1.
    10030    2    1    2    0    0  0.00000000000E+00  0.00000000000E+00 -0.16611546393E+04  0.36034307398E+04  0.31976989166E+04 0.  0.
        4    1    3    3  502    0  0.10739460375E+04 -0.11722373182E+04 -0.63928075074E+03  0.17135290814E+04  0.12699999809E+01 0. -1.
       -4    1    3    3    0  502 -0.10739460375E+04  0.11722373182E+04 -0.10218738885E+04  0.18899016584E+04  0.12699999809E+01 0.  1.
</event>
<event>
 5   0  0.1365455E-07  0.3202213E+04  0.7818609E-02  0.8188233E-01
        1   -1    0    0  501    0  0.00000000000E+00  0.00000000000E+00  0.24901813472E+04  0.24901813472E+04  0.50400001928E-02 0.  1.
       -1   -1    0    0    0  501  0.00000000000E+00  0.00000000000E+00 -0.10294600360E+04  0.10294600361E+04  0.50400001928E-02 0. -1.
    10030    2    1    2    0    0  0.00000000000E+00  0.00000000000E+00  0.14607213111E+04  0.35196413832E+04  0.32022130969E+04 0.  0.
        3    1    3    3  502    0  0.25046926430E+03 -0.15145731803E+04  0.12302830706E+04  0.19672984560E+04  0.10100000352E+00 0.  1.
       -3    1    3    3    0  502 -0.25046926430E+03  0.15145731803E+04  0.23043824049E+03  0.15523429272E+04  0.10100000352E+00 0. -1.
</event>
<event>
 5   0  0.3750285E-07  0.3201568E+04  0.7818609E-02  0.8188403E-01
       -2   -1    0    0    0  501  0.00000000000E+00  0.00000000000E+00  0.19290475358E+04  0.19290475358E+04  0.25500000920E-02 0.  1.
        2   -1    0    0  501    0  0.00000000000E+00  0.00000000000E+00 -0.13283810454E+04  0.13283810454E+04  0.25500000920E-02 0. -1.
    10030    2    1    2    0    0  0.00000000000E+00  0.00000000000E+00  0.60066649035E+03  0.32574285812E+04  0.32015684795E+04 0.  0.
        1    1    3    3  502    0 -0.78357510648E+03 -0.13958008217E+04  0.31674858785E+03  0.16317412629E+04  0.50400001928E-02 0.  1.
       -1    1    3    3    0  502  0.78357510648E+03  0.13958008217E+04  0.28391790250E+03  0.16256873182E+04  0.50400001928E-02 0. -1.
</event>
<event>
 5   0  0.1288096E-07  0.3202062E+04  0.7818609E-02  0.8188273E-01
       -1   -1    0    0    0  501  0.00000000000E+00  0.00000000000E+00  0.82916837643E+03  0.82916837644E+03  0.50400001928E-02 0.  1.
        1   -1    0    0  501    0  0.00000000000E+00  0.00000000000E+00 -0.30914107707E+04  0.30914107707E+04  0.50400001928E-02 0. -1.
    10030    2    1    2    0    0  0.00000000000E+00  0.00000000000E+00 -0.22622423943E+04  0.39205791471E+04  0.32020618668E+04 0.  0.
        2    1    3    3  502    0  0.77469409468E+03 -0.14011149042E+04 -0.11248618785E+04  0.19566778378E+04  0.25500000920E-02 0. -1.
       -2    1    3    3    0  502 -0.77469409468E+03  0.14011149042E+04 -0.11373805158E+04  0.19639013094E+04  0.25500000920E-02 0.  1.
</event>
<event>
 5   0  0.3750285E-07  0.3165519E+04  0.7818609E-02  0.8197983E-01
        2   -1    0    0  501    0  0.00000000000E+00  0.00000000000E+00  0.18538462533E+04  0.18538462534E+04  0.25500000920E-02 0.  1.
       -2   -1    0    0    0  501  0.00000000000E+00  0.00000000000E+00 -0.13513137245E+04  0.13513137245E+04  0.25500000920E-02 0. -1.
    10030    2    1    2    0    0  0.00000000000E+00  0.00000000000E+00  0.50253252887E+03  0.32051599778E+04  0.31655191582E+04 0.  0.
        1    1    3    3  502    0 -0.24055890357E+03  0.14988986246E+04  0.70471617516E+03  0.16736757632E+04  0.50400001928E-02 0.  1.
       -1    1    3    3    0  502  0.24055890357E+03 -0.14988986246E+04 -0.20218364630E+03  0.15314842146E+04  0.50400001928E-02 0. -1.
</event>
<event>
 5   0  0.3942564E-07  0.3194300E+04  0.7818609E-02  0.8190324E-01
        2   -1    0    0  501    0  0.00000000000E+00  0.00000000000E+00  0.14006239208E+04  0.14006239208E+04  0.25500000920E-02 0. -1.
       -2   -1    0    0    0  501  0.00000000000E+00  0.00000000000E+00 -0.18212515328E+04  0.18212515328E+04  0.25500000920E-02 0.  1.
    10030    2    1    2    0    0  0.00000000000E+00  0.00000000000E+00 -0.42062761205E+03  0.32218754536E+04  0.31943002129E+04 0.  0.
        3    1    3    3  502    0 -0.87897715649E+03  0.87810082340E+03 -0.12225843539E+04  0.17430933453E+04  0.10100000352E+00 0.  1.
       -3    1    3    3    0  502  0.87897715649E+03 -0.87810082340E+03  0.80195674190E+03  0.14787821083E+04  0.10100000352E+00 0. -1.
</event>
<event>
 5   0  0.1317293E-07  0.3197515E+04  0.7818609E-02  0.8189474E-01
        1   -1    0    0  501    0  0.00000000000E+00  0.00000000000E+00  0.94610194309E+03  0.94610194311E+03  0.50400001928E-02 0.  1.
       -1   -1    0    0    0  501  0.00000000000E+00  0.00000000000E+00 -0.27016384689E+04  0.27016384689E+04  0.50400001928E-02 0. -1.
    10030    2    1    2    0    0  0.00000000000E+00  0.00000000000E+00 -0.17555365258E+04  0.36477404120E+04  0.31975149132E+04 0.  0.
        1    1    3    3  502    0 -0.51642797537E+00 -0.55230200349E+03 -0.25893510120E+04  0.26475982386E+04  0.50400001928E-02 0. -1.
       -1    1    3    3    0  502  0.51642797537E+00  0.55230200349E+03  0.83381448615E+03  0.10001421734E+04  0.50400001928E-02 0.  1.
</event>
<event>
 5   0  0.1317293E-07  0.3201124E+04  0.7818609E-02  0.8188520E-01
        1   -1    0    0  501    0  0.00000000000E+00  0.00000000000E+00  0.18737090165E+04  0.18737090165E+04  0.50400001928E-02 0.  1.
       -1   -1    0    0    0  501  0.00000000000E+00  0.00000000000E+00 -0.13672343336E+04  0.13672343336E+04  0.50400001928E-02 0. -1.
    10030    2    1    2    0    0  0.00000000000E+00  0.00000000000E+00  0.50647468287E+03  0.32409433501E+04  0.32011243641E+04 0.  0.
        1    1    3    3  502    0 -0.10721520229E+04 -0.46788813473E+03 -0.85276604509E+03  0.14476322719E+04  0.50400001928E-02 0. -1.
       -1    1    3    3    0  502  0.10721520229E+04  0.46788813473E+03  0.13592407280E+04  0.17933110783E+04  0.50400001928E-02 0.  1.
</event>
<event>
 5   0  0.3750285E-07  0.3192993E+04  0.7818609E-02  0.8190670E-01
        2   -1    0    0  501    0  0.00000000000E+00  0.00000000000E+00  0.11250096414E+04  0.11250096414E+04  0.25500000920E-02 0.  1.
       -2   -1    0    0    0  501  0.00000000000E+00  0.00000000000E+00 -0.22655821367E+04  0.22655821367E+04  0.25500000920E-02 0. -1.
    10030    2    1    2    0    0  0.00000000000E+00  0.00000000000E+00 -0.11405724953E+04  0.33905917781E+04  0.31929934214E+04 0.  0.
        1    1    3    3  502    0  0.26983877374E+03  0.12848806254E+04 -0.15348324308E+04  0.20197628019E+04  0.50400001928E-02 0. -1.
       -1    1    3    3    0  502 -0.26983877374E+03 -0.12848806254E+04  0.39425993555E+03  0.13708289762E+04  0.50400001928E-02 0.  1.
</event>
<event>
 5   0  0.1288096E-07  0.3199490E+04  0.7818609E-02  0.8188952E-01
        1   -1    0    0  501    0  0.00000000000E+00  0.00000000000E+00  0.86544548850E+03  0.86544548852E+03  0.50400001928E-02 0.  1.
       -1   -1    0    0    0  501  0.00000000000E+00  0.00000000000E+00 -0.29570716989E+04  0.29570716989E+04  0.50400001928E-02 0. -1.
    10030    2    1    2    0    0  0.00000000000E+00  0.00000000000E+00 -0.20916262104E+04  0.38225171875E+04  0.31994901850E+04 0.  0.
        2    1    3    3  502    0 -0.54940660251E+02 -0.13807026751E+04 -0.20089038495E+04  0.24382479426E+04  0.25500000920E-02 0. -1.
       -2    1    3    3    0  502  0.54940660251E+02  0.13807026751E+04 -0.82722360974E+02  0.13842692449E+04  0.25500000920E-02 0.  1.
</event>
<event>
 5   0  0.1317293E-07  0.3198398E+04  0.7818609E-02  0.8189240E-01
       -1   -1    0    0    0  501  0.00000000000E+00  0.00000000000E+00  0.14806447666E+04  0.14806447667E+04  0.50400001928E-02 0. -1.
        1   -1    0    0  501    0  0.00000000000E+00  0.00000000000E+00 -0.17272461696E+04  0.17272461696E+04  0.50400001928E-02 0.  1.
    10030    2    1    2    0    0  0.00000000000E+00  0.00000000000E+00 -0.24660140298E+03  0.32078909363E+04  0.31983983503E+04 0.  0.
        1    1    3    3  502    0 -0.12298956709E+04  0.51740452496E+03 -0.10074424922E+04  0.16719124316E+04  0.50400001928E-02 0.  1.
       -1    1    3    3    0  502  0.12298956709E+04 -0.51740452496E+03  0.76084108921E+03  0.15359785047E+04  0.50400001928E-02 0. -1.
</event>
<event>
 5   0  0.3942564E-07  0.3205509E+04  0.7818609E-02  0.8187364E-01
        2   -1    0    0  501    0  0.00000000000E+00  0.00000000000E+00  0.12731533695E+04  0.12731533695E+04  0.25500000920E-02 0.  1.
       -2   -1    0    0    0  501  0.00000000000E+00  0.00000000000E+00 -0.20176843985E+04  0.20176843985E+04  0.25500000920E-02 0. -1.
    10030    2    1    2    0    0  0.00000000000E+00  0.00000000000E+00 -0.74453102901E+03  0.32908377680E+04  0.32055088149E+04 0.  0.
        3    1    3    3  502    0 -0.79834951264E+03  0.21062336580E+03  0.10380187849E+04  0.13263510676E+04  0.10100000352E+00 0.  1.
       -3    1    3    3    0  502  0.79834951264E+03 -0.21062336580E+03 -0.17825498139E+04  0.19644867004E+04  0.10100000352E+00 0. -1.
</event>
<event>
 5   0  0.1270948E-07  0.3214485E+04  0.7818609E-02  0.8185002E-01
       -1   -1    0    0    0  501  0.00000000000E+00  0.00000000000E+00  0.13242275985E+04  0.13242275985E+04  0.50400001928E-02 0. -1.
        1   -1    0    0  501    0  0.00000000000E+00  0.00000000000E+00 -0.19507437525E+04  0.19507437525E+04  0.50400001928E-02 0.  1.
    10030    2    1    2    0    0  0.00000000000E+00  0.00000000000E+00 -0.62651615395E+03  0.32749713510E+04  0.32144851623E+04 0.  0.
        4    1    3    3  502    0  0.58417937603E+03  0.84284202354E+03 -0.15741148754E+04  0.18786930228E+04  0.12699999809E+01 0.  1.
       -4    1    3    3    0  502 -0.58417937603E+03 -0.84284202354E+03  0.94759872146E+03  0.13962783282E+04  0.12699999809E+01 0. -1.
</event>
<event>
 5   0  0.1317293E-07  0.3209852E+04  0.7818609E-02  0.8186220E-01
       -1   -1    0    0    0  501  0.00000000000E+00  0.00000000000E+00  0.13964153582E+04  0.13964153583E+04  0.50400001928E-02 0. -1.
        1   -1    0    0  501    0  0.00000000000E+00  0.00000000000E+00 -0.18445707091E+04  0.18445707091E+04  0.50400001928E-02 0.  1.
    10030    2    1    2    0    0  0.00000000000E+00  0.00000000000E+00 -0.44815535086E+03  0.32409860674E+04  0.32098516275E+04 0.  0.
        1    1    3    3  502    0  0.11624023777E+04  0.21339756794E+03 -0.13204594997E+04  0.17720979375E+04  0.50400001928E-02 0.  1.
       -1    1    3    3    0  502 -0.11624023777E+04 -0.21339756794E+03  0.87230414889E+03  0.14688881298E+04  0.50400001928E-02 0. -1.
</event>
<event>
 5   0  0.1317293E-07  0.3111569E+04  0.7818609E-02  0.8212570E-01
       -1   -1    0    0    0  501  0.00000000000E+00  0.00000000000E+00  0.25286206907E+04  0.25286206907E+04  0.50400001928E-02 0. -1.
        1   -1    0    0  501    0  0.00000000000E+00  0.00000000000E+00 -0.95722753019E+03  0.95722753020E+03  0.50400001928E-02 0.  1.
    10030    2    1    2    0    0  0.00000000000E+00  0.00000000000E+00  0.15713931606E+04  0.34858482209E+04  0.31115689538E+04 0.  0.
        1    1    3    3  502    0 -0.17861833636E+03  0.15449039798E+04  0.83365375731E+03  0.17645428314E+04  0.50400001928E-02 0. -1.
       -1    1    3    3    0  502  0.17861833636E+03 -0.15449039798E+04  0.73773940324E+03  0.17213053895E+04  0.50400001928E-02 0.  1.
</event>
<event>
 5   0  0.3858721E-07  0.3196102E+04  0.7818609E-02  0.8189847E-01
       -2   -1    0    0    0  501  0.00000000000E+00  0.00000000000E+00  0.10332868110E+04  0.10332868110E+04  0.25500000920E-02 0. -1.
        2   -1    0    0  501    0  0.00000000000E+00  0.00000000000E+00 -0.24714980588E+04  0.24714980588E+04  0.25500000920E-02 0.  1.
    10030    2    1    2    0    0  0.00000000000E+00  0.00000000000E+00 -0.14382112478E+04  0.35047848698E+04  0.31961015926E+04 0.  0.
        2    1    3    3  502    0 -0.25670428830E+03 -0.13352099982E+04 -0.16398966344E+04  0.21302450100E+04  0.25500000920E-02 0.  1.
       -2    1    3    3    0  502  0.25670428830E+03  0.13352099982E+04  0.20168538665E+03  0.13745398598E+04  0.25500000920E-02 0. -1.
</event>
<event>
 5   0  0.3830207E-07  0.3201750E+04  0.7818609E-02  0.8188355E-01
       -2   -1    0    0    0  501  0.00000000000E+00  0.00000000000E+00  0.19158517072E+04  0.19158517073E+04  0.25500000920E-02 0. -1.
        2   -1    0    0  501    0  0.00000000000E+00  0.00000000000E+00 -0.13376820672E+04  0.13376820672E+04  0.25500000920E-02 0.  1.
    10030    2    1    2    0    0  0.00000000000E+00  0.00000000000E+00  0.57816964009E+03  0.32535337744E+04  0.32017498167E+04 0.  0.
        4    1    3    3  502    0 -0.13969235980E+04  0.35042784575E+03 -0.42122247915E+03  0.15005416368E+04  0.12699999809E+01 0.  1.
       -4    1    3    3    0  502  0.13969235980E+04 -0.35042784575E+03  0.99939211924E+03  0.17529921377E+04  0.12699999809E+01 0. -1.
</event>
<event>
 5   0  0.3942564E-07  0.3198077E+04  0.7818609E-02  0.8189325E-01
        2   -1    0    0  501    0  0.00000000000E+00  0.00000000000E+00  0.19797589482E+04  0.19797589482E+04  0.25500000920E-02 0. -1.
       -2   -1    0    0    0  501  0.00000000000E+00  0.00000000000E+00 -0.12915334495E+04  0.12915334495E+04  0.25500000920E-02 0.  1.
    10030    2    1    2    0    0  0.00000000000E+00  0.00000000000E+00  0.68822549863E+03  0.32712923977E+04  0.31980774872E+04 0.  0.
        3    1    3    3  502    0 -0.39818530223E+03  0.10196658466E+02  0.19282009683E+04  0.19689120069E+04  0.10100000352E+00 0. -1.
       -3    1    3    3    0  502  0.39818530223E+03 -0.10196658466E+02 -0.12399754697E+04  0.13023803908E+04  0.10100000352E+00 0.  1.
</event>
<event>
 5   0  0.1365455E-07  0.3208462E+04  0.7818609E-02  0.8186586E-01
       -1   -1    0    0    0  501  0.00000000000E+00  0.00000000000E+00  0.12761219176E+04  0.12761219176E+04  0.50400001928E-02 0.  1.
        1   -1    0    0  501    0  0.00000000000E+00  0.00000000000E+00 -0.20167017188E+04  0.20167017188E+04  0.50400001928E-02 0. -1.
    10030    2    1    2    0    0  0.00000000000E+00  0.00000000000E+00 -0.74057980122E+03  0.32928236364E+04  0.32084621017E+04 0.  0.
        3    1    3    3  502    0  0.75687885888E+03  0.13443942346E+04 -0.82150409512E+03  0.17478931471E+04  0.10100000352E+00 0. -1.
       -3    1    3    3    0  502 -0.75687885888E+03 -0.13443942346E+04  0.80924293893E+02  0.15449304893E+04  0.10100000352E+00 0.  1.
</event>
<event>
 5   0  0.3764056E-07  0.3192864E+04  0.7818609E-02  0.8190704E-01
       -2   -1    0    0    0  501  0.00000000000E+00  0.00000000000E+00  0.14062557145E+04  0.14062557145E+04  0.25500000920E-02 0.  1.
        2   -1    0    0  501    0  0.00000000000E+00  0.00000000000E+00 -0.18123272073E+04  0.18123272073E+04  0.25500000920E-02 0. -1.
    10030    2    1    2    0    0  0.00000000000E+00  0.00000000000E+00 -0.40607149279E+03  0.32185829218E+04  0.31928642262E+04 0.  0.
        5    1    3    3  502    0 -0.91691112030E+03  0.12765280949E+04  0.79081787508E+02  0.15736981918E+04  0.46999998093E+01 0.  1.
       -5    1    3    3    0  502  0.91691112030E+03 -0.12765280949E+04 -0.48515328030E+03  0.16448847300E+04  0.46999998093E+01 0. -1.
</event>
<event>
 5   0  0.3858721E-07  0.3203059E+04  0.7818609E-02  0.8188010E-01
       -2   -1    0    0    0  501  0.00000000000E+00  0.00000000000E+00  0.11163936224E+04  0.11163936224E+04  0.25500000920E-02 0. -1.
        2   -1    0    0  501    0  0.00000000000E+00  0.00000000000E+00 -0.22974837639E+04  0.22974837639E+04  0.25500000920E-02 0.  1.
    10030    2    1    2    0    0  0.00000000000E+00  0.00000000000E+00 -0.11810901415E+04  0.34138773863E+04  0.32030586766E+04 0.  0.
        2    1    3    3  502    0  0.12475534932E+04  0.89009617564E+03 -0.94927925338E+02  0.15354713385E+04  0.25500000920E-02 0. -1.
       -2    1    3    3    0  502 -0.12475534932E+04 -0.89009617564E+03 -0.10861622162E+04  0.18784060477E+04  0.25500000920E-02 0.  1.
</event>
<event>
 5   0  0.1365455E-07  0.3199365E+04  0.7818609E-02  0.8188985E-01
        1   -1    0    0  501    0  0.00000000000E+00  0.00000000000E+00  0.24295586792E+04  0.24295586792E+04  0.50400001928E-02 0. -1.
       -1   -1    0    0    0  501  0.00000000000E+00  0.00000000000E+00 -0.10532714322E+04  0.10532714322E+04  0.50400001928E-02 0.  1.
    10030    2    1    2    0    0  0.00000000000E+00  0.00000000000E+00  0.13762872470E+04  0.34828301115E+04  0.31993654057E+04 0.  0.
        3    1    3    3  502    0 -0.10204921669E+04  0.10666891454E+03  0.20241547889E+04  0.22693578694E+04  0.10100000352E+00 0. -1.
       -3    1    3    3    0  502  0.10204921669E+04 -0.10666891454E+03 -0.64786754188E+03  0.12134722420E+04  0.10100000352E+00 0.  1.
</event>
<event>
 5   0  0.3764056E-07  0.3196205E+04  0.7818609E-02  0.8189820E-01
        2   -1    0    0  501    0  0.00000000000E+00  0.00000000000E+00  0.19510898813E+04  0.19510898813E+04  0.25500000920E-02 0. -1.
       -2   -1    0    0    0  501  0.00000000000E+00  0.00000000000E+00 -0.13089769295E+04  0.13089769295E+04  0.25500000920E-02 0.  1.
    10030    2    1    2    0    0  0.00000000000E+00  0.00000000000E+00  0.64211295181E+03  0.32600668109E+04  0.31962050260E+04 0.  0.
        5    1    3    3  502    0 -0.36351249539E+03 -0.28719714862E+03  0.18810885686E+04  0.19373022039E+04  0.46999998093E+01 0. -1.
       -5    1    3    3    0  502  0.36351249539E+03  0.28719714862E+03 -0.12389756168E+04  0.13227646070E+04  0.46999998093E+01 0.  1.
</event>
<event>
 5   0  0.1230450E-07  0.3201785E+04  0.7818609E-02  0.8188346E-01
        3   -1    0    0  501    0  0.00000000000E+00  0.00000000000E+00  0.26096697589E+04  0.26096697608E+04  0.10100000352E+00 0. -1.
       -3   -1    0    0    0  501  0.00000000000E+00  0.00000000000E+00 -0.98206195189E+03  0.98206195708E+03  0.10100000352E+00 0.  1.
    10030    2    1    2    0    0  0.00000000000E+00  0.00000000000E+00  0.16276078070E+04  0.35917317179E+04  0.32017853707E+04 0.  0.
        1    1    3    3  502    0  0.44380584198E+03 -0.15374747742E+04  0.86478162901E+03  0.18189666222E+04  0.50400001928E-02 0.  1.
       -1    1    3    3    0  502 -0.44380584198E+03  0.15374747742E+04  0.76282617797E+03  0.17727650957E+04  0.50400001928E-02 0. -1.
</event>
<event>
 5   0  0.3764056E-07  0.3203423E+04  0.7818609E-02  0.8187914E-01
        2   -1    0    0  501    0  0.00000000000E+00  0.00000000000E+00  0.20871492133E+04  0.20871492133E+04  0.25500000920E-02 0. -1.
       -2   -1    0    0    0  501  0.00000000000E+00  0.00000000000E+00 -0.12291788378E+04  0.12291788378E+04  0.25500000920E-02 0.  1.
    10030    2    1    2    0    0  0.00000000000E+00  0.00000000000E+00  0.85797037556E+03  0.33163280511E+04  0.32034229469E+04 0.  0.
        5    1    3    3  502    0  0.10431328676E+04 -0.84287313607E+03 -0.47760603396E+03  0.14236189507E+04  0.46999998093E+01 0.  1.
       -5    1    3    3    0  502 -0.10431328676E+04  0.84287313607E+03  0.13355764095E+04  0.18927091004E+04  0.46999998093E+01 0. -1.
</event>
<event>
 5   0  0.3750285E-07  0.3201878E+04  0.7818609E-02  0.8188321E-01
       -2   -1    0    0    0  501  0.00000000000E+00  0.00000000000E+00  0.13631849469E+04  0.13631849469E+04  0.25500000920E-02 0.  1.
        2   -1    0    0  501    0  0.00000000000E+00  0.00000000000E+00 -0.18801603526E+04  0.18801603526E+04  0.25500000920E-02 0. -1.
    10030    2    1    2    0    0  0.00000000000E+00  0.00000000000E+00 -0.51697540573E+03  0.32433452995E+04  0.32018783802E+04 0.  0.
        1    1    3    3  502    0  0.37000838497E+01  0.32492164869E+02 -0.18798219904E+04  0.18801064191E+04  0.50400001928E-02 0. -1.
       -1    1    3    3    0  502 -0.37000838497E+01 -0.32492164869E+02  0.13628465847E+04  0.13632388803E+04  0.50400001928E-02 0.  1.
</event>
<event>
 5   0  0.3830207E-07  0.3200195E+04  0.7818609E-02  0.8188766E-01
        2   -1    0    0  501    0  0.00000000000E+00  0.00000000000E+00  0.18880912437E+04  0.18880912437E+04  0.25500000920E-02 0. -1.
       -2   -1    0    0    0  501  0.00000000000E+00  0.00000000000E+00 -0.13560316178E+04  0.13560316178E+04  0.25500000920E-02 0.  1.
    10030    2    1    2    0    0  0.00000000000E+00  0.00000000000E+00  0.53205962588E+03  0.32441228615E+04  0.32001946339E+04 0.  0.
        4    1    3    3  502    0  0.13932723386E+04 -0.78636644087E+03  0.29341586312E+03  0.16265529411E+04  0.12699999809E+01 0.  1.
       -4    1    3    3    0  502 -0.13932723386E+04  0.78636644087E+03  0.23864376276E+03  0.16175699203E+04  0.12699999809E+01 0. -1.
</event>
<event>
 5   0  0.1365455E-07  0.3209255E+04  0.7818609E-02  0.8186377E-01
        1   -1    0    0  501    0  0.00000000000E+00  0.00000000000E+00  0.16094902617E+04  0.16094902617E+04  0.50400001928E-02 0. -1.
       -1   -1    0    0    0  501  0.00000000000E+00  0.00000000000E+00 -0.15997797801E+04  0.15997797801E+04  0.50400001928E-02 0.  1.
    10030    2    1    2    0    0  0.00000000000E+00  0.00000000000E+00  0.97104816125E+01  0.32092700419E+04  0.32092553510E+04 0.  0.
        3    1    3    3  502    0 -0.94687004663E+03 -0.84240653712E+02  0.12975987939E+04  0.16085465529E+04  0.10100000352E+00 0. -1.
       -3    1    3    3    0  502  0.94687004663E+03  0.84240653712E+02 -0.12878883123E+04  0.16007234889E+04  0.10100000352E+00 0.  1.
</event>
<event>
 5   0  0.1270948E-07  0.3202085E+04  0.7818609E-02  0.8188267E-01
       -1   -1    0    0    0  501  0.00000000000E+00  0.00000000000E+00  0.24519960713E+04  0.24519960713E+04  0.50400001928E-02 0.  1.
        1   -1    0    0  501    0  0.00000000000E+00  0.00000000000E+00 -0.10454084902E+04  0.10454084902E+04  0.50400001928E-02 0. -1.
    10030    2    1    2    0    0  0.00000000000E+00  0.00000000000E+00  0.14065875811E+04  0.34974045615E+04  0.32020852648E+04 0.  0.
        4    1    3    3  502    0 -0.69819686864E+03  0.14136879876E+04  0.10070494238E+04  0.18708668442E+04  0.12699999809E+01 0.  1.
       -4    1    3    3    0  502  0.69819686864E+03 -0.14136879876E+04  0.39953815731E+03  0.16265377173E+04  0.12699999809E+01 0. -1.
</event>
<event>
 5   0  0.3750285E-07  0.3198203E+04  0.7818609E-02  0.8189292E-01
       -2   -1    0    0    0  501  0.00000000000E+00  0.00000000000E+00  0.15153077603E+04  0.15153077603E+04  0.25500000920E-02 0.  1.
        2   -1    0    0  501    0  0.00000000000E+00  0.00000000000E+00 -0.16875284827E+04  0.16875284827E+04  0.25500000920E-02 0. -1.
    10030    2    1    2    0    0  0.00000000000E+00  0.00000000000E+00 -0.17222072238E+03  0.32028362430E+04  0.31982026237E+04 0.  0.
        1    1    3    3  502    0 -0.51909564385E+03  0.75601056417E+03  0.12257924643E+04  0.15308753790E+04  0.50400001928E-02 0.  1.
       -1    1    3    3    0  502  0.51909564385E+03 -0.75601056417E+03 -0.13980131866E+04  0.16719608640E+04  0.50400001928E-02 0. -1.
</event>
<event>
 5   0  0.1317293E-07  0.3198398E+04  0.7818609E-02  0.8189240E-01
       -1   -1    0    0    0  501  0.00000000000E+00  0.00000000000E+00  0.28641349941E+04  0.28641349941E+04  0.50400001928E-02 0.  1.
        1   -1    0    0  501    0  0.00000000000E+00  0.00000000000E+00 -0.89291798145E+03  0.89291798146E+03  0.50400001928E-02 0. -1.
    10030    2    1    2    0    0  0.00000000000E+00  0.00000000000E+00  0.19712170127E+04  0.37570529756E+04  0.31983981225E+04 0.  0.
        1    1    3    3  502    0 -0.70430278357E+03  0.94243606645E+03  0.22579467464E+04  0.25460855563E+04  0.50400001928E-02 0.  1.
       -1    1    3    3    0  502  0.70430278357E+03 -0.94243606645E+03 -0.28672973376E+03  0.12109674193E+04  0.50400001928E-02 0. -1.
</event>
<event>
 5   0  0.3830207E-07  0.3201204E+04  0.7818609E-02  0.8188499E-01
        2   -1    0    0  501    0  0.00000000000E+00  0.00000000000E+00  0.17148226661E+04  0.17148226661E+04  0.25500000920E-02 0. -1.
       -2   -1    0    0    0  501  0.00000000000E+00  0.00000000000E+00 -0.14939891785E+04  0.14939891785E+04  0.25500000920E-02 0.  1.
    10030    2    1    2    0    0  0.00000000000E+00  0.00000000000E+00  0.22083348764E+03  0.32088118446E+04  0.32012038399E+04 0.  0.
        4    1    3    3  502    0  0.30575310901E+03  0.12471376306E+04 -0.84741044266E+03  0.15384873430E+04  0.12699999809E+01 0.  1.
       -4    1    3    3    0  502 -0.30575310901E+03 -0.12471376306E+04  0.10682439303E+04  0.16703245016E+04  0.12699999809E+01 0. -1.
</event>
<event>
 5   0  0.3764056E-07  0.3203535E+04  0.7818609E-02  0.8187884E-01
        2   -1    0    0  501    0  0.00000000000E+00  0.00000000000E+00  0.19592895469E+04  0.19592895469E+04  0.25500000920E-02 0. -1.
       -2   -1    0    0    0  501  0.00000000000E+00  0.00000000000E+00 -0.13094842738E+04  0.13094842738E+04  0.25500000920E-02 0.  1.
    10030    2    1    2    0    0  0.00000000000E+00  0.00000000000E+00  0.64980527309E+03  0.32687738207E+04  0.32035348286E+04 0.  0.
        5    1    3    3  502    0 -0.64675275800E+03 -0.46603986341E+03 -0.10926900212E+04  0.13525811830E+04  0.46999998093E+01 0.  1.
       -5    1    3    3    0  502  0.64675275800E+03  0.46603986341E+03  0.17424952943E+04  0.19161926377E+04  0.46999998093E+01 0. -1.
</event>
<event>
 5   0  0.3764056E-07  0.3195156E+04  0.7818609E-02  0.8190098E-01
        2   -1    0    0  501    0  0.00000000000E+00  0.00000000000E+00  0.25351270303E+04  0.25351270303E+04  0.25500000920E-02 0.  1.
       -2   -1    0    0    0  501  0.00000000000E+00  0.00000000000E+00 -0.10067563269E+04  0.10067563269E+04  0.25500000920E-02 0. -1.
    10030    2    1    2    0    0  0.00000000000E+00  0.00000000000E+00  0.15283707034E+04  0.35418833573E+04  0.31951558193E+04 0.  0.
        5    1    3    3  502    0 -0.63827131660E+03  0.14460956644E+04  0.10209455222E+04  0.18817371744E+04  0.46999998093E+01 0.  1.
       -5    1    3    3    0  502  0.63827131660E+03 -0.14460956644E+04  0.50742518115E+03  0.16601461829E+04  0.46999998093E+01 0. -1.
</event>
<event>
 5   0  0.1270948E-07  0.3200018E+04  0.7818609E-02  0.8188812E-01
        1   -1    0    0  501    0  0.00000000000E+00  0.00000000000E+00  0.16593471076E+04  0.16593471076E+04  0.50400001928E-02 0.  1.
       -1   -1    0    0    0  501  0.00000000000E+00  0.00000000000E+00 -0.15427932608E+04  0.15427932608E+04  0.50400001928E-02 0. -1.
    10030    2    1    2    0    0  0.00000000000E+00  0.00000000000E+00  0.11655384675E+03  0.32021403684E+04  0.32000184593E+04 0.  0.
        4    1    3    3  502    0  0.13044017813E+04 -0.86886633678E+03  0.38041460971E+03  0.16127955873E+04  0.12699999809E+01 0. -1.
       -4    1    3    3    0  502 -0.13044017813E+04  0.86886633678E+03 -0.26386076296E+03  0.15893447811E+04  0.12699999809E+01 0.  1.
</event>
<event>
 5   0  0.1270948E-07  0.3202828E+04  0.7818609E-02  0.8188071E-01
       -1   -1    0    0    0  501  0.00000000000E+00  0.00000000000E+00  0.13703335174E+04  0.13703335174E+04  0.50400001928E-02 0. -1.
        1   -1    0    0  501    0  0.00000000000E+00  0.00000000000E+00 -0.18714617146E+04  0.18714617147E+04  0.50400001928E-02 0.  1.
    10030    2    1    2    0    0  0.00000000000E+00  0.00000000000E+00 -0.50112819722E+03  0.32417952321E+04  0.32028279468E+04 0.  0.
        4    1    3    3  502    0 -0.57640860736E+03 -0.10408165577E+04 -0.13355098826E+04  0.17886123808E+04  0.12699999809E+01 0.  1.
       -4    1    3    3    0  502  0.57640860736E+03  0.10408165577E+04  0.83438168539E+03  0.14531828513E+04  0.12699999809E+01 0. -1.
</event>
<event>
 5   0  0.1317293E-07  0.3202154E+04  0.7818609E-02  0.8188248E-01
        1   -1    0    0  501    0  0.00000000000E+00  0.00000000000E+00  0.96056940884E+03  0.96056940885E+03  0.50400001928E-02 0.  1.
       -1   -1    0    0    0  501  0.00000000000E+00  0.00000000000E+00 -0.26686755915E+04  0.26686755915E+04  0.50400001928E-02 0. -1.
    10030    2    1    2    0    0  0.00000000000E+00  0.00000000000E+00 -0.17081061827E+04  0.36292450004E+04  0.32021543594E+04 0.  0.
        1    1    3    3  502    0 -0.73501138969E+03  0.11848856005E+04 -0.17459361415E+04  0.22343877550E+04  0.50400001928E-02 0. -1.
       -1    1    3    3    0  502  0.73501138969E+03 -0.11848856005E+04  0.37829958824E+02  0.13948572454E+04  0.50400001928E-02 0.  1.
</event>
<event>
 5   0  0.3764056E-07  0.3199911E+04  0.7818609E-02  0.8188841E-01
        2   -1    0    0  501    0  0.00000000000E+00  0.00000000000E+00  0.19735986619E+04  0.19735986619E+04  0.25500000920E-02 0.  1.
       -2   -1    0    0    0  501  0.00000000000E+00  0.00000000000E+00 -0.12970507127E+04  0.12970507127E+04  0.25500000920E-02 0. -1.
    10030    2    1    2    0    0  0.00000000000E+00  0.00000000000E+00  0.67654794926E+03  0.32706493746E+04  0.31999109682E+04 0.  0.
        5    1    3    3  502    0 -0.12559038887E+04 -0.96173493466E+03  0.58359397957E+03  0.16860701899E+04  0.46999998093E+01 0. -1.
       -5    1    3    3    0  502  0.12559038887E+04  0.96173493466E+03  0.92953969686E+02  0.15845791847E+04  0.46999998093E+01 0.  1.
</event>
<event>
 5   0  0.3830207E-07  0.3204242E+04  0.7818609E-02  0.8187698E-01
       -2   -1    0    0    0  501  0.00000000000E+00  0.00000000000E+00  0.14897361493E+04  0.14897361493E+04  0.25500000920E-02 0.  1.
        2   -1    0    0  501    0  0.00000000000E+00  0.00000000000E+00 -0.17229837971E+04  0.17229837971E+04  0.25500000920E-02 0. -1.
    10030    2    1    2    0    0  0.00000000000E+00  0.00000000000E+00 -0.23324764780E+03  0.32127199464E+04  0.32042417182E+04 0.  0.
        4    1    3    3  502    0 -0.15394063425E+04 -0.44340325699E+03 -0.13695798470E+03  0.16078362597E+04  0.12699999809E+01 0.  1.
       -4    1    3    3    0  502  0.15394063425E+04  0.44340325699E+03 -0.96289663093E+02  0.16048836867E+04  0.12699999809E+01 0. -1.
</event>
<event>
 5   0  0.3750285E-07  0.3196308E+04  0.7818609E-02  0.8189793E-01
        2   -1    0    0  501    0  0.00000000000E+00  0.00000000000E+00  0.21290344507E+04  0.21290344507E+04  0.25500000920E-02 0.  1.
       -2   -1    0    0    0  501  0.00000000000E+00  0.00000000000E+00 -0.11996499281E+04  0.11996499281E+04  0.25500000920E-02 0. -1.
    10030    2    1    2    0    0  0.00000000000E+00  0.00000000000E+00  0.92938452258E+03  0.33286843789E+04  0.31963078862E+04 0.  0.
        1    1    3    3  502    0  0.29351539951E+03 -0.10908808649E+04 -0.71257880238E+03  0.13356425048E+04  0.50400001928E-02 0. -1.
       -1    1    3    3    0  502 -0.29351539951E+03  0.10908808649E+04  0.16419633250E+04  0.19930418740E+04  0.50400001928E-02 0.  1.
</event>
<event>
 5   0  0.3750285E-07  0.3199244E+04  0.7818609E-02  0.8189017E-01
        2   -1    0    0  501    0  0.00000000000E+00  0.00000000000E+00  0.13722675765E+04  0.13722675765E+04  0.25500000920E-02 0. -1.
       -2   -1    0    0    0  501  0.00000000000E+00  0.00000000000E+00 -0.18646438643E+04  0.18646438643E+04  0.25500000920E-02 0.  1.
    10030    2    1    2    0    0  0.00000000000E+00  0.00000000000E+00 -0.49237628784E+03  0.32369114408E+04  0.31992438586E+04 0.  0.
        1    1    3    3  502    0  0.10216753758E+03 -0.19616150827E+03 -0.18490988383E+04  0.18622792639E+04  0.50400001928E-02 0.  1.
       -1    1    3    3    0  502 -0.10216753758E+03  0.19616150827E+03  0.13567225504E+04  0.13746321769E+04  0.50400001928E-02 0. -1.
</event>
<event>
 5   0  0.1288096E-07  0.3202493E+04  0.7818609E-02  0.8188159E-01
       -1   -1    0    0    0  501  0.00000000000E+00  0.00000000000E+00  0.12936794046E+04  0.12936794046E+04  0.50400001928E-02 0. -1.
        1   -1    0    0  501    0  0.00000000000E+00  0.00000000000E+00 -0.19819367453E+04  0.19819367453E+04  0.50400001928E-02 0.  1.
    10030    2    1    2    0    0  0.00000000000E+00  0.00000000000E+00 -0.68825734066E+03  0.32756161500E+04  0.32024932467E+04 0.  0.
        2    1    3    3  502    0  0.52379341703E+03 -0.68272850541E+03  0.10370797336E+04  0.13475949427E+04  0.25500000920E-02 0. -1.
       -2    1    3    3    0  502 -0.52379341703E+03  0.68272850541E+03 -0.17253370742E+04  0.19280212072E+04  0.25500000920E-02 0.  1.
</event>
<event>
 5   0  0.1277374E-07  0.3204471E+04  0.7818609E-02  0.8187638E-01
       -1   -1    0    0    0  501  0.00000000000E+00  0.00000000000E+00  0.14549847975E+04  0.14549847975E+04  0.50400001928E-02 0. -1.
        1   -1    0    0  501    0  0.00000000000E+00  0.00000000000E+00 -0.17643881527E+04  0.17643881527E+04  0.50400001928E-02 0.  1.
    10030    2    1    2    0    0  0.00000000000E+00  0.00000000000E+00 -0.30940335521E+03  0.32193729502E+04  0.32044705891E+04 0.  0.
        5    1    3    3  502    0 -0.97278345828E+03 -0.12279196757E+04  0.18307828578E+03  0.15772235528E+04  0.46999998093E+01 0.  1.
       -5    1    3    3    0  502  0.97278345828E+03  0.12279196757E+04 -0.49248164099E+03  0.16421493974E+04  0.46999998093E+01 0. -1.
</event>
<event>
 5   0  0.3764056E-07  0.3194603E+04  0.7818609E-02  0.8190244E-01
        2   -1    0    0  501    0  0.00000000000E+00  0.00000000000E+00  0.22542104383E+04  0.22542104383E+04  0.25500000920E-02 0. -1.
       -2   -1    0    0    0  501  0.00000000000E+00  0.00000000000E+00 -0.11318252238E+04  0.11318252238E+04  0.25500000920E-02 0.  1.
    10030    2    1    2    0    0  0.00000000000E+00  0.00000000000E+00  0.11223852146E+04  0.33860356621E+04  0.31946030951E+04 0.  0.
        5    1    3    3  502    0  0.11233500309E+04 -0.11196665016E+04  0.76168854269E+03  0.17594771646E+04  0.46999998093E+01 0.  1.
       -5    1    3    3    0  502 -0.11233500309E+04  0.11196665016E+04  0.36069667189E+03  0.16265584975E+04  0.46999998093E+01 0. -1.
</event>
<event>
 5   0  0.1270948E-07  0.3202106E+04  0.7818609E-02  0.8188261E-01
        1   -1    0    0  501    0  0.00000000000E+00  0.00000000000E+00  0.14905059442E+04  0.14905059442E+04  0.50400001928E-02 0. -1.
       -1   -1    0    0    0  501  0.00000000000E+00  0.00000000000E+00 -0.17197994647E+04  0.17197994648E+04  0.50400001928E-02 0.  1.
    10030    2    1    2    0    0  0.00000000000E+00  0.00000000000E+00 -0.22929352053E+03  0.32103054090E+04  0.32021063849E+04 0.  0.
        4    1    3    3  502    0 -0.10865683941E+04 -0.63135050144E+03 -0.11092228558E+04  0.16761895142E+04  0.12699999809E+01 0.  1.
       -4    1    3    3    0  502  0.10865683941E+04  0.63135050144E+03  0.87992933524E+03  0.15341158948E+04  0.12699999809E+01 0. -1.
</event>
<event>
 5   0  0.3858721E-07  0.3199047E+04  0.7818609E-02  0.8189069E-01
       -2   -1    0    0    0  501  0.00000000000E+00  0.00000000000E+00  0.88660628664E+03  0.88660628664E+03  0.25500000920E-02 0. -1.
        2   -1    0    0  501    0  0.00000000000E+00  0.00000000000E+00 -0.28856955779E+04  0.28856955779E+04  0.25500000920E-02 0.  1.
    10030    2    1    2    0    0  0.00000000000E+00  0.00000000000E+00 -0.19990892913E+04  0.37723018646E+04  0.31990472586E+04 0.  0.
        2    1    3    3  502    0  0.47419814748E+02  0.56426128451E+03 -0.27635502059E+04  0.28209660006E+04  0.25500000920E-02 0.  1.
       -2    1    3    3    0  502 -0.47419814748E+02 -0.56426128451E+03  0.76446091463E+03  0.95133586395E+03  0.25500000920E-02 0. -1.
</event>
<event>
 5   0  0.1317293E-07  0.3195370E+04  0.7818609E-02  0.8190041E-01
        1   -1    0    0  501    0  0.00000000000E+00  0.00000000000E+00  0.18838281391E+04  0.18838281391E+04  0.50400001928E-02 0.  1.
       -1   -1    0    0    0  501  0.00000000000E+00  0.00000000000E+00 -0.13550052794E+04  0.13550052794E+04  0.50400001928E-02 0. -1.
    10030    2    1    2    0    0  0.00000000000E+00  0.00000000000E+00  0.52882285977E+03  0.32388334185E+04  0.31953698215E+04 0.  0.
        1    1    3    3  502    0 -0.98846474528E+03 -0.11962955049E+04  0.64959566300E+03  0.16823079424E+04  0.50400001928E-02 0.  1.
       -1    1    3    3    0  502  0.98846474528E+03  0.11962955049E+04 -0.12077280323E+03  0.15565254761E+04  0.50400001928E-02 0. -1.
</event>
<event>
 5   0  0.3942564E-07  0.3203696E+04  0.7818609E-02  0.8187842E-01
        2   -1    0    0  501    0  0.00000000000E+00  0.00000000000E+00  0.24647230681E+04  0.24647230681E+04  0.25500000920E-02 0. -1.
       -2   -1    0    0    0  501  0.00000000000E+00  0.00000000000E+00 -0.10410566151E+04  0.10410566151E+04  0.25500000920E-02 0.  1.
    10030    2    1    2    0    0  0.00000000000E+00  0.00000000000E+00  0.14236664529E+04  0.35057796832E+04  0.32036955252E+04 0.  0.
        3    1    3    3  502    0  0.90857917831E+03  0.50891688641E+03 -0.62006211909E+03  0.12120187962E+04  0.10100000352E+00 0.  1.
       -3    1    3    3    0  502 -0.90857917831E+03 -0.50891688641E+03  0.20437285720E+04  0.22937608870E+04  0.10100000352E+00 0. -1.
</event>
<event>
 5   0  0.3764056E-07  0.3203901E+04  0.7818609E-02  0.8187788E-01
        2   -1    0    0  501    0  0.00000000000E+00  0.00000000000E+00  0.18826128463E+04  0.18826128463E+04  0.25500000920E-02 0.  1.
       -2   -1    0    0    0  501  0.00000000000E+00  0.00000000000E+00 -0.13631298061E+04  0.13631298061E+04  0.25500000920E-02 0. -1.
    10030    2    1    2    0    0  0.00000000000E+00  0.00000000000E+00  0.51948304015E+03  0.32457426524E+04  0.32039011746E+04 0.  0.
        5    1    3    3  502    0 -0.46442259068E+02  0.68279346644E+02  0.18804482950E+04  0.18822664086E+04  0.46999998093E+01 0.  1.
       -5    1    3    3    0  502  0.46442259068E+02 -0.68279346644E+02 -0.13609652548E+04  0.13634762438E+04  0.46999998093E+01 0. -1.
</event>
<event>
 5   0  0.1317293E-07  0.3199129E+04  0.7818609E-02  0.8189047E-01
        1   -1    0    0  501    0  0.00000000000E+00  0.00000000000E+00  0.16990499906E+04  0.16990499906E+04  0.50400001928E-02 0. -1.
       -1   -1    0    0    0  501  0.00000000000E+00  0.00000000000E+00 -0.15059045575E+04  0.15059045575E+04  0.50400001928E-02 0.  1.
    10030    2    1    2    0    0  0.00000000000E+00  0.00000000000E+00  0.19314543309E+03  0.32049545481E+04  0.31991293342E+04 0.  0.
        1    1    3    3  502    0 -0.10982440074E+04 -0.35978661723E+03 -0.10113437086E+04  0.15357090892E+04  0.50400001928E-02 0.  1.
       -1    1    3    3    0  502  0.10982440074E+04  0.35978661723E+03  0.12044891417E+04  0.16692454589E+04  0.50400001928E-02 0. -1.
</event>
<event>
 5   0  0.1270948E-07  0.3201547E+04  0.7818609E-02  0.8188409E-01
        1   -1    0    0  501    0  0.00000000000E+00  0.00000000000E+00  0.18116969881E+04  0.18116969881E+04  0.50400001928E-02 0.  1.
       -1   -1    0    0    0  501  0.00000000000E+00  0.00000000000E+00 -0.14144063898E+04  0.14144063898E+04  0.50400001928E-02 0. -1.
    10030    2    1    2    0    0  0.00000000000E+00  0.00000000000E+00  0.39729059829E+03  0.32261033779E+04  0.32015469988E+04 0.  0.
        4    1    3    3  502    0  0.13996721607E+04 -0.13176377885E+03 -0.57275258961E+03  0.15180550032E+04  0.12699999809E+01 0. -1.
       -4    1    3    3    0  502 -0.13996721607E+04  0.13176377885E+03  0.97004318790E+03  0.17080483747E+04  0.12699999809E+01 0.  1.
</event>
<event>
 5   0  0.1230450E-07  0.3194599E+04  0.7818609E-02  0.8190245E-01
       -3   -1    0    0    0  501  0.00000000000E+00  0.00000000000E+00  0.14162536868E+04  0.14162536904E+04  0.10100000352E+00 0. -1.
        3   -1    0    0  501    0  0.00000000000E+00  0.00000000000E+00 -0.18014890698E+04  0.18014890726E+04  0.10100000352E+00 0.  1.
    10030    2    1    2    0    0  0.00000000000E+00  0.00000000000E+00 -0.38523538301E+03  0.32177427629E+04  0.31945989088E+04 0.  0.
        4    1    3    3  502    0  0.44053024716E+03  0.12580353217E+03 -0.17338898348E+04  0.17933959405E+04  0.12699999809E+01 0.  1.
       -4    1    3    3    0  502 -0.44053024716E+03 -0.12580353217E+03  0.13486544518E+04  0.14243468224E+04  0.12699999809E+01 0. -1.
</event>
<event>
 5   0  0.1277374E-07  0.3205115E+04  0.7818609E-02  0.8187468E-01
       -1   -1    0    0    0  501  0.00000000000E+00  0.00000000000E+00  0.12131370841E+04  0.12131370841E+04  0.50400001928E-02 0.  1.
        1   -1    0    0  501    0  0.00000000000E+00  0.00000000000E+00 -0.21169830905E+04  0.21169830905E+04  0.50400001928E-02 0. -1.
    10030    2    1    2    0    0  0.00000000000E+00  0.00000000000E+00 -0.90384600637E+03  0.33301201746E+04  0.32051150953E+04 0.  0.
        5    1    3    3  502    0 -0.12831738832E+04 -0.85841486752E+03 -0.53246830911E+01  0.15438464112E+04  0.46999998093E+01 0.  1.
       -5    1    3    3    0  502  0.12831738832E+04  0.85841486752E+03 -0.89852132328E+03  0.17862737633E+04  0.46999998093E+01 0. -1.
</event>
<event>
 5   0  0.3764056E-07  0.3207464E+04  0.7818609E-02  0.8186849E-01
        2   -1    0    0  501    0  0.00000000000E+00  0.00000000000E+00  0.21034210993E+04  0.21034210993E+04  0.25500000920E-02 0. -1.
       -2   -1    0    0    0  501  0.00000000000E+00  0.00000000000E+00 -0.12227490245E+04  0.12227490245E+04  0.25500000920E-02 0.  1.
    10030    2    1    2    0    0  0.00000000000E+00  0.00000000000E+00  0.88067207482E+03  0.33261701239E+04  0.32074638563E+04 0.  0.
        5    1    3    3  502    0 -0.13968436323E+04  0.15519695458E+03  0.12413717742E+04  0.18751757783E+04  0.46999998093E+01 0.  1.
       -5    1    3    3    0  502  0.13968436323E+04 -0.15519695458E+03 -0.36069969935E+03  0.14509943456E+04  0.46999998093E+01 0. -1.
</event>
<event>
 5   0  0.3764056E-07  0.3195725E+04  0.7818609E-02  0.8189947E-01
        2   -1    0    0  501    0  0.00000000000E+00  0.00000000000E+00  0.26825642952E+04  0.26825642952E+04  0.25500000920E-02 0.  1.
       -2   -1    0    0    0  501  0.00000000000E+00  0.00000000000E+00 -0.95176260861E+03  0.95176260861E+03  0.25500000920E-02 0. -1.
    10030    2    1    2    0    0  0.00000000000E+00  0.00000000000E+00  0.17308016866E+04  0.36343269038E+04  0.31957248889E+04 0.  0.
        5    1    3    3  502    0 -0.27025691649E+03 -0.29887917399E+03 -0.89302449555E+03  0.97973588340E+03  0.46999998093E+01 0. -1.
       -5    1    3    3    0  502  0.27025691649E+03  0.29887917399E+03  0.26238261821E+04  0.26545910204E+04  0.46999998093E+01 0.  1.
</event>
<event>
 5   0  0.3942564E-07  0.3198101E+04  0.7818609E-02  0.8189319E-01
       -2   -1    0    0    0  501  0.00000000000E+00  0.00000000000E+00  0.20989208671E+04  0.20989208671E+04  0.25500000920E-02 0.  1.
        2   -1    0    0  501    0  0.00000000000E+00  0.00000000000E+00 -0.12182275833E+04  0.12182275833E+04  0.25500000920E-02 0. -1.
    10030    2    1    2    0    0  0.00000000000E+00  0.00000000000E+00  0.88069328377E+03  0.33171484504E+04  0.31981014965E+04 0.  0.
        3    1    3    3  502    0  0.91631930075E+03 -0.11941526191E+03  0.17939390892E+04  0.20179490904E+04  0.10100000352E+00 0.  1.
       -3    1    3    3    0  502 -0.91631930075E+03  0.11941526191E+03 -0.91324580540E+03  0.12991993600E+04  0.10100000352E+00 0. -1.
</event>
<event>
 5   0  0.3764056E-07  0.3217227E+04  0.7818609E-02  0.8184282E-01
       -2   -1    0    0    0  501  0.00000000000E+00  0.00000000000E+00  0.13342645571E+04  0.13342645571E+04  0.25500000920E-02 0.  1.
        2   -1    0    0  501    0  0.00000000000E+00  0.00000000000E+00 -0.19393739583E+04  0.19393739583E+04  0.25500000920E-02 0. -1.
    10030    2    1    2    0    0  0.00000000000E+00  0.00000000000E+00 -0.60510940125E+03  0.32736385154E+04  0.32172273377E+04 0.  0.
        5    1    3    3  502    0 -0.20050799244E+03  0.15321580994E+03  0.13139919899E+04  0.13380118007E+04  0.46999998093E+01 0.  1.
       -5    1    3    3    0  502  0.20050799244E+03 -0.15321580994E+03 -0.19191013911E+04  0.19356267147E+04  0.46999998093E+01 0. -1.
</event>
<event>
 5   0  0.1288096E-07  0.3194954E+04  0.7818609E-02  0.8190151E-01
        1   -1    0    0  501    0  0.00000000000E+00  0.00000000000E+00  0.18955274627E+04  0.18955274627E+04  0.50400001928E-02 0. -1.
       -1   -1    0    0    0  501  0.00000000000E+00  0.00000000000E+00 -0.13462913382E+04  0.13462913382E+04  0.50400001928E-02 0.  1.
    10030    2    1    2    0    0  0.00000000000E+00  0.00000000000E+00  0.54923612447E+03  0.32418188009E+04  0.31949536487E+04 0.  0.
        2    1    3    3  502    0  0.10496503480E+03 -0.14153329739E+04 -0.46945095456E+03  0.14948475789E+04  0.25500000920E-02 0.  1.
       -2    1    3    3    0  502 -0.10496503480E+03  0.14153329739E+04  0.10186870790E+04  0.17469712220E+04  0.25500000920E-02 0. -1.
</event>
<event>
 5   0  0.3942564E-07  0.3199887E+04  0.7818609E-02  0.8188847E-01
       -2   -1    0    0    0  501  0.00000000000E+00  0.00000000000E+00  0.91543881109E+03  0.91543881110E+03  0.25500000920E-02 0.  1.
        2   -1    0    0  501    0  0.00000000000E+00  0.00000000000E+00 -0.27962756844E+04  0.27962756844E+04  0.25500000920E-02 0. -1.
    10030    2    1    2    0    0  0.00000000000E+00  0.00000000000E+00 -0.18808368734E+04  0.37117144955E+04  0.31998870530E+04 0.  0.
        3    1    3    3  502    0  0.14511255567E+03  0.13548399728E+04 -0.19130988366E+04  0.23487435310E+04  0.10100000352E+00 0. -1.
       -3    1    3    3    0  502 -0.14511255567E+03 -0.13548399728E+04  0.32261963257E+02  0.13629709645E+04  0.10100000352E+00 0.  1.
</event>
<event>
 5   0  0.3830207E-07  0.3193870E+04  0.7818609E-02  0.8190438E-01
        2   -1    0    0  501    0  0.00000000000E+00  0.00000000000E+00  0.18678331605E+04  0.18678331605E+04  0.25500000920E-02 0.  1.
       -2   -1    0    0    0  501  0.00000000000E+00  0.00000000000E+00 -0.13653260975E+04  0.13653260975E+04  0.25500000920E-02 0. -1.
    10030    2    1    2    0    0  0.00000000000E+00  0.00000000000E+00  0.50250706301E+03  0.32331592579E+04  0.31938699784E+04 0.  0.
        4    1    3    3  502    0 -0.91613649114E+03  0.13065554807E+04  0.18879812234E+03  0.16068726267E+04  0.12699999809E+01 0.  1.
       -4    1    3    3    0  502  0.91613649114E+03 -0.13065554807E+04  0.31370894067E+03  0.16262866312E+04  0.12699999809E+01 0. -1.
</event>
<event>
 5   0  0.3942564E-07  0.3188111E+04  0.7818609E-02  0.8191964E-01
       -2   -1    0    0    0  501  0.00000000000E+00  0.00000000000E+00  0.16334232818E+04  0.16334232818E+04  0.25500000920E-02 0.  1.
        2   -1    0    0  501    0  0.00000000000E+00  0.00000000000E+00 -0.15556362438E+04  0.15556362438E+04  0.25500000920E-02 0. -1.
    10030    2    1    2    0    0  0.00000000000E+00  0.00000000000E+00  0.77787038008E+02  0.31890595256E+04  0.31881106999E+04 0.  0.
        3    1    3    3  502    0 -0.51908082405E+03  0.42126908966E+03  0.14864247111E+04  0.16298377158E+04  0.10100000352E+00 0.  1.
       -3    1    3    3    0  502  0.51908082405E+03 -0.42126908966E+03 -0.14086376731E+04  0.15592218098E+04  0.10100000352E+00 0. -1.
</event>
<event>
 5   0  0.1288096E-07  0.3195258E+04  0.7818609E-02  0.8190071E-01
       -1   -1    0    0    0  501  0.00000000000E+00  0.00000000000E+00  0.17225769000E+04  0.17225769000E+04  0.50400001928E-02 0. -1.
        1   -1    0    0  501    0  0.00000000000E+00  0.00000000000E+00 -0.14817442740E+04  0.14817442740E+04  0.50400001928E-02 0.  1.
    10030    2    1    2    0    0  0.00000000000E+00  0.00000000000E+00  0.24083262598E+03  0.32043211740E+04  0.31952580228E+04 0.  0.
        2    1    3    3  502    0  0.88705931578E+01 -0.12506642217E+04 -0.87647512603E+03  0.15272355186E+04  0.25500000920E-02 0.  1.
       -2    1    3    3    0  502 -0.88705931578E+01  0.12506642217E+04  0.11173077520E+04  0.16770856554E+04  0.25500000920E-02 0. -1.
</event>
<event>
 5   0  0.3858721E-07  0.3197629E+04  0.7818609E-02  0.8189444E-01
       -2   -1    0    0    0  501  0.00000000000E+00  0.00000000000E+00  0.18348221437E+04  0.18348221437E+04  0.25500000920E-02 0. -1.
        2   -1    0    0  501    0  0.00000000000E+00  0.00000000000E+00 -0.13931639807E+04  0.13931639807E+04  0.25500000920E-02 0.  1.
    10030    2    1    2    0    0  0.00000000000E+00  0.00000000000E+00  0.44165816302E+03  0.32279861244E+04  0.31976291978E+04 0.  0.
        2    1    3    3  502    0 -0.92651471807E+03 -0.53835153310E+03  0.14186672144E+04  0.17778831686E+04  0.25500000920E-02 0. -1.
       -2    1    3    3    0  502  0.92651471807E+03  0.53835153310E+03 -0.97700905137E+03  0.14501029558E+04  0.25500000920E-02 0.  1.
</event>
<event>
 5   0  0.1270948E-07  0.3191973E+04  0.7818609E-02  0.8190940E-01
        1   -1    0    0  501    0  0.00000000000E+00  0.00000000000E+00  0.12526310297E+04  0.12526310298E+04  0.50400001928E-02 0.  1.
       -1   -1    0    0    0  501  0.00000000000E+00  0.00000000000E+00 -0.20334585968E+04  0.20334585968E+04  0.50400001928E-02 0. -1.
    10030    2    1    2    0    0  0.00000000000E+00  0.00000000000E+00 -0.78082756708E+03  0.32860896266E+04  0.31919732681E+04 0.  0.
        4    1    3    3  502    0  0.13607189760E+04 -0.58130245181E+03  0.22530369336E+03  0.14967404716E+04  0.12699999809E+01 0.  1.
       -4    1    3    3    0  502 -0.13607189760E+04  0.58130245181E+03 -0.10061312604E+04  0.17893491550E+04  0.12699999809E+01 0. -1.
</event>
<event>
 5   0  0.1270948E-07  0.3199867E+04  0.7818609E-02  0.8188852E-01
        1   -1    0    0  501    0  0.00000000000E+00  0.00000000000E+00  0.23795121795E+04  0.23795121795E+04  0.50400001928E-02 0. -1.
       -1   -1    0    0    0  501  0.00000000000E+00  0.00000000000E+00 -0.10757610181E+04  0.10757610181E+04  0.50400001928E-02 0.  1.
    10030    2    1    2    0    0  0.00000000000E+00  0.00000000000E+00  0.13037511614E+04  0.34552731977E+04  0.31998665253E+04 0.  0.
        4    1    3    3  502    0 -0.11273678883E+04  0.51437037693E+03 -0.44095648120E+03  0.13152868400E+04  0.12699999809E+01 0.  1.
       -4    1    3    3    0  502  0.11273678883E+04 -0.51437037693E+03  0.17447076426E+04  0.21399863577E+04  0.12699999809E+01 0. -1.
</event>
<event>
 5   0  0.3830207E-07  0.3199174E+04  0.7818609E-02  0.8189035E-01
        2   -1    0    0  501    0  0.00000000000E+00  0.00000000000E+00  0.20717899199E+04  0.20717899199E+04  0.25500000920E-02 0. -1.
       -2   -1    0    0    0  501  0.00000000000E+00  0.00000000000E+00 -0.12350084608E+04  0.12350084608E+04  0.25500000920E-02 0.  1.
    10030    2    1    2    0    0  0.00000000000E+00  0.00000000000E+00  0.83678145916E+03  0.33067983807E+04  0.31991736933E+04 0.  0.
        4    1    3    3  502    0 -0.29975250578E+03  0.13114321079E+04 -0.47615453046E+03  0.14270355595E+04  0.12699999809E+01 0.  1.
       -4    1    3    3    0  502  0.29975250578E+03 -0.13114321079E+04  0.13129359896E+04  0.18797628212E+04  0.12699999809E+01 0. -1.
</event>
<event>
 5   0  0.1365455E-07  0.3205012E+04  0.7818609E-02  0.8187495E-01
        1   -1    0    0  501    0  0.00000000000E+00  0.00000000000E+00  0.22308489504E+04  0.22308489504E+04  0.50400001928E-02 0.  1.
       -1   -1    0    0    0  501  0.00000000000E+00  0.00000000000E+00 -0.11511424337E+04  0.11511424337E+04  0.50400001928E-02 0. -1.
    10030    2    1    2    0    0  0.00000000000E+00  0.00000000000E+00  0.10797065167E+04  0.33819913842E+04  0.32050116319E+04 0.  0.
        3    1    3    3  502    0  0.19143663541E+03 -0.88108066532E+03  0.19377998285E+04  0.21372925185E+04  0.10100000352E+00 0.  1.
       -3    1    3    3    0  502 -0.19143663541E+03  0.88108066532E+03 -0.85809331180E+03  0.12446988656E+04  0.10100000352E+00 0. -1.
</event>
<event>
 5   0  0.1288096E-07  0.3188904E+04  0.7818609E-02  0.8191754E-01
        1   -1    0    0  501    0  0.00000000000E+00  0.00000000000E+00  0.78182329377E+03  0.78182329379E+03  0.50400001928E-02 0. -1.
       -1   -1    0    0    0  501  0.00000000000E+00  0.00000000000E+00 -0.32517285135E+04  0.32517285135E+04  0.50400001928E-02 0.  1.
    10030    2    1    2    0    0  0.00000000000E+00  0.00000000000E+00 -0.24699052197E+04  0.40335518073E+04  0.31889039477E+04 0.  0.
        2    1    3    3  502    0  0.38794713489E+03  0.10015044301E+04  0.25564447995E+03  0.11040236425E+04  0.25500000920E-02 0. -1.
       -2    1    3    3    0  502 -0.38794713489E+03 -0.10015044301E+04 -0.27255496997E+04  0.29295281648E+04  0.25500000920E-02 0.  1.
</event>
<event>
 5   0  0.3942564E-07  0.3204470E+04  0.7818609E-02  0.8187638E-01
       -2   -1    0    0    0  501  0.00000000000E+00  0.00000000000E+00  0.21285824812E+04  0.21285824812E+04  0.25500000920E-02 0. -1.
        2   -1    0    0  501    0  0.00000000000E+00  0.00000000000E+00 -0.12060408265E+04  0.12060408265E+04  0.25500000920E-02 0.  1.
    10030    2    1    2    0    0  0.00000000000E+00  0.00000000000E+00  0.92254165468E+03  0.33346233076E+04  0.32044702369E+04 0.  0.
        3    1    3    3  502    0 -0.27270068039E+03  0.32080783017E+03 -0.11474402230E+04  0.12222530018E+04  0.10100000352E+00 0.  1.
       -3    1    3    3    0  502  0.27270068039E+03 -0.32080783017E+03  0.20699818776E+04  0.21123703058E+04  0.10100000352E+00 0. -1.
</event>
<event>
 5   0  0.3942564E-07  0.3178262E+04  0.7818609E-02  0.8194582E-01
        2   -1    0    0  501    0  0.00000000000E+00  0.00000000000E+00  0.21463335559E+04  0.21463335559E+04  0.25500000920E-02 0. -1.
       -2   -1    0    0    0  501  0.00000000000E+00  0.00000000000E+00 -0.11765821221E+04  0.11765821221E+04  0.25500000920E-02 0.  1.
    10030    2    1    2    0    0  0.00000000000E+00  0.00000000000E+00  0.96975143386E+03  0.33229156780E+04  0.31782622233E+04 0.  0.
        3    1    3    3  502    0 -0.60830233775E+03 -0.12134672928E+04  0.13488032777E+04  0.19135843063E+04  0.10100000352E+00 0. -1.
       -3    1    3    3    0  502  0.60830233775E+03  0.12134672928E+04 -0.37905184388E+03  0.14093313718E+04  0.10100000352E+00 0.  1.
</event>
<event>
 5   0  0.3830207E-07  0.3198547E+04  0.7818609E-02  0.8189201E-01
       -2   -1    0    0    0  501  0.00000000000E+00  0.00000000000E+00  0.12730577677E+04  0.12730577677E+04  0.25500000920E-02 0.  1.
        2   -1    0    0  501    0  0.00000000000E+00  0.00000000000E+00 -0.20090810559E+04  0.20090810559E+04  0.25500000920E-02 0. -1.
    10030    2    1    2    0    0  0.00000000000E+00  0.00000000000E+00 -0.73602328815E+03  0.32821388236E+04  0.31985473229E+04 0.  0.
        4    1    3    3  502    0 -0.59084686837E+03 -0.73537464054E+03  0.95717175725E+03  0.13438955575E+04  0.12699999809E+01 0.  1.
       -4    1    3    3    0  502  0.59084686837E+03  0.73537464054E+03 -0.16931950454E+04  0.19382432661E+04  0.12699999809E+01 0. -1.
</event>
<event>
 5   0  0.1317293E-07  0.3194835E+04  0.7818609E-02  0.8190183E-01
       -1   -1    0    0    0  501  0.00000000000E+00  0.00000000000E+00  0.24724831650E+04  0.24724831650E+04  0.50400001928E-02 0. -1.
        1   -1    0    0  501    0  0.00000000000E+00  0.00000000000E+00 -0.10320566800E+04  0.10320566800E+04  0.50400001928E-02 0.  1.
    10030    2    1    2    0    0  0.00000000000E+00  0.00000000000E+00  0.14404264850E+04  0.35045398449E+04  0.31948350608E+04 0.  0.
        1    1    3    3  502    0 -0.92048761316E+03  0.71556088510E+02 -0.70973655159E+03  0.11645358270E+04  0.50400001928E-02 0. -1.
       -1    1    3    3    0  502  0.92048761316E+03 -0.71556088510E+02  0.21501630366E+04  0.23400040179E+04  0.50400001928E-02 0.  1.
</event>
<event>
 5   0  0.3830207E-07  0.3195381E+04  0.7818609E-02  0.8190038E-01
       -2   -1    0    0    0  501  0.00000000000E+00  0.00000000000E+00  0.14705081518E+04  0.14705081518E+04  0.25500000920E-02 0.  1.
        2   -1    0    0  501    0  0.00000000000E+00  0.00000000000E+00 -0.17358726383E+04  0.17358726383E+04  0.25500000920E-02 0. -1.
    10030    2    1    2    0    0  0.00000000000E+00  0.00000000000E+00 -0.26536448651E+03  0.32063807901E+04  0.31953809571E+04 0.  0.
        4    1    3    3  502    0 -0.40580783959E+03  0.49633794658E+03 -0.16011343894E+04  0.17247215154E+04  0.12699999809E+01 0. -1.
       -4    1    3    3    0  502  0.40580783959E+03 -0.49633794658E+03  0.13357699029E+04  0.14816592747E+04  0.12699999809E+01 0.  1.
</event>
<event>
 5   0  0.1365455E-07  0.3205905E+04  0.7818609E-02  0.8187259E-01
       -1   -1    0    0    0  501  0.00000000000E+00  0.00000000000E+00  0.14871673274E+04  0.14871673274E+04  0.50400001928E-02 0. -1.
        1   -1    0    0  501    0  0.00000000000E+00  0.00000000000E+00 -0.17277526330E+04  0.17277526330E+04  0.50400001928E-02 0.  1.
    10030    2    1    2    0    0  0.00000000000E+00  0.00000000000E+00 -0.24058530559E+03  0.32149199604E+04  0.32059053421E+04 0.  0.
        3    1    3    3  502    0  0.72086357640E+03 -0.12269824481E+04 -0.86015243626E+03  0.16628266438E+04  0.10100000352E+00 0.  1.
       -3    1    3    3    0  502 -0.72086357640E+03  0.12269824481E+04  0.61956713067E+03  0.15520933165E+04  0.10100000352E+00 0. -1.
</event>
<event>
 5   0  0.3942564E-07  0.3200238E+04  0.7818609E-02  0.8188754E-01
        2   -1    0    0  501    0  0.00000000000E+00  0.00000000000E+00  0.17971302395E+04  0.17971302395E+04  0.25500000920E-02 0. -1.
       -2   -1    0    0    0  501  0.00000000000E+00  0.00000000000E+00 -0.14247052135E+04  0.14247052135E+04  0.25500000920E-02 0.  1.
    10030    2    1    2    0    0  0.00000000000E+00  0.00000000000E+00  0.37242502601E+03  0.32218354530E+04  0.32002380046E+04 0.  0.
        3    1    3    3  502    0 -0.12320207551E+04  0.31310205358E+03  0.11646110609E+04  0.17240147825E+04  0.10100000352E+00 0. -1.
       -3    1    3    3    0  502  0.12320207551E+04 -0.31310205358E+03 -0.79218603488E+03  0.14978206705E+04  0.10100000352E+00 0.  1.
</event>
<event>
 5   0  0.3942564E-07  0.3201983E+04  0.7818609E-02  0.8188294E-01
        2   -1    0    0  501    0  0.00000000000E+00  0.00000000000E+00  0.16684359931E+04  0.16684359931E+04  0.25500000920E-02 0. -1.
       -2   -1    0    0    0  501  0.00000000000E+00  0.00000000000E+00 -0.15362733701E+04  0.15362733701E+04  0.25500000920E-02 0.  1.
    10030    2    1    2    0    0  0.00000000000E+00  0.00000000000E+00  0.13216262291E+03  0.32047093632E+04  0.32019830018E+04 0.  0.
        3    1    3    3  502    0  0.77107526100E+03 -0.11776780807E+04 -0.69725482103E+03  0.15708746021E+04  0.10100000352E+00 0.  1.
       -3    1    3    3    0  502 -0.77107526100E+03  0.11776780807E+04  0.82941744393E+03  0.16338347611E+04  0.10100000352E+00 0. -1.
</event>
<event>
 5   0  0.1317293E-07  0.3192197E+04  0.7818609E-02  0.8190881E-01
        1   -1    0    0  501    0  0.00000000000E+00  0.00000000000E+00  0.18499984658E+04  0.18499984659E+04  0.50400001928E-02 0. -1.
       -1   -1    0    0    0  501  0.00000000000E+00  0.00000000000E+00 -0.13770444829E+04  0.13770444829E+04  0.50400001928E-02 0.  1.
    10030    2    1    2    0    0  0.00000000000E+00  0.00000000000E+00  0.47295398296E+03  0.32270429487E+04  0.31921968490E+04 0.  0.
        1    1    3    3  502    0  0.25100310969E+03  0.15175592840E+04  0.66720485589E+03  0.16766487591E+04  0.50400001928E-02 0. -1.
       -1    1    3    3    0  502 -0.25100310969E+03 -0.15175592840E+04 -0.19425087292E+03  0.15503941896E+04  0.50400001928E-02 0.  1.
</event>
<event>
 5   0  0.1317293E-07  0.3205180E+04  0.7818609E-02  0.8187451E-01
       -1   -1    0    0    0  501  0.00000000000E+00  0.00000000000E+00  0.13572619359E+04  0.13572619359E+04  0.50400001928E-02 0. -1.
        1   -1    0    0  501    0  0.00000000000E+00  0.00000000000E+00 -0.18922610996E+04  0.18922610996E+04  0.50400001928E-02 0.  1.
    10030    2    1    2    0    0  0.00000000000E+00  0.00000000000E+00 -0.53499916365E+03  0.32495230355E+04  0.32051795353E+04 0.  0.
        1    1    3    3  502    0  0.45175672132E+03 -0.79125131739E+02  0.12893063096E+04  0.13684501020E+04  0.50400001928E-02 0. -1.
       -1    1    3    3    0  502 -0.45175672132E+03  0.79125131739E+02 -0.18243054732E+04  0.18810729335E+04  0.50400001928E-02 0.  1.
</event>
<event>
 5   0  0.3750285E-07  0.3205204E+04  0.7818609E-02  0.8187444E-01
       -2   -1    0    0    0  501  0.00000000000E+00  0.00000000000E+00  0.16609473553E+04  0.16609473553E+04  0.25500000920E-02 0.  1.
        2   -1    0    0  501    0  0.00000000000E+00  0.00000000000E+00 -0.15463063931E+04  0.15463063931E+04  0.25500000920E-02 0. -1.
    10030    2    1    2    0    0  0.00000000000E+00  0.00000000000E+00  0.11464096224E+03  0.32072537484E+04  0.32052042145E+04 0.  0.
        1    1    3    3  502    0  0.63497915379E+02 -0.15922012416E+04  0.22830026412E+03  0.16097384227E+04  0.50400001928E-02 0.  1.
       -1    1    3    3    0  502 -0.63497915379E+02  0.15922012416E+04 -0.11365930188E+03  0.15975153257E+04  0.50400001928E-02 0. -1.
</event>
<event>
 5   0  0.1270948E-07  0.3171464E+04  0.7818609E-02  0.8196394E-01
        1   -1    0    0  501    0  0.00000000000E+00  0.00000000000E+00  0.12897738999E+04  0.12897739000E+04  0.50400001928E-02 0.  1.
       -1   -1    0    0    0  501  0.00000000000E+00  0.00000000000E+00 -0.19496023557E+04  0.19496023557E+04  0.50400001928E-02 0. -1.
    10030    2    1    2    0    0  0.00000000000E+00  0.00000000000E+00 -0.65982845571E+03  0.32393762556E+04  0.31714641626E+04 0.  0.
        4    1    3    3  502    0 -0.72334783586E+03 -0.10697948481E+04 -0.12698652401E+04  0.18111467223E+04  0.12699999809E+01 0.  1.
       -4    1    3    3    0  502  0.72334783586E+03  0.10697948481E+04  0.61003678438E+03  0.14282295333E+04  0.12699999809E+01 0. -1.
</event>
<event>
 5   0  0.3764056E-07  0.3204183E+04  0.7818609E-02  0.8187713E-01
        2   -1    0    0  501    0  0.00000000000E+00  0.00000000000E+00  0.19922716012E+04  0.19922716012E+04  0.25500000920E-02 0.  1.
       -2   -1    0    0    0  501  0.00000000000E+00  0.00000000000E+00 -0.12883273314E+04  0.12883273314E+04  0.25500000920E-02 0. -1.
    10030    2    1    2    0    0  0.00000000000E+00  0.00000000000E+00  0.70394426979E+03  0.32805989325E+04  0.32041834874E+04 0.  0.
        5    1    3    3  502    0 -0.54540839243E+03  0.85330744153E+03  0.16229770226E+04  0.19130291190E+04  0.46999998093E+01 0.  1.
       -5    1    3    3    0  502  0.54540839243E+03 -0.85330744153E+03 -0.91903275277E+03  0.13675698136E+04  0.46999998093E+01 0. -1.
</event>
<event>
 5   0  0.1288096E-07  0.3202698E+04  0.7818609E-02  0.8188105E-01
       -1   -1    0    0    0  501  0.00000000000E+00  0.00000000000E+00  0.96668586036E+03  0.96668586038E+03  0.50400001928E-02 0. -1.
        1   -1    0    0  501    0  0.00000000000E+00  0.00000000000E+00 -0.26526899032E+04  0.26526899032E+04  0.50400001928E-02 0.  1.
    10030    2    1    2    0    0  0.00000000000E+00  0.00000000000E+00 -0.16860040428E+04  0.36193757636E+04  0.32026975014E+04 0.  0.
        2    1    3    3  502    0  0.12119581526E+04  0.67084563046E+03 -0.17509190495E+04  0.22326204204E+04  0.25500000920E-02 0.  1.
       -2    1    3    3    0  502 -0.12119581526E+04 -0.67084563046E+03  0.64915006698E+02  0.13867553432E+04  0.25500000920E-02 0. -1.
</event>
<event>
 5   0  0.1277374E-07  0.3200820E+04  0.7818609E-02  0.8188601E-01
        1   -1    0    0  501    0  0.00000000000E+00  0.00000000000E+00  0.23056842742E+04  0.23056842742E+04  0.50400001928E-02 0.  1.
       -1   -1    0    0    0  501  0.00000000000E+00  0.00000000000E+00 -0.11108686963E+04  0.11108686963E+04  0.50400001928E-02 0. -1.
    10030    2    1    2    0    0  0.00000000000E+00  0.00000000000E+00  0.11948155780E+04  0.34165529705E+04  0.32008201972E+04 0.  0.
        5    1    3    3  502    0  0.10615972042E+03 -0.15012831135E+03 -0.10995495137E+04  0.11148271701E+04  0.46999998093E+01 0. -1.
       -5    1    3    3    0  502 -0.10615972042E+03  0.15012831135E+03  0.22943650917E+04  0.23017258004E+04  0.46999998093E+01 0.  1.
</event>
<event>
 5   0  0.1317293E-07  0.3193924E+04  0.7818609E-02  0.8190424E-01
       -1   -1    0    0    0  501  0.00000000000E+00  0.00000000000E+00  0.11826130800E+04  0.11826130800E+04  0.50400001928E-02 0.  1.
        1   -1    0    0  501    0  0.00000000000E+00  0.00000000000E+00 -0.21564853385E+04  0.21564853385E+04  0.50400001928E-02 0. -1.
    10030    2    1    2    0    0  0.00000000000E+00  0.00000000000E+00 -0.97387225847E+03  0.33390984186E+04  0.31939240869E+04 0.  0.
        1    1    3    3  502    0 -0.45400220731E+03 -0.90869522339E+03 -0.17751970779E+04  0.20452798534E+04  0.50400001928E-02 0. -1.
       -1    1    3    3    0  502  0.45400220731E+03  0.90869522339E+03  0.80132481944E+03  0.12938185652E+04  0.50400001928E-02 0.  1.
</event>
<event>
 5   0  0.3764056E-07  0.3198945E+04  0.7818609E-02  0.8189096E-01
       -2   -1    0    0    0  501  0.00000000000E+00  0.00000000000E+00  0.16726902155E+04  0.16726902155E+04  0.25500000920E-02 0. -1.
        2   -1    0    0  501    0  0.00000000000E+00  0.00000000000E+00 -0.15294600556E+04  0.15294600556E+04  0.25500000920E-02 0.  1.
    10030    2    1    2    0    0  0.00000000000E+00  0.00000000000E+00  0.14323015985E+03  0.32021502711E+04  0.31989453700E+04 0.  0.
        5    1    3    3  502    0 -0.12528730007E+04 -0.22688492469E+02 -0.92340557212E+03  0.15565684900E+04  0.46999998093E+01 0.  1.
       -5    1    3    3    0  502  0.12528730007E+04  0.22688492469E+02  0.10666357320E+04  0.16455817811E+04  0.46999998093E+01 0. -1.
</event>
<event>
 5   0  0.1288096E-07  0.3202092E+04  0.7818609E-02  0.8188265E-01
       -1   -1    0    0    0  501  0.00000000000E+00  0.00000000000E+00  0.10805392816E+04  0.10805392816E+04  0.50400001928E-02 0.  1.
        1   -1    0    0  501    0  0.00000000000E+00  0.00000000000E+00 -0.23722855083E+04  0.23722855083E+04  0.50400001928E-02 0. -1.
    10030    2    1    2    0    0  0.00000000000E+00  0.00000000000E+00 -0.12917462266E+04  0.34528247899E+04  0.32020916157E+04 0.  0.
        2    1    3    3  502    0  0.76047005728E+02 -0.15947645876E+04 -0.51696993769E+03  0.16781880566E+04  0.25500000920E-02 0. -1.
       -2    1    3    3    0  502 -0.76047005728E+02  0.15947645876E+04 -0.77477628896E+03  0.17746367332E+04  0.25500000920E-02 0.  1.
</event>
<event>
 5   0  0.1365455E-07  0.3206738E+04  0.7818609E-02  0.8187040E-01
        1   -1    0    0  501    0  0.00000000000E+00  0.00000000000E+00  0.87077134676E+03  0.87077134677E+03  0.50400001928E-02 0.  1.
       -1   -1    0    0    0  501  0.00000000000E+00  0.00000000000E+00 -0.29523151215E+04  0.29523151215E+04  0.50400001928E-02 0. -1.
    10030    2    1    2    0    0  0.00000000000E+00  0.00000000000E+00 -0.20815437747E+04  0.38230864682E+04  0.32067375411E+04 0.  0.
        3    1    3    3  502    0 -0.80749429716E+03 -0.10874931295E+03  0.60555741543E+03  0.10151715355E+04  0.10100000352E+00 0.  1.
       -3    1    3    3    0  502  0.80749429716E+03  0.10874931295E+03 -0.26871011901E+04  0.28079149327E+04  0.10100000352E+00 0. -1.
</event>
<event>
 5   0  0.3942564E-07  0.3201380E+04  0.7818609E-02  0.8188453E-01
        2   -1    0    0  501    0  0.00000000000E+00  0.00000000000E+00  0.27470959616E+04  0.27470959616E+04  0.25500000920E-02 0.  1.
       -2   -1    0    0    0  501  0.00000000000E+00  0.00000000000E+00 -0.93269708557E+03  0.93269708557E+03  0.25500000920E-02 0. -1.
    10030    2    1    2    0    0  0.00000000000E+00  0.00000000000E+00  0.18143988760E+04  0.36797930472E+04  0.32013799507E+04 0.  0.
        3    1    3    3  502    0 -0.11886801207E+04 -0.34965709948E+03  0.20720462914E+04  0.24142486120E+04  0.10100000352E+00 0.  1.
       -3    1    3    3    0  502  0.11886801207E+04  0.34965709948E+03 -0.25764741538E+03  0.12655444352E+04  0.10100000352E+00 0. -1.
</event>
<event>
 5   0  0.3764056E-07  0.3201330E+04  0.7818609E-02  0.8188466E-01
       -2   -1    0    0    0  501  0.00000000000E+00  0.00000000000E+00  0.15364220616E+04  0.15364220616E+04  0.25500000920E-02 0. -1.
        2   -1    0    0  501    0  0.00000000000E+00  0.00000000000E+00 -0.16675937044E+04  0.16675937044E+04  0.25500000920E-02 0.  1.
    10030    2    1    2    0    0  0.00000000000E+00  0.00000000000E+00 -0.13117164282E+03  0.32040157660E+04  0.32013295721E+04 0.  0.
        5    1    3    3  502    0  0.86594088691E+03 -0.11177372072E+04  0.68532073068E+03  0.15712659475E+04  0.46999998093E+01 0. -1.
       -5    1    3    3    0  502 -0.86594088691E+03  0.11177372072E+04 -0.81649237350E+03  0.16327498185E+04  0.46999998093E+01 0.  1.
</event>
<event>
 5   0  0.3750285E-07  0.3205117E+04  0.7818609E-02  0.8187467E-01
        2   -1    0    0  501    0  0.00000000000E+00  0.00000000000E+00  0.17162489196E+04  0.17162489196E+04  0.25500000920E-02 0. -1.
       -2   -1    0    0    0  501  0.00000000000E+00  0.00000000000E+00 -0.14963989081E+04  0.14963989081E+04  0.25500000920E-02 0.  1.
    10030    2    1    2    0    0  0.00000000000E+00  0.00000000000E+00  0.21985001154E+03  0.32126478277E+04  0.32051165404E+04 0.  0.
        1    1    3    3  502    0  0.67403851491E+03  0.14163211942E+04 -0.21932723457E+03  0.15837923098E+04  0.50400001928E-02 0.  1.
       -1    1    3    3    0  502 -0.67403851491E+03 -0.14163211942E+04  0.43917724611E+03  0.16288555179E+04  0.50400001928E-02 0. -1.
</event>
<event>
 5   0  0.1270948E-07  0.3201382E+04  0.7818609E-02  0.8188452E-01
        1   -1    0    0  501    0  0.00000000000E+00  0.00000000000E+00  0.23986484491E+04  0.23986484491E+04  0.50400001928E-02 0. -1.
       -1   -1    0    0    0  501  0.00000000000E+00  0.00000000000E+00 -0.10681894217E+04  0.10681894217E+04  0.50400001928E-02 0.  1.
    10030    2    1    2    0    0  0.00000000000E+00  0.00000000000E+00  0.13304590274E+04  0.34668378709E+04  0.32013815142E+04 0.  0.
        4    1    3    3  502    0  0.29037994536E+03  0.15623223011E+04  0.45681944298E+03  0.16534379642E+04  0.12699999809E+01 0. -1.
       -4    1    3    3    0  502 -0.29037994536E+03 -0.15623223011E+04  0.87363958443E+03  0.18133999067E+04  0.12699999809E+01 0.  1.
</event>
<event>
 5   0  0.1277374E-07  0.3194343E+04  0.7818609E-02  0.8190313E-01
       -1   -1    0    0    0  501  0.00000000000E+00  0.00000000000E+00  0.13544289480E+04  0.13544289480E+04  0.50400001928E-02 0.  1.
        1   -1    0    0  501    0  0.00000000000E+00  0.00000000000E+00 -0.18834186698E+04  0.18834186698E+04  0.50400001928E-02 0. -1.
    10030    2    1    2    0    0  0.00000000000E+00  0.00000000000E+00 -0.52898972175E+03  0.32378476178E+04  0.31943429795E+04 0.  0.
        5    1    3    3  502    0  0.59985131729E+03 -0.98511205884E+03 -0.13843800921E+04  0.18018872608E+04  0.46999998093E+01 0. -1.
       -5    1    3    3    0  502 -0.59985131729E+03  0.98511205884E+03  0.85539037030E+03  0.14359603570E+04  0.46999998093E+01 0.  1.
</event>
<event>
 5   0  0.1365455E-07  0.3202475E+04  0.7818609E-02  0.8188164E-01
        1   -1    0    0  501    0  0.00000000000E+00  0.00000000000E+00  0.24243049992E+04  0.24243049992E+04  0.50400001928E-02 0. -1.
       -1   -1    0    0    0  501  0.00000000000E+00  0.00000000000E+00 -0.10576067042E+04  0.10576067042E+04  0.50400001928E-02 0.  1.
    10030    2    1    2    0    0  0.00000000000E+00  0.00000000000E+00  0.13666982951E+04  0.34819117034E+04  0.32024748056E+04 0.  0.
        3    1    3    3  502    0  0.63369467485E+01  0.15447392760E+04  0.11416785600E+04  0.19208564580E+04  0.10100000352E+00 0.  1.
       -3    1    3    3    0  502 -0.63369467485E+01 -0.15447392760E+04  0.22501973507E+03  0.15610552454E+04  0.10100000352E+00 0. -1.
</event>
<event>
 5   0  0.3858721E-07  0.3194444E+04  0.7818609E-02  0.8190286E-01
       -2   -1    0    0    0  501  0.00000000000E+00  0.00000000000E+00  0.17170588766E+04  0.17170588767E+04  0.25500000920E-02 0. -1.
        2   -1    0    0  501    0  0.00000000000E+00  0.00000000000E+00 -0.14857491858E+04  0.14857491858E+04  0.25500000920E-02 0.  1.
    10030    2    1    2    0    0  0.00000000000E+00  0.00000000000E+00  0.23130969086E+03  0.32028080624E+04  0.31944444449E+04 0.  0.
        2    1    3    3  502    0 -0.68878325717E+03  0.12321677572E+04  0.86491260287E+03  0.16555161031E+04  0.25500000920E-02 0. -1.
       -2    1    3    3    0  502  0.68878325717E+03 -0.12321677572E+04 -0.63360291201E+03  0.15472919593E+04  0.25500000920E-02 0.  1.
</event>
<event>
 5   0  0.1365455E-07  0.3200120E+04  0.7818609E-02  0.8188785E-01
       -1   -1    0    0    0  501  0.00000000000E+00  0.00000000000E+00  0.86539002297E+03  0.86539002298E+03  0.50400001928E-02 0. -1.
        1   -1    0    0  501    0  0.00000000000E+00  0.00000000000E+00 -0.29584260975E+04  0.29584260975E+04  0.50400001928E-02 0.  1.
    10030    2    1    2    0    0  0.00000000000E+00  0.00000000000E+00 -0.20930360746E+04  0.38238161205E+04  0.32001202656E+04 0.  0.
        3    1    3    3  502    0 -0.59929237485E+03  0.72020529030E+03  0.50332702200E+03  0.10635718650E+04  0.10100000352E+00 0. -1.
       -3    1    3    3    0  502  0.59929237485E+03 -0.72020529030E+03 -0.25963630966E+04  0.27602442555E+04  0.10100000352E+00 0.  1.
</event>
<event>
 5   0  0.1288096E-07  0.3202763E+04  0.7818609E-02  0.8188088E-01
       -1   -1    0    0    0  501  0.00000000000E+00  0.00000000000E+00  0.10821049259E+04  0.10821049259E+04  0.50400001928E-02 0. -1.
        1   -1    0    0  501    0  0.00000000000E+00  0.00000000000E+00 -0.23698462321E+04  0.23698462321E+04  0.50400001928E-02 0.  1.
    10030    2    1    2    0    0  0.00000000000E+00  0.00000000000E+00 -0.12877413062E+04  0.34519511580E+04  0.32027627333E+04 0.  0.
        2    1    3    3  502    0 -0.13940520999E+04  0.60580383730E+03 -0.11871125607E+04  0.19286305448E+04  0.25500000920E-02 0.  1.
       -2    1    3    3    0  502  0.13940520999E+04 -0.60580383730E+03 -0.10062874556E+03  0.15233206133E+04  0.25500000920E-02 0. -1.
</event>
<event>
 5   0  0.1270948E-07  0.3202897E+04  0.7818609E-02  0.8188052E-01
       -1   -1    0    0    0  501  0.00000000000E+00  0.00000000000E+00  0.32633442578E+04  0.32633442579E+04  0.50400001928E-02 0. -1.
        1   -1    0    0  501    0  0.00000000000E+00  0.00000000000E+00 -0.78589259058E+03  0.78589259060E+03  0.50400001928E-02 0.  1.
    10030    2    1    2    0    0  0.00000000000E+00  0.00000000000E+00  0.24774516673E+04  0.40492368485E+04  0.32028974837E+04 0.  0.
        4    1    3    3  502    0  0.64179091742E+03 -0.61248732134E+02 -0.61458082411E+03  0.89070656848E+03  0.12699999809E+01 0.  1.
       -4    1    3    3    0  502 -0.64179091742E+03  0.61248732134E+02  0.30920324914E+04  0.31585302800E+04  0.12699999809E+01 0. -1.
</event>
<event>
 5   0  0.3750285E-07  0.3198252E+04  0.7818609E-02  0.8189279E-01
        2   -1    0    0  501    0  0.00000000000E+00  0.00000000000E+00  0.27108422953E+04  0.27108422953E+04  0.25500000920E-02 0.  1.
       -2   -1    0    0    0  501  0.00000000000E+00  0.00000000000E+00 -0.94332421074E+03  0.94332421074E+03  0.25500000920E-02 0. -1.
    10030    2    1    2    0    0  0.00000000000E+00  0.00000000000E+00  0.17675180845E+04  0.36541665060E+04  0.31982515027E+04 0.  0.
        1    1    3    3  502    0 -0.73353729525E+03  0.95941854167E+02  0.25035734344E+04  0.26105864751E+04  0.50400001928E-02 0.  1.
       -1    1    3    3    0  502  0.73353729525E+03 -0.95941854167E+02 -0.73605534980E+03  0.10435800309E+04  0.50400001928E-02 0. -1.
</event>
<event>
 5   0  0.3942564E-07  0.3226476E+04  0.7818609E-02  0.8181860E-01
        2   -1    0    0  501    0  0.00000000000E+00  0.00000000000E+00  0.25195130329E+04  0.25195130329E+04  0.25500000920E-02 0. -1.
       -2   -1    0    0    0  501  0.00000000000E+00  0.00000000000E+00 -0.10329526363E+04  0.10329526363E+04  0.25500000920E-02 0.  1.
    10030    2    1    2    0    0  0.00000000000E+00  0.00000000000E+00  0.14865603966E+04  0.35524656693E+04  0.32264764866E+04 0.  0.
        3    1    3    3  502    0  0.88161779623E+02 -0.93911146137E+03 -0.69770368026E+03  0.11732405005E+04  0.10100000352E+00 0.  1.
       -3    1    3    3    0  502 -0.88161779623E+02  0.93911146137E+03  0.21842640769E+04  0.23792251688E+04  0.10100000352E+00 0. -1.
</event>
<event>
 5   0  0.1288096E-07  0.3202801E+04  0.7818609E-02  0.8188078E-01
       -1   -1    0    0    0  501  0.00000000000E+00  0.00000000000E+00  0.11535976842E+04  0.11535976842E+04  0.50400001928E-02 0.  1.
        1   -1    0    0  501    0  0.00000000000E+00  0.00000000000E+00 -0.22230314441E+04  0.22230314441E+04  0.50400001928E-02 0. -1.
    10030    2    1    2    0    0  0.00000000000E+00  0.00000000000E+00 -0.10694337600E+04  0.33766291283E+04  0.32028012276E+04 0.  0.
        2    1    3    3  502    0 -0.56153678025E+03 -0.14809400361E+04 -0.28528146907E+03  0.16093142833E+04  0.25500000920E-02 0.  1.
       -2    1    3    3    0  502  0.56153678025E+03  0.14809400361E+04 -0.78415229089E+03  0.17673148450E+04  0.25500000920E-02 0. -1.
</event>
<event>
 5   0  0.1277374E-07  0.3203603E+04  0.7818609E-02  0.8187866E-01
       -1   -1    0    0    0  501  0.00000000000E+00  0.00000000000E+00  0.11965314133E+04  0.11965314133E+04  0.50400001928E-02 0.  1.
        1   -1    0    0  501    0  0.00000000000E+00  0.00000000000E+00 -0.21443377421E+04  0.21443377422E+04  0.50400001928E-02 0. -1.
    10030    2    1    2    0    0  0.00000000000E+00  0.00000000000E+00 -0.94780632889E+03  0.33408691554E+04  0.32036026402E+04 0.  0.
        5    1    3    3  502    0 -0.53040852279E+03 -0.53170054396E+03  0.10015351138E+04  0.12518519655E+04  0.46999998093E+01 0.  1.
       -5    1    3    3    0  502  0.53040852279E+03  0.53170054396E+03 -0.19493414427E+04  0.20890171899E+04  0.46999998093E+01 0. -1.
</event>
<event>
 5   0  0.3764056E-07  0.3188183E+04  0.7818609E-02  0.8191945E-01
        2   -1    0    0  501    0  0.00000000000E+00  0.00000000000E+00  0.12616588715E+04  0.12616588715E+04  0.25500000920E-02 0.  1.
       -2   -1    0    0    0  501  0.00000000000E+00  0.00000000000E+00 -0.20141162054E+04  0.20141162054E+04  0.25500000920E-02 0. -1.
    10030    2    1    2    0    0  0.00000000000E+00  0.00000000000E+00 -0.75245733387E+03  0.32757750768E+04  0.31881829174E+04 0.  0.
        5    1    3    3  502    0  0.12098755133E+04 -0.10376251160E+04 -0.40223918165E+03  0.16438622473E+04  0.46999998093E+01 0.  1.
       -5    1    3    3    0  502 -0.12098755133E+04  0.10376251160E+04 -0.35021815222E+03  0.16319128295E+04  0.46999998093E+01 0. -1.
</event>
<event>
 5   0  0.3750285E-07  0.3199972E+04  0.7818609E-02  0.8188825E-01
       -2   -1    0    0    0  501  0.00000000000E+00  0.00000000000E+00  0.13309779309E+04  0.13309779309E+04  0.25500000920E-02 0. -1.
        2   -1    0    0  501    0  0.00000000000E+00  0.00000000000E+00 -0.19233641941E+04  0.19233641941E+04  0.25500000920E-02 0.  1.
    10030    2    1    2    0    0  0.00000000000E+00  0.00000000000E+00 -0.59238626321E+03  0.32543421250E+04  0.31999720595E+04 0.  0.
        1    1    3    3  502    0  0.53553728804E+03  0.36315715544E+02  0.12366776166E+04  0.13481433698E+04  0.50400001928E-02 0. -1.
       -1    1    3    3    0  502 -0.53553728804E+03 -0.36315715544E+02 -0.18290638798E+04  0.19061987552E+04  0.50400001928E-02 0.  1.
</event>
<event>
 5   0  0.1230450E-07  0.3210769E+04  0.7818609E-02  0.8185979E-01
       -3   -1    0    0    0  501  0.00000000000E+00  0.00000000000E+00  0.19113257554E+04  0.19113257581E+04  0.10100000352E+00 0.  1.
        3   -1    0    0  501    0  0.00000000000E+00  0.00000000000E+00 -0.13484148384E+04  0.13484148422E+04  0.10100000352E+00 0. -1.
    10030    2    1    2    0    0  0.00000000000E+00  0.00000000000E+00  0.56291091699E+03  0.32597406002E+04  0.32107693907E+04 0.  0.
        1    1    3    3  502    0 -0.14547514242E+04  0.67600872384E+03  0.21748233272E+03  0.16188230496E+04  0.50400001928E-02 0.  1.
       -1    1    3    3    0  502  0.14547514242E+04 -0.67600872384E+03  0.34542858427E+03  0.16409175506E+04  0.50400001928E-02 0. -1.
</event>
<event>
 5   0  0.1270948E-07  0.3184289E+04  0.7818609E-02  0.8192979E-01
        1   -1    0    0  501    0  0.00000000000E+00  0.00000000000E+00  0.16049638075E+04  0.16049638075E+04  0.50400001928E-02 0. -1.
       -1   -1    0    0    0  501  0.00000000000E+00  0.00000000000E+00 -0.15794272329E+04  0.15794272329E+04  0.50400001928E-02 0.  1.
    10030    2    1    2    0    0  0.00000000000E+00  0.00000000000E+00  0.25536574618E+02  0.31843910404E+04  0.31842886461E+04 0.  0.
        4    1    3    3  502    0 -0.79009519702E+03 -0.34942561416E+03 -0.13246502266E+04  0.15814703652E+04  0.12699999809E+01 0.  1.
       -4    1    3    3    0  502  0.79009519702E+03  0.34942561416E+03  0.13501868012E+04  0.16029206753E+04  0.12699999809E+01 0. -1.
</event>
<event>
 5   0  0.3830207E-07  0.3198372E+04  0.7818609E-02  0.8189247E-01
       -2   -1    0    0    0  501  0.00000000000E+00  0.00000000000E+00  0.14711260714E+04  0.14711260714E+04  0.25500000920E-02 0.  1.
        2   -1    0    0  501    0  0.00000000000E+00  0.00000000000E+00 -0.17383935320E+04  0.17383935320E+04  0.25500000920E-02 0. -1.
    10030    2    1    2    0    0  0.00000000000E+00  0.00000000000E+00 -0.26726746061E+03  0.32095196034E+04  0.31983721155E+04 0.  0.
        4    1    3    3  502    0 -0.13495948088E+04 -0.98052576992E+02  0.72161252452E+03  0.15335405780E+04  0.12699999809E+01 0.  1.
       -4    1    3    3    0  502  0.13495948088E+04  0.98052576992E+02 -0.98887998513E+03  0.16759790254E+04  0.12699999809E+01 0. -1.
</event>
<event>
 5   0  0.3942564E-07  0.3203748E+04  0.7818609E-02  0.8187828E-01
       -2   -1    0    0    0  501  0.00000000000E+00  0.00000000000E+00  0.14399164485E+04  0.14399164485E+04  0.25500000920E-02 0.  1.
        2   -1    0    0  501    0  0.00000000000E+00  0.00000000000E+00 -0.17820479569E+04  0.17820479569E+04  0.25500000920E-02 0. -1.
    10030    2    1    2    0    0  0.00000000000E+00  0.00000000000E+00 -0.34213150841E+03  0.32219644053E+04  0.32037479083E+04 0.  0.
        3    1    3    3  502    0  0.12433415731E+04 -0.41733966118E+02  0.84381052930E+03  0.15032152909E+04  0.10100000352E+00 0.  1.
       -3    1    3    3    0  502 -0.12433415731E+04  0.41733966118E+02 -0.11859420377E+04  0.17187491144E+04  0.10100000352E+00 0. -1.
</event>
<event>
 5   0  0.3764056E-07  0.3199254E+04  0.7818609E-02  0.8189014E-01
        2   -1    0    0  501    0  0.00000000000E+00  0.00000000000E+00  0.18660113284E+04  0.18660113284E+04  0.25500000920E-02 0. -1.
       -2   -1    0    0    0  501  0.00000000000E+00  0.00000000000E+00 -0.13712708147E+04  0.13712708147E+04  0.25500000920E-02 0.  1.
    10030    2    1    2    0    0  0.00000000000E+00  0.00000000000E+00  0.49474051370E+03  0.32372821430E+04  0.31992542096E+04 0.  0.
        5    1    3    3  502    0  0.47983123934E+03  0.98905673029E+03 -0.92847213789E+03  0.14389419150E+04  0.46999998093E+01 0.  1.
       -5    1    3    3    0  502 -0.47983123934E+03 -0.98905673029E+03  0.14232126516E+04  0.17983402280E+04  0.46999998093E+01 0. -1.
</event>
<event>
 5   0  0.3764056E-07  0.3138429E+04  0.7818609E-02  0.8205270E-01
        2   -1    0    0  501    0  0.00000000000E+00  0.00000000000E+00  0.13887452002E+04  0.13887452002E+04  0.25500000920E-02 0.  1.
       -2   -1    0    0    0  501  0.00000000000E+00  0.00000000000E+00 -0.17731364793E+04  0.17731364793E+04  0.25500000920E-02 0. -1.
    10030    2    1    2    0    0  0.00000000000E+00  0.00000000000E+00 -0.38439127904E+03  0.31618816795E+04  0.31384294001E+04 0.  0.
        5    1    3    3  502    0 -0.15524478244E+04  0.13841473069E+03 -0.87365645049E+01  0.15586376432E+04  0.46999998093E+01 0. -1.
       -5    1    3    3    0  502  0.15524478244E+04 -0.13841473069E+03 -0.37565471454E+03  0.16032440363E+04  0.46999998093E+01 0.  1.
</event>
<event>
 5   0  0.3764056E-07  0.3200668E+04  0.7818609E-02  0.8188641E-01
        2   -1    0    0  501    0  0.00000000000E+00  0.00000000000E+00  0.20295776673E+04  0.20295776673E+04  0.25500000920E-02 0.  1.
       -2   -1    0    0    0  501  0.00000000000E+00  0.00000000000E+00 -0.12618731874E+04  0.12618731874E+04  0.25500000920E-02 0. -1.
    10030    2    1    2    0    0  0.00000000000E+00  0.00000000000E+00  0.76770447994E+03  0.32914508547E+04  0.32006684552E+04 0.  0.
        5    1    3    3  502    0  0.48459337065E+03 -0.13136151358E+04  0.11808387146E+04  0.18316161224E+04  0.46999998093E+01 0.  1.
       -5    1    3    3    0  502 -0.48459337065E+03  0.13136151358E+04 -0.41313423466E+03  0.14598347323E+04  0.46999998093E+01 0. -1.
</event>
<event>
 5   0  0.1277374E-07  0.3199320E+04  0.7818609E-02  0.8188997E-01
        1   -1    0    0  501    0  0.00000000000E+00  0.00000000000E+00  0.15390324918E+04  0.15390324918E+04  0.50400001928E-02 0. -1.
       -1   -1    0    0    0  501  0.00000000000E+00  0.00000000000E+00 -0.16626762953E+04  0.16626762953E+04  0.50400001928E-02 0.  1.
    10030    2    1    2    0    0  0.00000000000E+00  0.00000000000E+00 -0.12364380345E+03  0.32017087871E+04  0.31993204540E+04 0.  0.
        5    1    3    3  502    0 -0.80029638824E+03  0.13732116546E+04  0.11916164446E+03  0.15938651589E+04  0.46999998093E+01 0.  1.
       -5    1    3    3    0  502  0.80029638824E+03 -0.13732116546E+04 -0.24280544791E+03  0.16078436282E+04  0.46999998093E+01 0. -1.
</event>
<event>
 5   0  0.3750285E-07  0.3203075E+04  0.7818609E-02  0.8188005E-01
       -2   -1    0    0    0  501  0.00000000000E+00  0.00000000000E+00  0.10379252465E+04  0.10379252465E+04  0.25500000920E-02 0.  1.
        2   -1    0    0  501    0  0.00000000000E+00  0.00000000000E+00 -0.24712017559E+04  0.24712017559E+04  0.25500000920E-02 0. -1.
    10030    2    1    2    0    0  0.00000000000E+00  0.00000000000E+00 -0.14332765094E+04  0.35091270024E+04  0.32030752047E+04 0.  0.
        1    1    3    3  502    0 -0.55094221144E+03  0.15008359887E+04 -0.61341967432E+03  0.17124046490E+04  0.50400001928E-02 0. -1.
       -1    1    3    3    0  502  0.55094221144E+03 -0.15008359887E+04 -0.81985683504E+03  0.17967223534E+04  0.50400001928E-02 0.  1.
</event>
<event>
 5   0  0.1288096E-07  0.3189105E+04  0.7818609E-02  0.8191700E-01
        1   -1    0    0  501    0  0.00000000000E+00  0.00000000000E+00  0.31598269054E+04  0.31598269054E+04  0.50400001928E-02 0.  1.
       -1   -1    0    0    0  501  0.00000000000E+00  0.00000000000E+00 -0.80466368780E+03  0.80466368782E+03  0.50400001928E-02 0. -1.
    10030    2    1    2    0    0  0.00000000000E+00  0.00000000000E+00  0.23551632176E+04  0.39644905932E+04  0.31891051852E+04 0.  0.
        2    1    3    3  502    0  0.99646504366E+03 -0.11842705660E+04  0.70069910151E+03  0.16989463169E+04  0.25500000920E-02 0.  1.
       -2    1    3    3    0  502 -0.99646504366E+03  0.11842705660E+04  0.16544641161E+04  0.22655442763E+04  0.25500000920E-02 0. -1.
</event>
<event>
 5   0  0.1270948E-07  0.3208403E+04  0.7818609E-02  0.8186602E-01
        1   -1    0    0  501    0  0.00000000000E+00  0.00000000000E+00  0.24118399786E+04  0.24118399786E+04  0.50400001928E-02 0.  1.
       -1   -1    0    0    0  501  0.00000000000E+00  0.00000000000E+00 -0.10670118972E+04  0.10670118973E+04  0.50400001928E-02 0. -1.
    10030    2    1    2    0    0  0.00000000000E+00  0.00000000000E+00  0.13448280814E+04  0.34788518759E+04  0.32084026876E+04 0.  0.
        4    1    3    3  502    0  0.53864107650E+03  0.47560245389E+03 -0.88275560072E+03  0.11382402940E+04  0.12699999809E+01 0. -1.
       -4    1    3    3    0  502 -0.53864107650E+03 -0.47560245389E+03  0.22275836821E+04  0.23406115818E+04  0.12699999809E+01 0.  1.
</event>
<event>
 5   0  0.1365455E-07  0.3197985E+04  0.7818609E-02  0.8189350E-01
        1   -1    0    0  501    0  0.00000000000E+00  0.00000000000E+00  0.19756787982E+04  0.19756787982E+04  0.50400001928E-02 0. -1.
       -1   -1    0    0    0  501  0.00000000000E+00  0.00000000000E+00 -0.12941257006E+04  0.12941257006E+04  0.50400001928E-02 0.  1.
    10030    2    1    2    0    0  0.00000000000E+00  0.00000000000E+00  0.68155309755E+03  0.32698044988E+04  0.31979848086E+04 0.  0.
        3    1    3    3  502    0 -0.15366787379E+04  0.36738543691E+03  0.59210802269E+03  0.16872894012E+04  0.10100000352E+00 0. -1.
       -3    1    3    3    0  502  0.15366787379E+04 -0.36738543691E+03  0.89445074861E+02  0.15825150976E+04  0.10100000352E+00 0.  1.
</event>
<event>
 5   0  0.3750285E-07  0.3197673E+04  0.7818609E-02  0.8189432E-01
       -2   -1    0    0    0  501  0.00000000000E+00  0.00000000000E+00  0.16498917117E+04  0.16498917117E+04  0.25500000920E-02 0.  1.
        2   -1    0    0  501    0  0.00000000000E+00  0.00000000000E+00 -0.15493608254E+04  0.15493608254E+04  0.25500000920E-02 0. -1.
    10030    2    1    2    0    0  0.00000000000E+00  0.00000000000E+00  0.10053088637E+03  0.31992525371E+04  0.31976726438E+04 0.  0.
        1    1    3    3  502    0  0.13179396730E+04 -0.53986941407E+03  0.77715975926E+03  0.16224676445E+04  0.50400001928E-02 0.  1.
       -1    1    3    3    0  502 -0.13179396730E+04  0.53986941407E+03 -0.67662887289E+03  0.15767848926E+04  0.50400001928E-02 0. -1.
</event>
<event>
 5   0  0.1270948E-07  0.3245908E+04  0.7818609E-02  0.8176797E-01
        1   -1    0    0  501    0  0.00000000000E+00  0.00000000000E+00  0.23342402954E+04  0.23342402954E+04  0.50400001928E-02 0.  1.
       -1   -1    0    0    0  501  0.00000000000E+00  0.00000000000E+00 -0.11284100693E+04  0.11284100693E+04  0.50400001928E-02 0. -1.
    10030    2    1    2    0    0  0.00000000000E+00  0.00000000000E+00  0.12058302261E+04  0.34626503647E+04  0.32459083496E+04 0.  0.
        4    1    3    3  502    0 -0.83787872981E+03  0.82222966935E+02 -0.87724177305E+03  0.12158766892E+04  0.12699999809E+01 0. -1.
       -4    1    3    3    0  502  0.83787872981E+03 -0.82222966935E+02  0.20830719991E+04  0.22467736754E+04  0.12699999809E+01 0.  1.
</event>
<event>
 5   0  0.1270948E-07  0.3200261E+04  0.7818609E-02  0.8188748E-01
       -1   -1    0    0    0  501  0.00000000000E+00  0.00000000000E+00  0.13022327459E+04  0.13022327459E+04  0.50400001928E-02 0.  1.
        1   -1    0    0  501    0  0.00000000000E+00  0.00000000000E+00 -0.19661753325E+04  0.19661753325E+04  0.50400001928E-02 0. -1.
    10030    2    1    2    0    0  0.00000000000E+00  0.00000000000E+00 -0.66394258660E+03  0.32684080784E+04  0.32002611781E+04 0.  0.
        4    1    3    3  502    0 -0.55397526524E+03  0.29733843180E+03 -0.18347380953E+04  0.19394752457E+04  0.12699999809E+01 0. -1.
       -4    1    3    3    0  502  0.55397526524E+03 -0.29733843180E+03  0.11707955087E+04  0.13289328326E+04  0.12699999809E+01 0.  1.
</event>
<event>
 5   0  0.1277374E-07  0.3201064E+04  0.7818609E-02  0.8188536E-01
        1   -1    0    0  501    0  0.00000000000E+00  0.00000000000E+00  0.18475671776E+04  0.18475671776E+04  0.50400001928E-02 0.  1.
       -1   -1    0    0    0  501  0.00000000000E+00  0.00000000000E+00 -0.13865276547E+04  0.13865276547E+04  0.50400001928E-02 0. -1.
    10030    2    1    2    0    0  0.00000000000E+00  0.00000000000E+00  0.46103952294E+03  0.32340948323E+04  0.32010641890E+04 0.  0.
        5    1    3    3  502    0 -0.25786336107E+03 -0.11974494985E+04 -0.81030562275E+03  0.14686715448E+04  0.46999998093E+01 0. -1.
       -5    1    3    3    0  502  0.25786336107E+03  0.11974494985E+04  0.12713451457E+04  0.17654232874E+04  0.46999998093E+01 0.  1.
</event>
<event>
 5   0  0.3858721E-07  0.3122497E+04  0.7818609E-02  0.8209591E-01
       -2   -1    0    0    0  501  0.00000000000E+00  0.00000000000E+00  0.10950531542E+04  0.10950531542E+04  0.25500000920E-02 0.  1.
        2   -1    0    0  501    0  0.00000000000E+00  0.00000000000E+00 -0.22259160952E+04  0.22259160952E+04  0.25500000920E-02 0. -1.
    10030    2    1    2    0    0  0.00000000000E+00  0.00000000000E+00 -0.11308629410E+04  0.33209692494E+04  0.31224967197E+04 0.  0.
        2    1    3    3  502    0  0.11467538114E+04 -0.59825262339E+03  0.36452935743E+03  0.13438125456E+04  0.25500000920E-02 0.  1.
       -2    1    3    3    0  502 -0.11467538114E+04  0.59825262339E+03 -0.14953922984E+04  0.19771567038E+04  0.25500000920E-02 0. -1.
</event>
<event>
 5   0  0.3830207E-07  0.3200302E+04  0.7818609E-02  0.8188737E-01
        2   -1    0    0  501    0  0.00000000000E+00  0.00000000000E+00  0.15635414445E+04  0.15635414445E+04  0.25500000920E-02 0.  1.
       -2   -1    0    0    0  501  0.00000000000E+00  0.00000000000E+00 -0.16376180959E+04  0.16376180959E+04  0.25500000920E-02 0. -1.
    10030    2    1    2    0    0  0.00000000000E+00  0.00000000000E+00 -0.74076651412E+02  0.32011595404E+04  0.32003023377E+04 0.  0.
        4    1    3    3  502    0 -0.23729390380E+03  0.76843675468E+03  0.13466899730E+04  0.15685595108E+04  0.12699999809E+01 0.  1.
       -4    1    3    3    0  502  0.23729390380E+03 -0.76843675468E+03 -0.14207666244E+04  0.16326000296E+04  0.12699999809E+01 0. -1.
</event>
<event>
 5   0  0.3764056E-07  0.3205086E+04  0.7818609E-02  0.8187475E-01
        2   -1    0    0  501    0  0.00000000000E+00  0.00000000000E+00  0.22907186541E+04  0.22907186541E+04  0.25500000920E-02 0.  1.
       -2   -1    0    0    0  501  0.00000000000E+00  0.00000000000E+00 -0.11211082823E+04  0.11211082823E+04  0.25500000920E-02 0. -1.
    10030    2    1    2    0    0  0.00000000000E+00  0.00000000000E+00  0.11696103717E+04  0.34118269364E+04  0.32050857433E+04 0.  0.
        5    1    3    3  502    0  0.40053211091E+03 -0.18969488143E+03 -0.10545696558E+04  0.11439184275E+04  0.46999998093E+01 0. -1.
       -5    1    3    3    0  502 -0.40053211091E+03  0.18969488143E+03  0.22241800275E+04  0.22679085089E+04  0.46999998093E+01 0.  1.
</event>
<event>
 5   0  0.3942564E-07  0.3182536E+04  0.7818609E-02  0.8193445E-01
        2   -1    0    0  501    0  0.00000000000E+00  0.00000000000E+00  0.18733640945E+04  0.18733640945E+04  0.25500000920E-02 0.  1.
       -2   -1    0    0    0  501  0.00000000000E+00  0.00000000000E+00 -0.13516503800E+04  0.13516503800E+04  0.25500000920E-02 0. -1.
    10030    2    1    2    0    0  0.00000000000E+00  0.00000000000E+00  0.52171371454E+03  0.32250144745E+04  0.31825356495E+04 0.  0.
        3    1    3    3  502    0  0.13523982449E+04  0.47207320914E+03 -0.44142961212E+03  0.14988976750E+04  0.10100000352E+00 0. -1.
       -3    1    3    3    0  502 -0.13523982449E+04 -0.47207320914E+03  0.96314332666E+03  0.17261167995E+04  0.10100000352E+00 0.  1.
</event>
<event>
 5   0  0.3764056E-07  0.3208893E+04  0.7818609E-02  0.8186473E-01
        2   -1    0    0  501    0  0.00000000000E+00  0.00000000000E+00  0.26458156300E+04  0.26458156300E+04  0.25500000920E-02 0. -1.
       -2   -1    0    0    0  501  0.00000000000E+00  0.00000000000E+00 -0.97295074188E+03  0.97295074189E+03  0.25500000920E-02 0.  1.
    10030    2    1    2    0    0  0.00000000000E+00  0.00000000000E+00  0.16728648881E+04  0.36187663719E+04  0.32088928185E+04 0.  0.
        5    1    3    3  502    0  0.62878408941E+03  0.89144453481E+03  0.21632223321E+04  0.24227248581E+04  0.46999998093E+01 0. -1.
       -5    1    3    3    0  502 -0.62878408941E+03 -0.89144453481E+03 -0.49035744404E+03  0.11960415138E+04  0.46999998093E+01 0.  1.
</event>
<event>
 5   0  0.3858721E-07  0.3193380E+04  0.7818609E-02  0.8190568E-01
        2   -1    0    0  501    0  0.00000000000E+00  0.00000000000E+00  0.17777714783E+04  0.17777714783E+04  0.25500000920E-02 0. -1.
       -2   -1    0    0    0  501  0.00000000000E+00  0.00000000000E+00 -0.14340528593E+04  0.14340528593E+04  0.25500000920E-02 0.  1.
    10030    2    1    2    0    0  0.00000000000E+00  0.00000000000E+00  0.34371861901E+03  0.32118243376E+04  0.31933795713E+04 0.  0.
        2    1    3    3  502    0 -0.42386404170E+03 -0.54762307445E+03  0.16188722377E+04  0.17607666169E+04  0.25500000920E-02 0. -1.
       -2    1    3    3    0  502  0.42386404170E+03  0.54762307445E+03 -0.12751536186E+04  0.14510577206E+04  0.25500000920E-02 0.  1.
</event>
<event>
 5   0  0.1317293E-07  0.3202993E+04  0.7818609E-02  0.8188027E-01
       -1   -1    0    0    0  501  0.00000000000E+00  0.00000000000E+00  0.18925924557E+04  0.18925924557E+04  0.50400001928E-02 0.  1.
        1   -1    0    0  501    0  0.00000000000E+00  0.00000000000E+00 -0.13551737906E+04  0.13551737906E+04  0.50400001928E-02 0. -1.
    10030    2    1    2    0    0  0.00000000000E+00  0.00000000000E+00  0.53741866516E+03  0.32477662463E+04  0.32029934076E+04 0.  0.
        1    1    3    3  502    0  0.13237600630E+04 -0.24323705909E+03 -0.61134376312E+03  0.14782578152E+04  0.50400001928E-02 0. -1.
       -1    1    3    3    0  502 -0.13237600630E+04  0.24323705909E+03  0.11487624283E+04  0.17695084312E+04  0.50400001928E-02 0.  1.
</event>
<event>
 5   0  0.1270948E-07  0.3196887E+04  0.7818609E-02  0.8189640E-01
       -1   -1    0    0    0  501  0.00000000000E+00  0.00000000000E+00  0.11649646017E+04  0.11649646017E+04  0.50400001928E-02 0.  1.
        1   -1    0    0  501    0  0.00000000000E+00  0.00000000000E+00 -0.21932188358E+04  0.21932188358E+04  0.50400001928E-02 0. -1.
    10030    2    1    2    0    0  0.00000000000E+00  0.00000000000E+00 -0.10282542341E+04  0.33581834375E+04  0.31968874284E+04 0.  0.
        4    1    3    3  502    0 -0.27356260449E+03  0.53172336214E+03  0.10430464162E+04  0.12022951683E+04  0.12699999809E+01 0.  1.
       -4    1    3    3    0  502  0.27356260449E+03 -0.53172336214E+03 -0.20713006503E+04  0.21558882692E+04  0.12699999809E+01 0. -1.
</event>
<event>
 5   0  0.3830207E-07  0.3195768E+04  0.7818609E-02  0.8189936E-01
        2   -1    0    0  501    0  0.00000000000E+00  0.00000000000E+00  0.23718564557E+04  0.23718564557E+04  0.25500000920E-02 0. -1.
       -2   -1    0    0    0  501  0.00000000000E+00  0.00000000000E+00 -0.10764703349E+04  0.10764703349E+04  0.25500000920E-02 0.  1.
    10030    2    1    2    0    0  0.00000000000E+00  0.00000000000E+00  0.12953861208E+04  0.34483267906E+04  0.31957678972E+04 0.  0.
        4    1    3    3  502    0  0.78311115486E+03 -0.58885246855E+03  0.20096746071E+04  0.22358005166E+04  0.12699999809E+01 0. -1.
       -4    1    3    3    0  502 -0.78311115486E+03  0.58885246855E+03 -0.71428848629E+03  0.12125262740E+04  0.12699999809E+01 0.  1.
</event>
<event>
 5   0  0.3830207E-07  0.3202620E+04  0.7818609E-02  0.8188126E-01
        2   -1    0    0  501    0  0.00000000000E+00  0.00000000000E+00  0.11582038994E+04  0.11582038994E+04  0.25500000920E-02 0. -1.
       -2   -1    0    0    0  501  0.00000000000E+00  0.00000000000E+00 -0.22139399334E+04  0.22139399334E+04  0.25500000920E-02 0.  1.
    10030    2    1    2    0    0  0.00000000000E+00  0.00000000000E+00 -0.10557360339E+04  0.33721438328E+04  0.32026200923E+04 0.  0.
        4    1    3    3  502    0 -0.12268036748E+04  0.73961795401E+03  0.22563051756E+03  0.14501698927E+04  0.12699999809E+01 0. -1.
       -4    1    3    3    0  502  0.12268036748E+04 -0.73961795401E+03 -0.12813665515E+04  0.19219739401E+04  0.12699999809E+01 0.  1.
</event>
<event>
 5   0  0.1288096E-07  0.3203123E+04  0.7818609E-02  0.8187993E-01
        1   -1    0    0  501    0  0.00000000000E+00  0.00000000000E+00  0.13797443659E+04  0.13797443659E+04  0.50400001928E-02 0. -1.
       -1   -1    0    0    0  501  0.00000000000E+00  0.00000000000E+00 -0.18590398364E+04  0.18590398364E+04  0.50400001928E-02 0.  1.
    10030    2    1    2    0    0  0.00000000000E+00  0.00000000000E+00 -0.47929547053E+03  0.32387842023E+04  0.32031233134E+04 0.  0.
        2    1    3    3  502    0 -0.58619877234E+03  0.46967163499E+03  0.11905890576E+04  0.14077367472E+04  0.25500000920E-02 0. -1.
       -2    1    3    3    0  502  0.58619877234E+03 -0.46967163499E+03 -0.16698845281E+04  0.18310474551E+04  0.25500000920E-02 0.  1.
</event>
<event>
 5   0  0.1288096E-07  0.3200729E+04  0.7818609E-02  0.8188625E-01
        1   -1    0    0  501    0  0.00000000000E+00  0.00000000000E+00  0.13285382712E+04  0.13285382712E+04  0.50400001928E-02 0.  1.
       -1   -1    0    0    0  501  0.00000000000E+00  0.00000000000E+00 -0.19278080167E+04  0.19278080167E+04  0.50400001928E-02 0. -1.
    10030    2    1    2    0    0  0.00000000000E+00  0.00000000000E+00 -0.59926974548E+03  0.32563462879E+04  0.32007291230E+04 0.  0.
        2    1    3    3  502    0  0.47595206259E+02 -0.13226956937E+04 -0.12149217426E+04  0.17966146060E+04  0.25500000920E-02 0. -1.
       -2    1    3    3    0  502 -0.47595206259E+02  0.13226956937E+04  0.61565199713E+03  0.14597316820E+04  0.25500000920E-02 0.  1.
</event>
<event>
 5   0  0.3858721E-07  0.3196729E+04  0.7818609E-02  0.8189682E-01
       -2   -1    0    0    0  501  0.00000000000E+00  0.00000000000E+00  0.13399867041E+04  0.13399867041E+04  0.25500000920E-02 0.  1.
        2   -1    0    0  501    0  0.00000000000E+00  0.00000000000E+00 -0.19065624971E+04  0.19065624971E+04  0.25500000920E-02 0. -1.
    10030    2    1    2    0    0  0.00000000000E+00  0.00000000000E+00 -0.56657579302E+03  0.32465492011E+04  0.31967285756E+04 0.  0.
        2    1    3    3  502    0 -0.48227053699E+03  0.61252335837E+02 -0.18296577578E+04  0.18931413656E+04  0.25500000920E-02 0. -1.
       -2    1    3    3    0  502  0.48227053699E+03 -0.61252335837E+02  0.12630819648E+04  0.13534078355E+04  0.25500000920E-02 0.  1.
</event>
<event>
 5   0  0.3942564E-07  0.3203971E+04  0.7818609E-02  0.8187769E-01
        2   -1    0    0  501    0  0.00000000000E+00  0.00000000000E+00  0.26841180153E+04  0.26841180153E+04  0.25500000920E-02 0.  1.
       -2   -1    0    0    0  501  0.00000000000E+00  0.00000000000E+00 -0.95612721166E+03  0.95612721167E+03  0.25500000920E-02 0. -1.
    10030    2    1    2    0    0  0.00000000000E+00  0.00000000000E+00  0.17279908037E+04  0.36402452270E+04  0.32039714567E+04 0.  0.
        3    1    3    3  502    0  0.29783158454E+03 -0.21417727021E+03 -0.90776252978E+03  0.97908547967E+03  0.10100000352E+00 0. -1.
       -3    1    3    3    0  502 -0.29783158454E+03  0.21417727021E+03  0.26357533335E+04  0.26611597473E+04  0.10100000352E+00 0.  1.
</event>
<event>
 5   0  0.3858721E-07  0.3200004E+04  0.7818609E-02  0.8188816E-01
        2   -1    0    0  501    0  0.00000000000E+00  0.00000000000E+00  0.23831001889E+04  0.23831001889E+04  0.25500000920E-02 0. -1.
       -2   -1    0    0    0  501  0.00000000000E+00  0.00000000000E+00 -0.10742337556E+04  0.10742337556E+04  0.25500000920E-02 0.  1.
    10030    2    1    2    0    0  0.00000000000E+00  0.00000000000E+00  0.13088664333E+04  0.34573339445E+04  0.32000041662E+04 0.  0.
        2    1    3    3  502    0  0.13291778230E+04  0.30011717048E+03  0.15604520306E+04  0.20716646788E+04  0.25500000920E-02 0. -1.
       -2    1    3    3    0  502 -0.13291778230E+04 -0.30011717048E+03 -0.25158559733E+03  0.13856692658E+04  0.25500000920E-02 0.  1.
</event>
<event>
 5   0  0.3750285E-07  0.3205582E+04  0.7818609E-02  0.8187345E-01
        2   -1    0    0  501    0  0.00000000000E+00  0.00000000000E+00  0.22437351352E+04  0.22437351352E+04  0.25500000920E-02 0. -1.
       -2   -1    0    0    0  501  0.00000000000E+00  0.00000000000E+00 -0.11449385835E+04  0.11449385835E+04  0.25500000920E-02 0.  1.
    10030    2    1    2    0    0  0.00000000000E+00  0.00000000000E+00  0.10987965517E+04  0.33886737187E+04  0.32055819612E+04 0.  0.
        1    1    3    3  502    0 -0.82359053539E+03 -0.59209141738E+03 -0.76247667088E+03  0.12689540142E+04  0.50400001928E-02 0.  1.
       -1    1    3    3    0  502  0.82359053539E+03  0.59209141738E+03  0.18612732226E+04  0.21197197045E+04  0.50400001928E-02 0. -1.
</event>
<event>
 5   0  0.1277374E-07  0.3203421E+04  0.7818609E-02  0.8187914E-01
        1   -1    0    0  501    0  0.00000000000E+00  0.00000000000E+00  0.13939427474E+04  0.13939427474E+04  0.50400001928E-02 0.  1.
       -1   -1    0    0    0  501  0.00000000000E+00  0.00000000000E+00 -0.18404462798E+04  0.18404462798E+04  0.50400001928E-02 0. -1.
    10030    2    1    2    0    0  0.00000000000E+00  0.00000000000E+00 -0.44650353246E+03  0.32343890272E+04  0.32034211361E+04 0.  0.
        5    1    3    3  502    0  0.54778749848E+03  0.96707612505E+03  0.94121764122E+03  0.14564409062E+04  0.46999998093E+01 0.  1.
       -5    1    3    3    0  502 -0.54778749848E+03 -0.96707612505E+03 -0.13877211737E+04  0.17779481210E+04  0.46999998093E+01 0. -1.
</event>
<event>
 5   0  0.3764056E-07  0.3195339E+04  0.7818609E-02  0.8190049E-01
       -2   -1    0    0    0  501  0.00000000000E+00  0.00000000000E+00  0.21222765643E+04  0.21222765643E+04  0.25500000920E-02 0. -1.
        2   -1    0    0  501    0  0.00000000000E+00  0.00000000000E+00 -0.12027407422E+04  0.12027407422E+04  0.25500000920E-02 0.  1.
    10030    2    1    2    0    0  0.00000000000E+00  0.00000000000E+00  0.91953582208E+03  0.33250173064E+04  0.31953394123E+04 0.  0.
        5    1    3    3  502    0  0.81921854327E+03 -0.10998612790E+04 -0.39307421411E+03  0.14266545772E+04  0.46999998093E+01 0.  1.
       -5    1    3    3    0  502 -0.81921854327E+03  0.10998612790E+04  0.13126100362E+04  0.18983627293E+04  0.46999998093E+01 0. -1.
</event>
<event>
 5   0  0.3830207E-07  0.3218300E+04  0.7818609E-02  0.8184001E-01
        2   -1    0    0  501    0  0.00000000000E+00  0.00000000000E+00  0.26257662099E+04  0.26257662099E+04  0.25500000920E-02 0.  1.
       -2   -1    0    0    0  501  0.00000000000E+00  0.00000000000E+00 -0.98613647050E+03  0.98613647051E+03  0.25500000920E-02 0. -1.
    10030    2    1    2    0    0  0.00000000000E+00  0.00000000000E+00  0.16396297394E+04  0.36119026804E+04  0.32183000622E+04 0.  0.
        4    1    3    3  502    0  0.28526100805E+03  0.14940882911E+04  0.14090910244E+04  0.20734543140E+04  0.12699999809E+01 0.  1.
       -4    1    3    3    0  502 -0.28526100805E+03 -0.14940882911E+04  0.23053871499E+03  0.15384483664E+04  0.12699999809E+01 0. -1.
</event>
<event>
 5   0  0.3858721E-07  0.3191212E+04  0.7818609E-02  0.8191142E-01
       -2   -1    0    0    0  501  0.00000000000E+00  0.00000000000E+00  0.15189052712E+04  0.15189052712E+04  0.25500000920E-02 0.  1.
        2   -1    0    0  501    0  0.00000000000E+00  0.00000000000E+00 -0.16761795196E+04  0.16761795196E+04  0.25500000920E-02 0. -1.
    10030    2    1    2    0    0  0.00000000000E+00  0.00000000000E+00 -0.15727424843E+03  0.31950847908E+04  0.31912116243E+04 0.  0.
        2    1    3    3  502    0  0.33163081643E+03  0.13844013119E+04 -0.80021421666E+03  0.16330611695E+04  0.25500000920E-02 0. -1.
       -2    1    3    3    0  502 -0.33163081643E+03 -0.13844013119E+04  0.64293996823E+03  0.15620236213E+04  0.25500000920E-02 0.  1.
</event>
<event>
 5   0  0.1277374E-07  0.3177496E+04  0.7818609E-02  0.8194786E-01
       -1   -1    0    0    0  501  0.00000000000E+00  0.00000000000E+00  0.21065427464E+04  0.21065427464E+04  0.50400001928E-02 0. -1.
        1   -1    0    0  501    0  0.00000000000E+00  0.00000000000E+00 -0.11982285739E+04  0.11982285739E+04  0.50400001928E-02 0.  1.
    10030    2    1    2    0    0  0.00000000000E+00  0.00000000000E+00  0.90831417252E+03  0.33047713203E+04  0.31774956874E+04 0.  0.
        5    1    3    3  502    0  0.36955227080E+02 -0.12008578429E+04  0.15353506901E+04  0.19495509943E+04  0.46999998093E+01 0. -1.
       -5    1    3    3    0  502 -0.36955227080E+02  0.12008578429E+04 -0.62703651758E+03  0.13552203260E+04  0.46999998093E+01 0.  1.
</event>
<event>
 5   0  0.1277374E-07  0.3199329E+04  0.7818609E-02  0.8188995E-01
       -1   -1    0    0    0  501  0.00000000000E+00  0.00000000000E+00  0.16728502251E+04  0.16728502251E+04  0.50400001928E-02 0. -1.
        1   -1    0    0  501    0  0.00000000000E+00  0.00000000000E+00 -0.15296802406E+04  0.15296802406E+04  0.50400001928E-02 0.  1.
    10030    2    1    2    0    0  0.00000000000E+00  0.00000000000E+00  0.14316998453E+03  0.32025304657E+04  0.31993286388E+04 0.  0.
        5    1    3    3  502    0 -0.88659327963E+03  0.95554731711E+03 -0.85658918371E+03  0.15597709570E+04  0.46999998093E+01 0.  1.
       -5    1    3    3    0  502  0.88659327963E+03 -0.95554731711E+03  0.99975916825E+03  0.16427595086E+04  0.46999998093E+01 0. -1.
</event>
<event>
 5   0  0.3750285E-07  0.3189794E+04  0.7818609E-02  0.8191518E-01
        2   -1    0    0  501    0  0.00000000000E+00  0.00000000000E+00  0.14534640998E+04  0.14534640998E+04  0.25500000920E-02 0.  1.
       -2   -1    0    0    0  501  0.00000000000E+00  0.00000000000E+00 -0.17500920524E+04  0.17500920524E+04  0.25500000920E-02 0. -1.
    10030    2    1    2    0    0  0.00000000000E+00  0.00000000000E+00 -0.29662795259E+03  0.32035561521E+04  0.31897937046E+04 0.  0.
        1    1    3    3  502    0  0.13175036023E+04 -0.53646805725E+03  0.57596480212E+03  0.15347146875E+04  0.50400001928E-02 0.  1.
       -1    1    3    3    0  502 -0.13175036023E+04  0.53646805725E+03 -0.87259275470E+03  0.16688414647E+04  0.50400001928E-02 0. -1.
</event>
<event>
 5   0  0.3764056E-07  0.3200074E+04  0.7818609E-02  0.8188798E-01
        2   -1    0    0  501    0  0.00000000000E+00  0.00000000000E+00  0.12978328857E+04  0.12978328857E+04  0.25500000920E-02 0.  1.
       -2   -1    0    0    0  501  0.00000000000E+00  0.00000000000E+00 -0.19726103183E+04  0.19726103183E+04  0.25500000920E-02 0. -1.
    10030    2    1    2    0    0  0.00000000000E+00  0.00000000000E+00 -0.67477743254E+03  0.32704432040E+04  0.32000740877E+04 0.  0.
        5    1    3    3  502    0  0.62669268679E+03  0.11100800562E+04 -0.13256454915E+04  0.18391246597E+04  0.46999998093E+01 0. -1.
       -5    1    3    3    0  502 -0.62669268679E+03 -0.11100800562E+04  0.65086805896E+03  0.14313185442E+04  0.46999998093E+01 0.  1.
</event>
<event>
 5   0  0.3764056E-07  0.3198497E+04  0.7818609E-02  0.8189214E-01
       -2   -1    0    0    0  501  0.00000000000E+00  0.00000000000E+00  0.16433594491E+04  0.16433594491E+04  0.25500000920E-02 0. -1.
        2   -1    0    0  501    0  0.00000000000E+00  0.00000000000E+00 -0.15563211108E+04  0.15563211108E+04  0.25500000920E-02 0.  1.
    10030    2    1    2    0    0  0.00000000000E+00  0.00000000000E+00  0.87038338226E+02  0.31996805599E+04  0.31984965239E+04 0.  0.
        5    1    3    3  502    0 -0.46114256351E+03  0.55921317442E+03  0.14695997892E+04  0.16386328047E+04  0.46999998093E+01 0. -1.
       -5    1    3    3    0  502  0.46114256351E+03 -0.55921317442E+03 -0.13825614510E+04  0.15610477552E+04  0.46999998093E+01 0.  1.
</event>
<event>
 5   0  0.1270948E-07  0.3212074E+04  0.7818609E-02  0.8185636E-01
        1   -1    0    0  501    0  0.00000000000E+00  0.00000000000E+00  0.10061635968E+04  0.10061635968E+04  0.50400001928E-02 0. -1.
       -1   -1    0    0    0  501  0.00000000000E+00  0.00000000000E+00 -0.25635548941E+04  0.25635548941E+04  0.50400001928E-02 0.  1.
    10030    2    1    2    0    0  0.00000000000E+00  0.00000000000E+00 -0.15573912973E+04  0.35697184909E+04  0.32120744779E+04 0.  0.
        4    1    3    3  502    0  0.10127755069E+04  0.93532526141E+03  0.13693713794E+03  0.13853883805E+04  0.12699999809E+01 0. -1.
       -4    1    3    3    0  502 -0.10127755069E+04 -0.93532526141E+03 -0.16943284352E+04  0.21843301104E+04  0.12699999809E+01 0.  1.
</event>
<event>
 5   0  0.1270948E-07  0.3196676E+04  0.7818609E-02  0.8189696E-01
        1   -1    0    0  501    0  0.00000000000E+00  0.00000000000E+00  0.20726878804E+04  0.20726878804E+04  0.50400001928E-02 0.  1.
       -1   -1    0    0    0  501  0.00000000000E+00  0.00000000000E+00 -0.12325465377E+04  0.12325465377E+04  0.50400001928E-02 0. -1.
    10030    2    1    2    0    0  0.00000000000E+00  0.00000000000E+00  0.84014134270E+03  0.33052344182E+04  0.31966759428E+04 0.  0.
        4    1    3    3  502    0 -0.14670965753E+04 -0.23483666593E+03 -0.18914317823E+03  0.14977641255E+04  0.12699999809E+01 0. -1.
       -4    1    3    3    0  502  0.14670965753E+04  0.23483666593E+03  0.10292845209E+04  0.18074702927E+04  0.12699999809E+01 0.  1.
</event>
<event>
 5   0  0.1288096E-07  0.3210283E+04  0.7818609E-02  0.8186107E-01
        1   -1    0    0  501    0  0.00000000000E+00  0.00000000000E+00  0.16013595827E+04  0.16013595827E+04  0.50400001928E-02 0.  1.
       -1   -1    0    0    0  501  0.00000000000E+00  0.00000000000E+00 -0.16089326480E+04  0.16089326480E+04  0.50400001928E-02 0. -1.
    10030    2    1    2    0    0  0.00000000000E+00  0.00000000000E+00 -0.75730653599E+01  0.32102922307E+04  0.32102832983E+04 0.  0.
        2    1    3    3  502    0  0.14913216392E+04  0.33722057175E+03 -0.49237950934E+03  0.16062987041E+04  0.25500000920E-02 0. -1.
       -2    1    3    3    0  502 -0.14913216392E+04 -0.33722057175E+03  0.48480644398E+03  0.16039935267E+04  0.25500000920E-02 0.  1.
</event>
<event>
 5   0  0.3750285E-07  0.3199948E+04  0.7818609E-02  0.8188831E-01
        2   -1    0    0  501    0  0.00000000000E+00  0.00000000000E+00  0.16730608693E+04  0.16730608693E+04  0.25500000920E-02 0.  1.
       -2   -1    0    0    0  501  0.00000000000E+00  0.00000000000E+00 -0.15300797234E+04  0.15300797234E+04  0.25500000920E-02 0. -1.
    10030    2    1    2    0    0  0.00000000000E+00  0.00000000000E+00  0.14298114581E+03  0.32031405927E+04  0.31999478197E+04 0.  0.
        1    1    3    3  502    0 -0.35768561880E+02 -0.14242221333E+04 -0.65740382560E+03  0.15690340547E+04  0.50400001928E-02 0. -1.
       -1    1    3    3    0  502  0.35768561880E+02  0.14242221333E+04  0.80038497142E+03  0.16341065380E+04  0.50400001928E-02 0.  1.
</event>
<event>
 5   0  0.3764056E-07  0.3204117E+04  0.7818609E-02  0.8187731E-01
       -2   -1    0    0    0  501  0.00000000000E+00  0.00000000000E+00  0.27839132600E+04  0.27839132600E+04  0.25500000920E-02 0. -1.
        2   -1    0    0  501    0  0.00000000000E+00  0.00000000000E+00 -0.92193635952E+03  0.92193635952E+03  0.25500000920E-02 0.  1.
    10030    2    1    2    0    0  0.00000000000E+00  0.00000000000E+00  0.18619769005E+04  0.37058496196E+04  0.32041166372E+04 0.  0.
        5    1    3    3  502    0  0.30818310785E+03  0.11861015636E+04  0.21244387091E+04  0.24525651195E+04  0.46999998093E+01 0. -1.
       -5    1    3    3    0  502 -0.30818310785E+03 -0.11861015636E+04 -0.26246180853E+03  0.12532845000E+04  0.46999998093E+01 0.  1.
</event>
<event>
 5   0  0.3942564E-07  0.3199218E+04  0.7818609E-02  0.8189024E-01
       -2   -1    0    0    0  501  0.00000000000E+00  0.00000000000E+00  0.10693861961E+04  0.10693861961E+04  0.25500000920E-02 0.  1.
        2   -1    0    0  501    0  0.00000000000E+00  0.00000000000E+00 -0.23927267892E+04  0.23927267892E+04  0.25500000920E-02 0. -1.
    10030    2    1    2    0    0  0.00000000000E+00  0.00000000000E+00 -0.13233405931E+04  0.34621129852E+04  0.31992180290E+04 0.  0.
        3    1    3    3  502    0 -0.79857513722E+03  0.32054675555E+02  0.83783473153E+03  0.11578932591E+04  0.10100000352E+00 0.  1.
       -3    1    3    3    0  502  0.79857513722E+03 -0.32054675555E+02 -0.21611753246E+04  0.23042197261E+04  0.10100000352E+00 0. -1.
</event>
<event>
 5   0  0.1270948E-07  0.3194349E+04  0.7818609E-02  0.8190311E-01
        1   -1    0    0  501    0  0.00000000000E+00  0.00000000000E+00  0.24602578135E+04  0.24602578136E+04  0.50400001928E-02 0. -1.
       -1   -1    0    0    0  501  0.00000000000E+00  0.00000000000E+00 -0.10368696218E+04  0.10368696218E+04  0.50400001928E-02 0.  1.
    10030    2    1    2    0    0  0.00000000000E+00  0.00000000000E+00  0.14233881917E+04  0.34971274354E+04  0.31943491286E+04 0.  0.
        4    1    3    3  502    0  0.68788092750E+03 -0.11366802480E+04  0.16821354335E+04  0.21435492498E+04  0.12699999809E+01 0. -1.
       -4    1    3    3    0  502 -0.68788092750E+03  0.11366802480E+04 -0.25874724178E+03  0.13535781856E+04  0.12699999809E+01 0.  1.
</event>
<event>
 5   0  0.3750285E-07  0.3205101E+04  0.7818609E-02  0.8187471E-01
       -2   -1    0    0    0  501  0.00000000000E+00  0.00000000000E+00  0.14301202879E+04  0.14301202879E+04  0.25500000920E-02 0. -1.
        2   -1    0    0  501    0  0.00000000000E+00  0.00000000000E+00 -0.17957701821E+04  0.17957701821E+04  0.25500000920E-02 0.  1.
    10030    2    1    2    0    0  0.00000000000E+00  0.00000000000E+00 -0.36564989422E+03  0.32258904700E+04  0.32051005412E+04 0.  0.
        1    1    3    3  502    0 -0.41913874818E+02  0.57671956974E+03 -0.16871116011E+04  0.17834538933E+04  0.50400001928E-02 0.  1.
       -1    1    3    3    0  502  0.41913874818E+02 -0.57671956974E+03  0.13214617068E+04  0.14424365767E+04  0.50400001928E-02 0. -1.
</event>
<event>
 5   0  0.1270948E-07  0.3211179E+04  0.7818609E-02  0.8185871E-01
       -1   -1    0    0    0  501  0.00000000000E+00  0.00000000000E+00  0.82180448200E+03  0.82180448201E+03  0.50400001928E-02 0.  1.
        1   -1    0    0  501    0  0.00000000000E+00  0.00000000000E+00 -0.31368984095E+04  0.31368984095E+04  0.50400001928E-02 0. -1.
    10030    2    1    2    0    0  0.00000000000E+00  0.00000000000E+00 -0.23150939275E+04  0.39587028916E+04  0.32111787073E+04 0.  0.
        4    1    3    3  502    0  0.10751483792E+04 -0.11892569890E+04 -0.10497972183E+04  0.19163381840E+04  0.12699999809E+01 0.  1.
       -4    1    3    3    0  502 -0.10751483792E+04  0.11892569890E+04 -0.12652967092E+04  0.20423647075E+04  0.12699999809E+01 0. -1.
</event>
<event>
 5   0  0.3942564E-07  0.3200126E+04  0.7818609E-02  0.8188784E-01
        2   -1    0    0  501    0  0.00000000000E+00  0.00000000000E+00  0.21483737734E+04  0.21483737734E+04  0.25500000920E-02 0.  1.
       -2   -1    0    0    0  501  0.00000000000E+00  0.00000000000E+00 -0.11916928036E+04  0.11916928036E+04  0.25500000920E-02 0. -1.
    10030    2    1    2    0    0  0.00000000000E+00  0.00000000000E+00  0.95668096987E+03  0.33400665770E+04  0.32001259758E+04 0.  0.
        3    1    3    3  502    0  0.13472357873E+04  0.19164069025E+03  0.13568305780E+04  0.19216554448E+04  0.10100000352E+00 0.  1.
       -3    1    3    3    0  502 -0.13472357873E+04 -0.19164069025E+03 -0.40014960815E+03  0.14184111322E+04  0.10100000352E+00 0. -1.
</event>
<event>
 5   0  0.3830207E-07  0.3193673E+04  0.7818609E-02  0.8190490E-01
        2   -1    0    0  501    0  0.00000000000E+00  0.00000000000E+00  0.17600577560E+04  0.17600577560E+04  0.25500000920E-02 0. -1.
       -2   -1    0    0    0  501  0.00000000000E+00  0.00000000000E+00 -0.14487515546E+04  0.14487515546E+04  0.25500000920E-02 0.  1.
    10030    2    1    2    0    0  0.00000000000E+00  0.00000000000E+00  0.31130620138E+03  0.32088093106E+04  0.31936727511E+04 0.  0.
        4    1    3    3  502    0  0.11025991224E+04 -0.11486871460E+04  0.27737933184E+03  0.16162140609E+04  0.12699999809E+01 0.  1.
       -4    1    3    3    0  502 -0.11025991224E+04  0.11486871460E+04  0.33926869536E+02  0.15925952497E+04  0.12699999809E+01 0. -1.
</event>
<event>
 5   0  0.1317293E-07  0.3199029E+04  0.7818609E-02  0.8189074E-01
       -1   -1    0    0    0  501  0.00000000000E+00  0.00000000000E+00  0.11098265222E+04  0.11098265222E+04  0.50400001928E-02 0. -1.
        1   -1    0    0  501    0  0.00000000000E+00  0.00000000000E+00 -0.23052671964E+04  0.23052671964E+04  0.50400001928E-02 0.  1.
    10030    2    1    2    0    0  0.00000000000E+00  0.00000000000E+00 -0.11954406742E+04  0.34150937186E+04  0.31990290247E+04 0.  0.
        1    1    3    3  502    0  0.10874225452E+04 -0.33975662064E+03 -0.17962811128E+04  0.21270985378E+04  0.50400001928E-02 0.  1.
       -1    1    3    3    0  502 -0.10874225452E+04  0.33975662064E+03  0.60084043862E+03  0.12879951808E+04  0.50400001928E-02 0. -1.
</event>
<event>
 5   0  0.3750285E-07  0.3206851E+04  0.7818609E-02  0.8187010E-01
       -2   -1    0    0    0  501  0.00000000000E+00  0.00000000000E+00  0.12266706683E+04  0.12266706683E+04  0.25500000920E-02 0. -1.
        2   -1    0    0  501    0  0.00000000000E+00  0.00000000000E+00 -0.20958955591E+04  0.20958955591E+04  0.25500000920E-02 0.  1.
    10030    2    1    2    0    0  0.00000000000E+00  0.00000000000E+00 -0.86922489079E+03  0.33225662275E+04  0.32068511698E+04 0.  0.
        1    1    3    3  502    0 -0.10667760907E+04  0.10135872224E+04 -0.10944630103E+04  0.18339082763E+04  0.50400001928E-02 0.  1.
       -1    1    3    3    0  502  0.10667760907E+04 -0.10135872224E+04  0.22523811951E+03  0.14886579512E+04  0.50400001928E-02 0. -1.
</event>
<event>
 5   0  0.1277374E-07  0.3200456E+04  0.7818609E-02  0.8188697E-01
        1   -1    0    0  501    0  0.00000000000E+00  0.00000000000E+00  0.23461215375E+04  0.23461215375E+04  0.50400001928E-02 0.  1.
       -1   -1    0    0    0  501  0.00000000000E+00  0.00000000000E+00 -0.10914734706E+04  0.10914734706E+04  0.50400001928E-02 0. -1.
    10030    2    1    2    0    0  0.00000000000E+00  0.00000000000E+00  0.12546480669E+04  0.34375950081E+04  0.32004558532E+04 0.  0.
        5    1    3    3  502    0 -0.14688419152E+04  0.23115224368E+03 -0.79191015907E+01  0.14869474550E+04  0.46999998093E+01 0. -1.
       -5    1    3    3    0  502  0.14688419152E+04 -0.23115224368E+03  0.12625671685E+04  0.19506475531E+04  0.46999998093E+01 0.  1.
</event>
<event>
 5   0  0.1277374E-07  0.3201234E+04  0.7818609E-02  0.8188491E-01
        1   -1    0    0  501    0  0.00000000000E+00  0.00000000000E+00  0.21169895300E+04  0.21169895300E+04  0.50400001928E-02 0.  1.
       -1   -1    0    0    0  501  0.00000000000E+00  0.00000000000E+00 -0.12101971252E+04  0.12101971252E+04  0.50400001928E-02 0. -1.
    10030    2    1    2    0    0  0.00000000000E+00  0.00000000000E+00  0.90679240483E+03  0.33271866552E+04  0.32012339142E+04 0.  0.
        5    1    3    3  502    0  0.12158081751E+04  0.10346078251E+04  0.57348299144E+03  0.16963218155E+04  0.46999998093E+01 0.  1.
       -5    1    3    3    0  502 -0.12158081751E+04 -0.10346078251E+04  0.33330941338E+03  0.16308648397E+04  0.46999998093E+01 0. -1.
</event>
<event>
 5   0  0.1317293E-07  0.3197200E+04  0.7818609E-02  0.8189557E-01
        1   -1    0    0  501    0  0.00000000000E+00  0.00000000000E+00  0.12444233270E+04  0.12444233270E+04  0.50400001928E-02 0.  1.
       -1   -1    0    0    0  501  0.00000000000E+00  0.00000000000E+00 -0.20535787982E+04  0.20535787982E+04  0.50400001928E-02 0. -1.
    10030    2    1    2    0    0  0.00000000000E+00  0.00000000000E+00 -0.80915547124E+03  0.32980021252E+04  0.31971996249E+04 0.  0.
        1    1    3    3  502    0  0.30854711394E+03 -0.13302208119E+03 -0.20167431177E+04  0.20445412684E+04  0.50400001928E-02 0. -1.
       -1    1    3    3    0  502 -0.30854711394E+03  0.13302208119E+03  0.12075876464E+04  0.12534608568E+04  0.50400001928E-02 0.  1.
</event>
<event>
 5   0  0.1365455E-07  0.3180652E+04  0.7818609E-02  0.8193946E-01
        1   -1    0    0  501    0  0.00000000000E+00  0.00000000000E+00  0.17298377620E+04  0.17298377620E+04  0.50400001928E-02 0. -1.
       -1   -1    0    0    0  501  0.00000000000E+00  0.00000000000E+00 -0.14620656109E+04  0.14620656109E+04  0.50400001928E-02 0.  1.
    10030    2    1    2    0    0  0.00000000000E+00  0.00000000000E+00  0.26777215113E+03  0.31919033729E+04  0.31806516969E+04 0.  0.
        3    1    3    3  502    0  0.85811449711E+03  0.20528454191E+03  0.14616819324E+04  0.17073418858E+04  0.10100000352E+00 0. -1.
       -3    1    3    3    0  502 -0.85811449711E+03 -0.20528454191E+03 -0.11939097812E+04  0.14845614872E+04  0.10100000352E+00 0.  1.
</event>
<event>
 5   0  0.1365455E-07  0.3199110E+04  0.7818609E-02  0.8189052E-01
       -1   -1    0    0    0  501  0.00000000000E+00  0.00000000000E+00  0.18006251222E+04  0.18006251222E+04  0.50400001928E-02 0. -1.
        1   -1    0    0  501    0  0.00000000000E+00  0.00000000000E+00 -0.14209379104E+04  0.14209379104E+04  0.50400001928E-02 0.  1.
    10030    2    1    2    0    0  0.00000000000E+00  0.00000000000E+00  0.37968721183E+03  0.32215630326E+04  0.31991101878E+04 0.  0.
        3    1    3    3  502    0  0.60642068821E+03  0.11780348812E+04  0.10922716482E+04  0.17171399466E+04  0.10100000352E+00 0. -1.
       -3    1    3    3    0  502 -0.60642068821E+03 -0.11780348812E+04 -0.71258443638E+03  0.15044230860E+04  0.10100000352E+00 0.  1.
</event>
<event>
 5   0  0.1270948E-07  0.3201251E+04  0.7818609E-02  0.8188487E-01
       -1   -1    0    0    0  501  0.00000000000E+00  0.00000000000E+00  0.16759445629E+04  0.16759445629E+04  0.50400001928E-02 0.  1.
        1   -1    0    0  501    0  0.00000000000E+00  0.00000000000E+00 -0.15286917868E+04  0.15286917868E+04  0.50400001928E-02 0. -1.
    10030    2    1    2    0    0  0.00000000000E+00  0.00000000000E+00  0.14725277612E+03  0.32046363497E+04  0.32012514356E+04 0.  0.
        4    1    3    3  502    0  0.11012302297E+03 -0.11095785871E+04 -0.10759385566E+04  0.15494957604E+04  0.12699999809E+01 0. -1.
       -4    1    3    3    0  502 -0.11012302297E+03  0.11095785871E+04  0.12231913327E+04  0.16551405893E+04  0.12699999809E+01 0.  1.
</event>
<event>
 5   0  0.1365455E-07  0.3198730E+04  0.7818609E-02  0.8189153E-01
        1   -1    0    0  501    0  0.00000000000E+00  0.00000000000E+00  0.25689207382E+04  0.25689207382E+04  0.50400001928E-02 0.  1.
       -1   -1    0    0    0  501  0.00000000000E+00  0.00000000000E+00 -0.99573671611E+03  0.99573671612E+03  0.50400001928E-02 0. -1.
    10030    2    1    2    0    0  0.00000000000E+00  0.00000000000E+00  0.15731840221E+04  0.35646574543E+04  0.31987301855E+04 0.  0.
        3    1    3    3  502    0 -0.15428415298E+03 -0.51845871874E+03 -0.89070259049E+03  0.10420912426E+04  0.10100000352E+00 0.  1.
       -3    1    3    3    0  502  0.15428415298E+03  0.51845871874E+03  0.24638866126E+04  0.25225662118E+04  0.10100000352E+00 0. -1.
</event>
<event>
 5   0  0.1317293E-07  0.3202122E+04  0.7818609E-02  0.8188257E-01
        1   -1    0    0  501    0  0.00000000000E+00  0.00000000000E+00  0.19534539909E+04  0.19534539909E+04  0.50400001928E-02 0. -1.
       -1   -1    0    0    0  501  0.00000000000E+00  0.00000000000E+00 -0.13122380337E+04  0.13122380337E+04  0.50400001928E-02 0.  1.
    10030    2    1    2    0    0  0.00000000000E+00  0.00000000000E+00  0.64121595724E+03  0.32656920246E+04  0.32021221863E+04 0.  0.
        1    1    3    3  502    0  0.93260707179E+03  0.71291115595E+02 -0.10046345044E+04  0.13726357350E+04  0.50400001928E-02 0.  1.
       -1    1    3    3    0  502 -0.93260707179E+03 -0.71291115595E+02  0.16458504617E+04  0.18930562896E+04  0.50400001928E-02 0. -1.
</event>
<event>
 5   0  0.1277374E-07  0.3199670E+04  0.7818609E-02  0.8188904E-01
       -1   -1    0    0    0  501  0.00000000000E+00  0.00000000000E+00  0.15083625477E+04  0.15083625477E+04  0.50400001928E-02 0. -1.
        1   -1    0    0  501    0  0.00000000000E+00  0.00000000000E+00 -0.16968541475E+04  0.16968541476E+04  0.50400001928E-02 0.  1.
    10030    2    1    2    0    0  0.00000000000E+00  0.00000000000E+00 -0.18849159986E+03  0.32052166953E+04  0.31996695111E+04 0.  0.
        5    1    3    3  502    0  0.13804714193E+04 -0.49397336341E+03  0.54697184495E+03  0.15648997771E+04  0.46999998093E+01 0. -1.
       -5    1    3    3    0  502 -0.13804714193E+04  0.49397336341E+03 -0.73546344482E+03  0.16403169181E+04  0.46999998093E+01 0.  1.
</event>
<event>
 5   0  0.3942564E-07  0.3202181E+04  0.7818609E-02  0.8188241E-01
       -2   -1    0    0    0  501  0.00000000000E+00  0.00000000000E+00  0.10042072263E+04  0.10042072263E+04  0.25500000920E-02 0. -1.
        2   -1    0    0  501    0  0.00000000000E+00  0.00000000000E+00 -0.25527506054E+04  0.25527506054E+04  0.25500000920E-02 0.  1.
    10030    2    1    2    0    0  0.00000000000E+00  0.00000000000E+00 -0.15485433791E+04  0.35569578317E+04  0.32021808849E+04 0.  0.
        3    1    3    3  502    0  0.48365967658E+03 -0.95187014232E+03 -0.20995670616E+04  0.23554543738E+04  0.10100000352E+00 0.  1.
       -3    1    3    3    0  502 -0.48365967658E+03  0.95187014232E+03  0.55102368246E+03  0.12015034579E+04  0.10100000352E+00 0. -1.
</event>
<event>
 5   0  0.3858721E-07  0.3218515E+04  0.7818609E-02  0.8183944E-01
       -2   -1    0    0    0  501  0.00000000000E+00  0.00000000000E+00  0.96480655195E+03  0.96480655195E+03  0.25500000920E-02 0.  1.
        2   -1    0    0  501    0  0.00000000000E+00  0.00000000000E+00 -0.26841756024E+04  0.26841756024E+04  0.25500000920E-02 0. -1.
    10030    2    1    2    0    0  0.00000000000E+00  0.00000000000E+00 -0.17193690504E+04  0.36489821543E+04  0.32185153147E+04 0.  0.
        2    1    3    3  502    0 -0.13006525362E+03 -0.43329110161E+02  0.95817402938E+03  0.96793173962E+03  0.25500000920E-02 0.  1.
       -2    1    3    3    0  502  0.13006525362E+03  0.43329110161E+02 -0.26775430798E+04  0.26810504147E+04  0.25500000920E-02 0. -1.
</event>
<event>
 5   0  0.1277374E-07  0.3200113E+04  0.7818609E-02  0.8188787E-01
       -1   -1    0    0    0  501  0.00000000000E+00  0.00000000000E+00  0.13224220774E+04  0.13224220774E+04  0.50400001928E-02 0. -1.
        1   -1    0    0  501    0  0.00000000000E+00  0.00000000000E+00 -0.19359780238E+04  0.19359780239E+04  0.50400001928E-02 0.  1.
    10030    2    1    2    0    0  0.00000000000E+00  0.00000000000E+00 -0.61355594649E+03  0.32584001012E+04  0.32001125480E+04 0.  0.
        5    1    3    3  502    0 -0.41224294335E+03  0.93711538404E+03  0.94526474519E+03  0.13934407113E+04  0.46999998093E+01 0. -1.
       -5    1    3    3    0  502  0.41224294335E+03 -0.93711538404E+03 -0.15588206917E+04  0.18649593899E+04  0.46999998093E+01 0.  1.
</event>
<event>
 5   0  0.3942564E-07  0.3199809E+04  0.7818609E-02  0.8188868E-01
       -2   -1    0    0    0  501  0.00000000000E+00  0.00000000000E+00  0.90230035164E+03  0.90230035165E+03  0.25500000920E-02 0.  1.
        2   -1    0    0  501    0  0.00000000000E+00  0.00000000000E+00 -0.28368546499E+04  0.28368546499E+04  0.25500000920E-02 0. -1.
    10030    2    1    2    0    0  0.00000000000E+00  0.00000000000E+00 -0.19345542983E+04  0.37391550016E+04  0.31998093369E+04 0.  0.
        3    1    3    3  502    0 -0.10094230191E+04  0.15047027181E+03 -0.24070774072E+04  0.26144976169E+04  0.10100000352E+00 0. -1.
       -3    1    3    3    0  502  0.10094230191E+04 -0.15047027181E+03  0.47252310897E+03  0.11246573847E+04  0.10100000352E+00 0.  1.
</event>
<event>
 5   0  0.3750285E-07  0.3195299E+04  0.7818609E-02  0.8190060E-01
        2   -1    0    0  501    0  0.00000000000E+00  0.00000000000E+00  0.28189317634E+04  0.28189317634E+04  0.25500000920E-02 0. -1.
       -2   -1    0    0    0  501  0.00000000000E+00  0.00000000000E+00 -0.90547895319E+03  0.90547895320E+03  0.25500000920E-02 0.  1.
    10030    2    1    2    0    0  0.00000000000E+00  0.00000000000E+00  0.19134528102E+04  0.37244107166E+04  0.31952986604E+04 0.  0.
        1    1    3    3  502    0 -0.67855029928E+03 -0.28625102133E+03 -0.69583030108E+03  0.10131880200E+04  0.50400001928E-02 0.  1.
       -1    1    3    3    0  502  0.67855029928E+03  0.28625102133E+03  0.26092831113E+04  0.27112226966E+04  0.50400001928E-02 0. -1.
</event>
<event>
 5   0  0.3830207E-07  0.3200973E+04  0.7818609E-02  0.8188560E-01
        2   -1    0    0  501    0  0.00000000000E+00  0.00000000000E+00  0.21513975178E+04  0.21513975178E+04  0.25500000920E-02 0. -1.
       -2   -1    0    0    0  501  0.00000000000E+00  0.00000000000E+00 -0.11906476639E+04  0.11906476639E+04  0.25500000920E-02 0.  1.
    10030    2    1    2    0    0  0.00000000000E+00  0.00000000000E+00  0.96074985393E+03  0.33420451818E+04  0.32009726202E+04 0.  0.
        4    1    3    3  502    0  0.16002198243E+04  0.24033853400E+01  0.51073486531E+03  0.16797502725E+04  0.12699999809E+01 0.  1.
       -4    1    3    3    0  502 -0.16002198243E+04 -0.24033853400E+01  0.45001498861E+03  0.16622949093E+04  0.12699999809E+01 0. -1.
</event>
<event>
 5   0  0.3858721E-07  0.3193821E+04  0.7818609E-02  0.8190451E-01
        2   -1    0    0  501    0  0.00000000000E+00  0.00000000000E+00  0.13609617731E+04  0.13609617731E+04  0.25500000920E-02 0. -1.
       -2   -1    0    0    0  501  0.00000000000E+00  0.00000000000E+00 -0.18737657117E+04  0.18737657117E+04  0.25500000920E-02 0.  1.
    10030    2    1    2    0    0  0.00000000000E+00  0.00000000000E+00 -0.51280393861E+03  0.32347274848E+04  0.31938212257E+04 0.  0.
        2    1    3    3  502    0 -0.42527352364E+02 -0.16165769838E+03  0.13520766135E+04  0.13623703446E+04  0.25500000920E-02 0. -1.
       -2    1    3    3    0  502  0.42527352364E+02  0.16165769838E+03 -0.18648805521E+04  0.18723571403E+04  0.25500000920E-02 0.  1.
</event>
<event>
 5   0  0.1277374E-07  0.3200819E+04  0.7818609E-02  0.8188601E-01
       -1   -1    0    0    0  501  0.00000000000E+00  0.00000000000E+00  0.13086610013E+04  0.13086610013E+04  0.50400001928E-02 0.  1.
        1   -1    0    0  501    0  0.00000000000E+00  0.00000000000E+00 -0.19571994013E+04  0.19571994013E+04  0.50400001928E-02 0. -1.
    10030    2    1    2    0    0  0.00000000000E+00  0.00000000000E+00 -0.64853840008E+03  0.32658604026E+04  0.32008189754E+04 0.  0.
        5    1    3    3  502    0  0.14842604605E+04 -0.70981251313E+02 -0.93066998261E+03  0.17533499820E+04  0.46999998093E+01 0. -1.
       -5    1    3    3    0  502 -0.14842604605E+04  0.70981251313E+02  0.28213158252E+03  0.15125104207E+04  0.46999998093E+01 0.  1.
</event>
<event>
 5   0  0.3858721E-07  0.3202173E+04  0.7818609E-02  0.8188244E-01
       -2   -1    0    0    0  501  0.00000000000E+00  0.00000000000E+00  0.16188841828E+04  0.16188841828E+04  0.25500000920E-02 0. -1.
        2   -1    0    0  501    0  0.00000000000E+00  0.00000000000E+00 -0.15834842057E+04  0.15834842057E+04  0.25500000920E-02 0.  1.
    10030    2    1    2    0    0  0.00000000000E+00  0.00000000000E+00  0.35399977090E+02  0.32023683886E+04  0.32021727214E+04 0.  0.
        2    1    3    3  502    0  0.24698362835E+02 -0.15510200704E+04  0.41421414820E+03  0.16055673852E+04  0.25500000920E-02 0. -1.
       -2    1    3    3    0  502 -0.24698362835E+02  0.15510200704E+04 -0.37881417111E+03  0.15968010033E+04  0.25500000920E-02 0.  1.
</event>
<event>
 5   0  0.1277374E-07  0.3197800E+04  0.7818609E-02  0.8189399E-01
       -1   -1    0    0    0  501  0.00000000000E+00  0.00000000000E+00  0.97160646192E+03  0.97160646193E+03  0.50400001928E-02 0.  1.
        1   -1    0    0  501    0  0.00000000000E+00  0.00000000000E+00 -0.26311892647E+04  0.26311892647E+04  0.50400001928E-02 0. -1.
    10030    2    1    2    0    0  0.00000000000E+00  0.00000000000E+00 -0.16595828028E+04  0.36027957267E+04  0.31977995511E+04 0.  0.
        5    1    3    3  502    0 -0.67470128836E+03 -0.14484699130E+04 -0.76634314054E+03  0.17721712153E+04  0.46999998093E+01 0.  1.
       -5    1    3    3    0  502  0.67470128836E+03  0.14484699130E+04 -0.89323966228E+03  0.18306245114E+04  0.46999998093E+01 0. -1.
</event>
<event>
 5   0  0.1270948E-07  0.3202058E+04  0.7818609E-02  0.8188274E-01
        1   -1    0    0  501    0  0.00000000000E+00  0.00000000000E+00  0.14898467416E+04  0.14898467416E+04  0.50400001928E-02 0.  1.
       -1   -1    0    0    0  501  0.00000000000E+00  0.00000000000E+00 -0.17205085045E+04  0.17205085045E+04  0.50400001928E-02 0. -1.
    10030    2    1    2    0    0  0.00000000000E+00  0.00000000000E+00 -0.23066176285E+03  0.32103552461E+04  0.32020580815E+04 0.  0.
        4    1    3    3  502    0 -0.17599425496E+03  0.12183873492E+04 -0.11416291214E+04  0.16789164286E+04  0.12699999809E+01 0. -1.
       -4    1    3    3    0  502  0.17599425496E+03 -0.12183873492E+04  0.91096735860E+03  0.15314388175E+04  0.12699999809E+01 0.  1.
</event>
<event>
 5   0  0.1288096E-07  0.3201373E+04  0.7818609E-02  0.8188455E-01
       -1   -1    0    0    0  501  0.00000000000E+00  0.00000000000E+00  0.20582020440E+04  0.20582020440E+04  0.50400001928E-02 0.  1.
        1   -1    0    0  501    0  0.00000000000E+00  0.00000000000E+00 -0.12448713283E+04  0.12448713283E+04  0.50400001928E-02 0. -1.
    10030    2    1    2    0    0  0.00000000000E+00  0.00000000000E+00  0.81333071565E+03  0.33030733723E+04  0.32013726509E+04 0.  0.
        2    1    3    3  502    0 -0.70812032064E+03  0.12322040170E+04 -0.35323399816E+03  0.14644232263E+04  0.25500000920E-02 0. -1.
       -2    1    3    3    0  502  0.70812032064E+03 -0.12322040170E+04  0.11665647138E+04  0.18386501461E+04  0.25500000920E-02 0.  1.
</event>
<event>
 5   0  0.1270948E-07  0.3202227E+04  0.7818609E-02  0.8188229E-01
        1   -1    0    0  501    0  0.00000000000E+00  0.00000000000E+00  0.17757960483E+04  0.17757960484E+04  0.50400001928E-02 0. -1.
       -1   -1    0    0    0  501  0.00000000000E+00  0.00000000000E+00 -0.14436145311E+04  0.14436145311E+04  0.50400001928E-02 0.  1.
    10030    2    1    2    0    0  0.00000000000E+00  0.00000000000E+00  0.33218151725E+03  0.32194105795E+04  0.32022273371E+04 0.  0.
        4    1    3    3  502    0  0.30054032759E+03  0.14792723130E+04  0.70280209813E+03  0.16650836215E+04  0.12699999809E+01 0. -1.
       -4    1    3    3    0  502 -0.30054032759E+03 -0.14792723130E+04 -0.37062058088E+03  0.15543269580E+04  0.12699999809E+01 0.  1.
</event>
<event>
 5   0  0.3750285E-07  0.3200897E+04  0.7818609E-02  0.8188580E-01
       -2   -1    0    0    0  501  0.00000000000E+00  0.00000000000E+00  0.10830274526E+04  0.10830274526E+04  0.25500000920E-02 0. -1.
        2   -1    0    0  501    0  0.00000000000E+00  0.00000000000E+00 -0.23650699998E+04  0.23650699998E+04  0.25500000920E-02 0.  1.
    10030    2    1    2    0    0  0.00000000000E+00  0.00000000000E+00 -0.12820425472E+04  0.34480974524E+04  0.32008972099E+04 0.  0.
        1    1    3    3  502    0 -0.40617910177E+02  0.28068685685E+03 -0.23377845531E+04  0.23549249548E+04  0.50400001928E-02 0.  1.
       -1    1    3    3    0  502  0.40617910177E+02 -0.28068685685E+03  0.10557420059E+04  0.10931724975E+04  0.50400001928E-02 0. -1.
</event>
<event>
 5   0  0.3830207E-07  0.3208677E+04  0.7818609E-02  0.8186529E-01
       -2   -1    0    0    0  501  0.00000000000E+00  0.00000000000E+00  0.12075207523E+04  0.12075207523E+04  0.25500000920E-02 0. -1.
        2   -1    0    0  501    0  0.00000000000E+00  0.00000000000E+00 -0.21315597421E+04  0.21315597421E+04  0.25500000920E-02 0.  1.
    10030    2    1    2    0    0  0.00000000000E+00  0.00000000000E+00 -0.92403898979E+03  0.33390804944E+04  0.32086773745E+04 0.  0.
        4    1    3    3  502    0 -0.44488825382E+03  0.11993510635E+04 -0.14696330413E+04  0.19483817442E+04  0.12699999809E+01 0.  1.
       -4    1    3    3    0  502  0.44488825382E+03 -0.11993510635E+04  0.54559405153E+03  0.13906987502E+04  0.12699999809E+01 0. -1.
</event>
<event>
 5   0  0.1365455E-07  0.3199119E+04  0.7818609E-02  0.8189050E-01
       -1   -1    0    0    0  501  0.00000000000E+00  0.00000000000E+00  0.17096316836E+04  0.17096316836E+04  0.50400001928E-02 0.  1.
        1   -1    0    0  501    0  0.00000000000E+00  0.00000000000E+00 -0.14965740048E+04  0.14965740048E+04  0.50400001928E-02 0. -1.
    10030    2    1    2    0    0  0.00000000000E+00  0.00000000000E+00  0.21305767885E+03  0.32062056884E+04  0.31991188384E+04 0.  0.
        3    1    3    3  502    0  0.32947340386E+03  0.13556753774E+04  0.89068261849E+03  0.16552111617E+04  0.10100000352E+00 0.  1.
       -3    1    3    3    0  502 -0.32947340386E+03 -0.13556753774E+04 -0.67762493964E+03  0.15509945267E+04  0.10100000352E+00 0. -1.
</event>
<event>
 5   0  0.3942564E-07  0.3199294E+04  0.7818609E-02  0.8189004E-01
        2   -1    0    0  501    0  0.00000000000E+00  0.00000000000E+00  0.17837016753E+04  0.17837016753E+04  0.25500000920E-02 0.  1.
       -2   -1    0    0    0  501  0.00000000000E+00  0.00000000000E+00 -0.14345842165E+04  0.14345842165E+04  0.25500000920E-02 0. -1.
    10030    2    1    2    0    0  0.00000000000E+00  0.00000000000E+00  0.34911745874E+03  0.32182858918E+04  0.31992938410E+04 0.  0.
        3    1    3    3  502    0 -0.12536631380E+03  0.46728759170E+03 -0.13592206783E+04  0.14427596018E+04  0.10100000352E+00 0. -1.
       -3    1    3    3    0  502  0.12536631380E+03 -0.46728759170E+03  0.17083381370E+04  0.17755262900E+04  0.10100000352E+00 0.  1.
</event>
<event>
 5   0  0.1365455E-07  0.3200865E+04  0.7818609E-02  0.8188589E-01
        1   -1    0    0  501    0  0.00000000000E+00  0.00000000000E+00  0.92201237011E+03  0.92201237012E+03  0.50400001928E-02 0. -1.
       -1   -1    0    0    0  501  0.00000000000E+00  0.00000000000E+00 -0.27780373200E+04  0.27780373200E+04  0.50400001928E-02 0.  1.
    10030    2    1    2    0    0  0.00000000000E+00  0.00000000000E+00 -0.18560249499E+04  0.37000496901E+04  0.32008653665E+04 0.  0.
        3    1    3    3  502    0 -0.22746282323E+03 -0.15695575388E+04 -0.11762991086E+04  0.19745707905E+04  0.10100000352E+00 0. -1.
       -3    1    3    3    0  502  0.22746282323E+03  0.15695575388E+04 -0.67972584131E+03  0.17254788996E+04  0.10100000352E+00 0.  1.
</event>
<event>
 5   0  0.1288096E-07  0.3206315E+04  0.7818609E-02  0.8187151E-01
       -1   -1    0    0    0  501  0.00000000000E+00  0.00000000000E+00  0.14548269860E+04  0.14548269860E+04  0.50400001928E-02 0. -1.
        1   -1    0    0  501    0  0.00000000000E+00  0.00000000000E+00 -0.17666113603E+04  0.17666113603E+04  0.50400001928E-02 0.  1.
    10030    2    1    2    0    0  0.00000000000E+00  0.00000000000E+00 -0.31178437430E+03  0.32214383463E+04  0.32063149444E+04 0.  0.
        2    1    3    3  502    0  0.11752923902E+04  0.10266232557E+04  0.21305420967E+03  0.15750109866E+04  0.25500000920E-02 0.  1.
       -2    1    3    3    0  502 -0.11752923902E+04 -0.10266232557E+04 -0.52483858398E+03  0.16464273597E+04  0.25500000920E-02 0. -1.
</event>
<event>
 5   0  0.3858721E-07  0.3195139E+04  0.7818609E-02  0.8190102E-01
        2   -1    0    0  501    0  0.00000000000E+00  0.00000000000E+00  0.18264942751E+04  0.18264942751E+04  0.25500000920E-02 0. -1.
       -2   -1    0    0    0  501  0.00000000000E+00  0.00000000000E+00 -0.13973375574E+04  0.13973375574E+04  0.25500000920E-02 0.  1.
    10030    2    1    2    0    0  0.00000000000E+00  0.00000000000E+00  0.42915671768E+03  0.32238318325E+04  0.31951394642E+04 0.  0.
        2    1    3    3  502    0  0.98722613836E+03  0.28498701340E+02  0.14815621583E+04  0.17805768877E+04  0.25500000920E-02 0. -1.
       -2    1    3    3    0  502 -0.98722613836E+03 -0.28498701340E+02 -0.10524054406E+04  0.14432549448E+04  0.25500000920E-02 0.  1.
</event>
<event>
 5   0  0.1230450E-07  0.3198866E+04  0.7818609E-02  0.8189117E-01
       -3   -1    0    0    0  501  0.00000000000E+00  0.00000000000E+00  0.13255602855E+04  0.13255602893E+04  0.10100000352E+00 0. -1.
        3   -1    0    0  501    0  0.00000000000E+00  0.00000000000E+00 -0.19298907365E+04  0.19298907392E+04  0.10100000352E+00 0.  1.
    10030    2    1    2    0    0  0.00000000000E+00  0.00000000000E+00 -0.60433045107E+03  0.32554510285E+04  0.31988663781E+04 0.  0.
        4    1    3    3  502    0 -0.13469274900E+03 -0.10383388465E+04 -0.15326413461E+04  0.18561467629E+04  0.12699999809E+01 0.  1.
       -4    1    3    3    0  502  0.13469274900E+03  0.10383388465E+04  0.92831089506E+03  0.13993042656E+04  0.12699999809E+01 0. -1.
</event>
<event>
 5   0  0.1317293E-07  0.3200975E+04  0.7818609E-02  0.8188560E-01
        1   -1    0    0  501    0  0.00000000000E+00  0.00000000000E+00  0.85368345609E+03  0.85368345610E+03  0.50400001928E-02 0.  1.
       -1   -1    0    0    0  501  0.00000000000E+00  0.00000000000E+00 -0.30005967275E+04  0.30005967275E+04  0.50400001928E-02 0. -1.
    10030    2    1    2    0    0  0.00000000000E+00  0.00000000000E+00 -0.21469132714E+04  0.38542801836E+04  0.32009747170E+04 0.  0.
        1    1    3    3  502    0  0.31908720540E+03  0.13703943877E+04 -0.19918608090E+04  0.24387100904E+04  0.50400001928E-02 0.  1.
       -1    1    3    3    0  502 -0.31908720540E+03 -0.13703943877E+04 -0.15505246235E+03  0.14155700932E+04  0.50400001928E-02 0. -1.
</event>
<event>
 5   0  0.3830207E-07  0.3197320E+04  0.7818609E-02  0.8189525E-01
       -2   -1    0    0    0  501  0.00000000000E+00  0.00000000000E+00  0.84681224772E+03  0.84681224773E+03  0.25500000920E-02 0. -1.
        2   -1    0    0  501    0  0.00000000000E+00  0.00000000000E+00 -0.30180404023E+04  0.30180404023E+04  0.25500000920E-02 0.  1.
    10030    2    1    2    0    0  0.00000000000E+00  0.00000000000E+00 -0.21712281546E+04  0.38648526501E+04  0.31973198632E+04 0.  0.
        4    1    3    3  502    0 -0.96622113036E+03 -0.11127366254E+04 -0.18346141652E+04  0.23532056472E+04  0.12699999809E+01 0.  1.
       -4    1    3    3    0  502  0.96622113036E+03  0.11127366254E+04 -0.33661398945E+03  0.15116470028E+04  0.12699999809E+01 0. -1.
</event>
<event>
 5   0  0.1317293E-07  0.3200275E+04  0.7818609E-02  0.8188745E-01
        1   -1    0    0  501    0  0.00000000000E+00  0.00000000000E+00  0.16536217758E+04  0.16536217758E+04  0.50400001928E-02 0.  1.
       -1   -1    0    0    0  501  0.00000000000E+00  0.00000000000E+00 -0.15483830762E+04  0.15483830762E+04  0.50400001928E-02 0. -1.
    10030    2    1    2    0    0  0.00000000000E+00  0.00000000000E+00  0.10523869954E+03  0.32020048520E+04  0.32002749707E+04 0.  0.
        1    1    3    3  502    0 -0.10702285243E+04 -0.10098016258E+04  0.68172909976E+03  0.16216790630E+04  0.50400001928E-02 0.  1.
       -1    1    3    3    0  502  0.10702285243E+04  0.10098016258E+04 -0.57649040022E+03  0.15803257890E+04  0.50400001928E-02 0. -1.
</event>
<event>
 5   0  0.3830207E-07  0.3169153E+04  0.7818609E-02  0.8197012E-01
       -2   -1    0    0    0  501  0.00000000000E+00  0.00000000000E+00  0.14769722246E+04  0.14769722246E+04  0.25500000920E-02 0. -1.
        2   -1    0    0  501    0  0.00000000000E+00  0.00000000000E+00 -0.17000198022E+04  0.17000198022E+04  0.25500000920E-02 0.  1.
    10030    2    1    2    0    0  0.00000000000E+00  0.00000000000E+00 -0.22304757758E+03  0.31769920267E+04  0.31691525864E+04 0.  0.
        4    1    3    3  502    0  0.13981739152E+04  0.57076014382E+03 -0.59252626051E+03  0.16222658294E+04  0.12699999809E+01 0.  1.
       -4    1    3    3    0  502 -0.13981739152E+04 -0.57076014382E+03  0.36947868293E+03  0.15547261974E+04  0.12699999809E+01 0. -1.
</event>
<event>
 5   0  0.3764056E-07  0.3190068E+04  0.7818609E-02  0.8191445E-01
        2   -1    0    0  501    0  0.00000000000E+00  0.00000000000E+00  0.23397803975E+04  0.23397803975E+04  0.25500000920E-02 0.  1.
       -2   -1    0    0    0  501  0.00000000000E+00  0.00000000000E+00 -0.10873385633E+04  0.10873385633E+04  0.25500000920E-02 0. -1.
    10030    2    1    2    0    0  0.00000000000E+00  0.00000000000E+00  0.12524418342E+04  0.34271189608E+04  0.31900679967E+04 0.  0.
        5    1    3    3  502    0 -0.97577138356E+03  0.23449049078E+03 -0.70566055505E+03  0.12268229262E+04  0.46999998093E+01 0. -1.
       -5    1    3    3    0  502  0.97577138356E+03 -0.23449049078E+03  0.19581023892E+04  0.22002960346E+04  0.46999998093E+01 0.  1.
</event>
<event>
 5   0  0.1270948E-07  0.3197818E+04  0.7818609E-02  0.8189394E-01
       -1   -1    0    0    0  501  0.00000000000E+00  0.00000000000E+00  0.12987961568E+04  0.12987961568E+04  0.50400001928E-02 0. -1.
        1   -1    0    0  501    0  0.00000000000E+00  0.00000000000E+00 -0.19683694462E+04  0.19683694462E+04  0.50400001928E-02 0.  1.
    10030    2    1    2    0    0  0.00000000000E+00  0.00000000000E+00 -0.66957328935E+03  0.32671656030E+04  0.31978184263E+04 0.  0.
        4    1    3    3  502    0 -0.37726475477E+03 -0.15421419684E+04 -0.14099325768E+03  0.15938667628E+04  0.12699999809E+01 0. -1.
       -4    1    3    3    0  502  0.37726475477E+03  0.15421419684E+04 -0.52858003167E+03  0.16732988402E+04  0.12699999809E+01 0.  1.
</event>
<event>
 5   0  0.3764056E-07  0.3195158E+04  0.7818609E-02  0.8190097E-01
       -2   -1    0    0    0  501  0.00000000000E+00  0.00000000000E+00  0.13513575088E+04  0.13513575088E+04  0.25500000920E-02 0.  1.
        2   -1    0    0  501    0  0.00000000000E+00  0.00000000000E+00 -0.18886631860E+04  0.18886631860E+04  0.25500000920E-02 0. -1.
    10030    2    1    2    0    0  0.00000000000E+00  0.00000000000E+00 -0.53730567717E+03  0.32400206948E+04  0.31951583235E+04 0.  0.
        5    1    3    3  502    0  0.38233964521E+03  0.70638880184E+03  0.11317033985E+04  0.13877836343E+04  0.46999998093E+01 0.  1.
       -5    1    3    3    0  502 -0.38233964521E+03 -0.70638880184E+03 -0.16690090756E+04  0.18522370605E+04  0.46999998093E+01 0. -1.
</event>
<event>
 5   0  0.1288096E-07  0.3199283E+04  0.7818609E-02  0.8189007E-01
       -1   -1    0    0    0  501  0.00000000000E+00  0.00000000000E+00  0.12425018151E+04  0.12425018151E+04  0.50400001928E-02 0. -1.
        1   -1    0    0  501    0  0.00000000000E+00  0.00000000000E+00 -0.20594355544E+04  0.20594355544E+04  0.50400001928E-02 0.  1.
    10030    2    1    2    0    0  0.00000000000E+00  0.00000000000E+00 -0.81693373932E+03  0.33019373696E+04  0.31992826787E+04 0.  0.
        2    1    3    3  502    0  0.63082875784E+03 -0.71321280642E+03 -0.17351039248E+04  0.19791925270E+04  0.25500000920E-02 0.  1.
       -2    1    3    3    0  502 -0.63082875784E+03  0.71321280642E+03  0.91817018552E+03  0.13227448426E+04  0.25500000920E-02 0. -1.
</event>
<event>
 5   0  0.3858721E-07  0.3197890E+04  0.7818609E-02  0.8189375E-01
        2   -1    0    0  501    0  0.00000000000E+00  0.00000000000E+00  0.13861964065E+04  0.13861964065E+04  0.25500000920E-02 0.  1.
       -2   -1    0    0    0  501  0.00000000000E+00  0.00000000000E+00 -0.18443451469E+04  0.18443451469E+04  0.25500000920E-02 0. -1.
    10030    2    1    2    0    0  0.00000000000E+00  0.00000000000E+00 -0.45814874042E+03  0.32305415535E+04  0.31978896886E+04 0.  0.
        2    1    3    3  502    0 -0.10345346546E+04  0.81219919815E+03  0.68943701008E+03  0.14850093871E+04  0.25500000920E-02 0.  1.
       -2    1    3    3    0  502  0.10345346546E+04 -0.81219919815E+03 -0.11475857505E+04  0.17455321663E+04  0.25500000920E-02 0. -1.
</event>
<event>
 5   0  0.1277374E-07  0.3198700E+04  0.7818609E-02  0.8189161E-01
       -1   -1    0    0    0  501  0.00000000000E+00  0.00000000000E+00  0.18306937484E+04  0.18306937484E+04  0.50400001928E-02 0. -1.
        1   -1    0    0  501    0  0.00000000000E+00  0.00000000000E+00 -0.13972406409E+04  0.13972406409E+04  0.50400001928E-02 0.  1.
    10030    2    1    2    0    0  0.00000000000E+00  0.00000000000E+00  0.43345310751E+03  0.32279343892E+04  0.31986995521E+04 0.  0.
        5    1    3    3  502    0 -0.94143146384E+03  0.12548987855E+03 -0.10818352513E+04  0.14395938704E+04  0.46999998093E+01 0.  1.
       -5    1    3    3    0  502  0.94143146384E+03 -0.12548987855E+03  0.15152883589E+04  0.17883405188E+04  0.46999998093E+01 0. -1.
</event>
</LesHouchesEvents>
