<LesHouchesEvents version="3.0">
<header>
<!--
#*********************************************************************
#                                                                    *
#                        MadGraph5_aMC@NLO                           *
#                                                                    *
#                           Going Beyond                             *
#                                                                    *
#                   http://madgraph.hep.uiuc.edu                     *
#                   http://madgraph.phys.ucl.ac.be                   *
#                   http://amcatnlo.cern.ch                          *
#                                                                    *
#                     The MadGraph5_aMC@NLO team                     *
#                                                                    *
#....................................................................*
#                                                                    *
# This file contains all the information necessary to reproduce      *
# the events generated:                                              *
#                                                                    *
# 1. software version                                                *
# 2. proc_card          : code generation info including model       *
# 3. param_card         : model primary parameters in the LH format  *
# 4. run_card           : running parameters (collider and cuts)     *
# 5. pythia_card        : present only if pythia has been run        *
# 6. pgs_card           : present only if pgs has been run           *
# 7. delphes_cards      : present only if delphes has been run       *
#                                                                    *
#                                                                    *
#*********************************************************************
-->
<MGVersion>
#5.2.2.3
</MGVersion>
<MG5ProcCard>
#************************************************************
#*                     MadGraph5_aMC@NLO                    *
#*                                                          *
#*                *                       *                 *
#*                  *        * *        *                   *
#*                    * * * * 5 * * * *                     *
#*                  *        * *        *                   *
#*                *                       *                 *
#*                                                          *
#*                                                          *
#*         VERSION 2.2.3                 2015-02-10         *
#*                                                          *
#*    The MadGraph5_aMC@NLO Development Team - Find us at   *
#*    https://server06.fynu.ucl.ac.be/projects/madgraph     *
#*                                                          *
#************************************************************
#*                                                          *
#*               Command File for MadGraph5_aMC@NLO         *
#*                                                          *
#*     run as ./bin/mg5_aMC  filename                       *
#*                                                          *
#************************************************************
set group_subprocesses Auto
set ignore_six_quark_processes False
set loop_optimized_output True
set gauge unitary
set complex_mass_scheme False
import model sm
define p = g u c d s u~ c~ d~ s~
define j = g u c d s u~ c~ d~ s~
define l+ = e+ mu+
define l- = e- mu-
define vl = ve vm vt
define vl~ = ve~ vm~ vt~
import model Zprime_UFO
generate p p > zph, zph > j j
add process p p > zph, zph > b b~
output Dijet_signal
</MG5ProcCard>
<MGProcCard>
#*********************************************************************
#                        MadGraph/MadEvent                           *
#                   http://madgraph.hep.uiuc.edu                     *
#                                                                    *
#                          proc_card.dat                             *
#*********************************************************************
#                                                                    *
#            This Files is generated by MADGRAPH 5                   *
#                                                                    *
# WARNING: This Files is generated for MADEVENT (compatibility issue)*
#          This files is NOT a valid MG4 proc_card.dat               *
#          Running this in MG4 will NEVER reproduce the result of MG5*
#                                                                    *
#*********************************************************************
#*********************************************************************
# Process(es) requested : mg2 input                                  *
#*********************************************************************
# Begin PROCESS # This is TAG. Do not modify this line
p p > zph , zph > j j           #Process
# Be carefull the coupling are here in MG5 convention
          
end_coup           # End the couplings input

done               # this tells MG there are no more procs
# End PROCESS  # This is TAG. Do not modify this line
#*********************************************************************
# Model information                                                  *
#*********************************************************************
# Begin MODEL  # This is TAG. Do not modify this line
Zprime_UFO
# End   MODEL  # This is TAG. Do not modify this line
#*********************************************************************
# Start multiparticle definitions                                    *
#*********************************************************************
# Begin MULTIPARTICLES # This is TAG. Do not modify this line

# End  MULTIPARTICLES # This is TAG. Do not modify this line
</MGProcCard>
<MGRunCard>
#*********************************************************************
#                       MadGraph5_aMC@NLO                            *
#                                                                    *
#                     run_card.dat MadEvent                          *
#                                                                    *
#  This file is used to set the parameters of the run.               *
#                                                                    *
#  Some notation/conventions:                                        *
#                                                                    *
#   Lines starting with a '# ' are info or comments                  *
#                                                                    *
#   mind the format:   value    = variable     ! comment             *
#*********************************************************************
#
#*******************                                                 
# Running parameters
#*******************                                                 
#                                                                    
#*********************************************************************
# Tag name for the run (one word)                                    *
#*********************************************************************
  tag_1     = run_tag ! name of the run 
#*********************************************************************
# Run to generate the grid pack                                      *
#*********************************************************************
  .false.     = gridpack  !True = setting up the grid pack
#*********************************************************************
# Number of events and rnd seed                                      *
# Warning: Do not generate more than 1M events in a single run       *
# If you want to run Pythia, avoid more than 50k events in a run.    *
#*********************************************************************
  2000 = nevents ! Number of unweighted events requested 
 1263 = iseed   ! rnd seed (0=assigned automatically=default))
#*********************************************************************
# Collider type and energy                                           *
# lpp: 0=No PDF, 1=proton, -1=antiproton, 2=photon from proton,      *
#                                         3=photon from electron     *
#*********************************************************************
        1     = lpp1    ! beam 1 type 
        1     = lpp2    ! beam 2 type
     4000     = ebeam1  ! beam 1 total energy in GeV
     4000     = ebeam2  ! beam 2 total energy in GeV
#*********************************************************************
# Beam polarization from -100 (left-handed) to 100 (right-handed)    *
#*********************************************************************
        0     = polbeam1 ! beam polarization for beam 1
        0     = polbeam2 ! beam polarization for beam 2
#*********************************************************************
# PDF CHOICE: this automatically fixes also alpha_s and its evol.    *
#*********************************************************************
 'nn23lo1'    = pdlabel     ! PDF set                                     
 230000    = lhaid     ! if pdlabel=lhapdf, this is the lhapdf number
#*********************************************************************
# Renormalization and factorization scales                           *
#*********************************************************************
 F        = fixed_ren_scale  ! if .true. use fixed ren scale
 F        = fixed_fac_scale  ! if .true. use fixed fac scale
 91.1880  = scale            ! fixed ren scale
 91.1880  = dsqrt_q2fact1    ! fixed fact scale for pdf1
 91.1880  = dsqrt_q2fact2    ! fixed fact scale for pdf2
 1        = scalefact        ! scale factor for event-by-event scales
#*********************************************************************
# Matching - Warning! ickkw > 1 is still beta
#*********************************************************************
 0        = ickkw            ! 0 no matching, 1 MLM, 2 CKKW matching
 1        = highestmult      ! for ickkw=2, highest mult group
 1        = ktscheme         ! for ickkw=1, 1 Durham kT, 2 Pythia pTE
 1        = alpsfact         ! scale factor for QCD emission vx
 F        = chcluster        ! cluster only according to channel diag
 T        = pdfwgt           ! for ickkw=1, perform pdf reweighting
 5        = asrwgtflavor     ! highest quark flavor for a_s reweight
 T        = clusinfo         ! include clustering tag in output
 3.0      = lhe_version       ! Change the way clustering information pass to shower.        
#*********************************************************************
#**********************************************************
#
#**********************************************************
# Automatic ptj and mjj cuts if xqcut > 0
# (turn off for VBF and single top processes)
#**********************************************************
   T  = auto_ptj_mjj  ! Automatic setting of ptj and mjj
#**********************************************************
#                                                                    
#**********************************
# BW cutoff (M+/-bwcutoff*Gamma)
#**********************************
  15  = bwcutoff      ! (M+/-bwcutoff*Gamma)
#**********************************************************
# Apply pt/E/eta/dr/mij cuts on decay products or not
# (note that etmiss/ptll/ptheavy/ht/sorted cuts always apply)
#**********************************************************
   T  = cut_decays    ! Cut decay products 
#*************************************************************
# Number of helicities to sum per event (0 = all helicities)
# 0 gives more stable result, but longer run time (needed for
# long decay chains e.g.).
# Use >=2 if most helicities contribute, e.g. pure QCD.
#*************************************************************
   0  = nhel          ! Number of helicities used per event
#*******************                                                 
# Standard Cuts
#*******************                                                 
#                                                                    
#*********************************************************************
# Minimum and maximum pt's (for max, -1 means no cut)                *
#*********************************************************************
 20  = ptj       ! minimum pt for the jets 
  0  = ptb       ! minimum pt for the b 
 10  = pta       ! minimum pt for the photons 
 10  = ptl       ! minimum pt for the charged leptons 
  0  = misset    ! minimum missing Et (sum of neutrino's momenta)
  0  = ptheavy   ! minimum pt for one heavy final state
 1.0 = ptonium   ! minimum pt for the quarkonium states
 -1  = ptjmax    ! maximum pt for the jets
 -1  = ptbmax    ! maximum pt for the b
 -1  = ptamax    ! maximum pt for the photons
 -1  = ptlmax    ! maximum pt for the charged leptons
 -1  = missetmax ! maximum missing Et (sum of neutrino's momenta)
#*********************************************************************
# Minimum and maximum E's (in the center of mass frame)              *
#*********************************************************************
  0  = ej     ! minimum E for the jets 
  0  = eb     ! minimum E for the b 
  0  = ea     ! minimum E for the photons 
  0  = el     ! minimum E for the charged leptons 
 -1   = ejmax ! maximum E for the jets
 -1   = ebmax ! maximum E for the b
 -1   = eamax ! maximum E for the photons
 -1   = elmax ! maximum E for the charged leptons
#*********************************************************************
# Maximum and minimum absolute rapidity (for max, -1 means no cut)   *
#*********************************************************************
   5  = etaj    ! max rap for the jets 
  -1  = etab    ! max rap for the b
 2.5  = etaa    ! max rap for the photons 
 2.5  = etal    ! max rap for the charged leptons 
 0.6  = etaonium ! max rap for the quarkonium states
   0  = etajmin ! min rap for the jets
   0  = etabmin ! min rap for the b
   0  = etaamin ! min rap for the photons
   0  = etalmin ! main rap for the charged leptons
#*********************************************************************
# Minimum and maximum DeltaR distance                                *
#*********************************************************************
 0.4 = drjj    ! min distance between jets 
 0   = drbb    ! min distance between b's 
 0.4 = drll    ! min distance between leptons 
 0.4 = draa    ! min distance between gammas 
 0   = drbj    ! min distance between b and jet 
 0.4 = draj    ! min distance between gamma and jet 
 0.4 = drjl    ! min distance between jet and lepton 
 0   = drab    ! min distance between gamma and b 
 0   = drbl    ! min distance between b and lepton 
 0.4 = dral    ! min distance between gamma and lepton 
 -1  = drjjmax ! max distance between jets
 -1  = drbbmax ! max distance between b's
 -1  = drllmax ! max distance between leptons
 -1  = draamax ! max distance between gammas
 -1  = drbjmax ! max distance between b and jet
 -1  = drajmax ! max distance between gamma and jet
 -1  = drjlmax ! max distance between jet and lepton
 -1  = drabmax ! max distance between gamma and b
 -1  = drblmax ! max distance between b and lepton
 -1  = dralmax ! maxdistance between gamma and lepton
#*********************************************************************
# Minimum and maximum invariant mass for pairs                       *
# WARNING: for four lepton final state mmll cut require to have      *
#          different lepton masses for each flavor!                  *           
#*********************************************************************
 0   = mmjj    ! min invariant mass of a jet pair 
 0   = mmbb    ! min invariant mass of a b pair 
 0   = mmaa    ! min invariant mass of gamma gamma pair
 0   = mmll    ! min invariant mass of l+l- (same flavour) lepton pair
 -1  = mmjjmax ! max invariant mass of a jet pair
 -1  = mmbbmax ! max invariant mass of a b pair
 -1  = mmaamax ! max invariant mass of gamma gamma pair
 -1  = mmllmax ! max invariant mass of l+l- (same flavour) lepton pair
#*********************************************************************
# Minimum and maximum invariant mass for all letpons                 *
#*********************************************************************
 0   = mmnl    ! min invariant mass for all letpons (l+- and vl) 
 -1  = mmnlmax ! max invariant mass for all letpons (l+- and vl) 
#*********************************************************************
# Minimum and maximum pt for 4-momenta sum of leptons                *
#*********************************************************************
 0   = ptllmin  ! Minimum pt for 4-momenta sum of leptons(l and vl)
 -1  = ptllmax  ! Maximum pt for 4-momenta sum of leptons(l and vl)
#*********************************************************************
# Inclusive cuts                                                     *
#*********************************************************************
 0  = xptj ! minimum pt for at least one jet  
 0  = xptb ! minimum pt for at least one b 
 0  = xpta ! minimum pt for at least one photon 
 0  = xptl ! minimum pt for at least one charged lepton 
#*********************************************************************
# Control the pt's of the jets sorted by pt                          *
#*********************************************************************
 0   = ptj1min ! minimum pt for the leading jet in pt
 0   = ptj2min ! minimum pt for the second jet in pt
 0   = ptj3min ! minimum pt for the third jet in pt
 0   = ptj4min ! minimum pt for the fourth jet in pt
 -1  = ptj1max ! maximum pt for the leading jet in pt 
 -1  = ptj2max ! maximum pt for the second jet in pt
 -1  = ptj3max ! maximum pt for the third jet in pt
 -1  = ptj4max ! maximum pt for the fourth jet in pt
 0   = cutuse  ! reject event if fails any (0) / all (1) jet pt cuts
#*********************************************************************
# Control the pt's of leptons sorted by pt                           *
#*********************************************************************
 0   = ptl1min ! minimum pt for the leading lepton in pt
 0   = ptl2min ! minimum pt for the second lepton in pt
 0   = ptl3min ! minimum pt for the third lepton in pt
 0   = ptl4min ! minimum pt for the fourth lepton in pt
 -1  = ptl1max ! maximum pt for the leading lepton in pt 
 -1  = ptl2max ! maximum pt for the second lepton in pt
 -1  = ptl3max ! maximum pt for the third lepton in pt
 -1  = ptl4max ! maximum pt for the fourth lepton in pt
#*********************************************************************
# Control the Ht(k)=Sum of k leading jets                            *
#*********************************************************************
 0   = htjmin ! minimum jet HT=Sum(jet pt)
 -1  = htjmax ! maximum jet HT=Sum(jet pt)
 0   = ihtmin  !inclusive Ht for all partons (including b)
 -1  = ihtmax  !inclusive Ht for all partons (including b)
 0   = ht2min ! minimum Ht for the two leading jets
 0   = ht3min ! minimum Ht for the three leading jets
 0   = ht4min ! minimum Ht for the four leading jets
 -1  = ht2max ! maximum Ht for the two leading jets
 -1  = ht3max ! maximum Ht for the three leading jets
 -1  = ht4max ! maximum Ht for the four leading jets
#***********************************************************************
# Photon-isolation cuts, according to hep-ph/9801442                   *
# When ptgmin=0, all the other parameters are ignored                  *
# When ptgmin>0, pta and draj are not going to be used                 *
#***********************************************************************
   0 = ptgmin ! Min photon transverse momentum
 0.4 = R0gamma ! Radius of isolation code
 1.0 = xn ! n parameter of eq.(3.4) in hep-ph/9801442
 1.0 = epsgamma ! epsilon_gamma parameter of eq.(3.4) in hep-ph/9801442
 .true. = isoEM ! isolate photons from EM energy (photons and leptons)
#*********************************************************************
# WBF cuts                                                           *
#*********************************************************************
 0   = xetamin ! minimum rapidity for two jets in the WBF case  
 0   = deltaeta ! minimum rapidity for two jets in the WBF case 
#*********************************************************************
# KT DURHAM CUT                                                      *
#*********************************************************************
 -1    =  ktdurham        
 0.4  =  dparameter 
#*********************************************************************
# maximal pdg code for quark to be considered as a light jet         *
# (otherwise b cuts are applied)                                     *
#*********************************************************************
 4 = maxjetflavor    ! Maximum jet pdg code
#*********************************************************************
# Jet measure cuts                                                   *
#*********************************************************************
 0   = xqcut   ! minimum kt jet measure between partons
#*********************************************************************
#
#*********************************************************************
# Store info for systematics studies                                 *
# WARNING: If use_syst is T, matched Pythia output is                *
#          meaningful ONLY if plotted taking matchscale              *
#          reweighting into account!                                 *
#*********************************************************************
   F  = use_syst      ! Enable systematics studies
#
#**************************************
# Parameter of the systematics study
#  will be used by SysCalc (if installed)
#**************************************                                  
#
0.5 1 2 = sys_scalefact  # factorization/renormalization scale factor
0.5 1 2 = sys_alpsfact  # \alpha_s emission scale factors
30 50 = sys_matchscale # variation of merging scale
# PDF sets and number of members (0 or none for all members).
CT10nlo.LHgrid = sys_pdf # matching scales
# MSTW2008nlo68cl.LHgrid 1  = sys_pdf
</MGRunCard>
<slha>
######################################################################
## PARAM_CARD AUTOMATICALY GENERATED BY MG5 FOLLOWING UFO MODEL   ####
######################################################################
##                                                                  ##
##  Width set on Auto will be computed following the information    ##
##        present in the decay.py files of the model.               ##
##        See  arXiv:1402.1178 for more details.                    ##
##                                                                  ##
######################################################################

###################################
## INFORMATION FOR CKMBLOCK
###################################
Block ckmblock 
    1 2.277360e-01 # cabi 

###################################
## INFORMATION FOR FRBLOCK
###################################
Block frblock 
    1 6.000000e-01 # gz 

###################################
## INFORMATION FOR MASS
###################################
Block mass 
    1 5.040000e-03 # MD 
    2 2.550000e-03 # MU 
    3 1.010000e-01 # MS 
    4 1.270000e+00 # MC 
    5 4.700000e+00 # MB 
    6 1.720000e+02 # MT 
   11 5.110000e-04 # Me 
   13 1.056600e-01 # MM 
   15 1.777000e+00 # MTA 
   23 9.118760e+01 # MZ 
   25 1.200000e+02 # MH 
  10030 1.800000e+03 # MZph 
  10031 3.000000e+02 # MZpl 
## Dependent parameters, given by model restrictions.
## Those values should be edited following the 
## analytical expression. MG5 ignores those values 
## but they are important for interfacing the output of MG5
## to external program such as Pythia.
  12 0.000000 # ve : 0.0 
  14 0.000000 # vm : 0.0 
  16 0.000000 # vt : 0.0 
  21 0.000000 # g : 0.0 
  22 0.000000 # a : 0.0 
  24 79.824360 # w+ : cmath.sqrt(MZ__exp__2/2. + cmath.sqrt(MZ__exp__4/4. - (aEW*cmath.pi*MZ__exp__2)/(Gf*sqrt__2))) 

###################################
## INFORMATION FOR SMINPUTS
###################################
Block sminputs 
    1 1.279000e+02 # aEWM1 
    2 1.166370e-05 # Gf 
    3 1.184000e-01 # aS 

###################################
## INFORMATION FOR YUKAWA
###################################
Block yukawa 
    1 5.040000e-03 # ymdo 
    2 2.550000e-03 # ymup 
    3 1.010000e-01 # yms 
    4 1.270000e+00 # ymc 
    5 4.700000e+00 # ymb 
    6 1.720000e+02 # ymt 
   11 5.110000e-04 # yme 
   13 1.056600e-01 # ymm 
   15 1.777000e+00 # ymtau 

###################################
## INFORMATION FOR DECAY
###################################
DECAY   6 1.508336e+00 # WT 
DECAY  23 2.495200e+00 # WZ 
DECAY  24 2.085000e+00 # WW 
DECAY  25 5.753088e-03 # WH 
## Dependent parameters, given by model restrictions.
## Those values should be edited following the 
## analytical expression. MG5 ignores those values 
## but they are important for interfacing the output of MG5
## to external program such as Pythia.
DECAY  1 0.000000 # d : 0.0 
DECAY  2 0.000000 # u : 0.0 
DECAY  3 0.000000 # s : 0.0 
DECAY  4 0.000000 # c : 0.0 
DECAY  5 0.000000 # b : 0.0 
DECAY  11 0.000000 # e- : 0.0 
DECAY  12 0.000000 # ve : 0.0 
DECAY  13 0.000000 # mu- : 0.0 
DECAY  14 0.000000 # vm : 0.0 
DECAY  15 0.000000 # ta- : 0.0 
DECAY  16 0.000000 # vt : 0.0 
DECAY  21 0.000000 # g : 0.0 
DECAY  22 0.000000 # a : 0.0 
DECAY  10030 0.308725 # zph : (gz__exp__2*MZph*(5 + cmath.sqrt(1 - (4*MT__exp__2)/MZph__exp__2)))/(144.*cmath.pi) 
DECAY  10031 0.132629 # zpl : (5*gz__exp__2*MZpl)/(144.*cmath.pi) 
#===========================================================
# QUANTUM NUMBERS OF NEW STATE(S) (NON SM PDG CODE)
#===========================================================

Block QNUMBERS 10030  # zph 
        1 0  # 3 times electric charge
        2 3  # number of spin states (2S+1)
        3 1  # colour rep (1: singlet, 3: triplet, 8: octet)
        4 0  # Particle/Antiparticle distinction (0=own anti)
Block QNUMBERS 10031  # zpl 
        1 0  # 3 times electric charge
        2 3  # number of spin states (2S+1)
        3 1  # colour rep (1: singlet, 3: triplet, 8: octet)
        4 0  # Particle/Antiparticle distinction (0=own anti)
</slha>
## END BANNER##
<MGGenerationInfo>
#  Number of Events        :         3956
#  Integrated weight (pb)  :  0.26163E-01
#  Max wgt                 :  0.91844E-05
#  Average wgt             :  0.66135E-05
</MGGenerationInfo>
</header>
<init>
     2212     2212  0.40000000000E+04  0.40000000000E+04 0 0  247000  247000 2   1
  0.26173219722E-01  0.50873864455E-04  0.91844140000E-05   0
</init>
<event>
 5   0  0.8893075E-05  0.1799267E+04  0.7818609E-02  0.8706689E-01
        2   -1    0    0  501    0  0.00000000000E+00  0.00000000000E+00  0.81667905965E+03  0.81667905965E+03  0.25500000920E-02 0.  1.
       -2   -1    0    0    0  501  0.00000000000E+00  0.00000000000E+00 -0.99101445236E+03  0.99101445236E+03  0.25500000920E-02 0. -1.
    10030    2    1    2    0    0  0.00000000000E+00  0.00000000000E+00 -0.17433539271E+03  0.18076935120E+04  0.17992673521E+04 0.  0.
        1    1    3    3  502    0 -0.74469615656E+03  0.28798478164E+03 -0.50363659712E+03  0.94401134635E+03  0.50400001928E-02 0. -1.
       -1    1    3    3    0  502  0.74469615656E+03 -0.28798478164E+03  0.32930120441E+03  0.86368216567E+03  0.50400001928E-02 0.  1.
</event>
<event>
 5   0  0.8893075E-05  0.1795512E+04  0.7818609E-02  0.8708690E-01
        2   -1    0    0  501    0  0.00000000000E+00  0.00000000000E+00  0.17646462199E+04  0.17646462199E+04  0.25500000920E-02 0. -1.
       -2   -1    0    0    0  501  0.00000000000E+00  0.00000000000E+00 -0.45672952150E+03  0.45672952151E+03  0.25500000920E-02 0.  1.
    10030    2    1    2    0    0  0.00000000000E+00  0.00000000000E+00  0.13079166984E+04  0.22213757414E+04  0.17955122095E+04 0.  0.
        1    1    3    3  502    0 -0.15337201685E+03 -0.57072862252E+03  0.14900517971E+04  0.16029686504E+04  0.50400001928E-02 0. -1.
       -1    1    3    3    0  502  0.15337201685E+03  0.57072862252E+03 -0.18213509863E+03  0.61840709108E+03  0.50400001928E-02 0.  1.
</event>
<event>
 5   0  0.9147432E-05  0.1772619E+04  0.7818609E-02  0.8720997E-01
       -2   -1    0    0    0  501  0.00000000000E+00  0.00000000000E+00  0.52365000839E+03  0.52365000840E+03  0.25500000920E-02 0.  1.
        2   -1    0    0  501    0  0.00000000000E+00  0.00000000000E+00 -0.15001332678E+04  0.15001332678E+04  0.25500000920E-02 0. -1.
    10030    2    1    2    0    0  0.00000000000E+00  0.00000000000E+00 -0.97648325941E+03  0.20237832762E+04  0.17726193029E+04 0.  0.
        3    1    3    3  502    0  0.40061091386E+03  0.56769652845E+03  0.13997509265E+03  0.70877463942E+03  0.10100000352E+00 0.  1.
       -3    1    3    3    0  502 -0.40061091386E+03 -0.56769652845E+03 -0.11164583521E+04  0.13150086368E+04  0.10100000352E+00 0. -1.
</event>
<event>
 5   0  0.8893075E-05  0.1839613E+04  0.7818609E-02  0.8685513E-01
       -2   -1    0    0    0  501  0.00000000000E+00  0.00000000000E+00  0.47918429701E+03  0.47918429702E+03  0.25500000920E-02 0.  1.
        2   -1    0    0  501    0  0.00000000000E+00  0.00000000000E+00 -0.17655918580E+04  0.17655918580E+04  0.25500000920E-02 0. -1.
    10030    2    1    2    0    0  0.00000000000E+00  0.00000000000E+00 -0.12864075610E+04  0.22447761551E+04  0.18396128868E+04 0.  0.
        1    1    3    3  502    0  0.14465534675E+03  0.14688244245E+03 -0.17370379908E+04  0.17492285736E+04  0.50400001928E-02 0. -1.
       -1    1    3    3    0  502 -0.14465534675E+03 -0.14688244245E+03  0.45063042975E+03  0.49554758146E+03  0.50400001928E-02 0.  1.
</event>
<event>
 5   0  0.9147432E-05  0.1802236E+04  0.7818609E-02  0.8705112E-01
       -2   -1    0    0    0  501  0.00000000000E+00  0.00000000000E+00  0.45538486289E+03  0.45538486290E+03  0.25500000920E-02 0.  1.
        2   -1    0    0  501    0  0.00000000000E+00  0.00000000000E+00 -0.17831361454E+04  0.17831361454E+04  0.25500000920E-02 0. -1.
    10030    2    1    2    0    0  0.00000000000E+00  0.00000000000E+00 -0.13277512825E+04  0.22385210083E+04  0.18022355108E+04 0.  0.
        3    1    3    3  502    0  0.11351056633E+03  0.34380916674E+03 -0.16888167002E+04  0.17271917232E+04  0.10100000352E+00 0. -1.
       -3    1    3    3    0  502 -0.11351056633E+03 -0.34380916674E+03  0.36106541763E+03  0.51132928511E+03  0.10100000352E+00 0.  1.
</event>
<event>
 5   0  0.4535100E-05  0.1805087E+04  0.7818609E-02  0.8703599E-01
       -1   -1    0    0    0  501  0.00000000000E+00  0.00000000000E+00  0.83158498085E+03  0.83158498086E+03  0.50400001928E-02 0.  1.
        1   -1    0    0  501    0  0.00000000000E+00  0.00000000000E+00 -0.97955663854E+03  0.97955663855E+03  0.50400001928E-02 0. -1.
    10030    2    1    2    0    0  0.00000000000E+00  0.00000000000E+00 -0.14797165769E+03  0.18111416194E+04  0.18050867996E+04 0.  0.
        1    1    3    3  502    0  0.73075247200E+02  0.57435492787E+03 -0.76866723602E+03  0.96232681282E+03  0.50400001928E-02 0. -1.
       -1    1    3    3    0  502 -0.73075247200E+02 -0.57435492787E+03  0.62069557833E+03  0.84881480660E+03  0.50400001928E-02 0.  1.
</event>
<event>
 5   0  0.4335117E-05  0.1798473E+04  0.7818609E-02  0.8707112E-01
       -1   -1    0    0    0  501  0.00000000000E+00  0.00000000000E+00  0.63962892029E+03  0.63962892031E+03  0.50400001928E-02 0. -1.
        1   -1    0    0  501    0  0.00000000000E+00  0.00000000000E+00 -0.12642112946E+04  0.12642112947E+04  0.50400001928E-02 0.  1.
    10030    2    1    2    0    0  0.00000000000E+00  0.00000000000E+00 -0.62458237435E+03  0.19038402150E+04  0.17984728026E+04 0.  0.
        3    1    3    3  502    0 -0.19769141886E+03 -0.66647640965E+03 -0.91610673566E+03  0.11500105491E+04  0.10100000352E+00 0.  1.
       -3    1    3    3    0  502  0.19769141886E+03  0.66647640965E+03  0.29152436131E+03  0.75382966587E+03  0.10100000352E+00 0. -1.
</event>
<event>
 5   0  0.8893075E-05  0.1798639E+04  0.7818609E-02  0.8707024E-01
        2   -1    0    0  501    0  0.00000000000E+00  0.00000000000E+00  0.15445751352E+04  0.15445751352E+04  0.25500000920E-02 0. -1.
       -2   -1    0    0    0  501  0.00000000000E+00  0.00000000000E+00 -0.52362320413E+03  0.52362320414E+03  0.25500000920E-02 0.  1.
    10030    2    1    2    0    0  0.00000000000E+00  0.00000000000E+00  0.10209519311E+04  0.20681983393E+04  0.17986387979E+04 0.  0.
        1    1    3    3  502    0  0.55837708601E+03  0.39560755028E+03 -0.16048502183E+03  0.70288387823E+03  0.50400001928E-02 0.  1.
       -1    1    3    3    0  502 -0.55837708601E+03 -0.39560755028E+03  0.11814369529E+04  0.13653144611E+04  0.50400001928E-02 0. -1.
</event>
<event>
 5   0  0.4578107E-05  0.1819800E+04  0.7818609E-02  0.8695840E-01
        1   -1    0    0  501    0  0.00000000000E+00  0.00000000000E+00  0.20516559141E+04  0.20516559141E+04  0.50400001928E-02 0. -1.
       -1   -1    0    0    0  501  0.00000000000E+00  0.00000000000E+00 -0.40353659783E+03  0.40353659786E+03  0.50400001928E-02 0.  1.
    10030    2    1    2    0    0  0.00000000000E+00  0.00000000000E+00  0.16481193163E+04  0.24551925120E+04  0.18198002611E+04 0.  0.
        2    1    3    3  502    0  0.11840620299E+03  0.40330019744E+03  0.19128261645E+04  0.19584624106E+04  0.25500000920E-02 0. -1.
       -2    1    3    3    0  502 -0.11840620299E+03 -0.40330019744E+03 -0.26470684818E+03  0.49673010140E+03  0.25500000920E-02 0.  1.
</event>
<event>
 5   0  0.8893075E-05  0.1816670E+04  0.7818609E-02  0.8697484E-01
       -2   -1    0    0    0  501  0.00000000000E+00  0.00000000000E+00  0.60899532655E+03  0.60899532655E+03  0.25500000920E-02 0. -1.
        2   -1    0    0  501    0  0.00000000000E+00  0.00000000000E+00 -0.13548091539E+04  0.13548091539E+04  0.25500000920E-02 0.  1.
    10030    2    1    2    0    0  0.00000000000E+00  0.00000000000E+00 -0.74581382740E+03  0.19638044805E+04  0.18166699680E+04 0.  0.
        1    1    3    3  502    0  0.16785582846E+03  0.89021258216E+03 -0.30105210603E+03  0.95461321547E+03  0.50400001928E-02 0. -1.
       -1    1    3    3    0  502 -0.16785582846E+03 -0.89021258216E+03 -0.44476172137E+03  0.10091912650E+04  0.50400001928E-02 0.  1.
</event>
<event>
 5   0  0.3270375E-05  0.1710604E+04  0.7818609E-02  0.8755340E-01
       -4   -1    0    0    0  501  0.00000000000E+00  0.00000000000E+00  0.11023323975E+04  0.11023331290E+04  0.12699999809E+01 0.  1.
        4   -1    0    0  501    0  0.00000000000E+00  0.00000000000E+00 -0.66362877087E+03  0.66362998608E+03  0.12699999809E+01 0. -1.
    10030    2    1    2    0    0  0.00000000000E+00  0.00000000000E+00  0.43870362659E+03  0.17659631151E+04  0.17106036514E+04 0.  0.
        1    1    3    3  502    0  0.45043665597E+03 -0.51192212618E+03 -0.31367503569E+03  0.75056610126E+03  0.50400001928E-02 0. -1.
       -1    1    3    3    0  502 -0.45043665597E+03  0.51192212618E+03  0.75237866228E+03  0.10153970139E+04  0.50400001928E-02 0.  1.
</event>
<event>
 5   0  0.9184414E-05  0.1802762E+04  0.7818609E-02  0.8704832E-01
       -2   -1    0    0    0  501  0.00000000000E+00  0.00000000000E+00  0.61122440612E+03  0.61122440613E+03  0.25500000920E-02 0. -1.
        2   -1    0    0  501    0  0.00000000000E+00  0.00000000000E+00 -0.13292785232E+04  0.13292785232E+04  0.25500000920E-02 0.  1.
    10030    2    1    2    0    0  0.00000000000E+00  0.00000000000E+00 -0.71805411712E+03  0.19405029294E+04  0.18027617435E+04 0.  0.
        5    1    3    3  502    0 -0.52224448669E+03 -0.28000404440E+03  0.37207651691E+03  0.69971750957E+03  0.46999998093E+01 0. -1.
       -5    1    3    3    0  502  0.52224448669E+03  0.28000404440E+03 -0.10901306340E+04  0.12407854198E+04  0.46999998093E+01 0.  1.
</event>
<event>
 5   0  0.4623665E-05  0.1803598E+04  0.7818609E-02  0.8704389E-01
       -1   -1    0    0    0  501  0.00000000000E+00  0.00000000000E+00  0.73665324297E+03  0.73665324298E+03  0.50400001928E-02 0. -1.
        1   -1    0    0  501    0  0.00000000000E+00  0.00000000000E+00 -0.11039674828E+04  0.11039674828E+04  0.50400001928E-02 0.  1.
    10030    2    1    2    0    0  0.00000000000E+00  0.00000000000E+00 -0.36731423984E+03  0.18406207258E+04  0.18035977671E+04 0.  0.
        5    1    3    3  502    0  0.48785303957E+03  0.41011831118E+03  0.46742130529E+03  0.79038116376E+03  0.46999998093E+01 0. -1.
       -5    1    3    3    0  502 -0.48785303957E+03 -0.41011831118E+03 -0.83473554512E+03  0.10502395620E+04  0.46999998093E+01 0.  1.
</event>
<event>
 5   0  0.4535100E-05  0.1802374E+04  0.7818609E-02  0.8705038E-01
       -1   -1    0    0    0  501  0.00000000000E+00  0.00000000000E+00  0.52671871705E+03  0.52671871707E+03  0.50400001928E-02 0.  1.
        1   -1    0    0  501    0  0.00000000000E+00  0.00000000000E+00 -0.15418811793E+04  0.15418811793E+04  0.50400001928E-02 0. -1.
    10030    2    1    2    0    0  0.00000000000E+00  0.00000000000E+00 -0.10151624622E+04  0.20685998964E+04  0.18023736312E+04 0.  0.
        1    1    3    3  502    0 -0.20993785038E+03  0.50957450800E+03  0.31075808697E+03  0.63270108967E+03  0.50400001928E-02 0.  1.
       -1    1    3    3    0  502  0.20993785038E+03 -0.50957450800E+03 -0.13259205492E+04  0.14358988067E+04  0.50400001928E-02 0. -1.
</event>
<event>
 5   0  0.4335117E-05  0.1798836E+04  0.7818609E-02  0.8706919E-01
       -1   -1    0    0    0  501  0.00000000000E+00  0.00000000000E+00  0.34531339390E+03  0.34531339394E+03  0.50400001928E-02 0. -1.
        1   -1    0    0  501    0  0.00000000000E+00  0.00000000000E+00 -0.23426622529E+04  0.23426622529E+04  0.50400001928E-02 0.  1.
    10030    2    1    2    0    0  0.00000000000E+00  0.00000000000E+00 -0.19973488590E+04  0.26879756469E+04  0.17988359051E+04 0.  0.
        3    1    3    3  502    0  0.45771285542E+03 -0.39290391253E+03 -0.17737428545E+01  0.60322276056E+03  0.10100000352E+00 0. -1.
       -3    1    3    3    0  502 -0.45771285542E+03  0.39290391253E+03 -0.19955751162E+04  0.20847528863E+04  0.10100000352E+00 0.  1.
</event>
<event>
 5   0  0.4335117E-05  0.1787850E+04  0.7818609E-02  0.8712787E-01
        1   -1    0    0  501    0  0.00000000000E+00  0.00000000000E+00  0.49578916887E+03  0.49578916890E+03  0.50400001928E-02 0. -1.
       -1   -1    0    0    0  501  0.00000000000E+00  0.00000000000E+00 -0.16117784418E+04  0.16117784418E+04  0.50400001928E-02 0.  1.
    10030    2    1    2    0    0  0.00000000000E+00  0.00000000000E+00 -0.11159892729E+04  0.21075676107E+04  0.17878504345E+04 0.  0.
        3    1    3    3  502    0 -0.74682657935E+03  0.31518528523E+03 -0.11376177444E+03  0.81855571293E+03  0.10100000352E+00 0. -1.
       -3    1    3    3    0  502  0.74682657935E+03 -0.31518528523E+03 -0.10022274985E+04  0.12890118977E+04  0.10100000352E+00 0.  1.
</event>
<event>
 5   0  0.8893075E-05  0.1824914E+04  0.7818609E-02  0.8693162E-01
       -2   -1    0    0    0  501  0.00000000000E+00  0.00000000000E+00  0.10834352573E+04  0.10834352573E+04  0.25500000920E-02 0. -1.
        2   -1    0    0  501    0  0.00000000000E+00  0.00000000000E+00 -0.76846062229E+03  0.76846062230E+03  0.25500000920E-02 0.  1.
    10030    2    1    2    0    0  0.00000000000E+00  0.00000000000E+00  0.31497463501E+03  0.18518958796E+04  0.18249135125E+04 0.  0.
        1    1    3    3  502    0  0.88863699713E+03  0.20711671378E+03  0.15538638434E+03  0.92559060834E+03  0.50400001928E-02 0. -1.
       -1    1    3    3    0  502 -0.88863699713E+03 -0.20711671378E+03  0.15958825067E+03  0.92630527126E+03  0.50400001928E-02 0.  1.
</event>
<event>
 5   0  0.4494757E-05  0.1796905E+04  0.7818609E-02  0.8707947E-01
       -1   -1    0    0    0  501  0.00000000000E+00  0.00000000000E+00  0.11625377261E+04  0.11625377262E+04  0.50400001928E-02 0. -1.
        1   -1    0    0  501    0  0.00000000000E+00  0.00000000000E+00 -0.69435769785E+03  0.69435769787E+03  0.50400001928E-02 0.  1.
    10030    2    1    2    0    0  0.00000000000E+00  0.00000000000E+00  0.46818002830E+03  0.18568954240E+04  0.17969051385E+04 0.  0.
        4    1    3    3  502    0  0.36352568424E+03 -0.29715935427E+03 -0.55748639348E+03  0.72886713244E+03  0.12699999809E+01 0.  1.
       -4    1    3    3    0  502 -0.36352568424E+03  0.29715935427E+03  0.10256664218E+04  0.11280282916E+04  0.12699999809E+01 0. -1.
</event>
<event>
 5   0  0.4535100E-05  0.1762026E+04  0.7818609E-02  0.8726758E-01
       -1   -1    0    0    0  501  0.00000000000E+00  0.00000000000E+00  0.43473467842E+03  0.43473467845E+03  0.50400001928E-02 0. -1.
        1   -1    0    0  501    0  0.00000000000E+00  0.00000000000E+00 -0.17854206371E+04  0.17854206371E+04  0.50400001928E-02 0.  1.
    10030    2    1    2    0    0  0.00000000000E+00  0.00000000000E+00 -0.13506859587E+04  0.22201553156E+04  0.17620264091E+04 0.  0.
        1    1    3    3  502    0 -0.40852823803E+03  0.24425051642E+03 -0.16094710181E+04  0.16783773694E+04  0.50400001928E-02 0.  1.
       -1    1    3    3    0  502  0.40852823803E+03 -0.24425051642E+03  0.25878505935E+03  0.54177794622E+03  0.50400001928E-02 0. -1.
</event>
<event>
 5   0  0.8802655E-05  0.1800509E+04  0.7818609E-02  0.8706029E-01
       -2   -1    0    0    0  501  0.00000000000E+00  0.00000000000E+00  0.13556183905E+04  0.13556183905E+04  0.25500000920E-02 0. -1.
        2   -1    0    0  501    0  0.00000000000E+00  0.00000000000E+00 -0.59785093882E+03  0.59785093882E+03  0.25500000920E-02 0.  1.
    10030    2    1    2    0    0  0.00000000000E+00  0.00000000000E+00  0.75776745171E+03  0.19534693294E+04  0.18005085142E+04 0.  0.
        2    1    3    3  502    0 -0.84219123729E+03 -0.76506429461E+02  0.43918425335E+02  0.84679876122E+03  0.25500000920E-02 0. -1.
       -2    1    3    3    0  502  0.84219123729E+03  0.76506429461E+02  0.71384902638E+03  0.11066705681E+04  0.25500000920E-02 0.  1.
</event>
<event>
 5   0  0.4335117E-05  0.1795771E+04  0.7818609E-02  0.8708552E-01
        1   -1    0    0  501    0  0.00000000000E+00  0.00000000000E+00  0.22701829276E+04  0.22701829276E+04  0.50400001928E-02 0. -1.
       -1   -1    0    0    0  501  0.00000000000E+00  0.00000000000E+00 -0.35512477065E+03  0.35512477068E+03  0.50400001928E-02 0.  1.
    10030    2    1    2    0    0  0.00000000000E+00  0.00000000000E+00  0.19150581570E+04  0.26253076983E+04  0.17957708000E+04 0.  0.
        3    1    3    3  502    0 -0.27539607571E+03  0.77012902563E+03  0.14991503521E+04  0.17077451517E+04  0.10100000352E+00 0. -1.
       -3    1    3    3    0  502  0.27539607571E+03 -0.77012902563E+03  0.41590780486E+03  0.91756254663E+03  0.10100000352E+00 0.  1.
</event>
<event>
 5   0  0.9147432E-05  0.1801229E+04  0.7818609E-02  0.8705646E-01
        2   -1    0    0  501    0  0.00000000000E+00  0.00000000000E+00  0.94604580566E+03  0.94604580566E+03  0.25500000920E-02 0.  1.
       -2   -1    0    0    0  501  0.00000000000E+00  0.00000000000E+00 -0.85736468098E+03  0.85736468098E+03  0.25500000920E-02 0. -1.
    10030    2    1    2    0    0  0.00000000000E+00  0.00000000000E+00  0.88681124683E+02  0.18034104866E+04  0.18012287588E+04 0.  0.
        3    1    3    3  502    0  0.71663278819E+01  0.87754564599E+03 -0.15831145226E+03  0.89174000873E+03  0.10100000352E+00 0.  1.
       -3    1    3    3    0  502 -0.71663278819E+01 -0.87754564599E+03  0.24699257694E+03  0.91167047792E+03  0.10100000352E+00 0. -1.
</event>
<event>
 5   0  0.4535100E-05  0.1798795E+04  0.7818609E-02  0.8706941E-01
        1   -1    0    0  501    0  0.00000000000E+00  0.00000000000E+00  0.10728334202E+04  0.10728334202E+04  0.50400001928E-02 0. -1.
       -1   -1    0    0    0  501  0.00000000000E+00  0.00000000000E+00 -0.75399934135E+03  0.75399934137E+03  0.50400001928E-02 0.  1.
    10030    2    1    2    0    0  0.00000000000E+00  0.00000000000E+00  0.31883407880E+03  0.18268327615E+04  0.17987948101E+04 0.  0.
        1    1    3    3  502    0 -0.31295141696E+03  0.33605827993E+03 -0.62596865180E+03  0.77634432435E+03  0.50400001928E-02 0.  1.
       -1    1    3    3    0  502  0.31295141696E+03 -0.33605827993E+03  0.94480273060E+03  0.10504884372E+04  0.50400001928E-02 0. -1.
</event>
<event>
 5   0  0.8802655E-05  0.1803950E+04  0.7818609E-02  0.8704202E-01
        2   -1    0    0  501    0  0.00000000000E+00  0.00000000000E+00  0.97779159130E+03  0.97779159130E+03  0.25500000920E-02 0. -1.
       -2   -1    0    0    0  501  0.00000000000E+00  0.00000000000E+00 -0.83203686755E+03  0.83203686755E+03  0.25500000920E-02 0.  1.
    10030    2    1    2    0    0  0.00000000000E+00  0.00000000000E+00  0.14575472375E+03  0.18098284589E+04  0.18039497252E+04 0.  0.
        2    1    3    3  502    0 -0.25404429662E+03 -0.45984954225E+03 -0.66269578898E+03  0.84567476898E+03  0.25500000920E-02 0.  1.
       -2    1    3    3    0  502  0.25404429662E+03  0.45984954225E+03  0.80845051273E+03  0.96415368987E+03  0.25500000920E-02 0. -1.
</event>
<event>
 5   0  0.4578107E-05  0.1798471E+04  0.7818609E-02  0.8707113E-01
       -1   -1    0    0    0  501  0.00000000000E+00  0.00000000000E+00  0.82756775490E+03  0.82756775491E+03  0.50400001928E-02 0. -1.
        1   -1    0    0  501    0  0.00000000000E+00  0.00000000000E+00 -0.97710962501E+03  0.97710962502E+03  0.50400001928E-02 0.  1.
    10030    2    1    2    0    0  0.00000000000E+00  0.00000000000E+00 -0.14954187011E+03  0.18046773799E+04  0.17984709268E+04 0.  0.
        2    1    3    3  502    0  0.75978405725E+03  0.59070574729E+02 -0.55376851378E+03  0.94203010212E+03  0.25500000920E-02 0.  1.
       -2    1    3    3    0  502 -0.75978405725E+03 -0.59070574729E+02  0.40422664367E+03  0.86264727781E+03  0.25500000920E-02 0. -1.
</event>
<event>
 5   0  0.9147432E-05  0.1799943E+04  0.7818609E-02  0.8706330E-01
       -2   -1    0    0    0  501  0.00000000000E+00  0.00000000000E+00  0.63969268778E+03  0.63969268778E+03  0.25500000920E-02 0.  1.
        2   -1    0    0  501    0  0.00000000000E+00  0.00000000000E+00 -0.12661531334E+04  0.12661531334E+04  0.25500000920E-02 0. -1.
    10030    2    1    2    0    0  0.00000000000E+00  0.00000000000E+00 -0.62646044565E+03  0.19058458212E+04  0.17999432225E+04 0.  0.
        3    1    3    3  502    0  0.31428920506E+03  0.65975184263E+03 -0.86939538259E+03  0.11357370029E+04  0.10100000352E+00 0. -1.
       -3    1    3    3    0  502 -0.31428920506E+03 -0.65975184263E+03  0.24293493694E+03  0.77010881832E+03  0.10100000352E+00 0.  1.
</event>
<event>
 5   0  0.9184414E-05  0.1804813E+04  0.7818609E-02  0.8703744E-01
       -2   -1    0    0    0  501  0.00000000000E+00  0.00000000000E+00  0.91141004617E+03  0.91141004617E+03  0.25500000920E-02 0. -1.
        2   -1    0    0  501    0  0.00000000000E+00  0.00000000000E+00 -0.89349154006E+03  0.89349154006E+03  0.25500000920E-02 0.  1.
    10030    2    1    2    0    0  0.00000000000E+00  0.00000000000E+00  0.17918506111E+02  0.18049015862E+04  0.18048126393E+04 0.  0.
        5    1    3    3  502    0 -0.15852468352E+03  0.85394411594E+03 -0.23592920721E+03  0.90001961603E+03  0.46999998093E+01 0.  1.
       -5    1    3    3    0  502  0.15852468352E+03 -0.85394411594E+03  0.25384771333E+03  0.90488197020E+03  0.46999998093E+01 0. -1.
</event>
<event>
 5   0  0.4578107E-05  0.1798059E+04  0.7818609E-02  0.8707332E-01
        1   -1    0    0  501    0  0.00000000000E+00  0.00000000000E+00  0.23776644206E+04  0.23776644207E+04  0.50400001928E-02 0.  1.
       -1   -1    0    0    0  501  0.00000000000E+00  0.00000000000E+00 -0.33993631166E+03  0.33993631170E+03  0.50400001928E-02 0. -1.
    10030    2    1    2    0    0  0.00000000000E+00  0.00000000000E+00  0.20377281090E+04  0.27176007323E+04  0.17980594802E+04 0.  0.
        2    1    3    3  502    0 -0.10850036258E+03  0.82928754031E+03  0.52041035695E+03  0.98504674651E+03  0.25500000920E-02 0. -1.
       -2    1    3    3    0  502  0.10850036258E+03 -0.82928754031E+03  0.15173177520E+04  0.17325539858E+04  0.25500000920E-02 0.  1.
</event>
<event>
 5   0  0.9147432E-05  0.1812376E+04  0.7818609E-02  0.8699746E-01
       -2   -1    0    0    0  501  0.00000000000E+00  0.00000000000E+00  0.13081927007E+04  0.13081927007E+04  0.25500000920E-02 0. -1.
        2   -1    0    0  501    0  0.00000000000E+00  0.00000000000E+00 -0.62771817158E+03  0.62771817158E+03  0.25500000920E-02 0.  1.
    10030    2    1    2    0    0  0.00000000000E+00  0.00000000000E+00  0.68047452910E+03  0.19359108723E+04  0.18123756014E+04 0.  0.
        3    1    3    3  502    0 -0.21314880720E+03 -0.84817808202E+03  0.59377188747E+03  0.10570730994E+04  0.10100000352E+00 0. -1.
       -3    1    3    3    0  502  0.21314880720E+03  0.84817808202E+03  0.86702641633E+02  0.87883777291E+03  0.10100000352E+00 0.  1.
</event>
<event>
 5   0  0.8893075E-05  0.1801018E+04  0.7818609E-02  0.8705759E-01
        2   -1    0    0  501    0  0.00000000000E+00  0.00000000000E+00  0.10666180576E+04  0.10666180576E+04  0.25500000920E-02 0.  1.
       -2   -1    0    0    0  501  0.00000000000E+00  0.00000000000E+00 -0.76026844066E+03  0.76026844066E+03  0.25500000920E-02 0. -1.
    10030    2    1    2    0    0  0.00000000000E+00  0.00000000000E+00  0.30634961698E+03  0.18268864983E+04  0.18010175429E+04 0.  0.
        1    1    3    3  502    0  0.30193800009E+03 -0.35456564627E+03 -0.62863082778E+03  0.78234268136E+03  0.50400001928E-02 0. -1.
       -1    1    3    3    0  502 -0.30193800009E+03  0.35456564627E+03  0.93498044476E+03  0.10445438169E+04  0.50400001928E-02 0.  1.
</event>
<event>
 5   0  0.4623665E-05  0.1804313E+04  0.7818609E-02  0.8704009E-01
       -1   -1    0    0    0  501  0.00000000000E+00  0.00000000000E+00  0.99191887042E+03  0.99191887043E+03  0.50400001928E-02 0.  1.
        1   -1    0    0  501    0  0.00000000000E+00  0.00000000000E+00 -0.82051706343E+03  0.82051706344E+03  0.50400001928E-02 0. -1.
    10030    2    1    2    0    0  0.00000000000E+00  0.00000000000E+00  0.17140180699E+03  0.18124359339E+04  0.18043130091E+04 0.  0.
        5    1    3    3  502    0  0.73982509958E+03 -0.48623381316E+03  0.25997481147E+03  0.92269902548E+03  0.46999998093E+01 0. -1.
       -5    1    3    3    0  502 -0.73982509958E+03  0.48623381316E+03 -0.88573004480E+02  0.88973690839E+03  0.46999998093E+01 0.  1.
</event>
<event>
 5   0  0.9147432E-05  0.1798634E+04  0.7818609E-02  0.8707026E-01
       -2   -1    0    0    0  501  0.00000000000E+00  0.00000000000E+00  0.11213613897E+04  0.11213613897E+04  0.25500000920E-02 0.  1.
        2   -1    0    0  501    0  0.00000000000E+00  0.00000000000E+00 -0.72124027123E+03  0.72124027123E+03  0.25500000920E-02 0. -1.
    10030    2    1    2    0    0  0.00000000000E+00  0.00000000000E+00  0.40012111842E+03  0.18426016609E+04  0.17986339181E+04 0.  0.
        3    1    3    3  502    0 -0.40570020013E+03 -0.55981268489E+03  0.78926174241E+03  0.10492459210E+04  0.10100000352E+00 0.  1.
       -3    1    3    3    0  502  0.40570020013E+03  0.55981268489E+03 -0.38914062398E+03  0.79335573987E+03  0.10100000352E+00 0. -1.
</event>
<event>
 5   0  0.4494757E-05  0.1783765E+04  0.7818609E-02  0.8714981E-01
        1   -1    0    0  501    0  0.00000000000E+00  0.00000000000E+00  0.59706332229E+03  0.59706332231E+03  0.50400001928E-02 0. -1.
       -1   -1    0    0    0  501  0.00000000000E+00  0.00000000000E+00 -0.13322779112E+04  0.13322779112E+04  0.50400001928E-02 0.  1.
    10030    2    1    2    0    0  0.00000000000E+00  0.00000000000E+00 -0.73521458894E+03  0.19293412336E+04  0.17837648678E+04 0.  0.
        4    1    3    3  502    0 -0.17730703585E+03 -0.84839903626E+03 -0.59509048868E+03  0.10513576995E+04  0.12699999809E+01 0.  1.
       -4    1    3    3    0  502  0.17730703585E+03  0.84839903626E+03 -0.14012410027E+03  0.87798353405E+03  0.12699999809E+01 0. -1.
</event>
<event>
 5   0  0.4535100E-05  0.1805533E+04  0.7818609E-02  0.8703362E-01
        1   -1    0    0  501    0  0.00000000000E+00  0.00000000000E+00  0.88530295234E+03  0.88530295235E+03  0.50400001928E-02 0.  1.
       -1   -1    0    0    0  501  0.00000000000E+00  0.00000000000E+00 -0.92057485497E+03  0.92057485498E+03  0.50400001928E-02 0. -1.
    10030    2    1    2    0    0  0.00000000000E+00  0.00000000000E+00 -0.35271902631E+02  0.18058778073E+04  0.18055333140E+04 0.  0.
        1    1    3    3  502    0 -0.78439238824E+03 -0.22818982617E+03  0.36668418608E+03  0.89543246973E+03  0.50400001928E-02 0.  1.
       -1    1    3    3    0  502  0.78439238824E+03  0.22818982617E+03 -0.40195608872E+03  0.91044533761E+03  0.50400001928E-02 0. -1.
</event>
<event>
 5   0  0.4335117E-05  0.1794600E+04  0.7818609E-02  0.8709176E-01
       -1   -1    0    0    0  501  0.00000000000E+00  0.00000000000E+00  0.65118338280E+03  0.65118338282E+03  0.50400001928E-02 0.  1.
        1   -1    0    0  501    0  0.00000000000E+00  0.00000000000E+00 -0.12364369568E+04  0.12364369568E+04  0.50400001928E-02 0. -1.
    10030    2    1    2    0    0  0.00000000000E+00  0.00000000000E+00 -0.58525357400E+03  0.18876203396E+04  0.17945998999E+04 0.  0.
        3    1    3    3  502    0  0.44456755363E+03 -0.43955373900E+03 -0.96965093058E+03  0.11537203893E+04  0.10100000352E+00 0. -1.
       -3    1    3    3    0  502 -0.44456755363E+03  0.43955373900E+03  0.38439735658E+03  0.73389995038E+03  0.10100000352E+00 0.  1.
</event>
<event>
 5   0  0.8892280E-05  0.1795685E+04  0.7818609E-02  0.8708597E-01
       -2   -1    0    0    0  501  0.00000000000E+00  0.00000000000E+00  0.36220289122E+03  0.36220289123E+03  0.25500000920E-02 0. -1.
        2   -1    0    0  501    0  0.00000000000E+00  0.00000000000E+00 -0.22256076970E+04  0.22256076970E+04  0.25500000920E-02 0.  1.
    10030    2    1    2    0    0  0.00000000000E+00  0.00000000000E+00 -0.18634048058E+04  0.25878105882E+04  0.17956854319E+04 0.  0.
        4    1    3    3  502    0  0.33415539905E+03 -0.19392427963E+02  0.26892500446E+03  0.42936950043E+03  0.12699999809E+01 0. -1.
       -4    1    3    3    0  502 -0.33415539905E+03  0.19392427963E+02 -0.21323298102E+04  0.21584410878E+04  0.12699999809E+01 0.  1.
</event>
<event>
 5   0  0.8892280E-05  0.1810543E+04  0.7818609E-02  0.8700713E-01
       -2   -1    0    0    0  501  0.00000000000E+00  0.00000000000E+00  0.33657683942E+03  0.33657683943E+03  0.25500000920E-02 0.  1.
        2   -1    0    0  501    0  0.00000000000E+00  0.00000000000E+00 -0.24348578212E+04  0.24348578212E+04  0.25500000920E-02 0. -1.
    10030    2    1    2    0    0  0.00000000000E+00  0.00000000000E+00 -0.20982809818E+04  0.27714346606E+04  0.18105432885E+04 0.  0.
        4    1    3    3  502    0 -0.27595366221E+03 -0.58480681049E+02 -0.23658663659E+04  0.23826236983E+04  0.12699999809E+01 0. -1.
       -4    1    3    3    0  502  0.27595366221E+03  0.58480681049E+02  0.26758538408E+03  0.38881096232E+03  0.12699999809E+01 0.  1.
</event>
<event>
 5   0  0.4578107E-05  0.1810706E+04  0.7818609E-02  0.8700627E-01
       -1   -1    0    0    0  501  0.00000000000E+00  0.00000000000E+00  0.80941751799E+03  0.80941751801E+03  0.50400001928E-02 0.  1.
        1   -1    0    0  501    0  0.00000000000E+00  0.00000000000E+00 -0.10126595041E+04  0.10126595041E+04  0.50400001928E-02 0. -1.
    10030    2    1    2    0    0  0.00000000000E+00  0.00000000000E+00 -0.20324198607E+03  0.18220770221E+04  0.18107063179E+04 0.  0.
        2    1    3    3  502    0 -0.76528232818E+03  0.36237737098E+03  0.22084406939E+03  0.87506942800E+03  0.25500000920E-02 0.  1.
       -2    1    3    3    0  502  0.76528232818E+03 -0.36237737098E+03 -0.42408605546E+03  0.94700759409E+03  0.25500000920E-02 0. -1.
</event>
<event>
 5   0  0.4335117E-05  0.1797984E+04  0.7818609E-02  0.8707372E-01
       -1   -1    0    0    0  501  0.00000000000E+00  0.00000000000E+00  0.50771645667E+03  0.50771645669E+03  0.50400001928E-02 0. -1.
        1   -1    0    0  501    0  0.00000000000E+00  0.00000000000E+00 -0.15918078837E+04  0.15918078837E+04  0.50400001928E-02 0.  1.
    10030    2    1    2    0    0  0.00000000000E+00  0.00000000000E+00 -0.10840914270E+04  0.20995243404E+04  0.17979844921E+04 0.  0.
        3    1    3    3  502    0 -0.27655039996E+03 -0.65684816416E+03 -0.11819011173E+04  0.13801521278E+04  0.10100000352E+00 0.  1.
       -3    1    3    3    0  502  0.27655039996E+03  0.65684816416E+03  0.97809690352E+02  0.71937221256E+03  0.10100000352E+00 0. -1.
</event>
<event>
 5   0  0.4623665E-05  0.1808268E+04  0.7818609E-02  0.8701915E-01
        1   -1    0    0  501    0  0.00000000000E+00  0.00000000000E+00  0.11932717327E+04  0.11932717327E+04  0.50400001928E-02 0. -1.
       -1   -1    0    0    0  501  0.00000000000E+00  0.00000000000E+00 -0.68505634248E+03  0.68505634250E+03  0.50400001928E-02 0.  1.
    10030    2    1    2    0    0  0.00000000000E+00  0.00000000000E+00  0.50821539023E+03  0.18783280752E+04  0.18082680872E+04 0.  0.
        5    1    3    3  502    0  0.69424497396E+03  0.50931124375E+03 -0.32371588331E+02  0.86165192312E+03  0.46999998093E+01 0. -1.
       -5    1    3    3    0  502 -0.69424497396E+03 -0.50931124375E+03  0.54058697856E+03  0.10166761521E+04  0.46999998093E+01 0.  1.
</event>
<event>
 5   0  0.8802655E-05  0.1804433E+04  0.7818609E-02  0.8703946E-01
        2   -1    0    0  501    0  0.00000000000E+00  0.00000000000E+00  0.23386270416E+04  0.23386270416E+04  0.25500000920E-02 0.  1.
       -2   -1    0    0    0  501  0.00000000000E+00  0.00000000000E+00 -0.34806504352E+03  0.34806504353E+03  0.25500000920E-02 0. -1.
    10030    2    1    2    0    0  0.00000000000E+00  0.00000000000E+00  0.19905619981E+04  0.26866920851E+04  0.18044326787E+04 0.  0.
        2    1    3    3  502    0 -0.39562979947E+03 -0.48056699380E+03  0.19676930864E+04  0.20638032019E+04  0.25500000920E-02 0.  1.
       -2    1    3    3    0  502  0.39562979947E+03  0.48056699380E+03  0.22868911680E+02  0.62288888326E+03  0.25500000920E-02 0. -1.
</event>
<event>
 5   0  0.9147432E-05  0.1799233E+04  0.7818609E-02  0.8706707E-01
        2   -1    0    0  501    0  0.00000000000E+00  0.00000000000E+00  0.98428473473E+03  0.98428473473E+03  0.25500000920E-02 0.  1.
       -2   -1    0    0    0  501  0.00000000000E+00  0.00000000000E+00 -0.82223184591E+03  0.82223184591E+03  0.25500000920E-02 0. -1.
    10030    2    1    2    0    0  0.00000000000E+00  0.00000000000E+00  0.16205288882E+03  0.18065165806E+04  0.17992334527E+04 0.  0.
        3    1    3    3  502    0  0.48557311795E+02 -0.64609381434E+03  0.70766432952E+03  0.95947060556E+03  0.10100000352E+00 0. -1.
       -3    1    3    3    0  502 -0.48557311795E+02  0.64609381434E+03 -0.54561144070E+03  0.84704597507E+03  0.10100000352E+00 0.  1.
</event>
<event>
 5   0  0.8893075E-05  0.1801107E+04  0.7818609E-02  0.8705711E-01
       -2   -1    0    0    0  501  0.00000000000E+00  0.00000000000E+00  0.11808579338E+04  0.11808579338E+04  0.25500000920E-02 0.  1.
        2   -1    0    0  501    0  0.00000000000E+00  0.00000000000E+00 -0.68678586769E+03  0.68678586770E+03  0.25500000920E-02 0. -1.
    10030    2    1    2    0    0  0.00000000000E+00  0.00000000000E+00  0.49407206615E+03  0.18676438015E+04  0.18011069271E+04 0.  0.
        1    1    3    3  502    0  0.15663612177E+03  0.51994589341E+03  0.99198930049E+03  0.11308940618E+04  0.50400001928E-02 0.  1.
       -1    1    3    3    0  502 -0.15663612177E+03 -0.51994589341E+03 -0.49791723434E+03  0.73674973973E+03  0.50400001928E-02 0. -1.
</event>
<event>
 5   0  0.8802655E-05  0.1785249E+04  0.7818609E-02  0.8714183E-01
       -2   -1    0    0    0  501  0.00000000000E+00  0.00000000000E+00  0.80456595671E+03  0.80456595671E+03  0.25500000920E-02 0.  1.
        2   -1    0    0  501    0  0.00000000000E+00  0.00000000000E+00 -0.99032109187E+03  0.99032109188E+03  0.25500000920E-02 0. -1.
    10030    2    1    2    0    0  0.00000000000E+00  0.00000000000E+00 -0.18575513517E+03  0.17948870486E+04  0.17852491554E+04 0.  0.
        2    1    3    3  502    0  0.68470039569E+03  0.54357620731E+03 -0.27409746052E+03  0.91619820066E+03  0.25500000920E-02 0. -1.
       -2    1    3    3    0  502 -0.68470039569E+03 -0.54357620731E+03  0.88342325354E+02  0.87868884793E+03  0.25500000920E-02 0.  1.
</event>
<event>
 5   0  0.9147432E-05  0.1781032E+04  0.7818609E-02  0.8716452E-01
        2   -1    0    0  501    0  0.00000000000E+00  0.00000000000E+00  0.72146691702E+03  0.72146691703E+03  0.25500000920E-02 0. -1.
       -2   -1    0    0    0  501  0.00000000000E+00  0.00000000000E+00 -0.10991751277E+04  0.10991751277E+04  0.25500000920E-02 0.  1.
    10030    2    1    2    0    0  0.00000000000E+00  0.00000000000E+00 -0.37770821069E+03  0.18206420447E+04  0.17810317130E+04 0.  0.
        3    1    3    3  502    0 -0.65211443596E+03  0.20466565644E+03  0.39469836419E+03  0.78925792831E+03  0.10100000352E+00 0. -1.
       -3    1    3    3    0  502  0.65211443596E+03 -0.20466565644E+03 -0.77240657488E+03  0.10313841164E+04  0.10100000352E+00 0.  1.
</event>
<event>
 5   0  0.4335117E-05  0.1803213E+04  0.7818609E-02  0.8704593E-01
        1   -1    0    0  501    0  0.00000000000E+00  0.00000000000E+00  0.20186774189E+04  0.20186774189E+04  0.50400001928E-02 0.  1.
       -1   -1    0    0    0  501  0.00000000000E+00  0.00000000000E+00 -0.40268665522E+03  0.40268665525E+03  0.50400001928E-02 0. -1.
    10030    2    1    2    0    0  0.00000000000E+00  0.00000000000E+00  0.16159907636E+04  0.24213640741E+04  0.18032131963E+04 0.  0.
        3    1    3    3  502    0 -0.85774814778E+03  0.21094308661E+03  0.10506889032E+04  0.13726529249E+04  0.10100000352E+00 0. -1.
       -3    1    3    3    0  502  0.85774814778E+03 -0.21094308661E+03  0.56530186043E+03  0.10487111492E+04  0.10100000352E+00 0.  1.
</event>
<event>
 5   0  0.9184414E-05  0.1789539E+04  0.7818609E-02  0.8711882E-01
       -2   -1    0    0    0  501  0.00000000000E+00  0.00000000000E+00  0.69509437242E+03  0.69509437243E+03  0.25500000920E-02 0. -1.
        2   -1    0    0  501    0  0.00000000000E+00  0.00000000000E+00 -0.11518042135E+04  0.11518042135E+04  0.25500000920E-02 0.  1.
    10030    2    1    2    0    0  0.00000000000E+00  0.00000000000E+00 -0.45670984103E+03  0.18468985859E+04  0.17895391886E+04 0.  0.
        5    1    3    3  502    0 -0.74343872639E+03  0.24866532778E+03 -0.67352139688E+03  0.10335321704E+04  0.46999998093E+01 0.  1.
       -5    1    3    3    0  502  0.74343872639E+03 -0.24866532778E+03  0.21681155585E+03  0.81336641551E+03  0.46999998093E+01 0. -1.
</event>
<event>
 5   0  0.4623665E-05  0.1800172E+04  0.7818609E-02  0.8706208E-01
       -1   -1    0    0    0  501  0.00000000000E+00  0.00000000000E+00  0.95789800594E+03  0.95789800595E+03  0.50400001928E-02 0.  1.
        1   -1    0    0  501    0  0.00000000000E+00  0.00000000000E+00 -0.84576322782E+03  0.84576322783E+03  0.50400001928E-02 0. -1.
    10030    2    1    2    0    0  0.00000000000E+00  0.00000000000E+00  0.11213477812E+03  0.18036612338E+04  0.18001721134E+04 0.  0.
        5    1    3    3  502    0  0.42636263417E+03 -0.10399390660E+03  0.84342317533E+03  0.95078103216E+03  0.46999998093E+01 0.  1.
       -5    1    3    3    0  502 -0.42636263417E+03  0.10399390660E+03 -0.73128839721E+03  0.85288020162E+03  0.46999998093E+01 0. -1.
</event>
<event>
 5   0  0.4335117E-05  0.1791793E+04  0.7818609E-02  0.8710676E-01
        1   -1    0    0  501    0  0.00000000000E+00  0.00000000000E+00  0.63770629793E+03  0.63770629795E+03  0.50400001928E-02 0. -1.
       -1   -1    0    0    0  501  0.00000000000E+00  0.00000000000E+00 -0.12586204311E+04  0.12586204311E+04  0.50400001928E-02 0.  1.
    10030    2    1    2    0    0  0.00000000000E+00  0.00000000000E+00 -0.62091413317E+03  0.18963267291E+04  0.17917925948E+04 0.  0.
        3    1    3    3  502    0  0.71973538030E+03  0.26078896124E+03  0.18209814829E+03  0.78688604370E+03  0.10100000352E+00 0. -1.
       -3    1    3    3    0  502 -0.71973538030E+03 -0.26078896124E+03 -0.80301228146E+03  0.11094406854E+04  0.10100000352E+00 0.  1.
</event>
<event>
 5   0  0.9147432E-05  0.1790994E+04  0.7818609E-02  0.8711104E-01
        2   -1    0    0  501    0  0.00000000000E+00  0.00000000000E+00  0.13557642939E+04  0.13557642939E+04  0.25500000920E-02 0. -1.
       -2   -1    0    0    0  501  0.00000000000E+00  0.00000000000E+00 -0.59148513807E+03  0.59148513808E+03  0.25500000920E-02 0.  1.
    10030    2    1    2    0    0  0.00000000000E+00  0.00000000000E+00  0.76427915586E+03  0.19472494320E+04  0.17909935015E+04 0.  0.
        3    1    3    3  502    0  0.94564823712E+02  0.88510668377E+03  0.48843455536E+03  0.10153446078E+04  0.10100000352E+00 0.  1.
       -3    1    3    3    0  502 -0.94564823712E+02 -0.88510668377E+03  0.27584460050E+03  0.93190482420E+03  0.10100000352E+00 0. -1.
</event>
<event>
 5   0  0.4535100E-05  0.1804034E+04  0.7818609E-02  0.8704157E-01
       -1   -1    0    0    0  501  0.00000000000E+00  0.00000000000E+00  0.71289351265E+03  0.71289351267E+03  0.50400001928E-02 0.  1.
        1   -1    0    0  501    0  0.00000000000E+00  0.00000000000E+00 -0.11413129354E+04  0.11413129355E+04  0.50400001928E-02 0. -1.
    10030    2    1    2    0    0  0.00000000000E+00  0.00000000000E+00 -0.42841942279E+03  0.18542064481E+04  0.18040339106E+04 0.  0.
        1    1    3    3  502    0  0.22693929452E+03 -0.56030866632E+03 -0.90229644387E+03  0.10860875276E+04  0.50400001928E-02 0. -1.
       -1    1    3    3    0  502 -0.22693929452E+03  0.56030866632E+03  0.47387702108E+03  0.76811892053E+03  0.50400001928E-02 0.  1.
</event>
<event>
 5   0  0.4335117E-05  0.1802363E+04  0.7818609E-02  0.8705044E-01
       -1   -1    0    0    0  501  0.00000000000E+00  0.00000000000E+00  0.32125549541E+03  0.32125549545E+03  0.50400001928E-02 0. -1.
        1   -1    0    0  501    0  0.00000000000E+00  0.00000000000E+00 -0.25279830909E+04  0.25279830909E+04  0.50400001928E-02 0.  1.
    10030    2    1    2    0    0  0.00000000000E+00  0.00000000000E+00 -0.22067275954E+04  0.28492385863E+04  0.18023634043E+04 0.  0.
        3    1    3    3  502    0  0.76099835812E+03  0.29325547804E+03 -0.17094880045E+04  0.18940608555E+04  0.10100000352E+00 0.  1.
       -3    1    3    3    0  502 -0.76099835812E+03 -0.29325547804E+03 -0.49723959091E+03  0.95517773081E+03  0.10100000352E+00 0. -1.
</event>
<event>
 5   0  0.4578107E-05  0.1801100E+04  0.7818609E-02  0.8705715E-01
        1   -1    0    0  501    0  0.00000000000E+00  0.00000000000E+00  0.17883107904E+04  0.17883107904E+04  0.50400001928E-02 0.  1.
       -1   -1    0    0    0  501  0.00000000000E+00  0.00000000000E+00 -0.45349531717E+03  0.45349531720E+03  0.50400001928E-02 0. -1.
    10030    2    1    2    0    0  0.00000000000E+00  0.00000000000E+00  0.13348154732E+04  0.22418061076E+04  0.18011002961E+04 0.  0.
        2    1    3    3  502    0  0.17186964382E+03 -0.77395358351E+03  0.13575407956E+03  0.80434600392E+03  0.25500000920E-02 0. -1.
       -2    1    3    3    0  502 -0.17186964382E+03  0.77395358351E+03  0.11990613936E+04  0.14374601036E+04  0.25500000920E-02 0.  1.
</event>
<event>
 5   0  0.4623665E-05  0.1800837E+04  0.7818609E-02  0.8705855E-01
       -1   -1    0    0    0  501  0.00000000000E+00  0.00000000000E+00  0.61618623123E+03  0.61618623125E+03  0.50400001928E-02 0.  1.
        1   -1    0    0  501    0  0.00000000000E+00  0.00000000000E+00 -0.13157599193E+04  0.13157599193E+04  0.50400001928E-02 0. -1.
    10030    2    1    2    0    0  0.00000000000E+00  0.00000000000E+00 -0.69957368809E+03  0.19319461506E+04  0.18008366344E+04 0.  0.
        5    1    3    3  502    0 -0.16267804810E+03 -0.72493502761E+03  0.19590721545E+03  0.76837274070E+03  0.46999998093E+01 0.  1.
       -5    1    3    3    0  502  0.16267804810E+03  0.72493502761E+03 -0.89548090354E+03  0.11635734099E+04  0.46999998093E+01 0. -1.
</event>
<event>
 5   0  0.8892280E-05  0.1770074E+04  0.7818609E-02  0.8722377E-01
        2   -1    0    0  501    0  0.00000000000E+00  0.00000000000E+00  0.10711814703E+04  0.10711814703E+04  0.25500000920E-02 0.  1.
       -2   -1    0    0    0  501  0.00000000000E+00  0.00000000000E+00 -0.73124012511E+03  0.73124012512E+03  0.25500000920E-02 0. -1.
    10030    2    1    2    0    0  0.00000000000E+00  0.00000000000E+00  0.33994134516E+03  0.18024215954E+04  0.17700744305E+04 0.  0.
        4    1    3    3  502    0 -0.86170457860E+03 -0.20542426385E+02 -0.34528877552E+02  0.86264165697E+03  0.12699999809E+01 0. -1.
       -4    1    3    3    0  502  0.86170457860E+03  0.20542426385E+02  0.37447022272E+03  0.93977993842E+03  0.12699999809E+01 0.  1.
</event>
<event>
 5   0  0.8893075E-05  0.1802118E+04  0.7818609E-02  0.8705174E-01
        2   -1    0    0  501    0  0.00000000000E+00  0.00000000000E+00  0.86977321732E+03  0.86977321732E+03  0.25500000920E-02 0. -1.
       -2   -1    0    0    0  501  0.00000000000E+00  0.00000000000E+00 -0.93346966772E+03  0.93346966772E+03  0.25500000920E-02 0.  1.
    10030    2    1    2    0    0  0.00000000000E+00  0.00000000000E+00 -0.63696450404E+02  0.18032428850E+04  0.18021175502E+04 0.  0.
        1    1    3    3  502    0  0.14675744343E+03  0.42963704394E+03  0.74695725595E+03  0.87411147971E+03  0.50400001928E-02 0. -1.
       -1    1    3    3    0  502 -0.14675744343E+03 -0.42963704394E+03 -0.81065370635E+03  0.92913140533E+03  0.50400001928E-02 0.  1.
</event>
<event>
 5   0  0.4494757E-05  0.1798193E+04  0.7818609E-02  0.8707261E-01
       -1   -1    0    0    0  501  0.00000000000E+00  0.00000000000E+00  0.50963156141E+03  0.50963156144E+03  0.50400001928E-02 0. -1.
        1   -1    0    0  501    0  0.00000000000E+00  0.00000000000E+00 -0.15861946633E+04  0.15861946633E+04  0.50400001928E-02 0.  1.
    10030    2    1    2    0    0  0.00000000000E+00  0.00000000000E+00 -0.10765631019E+04  0.20958262248E+04  0.17981933856E+04 0.  0.
        4    1    3    3  502    0  0.12049063363E+03  0.87816625119E+03 -0.71380438649E+03  0.11380739311E+04  0.12699999809E+01 0. -1.
       -4    1    3    3    0  502 -0.12049063363E+03 -0.87816625119E+03 -0.36275871541E+03  0.95775229367E+03  0.12699999809E+01 0.  1.
</event>
<event>
 5   0  0.8802655E-05  0.1800495E+04  0.7818609E-02  0.8706036E-01
       -2   -1    0    0    0  501  0.00000000000E+00  0.00000000000E+00  0.82085822774E+03  0.82085822774E+03  0.25500000920E-02 0.  1.
        2   -1    0    0  501    0  0.00000000000E+00  0.00000000000E+00 -0.98731463565E+03  0.98731463565E+03  0.25500000920E-02 0. -1.
    10030    2    1    2    0    0  0.00000000000E+00  0.00000000000E+00 -0.16645640792E+03  0.18081728634E+04  0.18004947565E+04 0.  0.
        2    1    3    3  502    0  0.15909196307E+03  0.41071352237E+03 -0.87171937670E+03  0.97667319093E+03  0.25500000920E-02 0. -1.
       -2    1    3    3    0  502 -0.15909196307E+03 -0.41071352237E+03  0.70526296878E+03  0.83149967246E+03  0.25500000920E-02 0.  1.
</event>
<event>
 5   0  0.4623665E-05  0.1766668E+04  0.7818609E-02  0.8724229E-01
       -1   -1    0    0    0  501  0.00000000000E+00  0.00000000000E+00  0.55808149289E+03  0.55808149292E+03  0.50400001928E-02 0. -1.
        1   -1    0    0  501    0  0.00000000000E+00  0.00000000000E+00 -0.13981454261E+04  0.13981454261E+04  0.50400001928E-02 0.  1.
    10030    2    1    2    0    0  0.00000000000E+00  0.00000000000E+00 -0.84006393319E+03  0.19562269190E+04  0.17666681485E+04 0.  0.
        5    1    3    3  502    0 -0.64795941391E+03  0.40659377434E+03 -0.90911041428E+03  0.11881387691E+04  0.46999998093E+01 0.  1.
       -5    1    3    3    0  502  0.64795941391E+03 -0.40659377434E+03  0.69046481094E+02  0.76808814986E+03  0.46999998093E+01 0. -1.
</event>
<event>
 5   0  0.8802655E-05  0.1804081E+04  0.7818609E-02  0.8704132E-01
       -2   -1    0    0    0  501  0.00000000000E+00  0.00000000000E+00  0.10215163747E+04  0.10215163747E+04  0.25500000920E-02 0. -1.
        2   -1    0    0  501    0  0.00000000000E+00  0.00000000000E+00 -0.79653824661E+03  0.79653824661E+03  0.25500000920E-02 0.  1.
    10030    2    1    2    0    0  0.00000000000E+00  0.00000000000E+00  0.22497812807E+03  0.18180546213E+04  0.18040807764E+04 0.  0.
        2    1    3    3  502    0 -0.12150713011E+03  0.73137739471E+03  0.63027815925E+03  0.97310196495E+03  0.25500000920E-02 0. -1.
       -2    1    3    3    0  502  0.12150713011E+03 -0.73137739471E+03 -0.40530003118E+03  0.84495265633E+03  0.25500000920E-02 0.  1.
</event>
<event>
 5   0  0.4494757E-05  0.1798811E+04  0.7818609E-02  0.8706932E-01
        1   -1    0    0  501    0  0.00000000000E+00  0.00000000000E+00  0.15927098032E+04  0.15927098032E+04  0.50400001928E-02 0. -1.
       -1   -1    0    0    0  501  0.00000000000E+00  0.00000000000E+00 -0.50789564586E+03  0.50789564588E+03  0.50400001928E-02 0.  1.
    10030    2    1    2    0    0  0.00000000000E+00  0.00000000000E+00  0.10848141574E+04  0.21006054491E+04  0.17988111343E+04 0.  0.
        4    1    3    3  502    0  0.31473038854E+02  0.11282692355E+03 -0.49894927536E+03  0.51251581354E+03  0.12699999809E+01 0.  1.
       -4    1    3    3    0  502 -0.31473038854E+02 -0.11282692355E+03  0.15837634327E+04  0.15880896356E+04  0.12699999809E+01 0. -1.
</event>
<event>
 5   0  0.4494757E-05  0.1791811E+04  0.7818609E-02  0.8710666E-01
       -1   -1    0    0    0  501  0.00000000000E+00  0.00000000000E+00  0.89901820604E+03  0.89901820605E+03  0.50400001928E-02 0. -1.
        1   -1    0    0  501    0  0.00000000000E+00  0.00000000000E+00 -0.89280403021E+03  0.89280403022E+03  0.50400001928E-02 0.  1.
    10030    2    1    2    0    0  0.00000000000E+00  0.00000000000E+00  0.62141758303E+01  0.17918222363E+04  0.17918114606E+04 0.  0.
        4    1    3    3  502    0 -0.75016453055E+03 -0.45348119393E+03  0.18818507296E+03  0.89655298267E+03  0.12699999809E+01 0.  1.
       -4    1    3    3    0  502  0.75016453055E+03  0.45348119393E+03 -0.18197089713E+03  0.89526925360E+03  0.12699999809E+01 0. -1.
</event>
<event>
 5   0  0.4578107E-05  0.1750918E+04  0.7818609E-02  0.8732845E-01
       -1   -1    0    0    0  501  0.00000000000E+00  0.00000000000E+00  0.73455096361E+03  0.73455096363E+03  0.50400001928E-02 0. -1.
        1   -1    0    0  501    0  0.00000000000E+00  0.00000000000E+00 -0.10433975131E+04  0.10433975131E+04  0.50400001928E-02 0.  1.
    10030    2    1    2    0    0  0.00000000000E+00  0.00000000000E+00 -0.30884654949E+03  0.17779484767E+04  0.17509182148E+04 0.  0.
        2    1    3    3  502    0 -0.37777272209E+03 -0.24629636800E+03 -0.91637689103E+03  0.10213328238E+04  0.25500000920E-02 0.  1.
       -2    1    3    3    0  502  0.37777272209E+03  0.24629636800E+03  0.60753034155E+03  0.75661565299E+03  0.25500000920E-02 0. -1.
</event>
<event>
 5   0  0.8802655E-05  0.1734930E+04  0.7818609E-02  0.8741690E-01
       -2   -1    0    0    0  501  0.00000000000E+00  0.00000000000E+00  0.56499291508E+03  0.56499291509E+03  0.25500000920E-02 0.  1.
        2   -1    0    0  501    0  0.00000000000E+00  0.00000000000E+00 -0.13318669257E+04  0.13318669257E+04  0.25500000920E-02 0. -1.
    10030    2    1    2    0    0  0.00000000000E+00  0.00000000000E+00 -0.76687401058E+03  0.18968598408E+04  0.17349298278E+04 0.  0.
        2    1    3    3  502    0 -0.28808571859E+03  0.26343424390E+03  0.46353046758E+03  0.60601276925E+03  0.25500000920E-02 0.  1.
       -2    1    3    3    0  502  0.28808571859E+03 -0.26343424390E+03 -0.12304044782E+04  0.12908470715E+04  0.25500000920E-02 0. -1.
</event>
<event>
 5   0  0.3270375E-05  0.1795007E+04  0.7818609E-02  0.8708959E-01
        3   -1    0    0  501    0  0.00000000000E+00  0.00000000000E+00  0.37298056078E+03  0.37298057445E+03  0.10100000352E+00 0.  1.
       -3   -1    0    0    0  501  0.00000000000E+00  0.00000000000E+00 -0.21596640262E+04  0.21596640285E+04  0.10100000352E+00 0. -1.
    10030    2    1    2    0    0  0.00000000000E+00  0.00000000000E+00 -0.17866834654E+04  0.25326446030E+04  0.17950072088E+04 0.  0.
        2    1    3    3  502    0  0.76951183786E+03  0.95557537934E+02 -0.25570838660E+03  0.81649647314E+03  0.25500000920E-02 0.  1.
       -2    1    3    3    0  502 -0.76951183786E+03 -0.95557537934E+02 -0.15309750788E+04  0.17161481299E+04  0.25500000920E-02 0. -1.
</event>
<event>
 5   0  0.9184414E-05  0.1804765E+04  0.7818609E-02  0.8703770E-01
        2   -1    0    0  501    0  0.00000000000E+00  0.00000000000E+00  0.13008367563E+04  0.13008367563E+04  0.25500000920E-02 0.  1.
       -2   -1    0    0    0  501  0.00000000000E+00  0.00000000000E+00 -0.62597695543E+03  0.62597695544E+03  0.25500000920E-02 0. -1.
    10030    2    1    2    0    0  0.00000000000E+00  0.00000000000E+00  0.67485980084E+03  0.19268137117E+04  0.18047646187E+04 0.  0.
        5    1    3    3  502    0  0.31707893523E+03  0.72510995248E+03  0.80027780359E+03  0.11255177241E+04  0.46999998093E+01 0.  1.
       -5    1    3    3    0  502 -0.31707893523E+03 -0.72510995248E+03 -0.12541800275E+03  0.80129598761E+03  0.46999998093E+01 0. -1.
</event>
<event>
 5   0  0.9184414E-05  0.1801020E+04  0.7818609E-02  0.8705757E-01
        2   -1    0    0  501    0  0.00000000000E+00  0.00000000000E+00  0.60313573663E+03  0.60313573663E+03  0.25500000920E-02 0.  1.
       -2   -1    0    0    0  501  0.00000000000E+00  0.00000000000E+00 -0.13445043354E+04  0.13445043354E+04  0.25500000920E-02 0. -1.
    10030    2    1    2    0    0  0.00000000000E+00  0.00000000000E+00 -0.74136859880E+03  0.19476400721E+04  0.18010203916E+04 0.  0.
        5    1    3    3  502    0 -0.53325342909E+03 -0.58284161345E+03  0.96745950863E+02  0.79589285398E+03  0.46999998093E+01 0.  1.
       -5    1    3    3    0  502  0.53325342909E+03  0.58284161345E+03 -0.83811454966E+03  0.11517472181E+04  0.46999998093E+01 0. -1.
</event>
<event>
 5   0  0.8892280E-05  0.1799328E+04  0.7818609E-02  0.8706657E-01
        2   -1    0    0  501    0  0.00000000000E+00  0.00000000000E+00  0.12296018458E+04  0.12296018459E+04  0.25500000920E-02 0. -1.
       -2   -1    0    0    0  501  0.00000000000E+00  0.00000000000E+00 -0.65825807577E+03  0.65825807577E+03  0.25500000920E-02 0.  1.
    10030    2    1    2    0    0  0.00000000000E+00  0.00000000000E+00  0.57134377008E+03  0.18878599216E+04  0.17993280357E+04 0.  0.
        4    1    3    3  502    0  0.76940213808E+03  0.46360959242E+03  0.33792416079E+03  0.95974364057E+03  0.12699999809E+01 0.  1.
       -4    1    3    3    0  502 -0.76940213808E+03 -0.46360959242E+03  0.23341960929E+03  0.92811628106E+03  0.12699999809E+01 0. -1.
</event>
<event>
 5   0  0.4494757E-05  0.1808217E+04  0.7818609E-02  0.8701942E-01
       -1   -1    0    0    0  501  0.00000000000E+00  0.00000000000E+00  0.53135134427E+03  0.53135134430E+03  0.50400001928E-02 0.  1.
        1   -1    0    0  501    0  0.00000000000E+00  0.00000000000E+00 -0.15383639833E+04  0.15383639834E+04  0.50400001928E-02 0. -1.
    10030    2    1    2    0    0  0.00000000000E+00  0.00000000000E+00 -0.10070126391E+04  0.20697153277E+04  0.18082165474E+04 0.  0.
        4    1    3    3  502    0  0.25619935387E+03 -0.64785919341E+03 -0.11630783871E+04  0.13557701099E+04  0.12699999809E+01 0. -1.
       -4    1    3    3    0  502 -0.25619935387E+03  0.64785919341E+03  0.15606574800E+03  0.71394521779E+03  0.12699999809E+01 0.  1.
</event>
<event>
 5   0  0.4578107E-05  0.1803092E+04  0.7818609E-02  0.8704657E-01
        1   -1    0    0  501    0  0.00000000000E+00  0.00000000000E+00  0.75417752846E+03  0.75417752847E+03  0.50400001928E-02 0. -1.
       -1   -1    0    0    0  501  0.00000000000E+00  0.00000000000E+00 -0.10777106315E+04  0.10777106315E+04  0.50400001928E-02 0.  1.
    10030    2    1    2    0    0  0.00000000000E+00  0.00000000000E+00 -0.32353310305E+03  0.18318881600E+04  0.18030919449E+04 0.  0.
        2    1    3    3  502    0  0.36309561282E+03 -0.81595825671E+03 -0.36679008200E+02  0.89385214123E+03  0.25500000920E-02 0.  1.
       -2    1    3    3    0  502 -0.36309561282E+03  0.81595825671E+03 -0.28685409484E+03  0.93803601875E+03  0.25500000920E-02 0. -1.
</event>
<event>
 5   0  0.8802655E-05  0.1786500E+04  0.7818609E-02  0.8713512E-01
        2   -1    0    0  501    0  0.00000000000E+00  0.00000000000E+00  0.60473813134E+03  0.60473813134E+03  0.25500000920E-02 0. -1.
       -2   -1    0    0    0  501  0.00000000000E+00  0.00000000000E+00 -0.13194066620E+04  0.13194066620E+04  0.25500000920E-02 0.  1.
    10030    2    1    2    0    0  0.00000000000E+00  0.00000000000E+00 -0.71466853068E+03  0.19241447934E+04  0.17864999516E+04 0.  0.
        2    1    3    3  502    0  0.21331790330E+03  0.25063131198E+03 -0.12517212596E+04  0.12942668559E+04  0.25500000920E-02 0.  1.
       -2    1    3    3    0  502 -0.21331790330E+03 -0.25063131198E+03  0.53705272897E+03  0.62987793747E+03  0.25500000920E-02 0. -1.
</event>
<event>
 5   0  0.4578107E-05  0.1790323E+04  0.7818609E-02  0.8711463E-01
        1   -1    0    0  501    0  0.00000000000E+00  0.00000000000E+00  0.94155974223E+03  0.94155974225E+03  0.50400001928E-02 0.  1.
       -1   -1    0    0    0  501  0.00000000000E+00  0.00000000000E+00 -0.85104948590E+03  0.85104948591E+03  0.50400001928E-02 0. -1.
    10030    2    1    2    0    0  0.00000000000E+00  0.00000000000E+00  0.90510256335E+02  0.17926092282E+04  0.17903228028E+04 0.  0.
        2    1    3    3  502    0 -0.39768219453E+03 -0.69932763486E+03 -0.34780660932E+03  0.87645861638E+03  0.25500000920E-02 0. -1.
       -2    1    3    3    0  502  0.39768219453E+03  0.69932763486E+03  0.43831686566E+03  0.91615061178E+03  0.25500000920E-02 0.  1.
</event>
<event>
 5   0  0.9147432E-05  0.1781835E+04  0.7818609E-02  0.8716019E-01
        2   -1    0    0  501    0  0.00000000000E+00  0.00000000000E+00  0.17297722083E+04  0.17297722083E+04  0.25500000920E-02 0. -1.
       -2   -1    0    0    0  501  0.00000000000E+00  0.00000000000E+00 -0.45886625844E+03  0.45886625844E+03  0.25500000920E-02 0.  1.
    10030    2    1    2    0    0  0.00000000000E+00  0.00000000000E+00  0.12709059498E+04  0.21886384667E+04  0.17818351227E+04 0.  0.
        3    1    3    3  502    0  0.33737246032E+03 -0.72318220015E+03  0.11220255495E+04  0.13768638333E+04  0.10100000352E+00 0. -1.
       -3    1    3    3    0  502 -0.33737246032E+03  0.72318220015E+03  0.14888040034E+03  0.81177463339E+03  0.10100000352E+00 0.  1.
</event>
<event>
 5   0  0.9184414E-05  0.1802271E+04  0.7818609E-02  0.8705093E-01
       -2   -1    0    0    0  501  0.00000000000E+00  0.00000000000E+00  0.63052318910E+03  0.63052318911E+03  0.25500000920E-02 0.  1.
        2   -1    0    0  501    0  0.00000000000E+00  0.00000000000E+00 -0.12878908808E+04  0.12878908808E+04  0.25500000920E-02 0. -1.
    10030    2    1    2    0    0  0.00000000000E+00  0.00000000000E+00 -0.65736769167E+03  0.19184140699E+04  0.18022708624E+04 0.  0.
        5    1    3    3  502    0  0.33456594278E+03  0.83620885357E+03 -0.35959593840E+03  0.96979943585E+03  0.46999998093E+01 0.  1.
       -5    1    3    3    0  502 -0.33456594278E+03 -0.83620885357E+03 -0.29777175326E+03  0.94861463403E+03  0.46999998093E+01 0. -1.
</event>
<event>
 5   0  0.4623665E-05  0.1798372E+04  0.7818609E-02  0.8707165E-01
       -1   -1    0    0    0  501  0.00000000000E+00  0.00000000000E+00  0.92311198910E+03  0.92311198912E+03  0.50400001928E-02 0. -1.
        1   -1    0    0  501    0  0.00000000000E+00  0.00000000000E+00 -0.87588053824E+03  0.87588053825E+03  0.50400001928E-02 0.  1.
    10030    2    1    2    0    0  0.00000000000E+00  0.00000000000E+00  0.47231450863E+02  0.17989925274E+04  0.17983724040E+04 0.  0.
        5    1    3    3  502    0  0.41472850772E+03  0.30637999718E+02 -0.77388895389E+03  0.87855826505E+03  0.46999998093E+01 0.  1.
       -5    1    3    3    0  502 -0.41472850772E+03 -0.30637999718E+02  0.82112040476E+03  0.92043426232E+03  0.46999998093E+01 0. -1.
</event>
<event>
 5   0  0.4335117E-05  0.1800033E+04  0.7818609E-02  0.8706282E-01
       -1   -1    0    0    0  501  0.00000000000E+00  0.00000000000E+00  0.11285152306E+04  0.11285152306E+04  0.50400001928E-02 0. -1.
        1   -1    0    0  501    0  0.00000000000E+00  0.00000000000E+00 -0.71778388818E+03  0.71778388820E+03  0.50400001928E-02 0.  1.
    10030    2    1    2    0    0  0.00000000000E+00  0.00000000000E+00  0.41073134244E+03  0.18462991188E+04  0.18000333887E+04 0.  0.
        3    1    3    3  502    0 -0.26412671333E+03 -0.85414823400E+03  0.31145483951E+03  0.94675036498E+03  0.10100000352E+00 0.  1.
       -3    1    3    3    0  502  0.26412671333E+03  0.85414823400E+03  0.99276502935E+02  0.89954875386E+03  0.10100000352E+00 0. -1.
</event>
<event>
 5   0  0.9147432E-05  0.1794132E+04  0.7818609E-02  0.8709426E-01
        2   -1    0    0  501    0  0.00000000000E+00  0.00000000000E+00  0.79415397165E+03  0.79415397165E+03  0.25500000920E-02 0. -1.
       -2   -1    0    0    0  501  0.00000000000E+00  0.00000000000E+00 -0.10133140894E+04  0.10133140894E+04  0.25500000920E-02 0.  1.
    10030    2    1    2    0    0  0.00000000000E+00  0.00000000000E+00 -0.21916011778E+03  0.18074680611E+04  0.17941320003E+04 0.  0.
        3    1    3    3  502    0  0.30289767279E+03 -0.61114889059E+03 -0.69655788223E+03  0.97490659047E+03  0.10100000352E+00 0.  1.
       -3    1    3    3    0  502 -0.30289767279E+03  0.61114889059E+03  0.47739776445E+03  0.83256147061E+03  0.10100000352E+00 0. -1.
</event>
<event>
 5   0  0.8893075E-05  0.1783283E+04  0.7818609E-02  0.8715240E-01
       -2   -1    0    0    0  501  0.00000000000E+00  0.00000000000E+00  0.13135481736E+04  0.13135481736E+04  0.25500000920E-02 0. -1.
        2   -1    0    0  501    0  0.00000000000E+00  0.00000000000E+00 -0.60524969854E+03  0.60524969854E+03  0.25500000920E-02 0.  1.
    10030    2    1    2    0    0  0.00000000000E+00  0.00000000000E+00  0.70829847504E+03  0.19187978721E+04  0.17832830803E+04 0.  0.
        1    1    3    3  502    0  0.64292974818E+03  0.61778534283E+03  0.35704546430E+03  0.96046803930E+03  0.50400001928E-02 0.  1.
       -1    1    3    3    0  502 -0.64292974818E+03 -0.61778534283E+03  0.35125301074E+03  0.95832983283E+03  0.50400001928E-02 0. -1.
</event>
<event>
 5   0  0.8893075E-05  0.1804561E+04  0.7818609E-02  0.8703878E-01
       -2   -1    0    0    0  501  0.00000000000E+00  0.00000000000E+00  0.38404781797E+03  0.38404781798E+03  0.25500000920E-02 0. -1.
        2   -1    0    0  501    0  0.00000000000E+00  0.00000000000E+00 -0.21198150981E+04  0.21198150981E+04  0.25500000920E-02 0.  1.
    10030    2    1    2    0    0  0.00000000000E+00  0.00000000000E+00 -0.17357672801E+04  0.25038629161E+04  0.18045612907E+04 0.  0.
        1    1    3    3  502    0  0.74009823325E+03 -0.28856998420E+03 -0.27417415221E+03  0.84035081746E+03  0.50400001928E-02 0. -1.
       -1    1    3    3    0  502 -0.74009823325E+03  0.28856998420E+03 -0.14615931279E+04  0.16635120986E+04  0.50400001928E-02 0.  1.
</event>
<event>
 5   0  0.8802655E-05  0.1708974E+04  0.7818609E-02  0.8756262E-01
       -2   -1    0    0    0  501  0.00000000000E+00  0.00000000000E+00  0.58600394373E+03  0.58600394374E+03  0.25500000920E-02 0. -1.
        2   -1    0    0  501    0  0.00000000000E+00  0.00000000000E+00 -0.12459787025E+04  0.12459787025E+04  0.25500000920E-02 0.  1.
    10030    2    1    2    0    0  0.00000000000E+00  0.00000000000E+00 -0.65997475872E+03  0.18319826462E+04  0.17089744684E+04 0.  0.
        2    1    3    3  502    0  0.28994421035E+03 -0.52365683449E+03 -0.98368669304E+03  0.11514875750E+04  0.25500000920E-02 0.  1.
       -2    1    3    3    0  502 -0.28994421035E+03  0.52365683449E+03  0.32371193433E+03  0.68049507114E+03  0.25500000920E-02 0. -1.
</event>
<event>
 5   0  0.4535100E-05  0.1824025E+04  0.7818609E-02  0.8693627E-01
       -1   -1    0    0    0  501  0.00000000000E+00  0.00000000000E+00  0.10316095650E+04  0.10316095650E+04  0.50400001928E-02 0. -1.
        1   -1    0    0  501    0  0.00000000000E+00  0.00000000000E+00 -0.80628056872E+03  0.80628056874E+03  0.50400001928E-02 0.  1.
    10030    2    1    2    0    0  0.00000000000E+00  0.00000000000E+00  0.22532899629E+03  0.18378901338E+04  0.18240249415E+04 0.  0.
        1    1    3    3  502    0 -0.82831752869E+03  0.37989667358E+03  0.14948451890E+03  0.92345927487E+03  0.50400001928E-02 0. -1.
       -1    1    3    3    0  502  0.82831752869E+03 -0.37989667358E+03  0.75844477390E+02  0.91443085890E+03  0.50400001928E-02 0.  1.
</event>
<event>
 5   0  0.8893075E-05  0.1806518E+04  0.7818609E-02  0.8702841E-01
       -2   -1    0    0    0  501  0.00000000000E+00  0.00000000000E+00  0.44774825295E+03  0.44774825296E+03  0.25500000920E-02 0.  1.
        2   -1    0    0  501    0  0.00000000000E+00  0.00000000000E+00 -0.18221778339E+04  0.18221778340E+04  0.25500000920E-02 0. -1.
    10030    2    1    2    0    0  0.00000000000E+00  0.00000000000E+00 -0.13744295810E+04  0.22699260869E+04  0.18065181336E+04 0.  0.
        1    1    3    3  502    0  0.88967537381E+03  0.11676998315E+03 -0.55712132604E+03  0.10561920619E+04  0.50400001928E-02 0. -1.
       -1    1    3    3    0  502 -0.88967537381E+03 -0.11676998315E+03 -0.81730825496E+03  0.12137340250E+04  0.50400001928E-02 0.  1.
</event>
<event>
 5   0  0.8892280E-05  0.1801760E+04  0.7818609E-02  0.8705364E-01
       -2   -1    0    0    0  501  0.00000000000E+00  0.00000000000E+00  0.58364065383E+03  0.58364065383E+03  0.25500000920E-02 0.  1.
        2   -1    0    0  501    0  0.00000000000E+00  0.00000000000E+00 -0.13905561577E+04  0.13905561577E+04  0.25500000920E-02 0. -1.
    10030    2    1    2    0    0  0.00000000000E+00  0.00000000000E+00 -0.80691550387E+03  0.19741968115E+04  0.18017603671E+04 0.  0.
        4    1    3    3  502    0  0.82280498514E+03 -0.34581731920E+03 -0.53759019110E+03  0.10419224963E+04  0.12699999809E+01 0. -1.
       -4    1    3    3    0  502 -0.82280498514E+03  0.34581731920E+03 -0.26932531276E+03  0.93227431523E+03  0.12699999809E+01 0.  1.
</event>
<event>
 5   0  0.9147432E-05  0.1801348E+04  0.7818609E-02  0.8705583E-01
       -2   -1    0    0    0  501  0.00000000000E+00  0.00000000000E+00  0.53787095560E+03  0.53787095560E+03  0.25500000920E-02 0.  1.
        2   -1    0    0  501    0  0.00000000000E+00  0.00000000000E+00 -0.15081932794E+04  0.15081932794E+04  0.25500000920E-02 0. -1.
    10030    2    1    2    0    0  0.00000000000E+00  0.00000000000E+00 -0.97032232380E+03  0.20460642350E+04  0.18013476737E+04 0.  0.
        3    1    3    3  502    0 -0.81994607787E+01  0.43520452064E+02  0.53663351448E+03  0.53845779776E+03  0.10100000352E+00 0.  1.
       -3    1    3    3    0  502  0.81994607787E+01 -0.43520452064E+02 -0.15069558383E+04  0.15076064372E+04  0.10100000352E+00 0. -1.
</event>
<event>
 5   0  0.4623665E-05  0.1772326E+04  0.7818609E-02  0.8721156E-01
       -1   -1    0    0    0  501  0.00000000000E+00  0.00000000000E+00  0.98436232946E+03  0.98436232947E+03  0.50400001928E-02 0.  1.
        1   -1    0    0  501    0  0.00000000000E+00  0.00000000000E+00 -0.79776034771E+03  0.79776034773E+03  0.50400001928E-02 0. -1.
    10030    2    1    2    0    0  0.00000000000E+00  0.00000000000E+00  0.18660198174E+03  0.17821226772E+04  0.17723264194E+04 0.  0.
        5    1    3    3  502    0 -0.11776814371E+03 -0.47882842140E+03 -0.64705476814E+03  0.81354038362E+03  0.46999998093E+01 0. -1.
       -5    1    3    3    0  502  0.11776814371E+03  0.47882842140E+03  0.83365674988E+03  0.96858229358E+03  0.46999998093E+01 0.  1.
</event>
<event>
 5   0  0.4578107E-05  0.1795091E+04  0.7818609E-02  0.8708915E-01
        1   -1    0    0  501    0  0.00000000000E+00  0.00000000000E+00  0.62570544655E+03  0.62570544657E+03  0.50400001928E-02 0. -1.
       -1   -1    0    0    0  501  0.00000000000E+00  0.00000000000E+00 -0.12874869843E+04  0.12874869843E+04  0.50400001928E-02 0.  1.
    10030    2    1    2    0    0  0.00000000000E+00  0.00000000000E+00 -0.66178153777E+03  0.19131924309E+04  0.17950906590E+04 0.  0.
        2    1    3    3  502    0 -0.74613913973E+03  0.98159573618E+02 -0.85218018549E+03  0.11369124796E+04  0.25500000920E-02 0.  1.
       -2    1    3    3    0  502  0.74613913973E+03 -0.98159573618E+02  0.19039864772E+03  0.77627995130E+03  0.25500000920E-02 0. -1.
</event>
<event>
 5   0  0.8893075E-05  0.1802431E+04  0.7818609E-02  0.8705008E-01
        2   -1    0    0  501    0  0.00000000000E+00  0.00000000000E+00  0.10669662624E+04  0.10669662624E+04  0.25500000920E-02 0. -1.
       -2   -1    0    0    0  501  0.00000000000E+00  0.00000000000E+00 -0.76121409957E+03  0.76121409957E+03  0.25500000920E-02 0.  1.
    10030    2    1    2    0    0  0.00000000000E+00  0.00000000000E+00  0.30575216281E+03  0.18281803620E+04  0.18024314275E+04 0.  0.
        1    1    3    3  502    0 -0.59357782858E+03 -0.59079139109E+03  0.49052910820E+03  0.97056061757E+03  0.50400001928E-02 0. -1.
       -1    1    3    3    0  502  0.59357782858E+03  0.59079139109E+03 -0.18477694539E+03  0.85761974438E+03  0.50400001928E-02 0.  1.
</event>
<event>
 5   0  0.8892280E-05  0.1798039E+04  0.7818609E-02  0.8707343E-01
       -2   -1    0    0    0  501  0.00000000000E+00  0.00000000000E+00  0.45212271479E+03  0.45212271480E+03  0.25500000920E-02 0.  1.
        2   -1    0    0  501    0  0.00000000000E+00  0.00000000000E+00 -0.17876483845E+04  0.17876483845E+04  0.25500000920E-02 0. -1.
    10030    2    1    2    0    0  0.00000000000E+00  0.00000000000E+00 -0.13355256697E+04  0.22397710993E+04  0.17980394219E+04 0.  0.
        4    1    3    3  502    0  0.31548993642E+01  0.81488676250E+03 -0.19476013173E+03  0.83784456249E+03  0.12699999809E+01 0.  1.
       -4    1    3    3    0  502 -0.31548993642E+01 -0.81488676250E+03 -0.11407655380E+04  0.14019265368E+04  0.12699999809E+01 0. -1.
</event>
<event>
 5   0  0.9147432E-05  0.1793311E+04  0.7818609E-02  0.8709865E-01
        2   -1    0    0  501    0  0.00000000000E+00  0.00000000000E+00  0.17846986197E+04  0.17846986197E+04  0.25500000920E-02 0. -1.
       -2   -1    0    0    0  501  0.00000000000E+00  0.00000000000E+00 -0.45049112837E+03  0.45049112838E+03  0.25500000920E-02 0.  1.
    10030    2    1    2    0    0  0.00000000000E+00  0.00000000000E+00  0.13342074913E+04  0.22351897480E+04  0.17933107873E+04 0.  0.
        3    1    3    3  502    0 -0.56078961509E+03 -0.31820678611E+03  0.14437348045E+04  0.15811738509E+04  0.10100000352E+00 0. -1.
       -3    1    3    3    0  502  0.56078961509E+03  0.31820678611E+03 -0.10952731316E+03  0.65401589709E+03  0.10100000352E+00 0.  1.
</event>
<event>
 5   0  0.4535100E-05  0.1810129E+04  0.7818609E-02  0.8700932E-01
        1   -1    0    0  501    0  0.00000000000E+00  0.00000000000E+00  0.90388306206E+03  0.90388306207E+03  0.50400001928E-02 0. -1.
       -1   -1    0    0    0  501  0.00000000000E+00  0.00000000000E+00 -0.90624716826E+03  0.90624716827E+03  0.50400001928E-02 0.  1.
    10030    2    1    2    0    0  0.00000000000E+00  0.00000000000E+00 -0.23641062007E+01  0.18101302303E+04  0.18101286865E+04 0.  0.
        1    1    3    3  502    0  0.41630586350E+03 -0.51484719503E+03 -0.61824275409E+03  0.90587102240E+03  0.50400001928E-02 0.  1.
       -1    1    3    3    0  502 -0.41630586350E+03  0.51484719503E+03  0.61587864788E+03  0.90425920795E+03  0.50400001928E-02 0. -1.
</event>
<event>
 5   0  0.8802655E-05  0.1806545E+04  0.7818609E-02  0.8702827E-01
        2   -1    0    0  501    0  0.00000000000E+00  0.00000000000E+00  0.14705609551E+04  0.14705609551E+04  0.25500000920E-02 0. -1.
       -2   -1    0    0    0  501  0.00000000000E+00  0.00000000000E+00 -0.55482284300E+03  0.55482284301E+03  0.25500000920E-02 0.  1.
    10030    2    1    2    0    0  0.00000000000E+00  0.00000000000E+00  0.91573811214E+03  0.20253837981E+04  0.18065445579E+04 0.  0.
        2    1    3    3  502    0  0.30662446416E+03  0.72874294778E+03 -0.31871428489E+02  0.79126521087E+03  0.25500000920E-02 0.  1.
       -2    1    3    3    0  502 -0.30662446416E+03 -0.72874294778E+03  0.94760954063E+03  0.12341185873E+04  0.25500000920E-02 0. -1.
</event>
<event>
 5   0  0.4535100E-05  0.1688754E+04  0.7818609E-02  0.8767804E-01
       -1   -1    0    0    0  501  0.00000000000E+00  0.00000000000E+00  0.86900736776E+03  0.86900736778E+03  0.50400001928E-02 0. -1.
        1   -1    0    0  501    0  0.00000000000E+00  0.00000000000E+00 -0.82044514343E+03  0.82044514344E+03  0.50400001928E-02 0.  1.
    10030    2    1    2    0    0  0.00000000000E+00  0.00000000000E+00  0.48562224334E+02  0.16894525112E+04  0.16887544221E+04 0.  0.
        1    1    3    3  502    0 -0.43240277435E+03 -0.72069838510E+03  0.10552153381E+03  0.84706145921E+03  0.50400001928E-02 0. -1.
       -1    1    3    3    0  502  0.43240277435E+03  0.72069838510E+03 -0.56959309473E+02  0.84239105201E+03  0.50400001928E-02 0.  1.
</event>
<event>
 5   0  0.4578107E-05  0.1795456E+04  0.7818609E-02  0.8708720E-01
       -1   -1    0    0    0  501  0.00000000000E+00  0.00000000000E+00  0.50064959677E+03  0.50064959679E+03  0.50400001928E-02 0. -1.
        1   -1    0    0  501    0  0.00000000000E+00  0.00000000000E+00 -0.16097394118E+04  0.16097394118E+04  0.50400001928E-02 0.  1.
    10030    2    1    2    0    0  0.00000000000E+00  0.00000000000E+00 -0.11090898150E+04  0.21103890086E+04  0.17954558056E+04 0.  0.
        2    1    3    3  502    0 -0.78401226066E+03 -0.50886019618E+02 -0.44019813227E+02  0.78689411983E+03  0.25500000920E-02 0. -1.
       -2    1    3    3    0  502  0.78401226066E+03  0.50886019618E+02 -0.10650700018E+04  0.13234948888E+04  0.25500000920E-02 0.  1.
</event>
<event>
 5   0  0.9184414E-05  0.1803645E+04  0.7818609E-02  0.8704363E-01
        2   -1    0    0  501    0  0.00000000000E+00  0.00000000000E+00  0.39584911983E+03  0.39584911984E+03  0.25500000920E-02 0.  1.
       -2   -1    0    0    0  501  0.00000000000E+00  0.00000000000E+00 -0.20545309072E+04  0.20545309072E+04  0.25500000920E-02 0. -1.
    10030    2    1    2    0    0  0.00000000000E+00  0.00000000000E+00 -0.16586817874E+04  0.24503800271E+04  0.18036454766E+04 0.  0.
        5    1    3    3  502    0 -0.66331892001E+03  0.55157213027E+03 -0.11863074174E+04  0.14668235010E+04  0.46999998093E+01 0. -1.
       -5    1    3    3    0  502  0.66331892001E+03 -0.55157213027E+03 -0.47237436997E+03  0.98355652605E+03  0.46999998093E+01 0.  1.
</event>
<event>
 5   0  0.4535100E-05  0.1799943E+04  0.7818609E-02  0.8706330E-01
       -1   -1    0    0    0  501  0.00000000000E+00  0.00000000000E+00  0.11634859599E+04  0.11634859599E+04  0.50400001928E-02 0.  1.
        1   -1    0    0  501    0  0.00000000000E+00  0.00000000000E+00 -0.69613954309E+03  0.69613954311E+03  0.50400001928E-02 0. -1.
    10030    2    1    2    0    0  0.00000000000E+00  0.00000000000E+00  0.46734641681E+03  0.18596255030E+04  0.17999428708E+04 0.  0.
        1    1    3    3  502    0 -0.22263994411E+03  0.48828275556E+03 -0.51275042159E+03  0.74222745096E+03  0.50400001928E-02 0. -1.
       -1    1    3    3    0  502  0.22263994411E+03 -0.48828275556E+03  0.98009683840E+03  0.11173980521E+04  0.50400001928E-02 0.  1.
</event>
<event>
 5   0  0.8892280E-05  0.1787462E+04  0.7818609E-02  0.8712996E-01
        2   -1    0    0  501    0  0.00000000000E+00  0.00000000000E+00  0.18703953616E+04  0.18703953616E+04  0.25500000920E-02 0.  1.
       -2   -1    0    0    0  501  0.00000000000E+00  0.00000000000E+00 -0.42705140055E+03  0.42705140056E+03  0.25500000920E-02 0. -1.
    10030    2    1    2    0    0  0.00000000000E+00  0.00000000000E+00  0.14433439610E+04  0.22974467622E+04  0.17874618416E+04 0.  0.
        4    1    3    3  502    0 -0.56453035507E+03 -0.31508319487E+03  0.15148059352E+04  0.16470004783E+04  0.12699999809E+01 0.  1.
       -4    1    3    3    0  502  0.56453035507E+03  0.31508319487E+03 -0.71461974147E+02  0.65044628381E+03  0.12699999809E+01 0. -1.
</event>
<event>
 5   0  0.3270375E-05  0.1799712E+04  0.7818609E-02  0.8706452E-01
        3   -1    0    0  501    0  0.00000000000E+00  0.00000000000E+00  0.75016253271E+03  0.75016253951E+03  0.10100000352E+00 0.  1.
       -3   -1    0    0    0  501  0.00000000000E+00  0.00000000000E+00 -0.10794208160E+04  0.10794208207E+04  0.10100000352E+00 0. -1.
    10030    2    1    2    0    0  0.00000000000E+00  0.00000000000E+00 -0.32925828328E+03  0.18295833602E+04  0.17997122700E+04 0.  0.
        2    1    3    3  502    0 -0.54842396478E+03 -0.99342378276E+02  0.55356911970E+03  0.78554218445E+03  0.25500000920E-02 0.  1.
       -2    1    3    3    0  502  0.54842396478E+03  0.99342378276E+02 -0.88282740298E+03  0.10440411758E+04  0.25500000920E-02 0. -1.
</event>
<event>
 5   0  0.9147432E-05  0.1809686E+04  0.7818609E-02  0.8701165E-01
        2   -1    0    0  501    0  0.00000000000E+00  0.00000000000E+00  0.51185440590E+03  0.51185440591E+03  0.25500000920E-02 0. -1.
       -2   -1    0    0    0  501  0.00000000000E+00  0.00000000000E+00 -0.15995585281E+04  0.15995585281E+04  0.25500000920E-02 0.  1.
    10030    2    1    2    0    0  0.00000000000E+00  0.00000000000E+00 -0.10877041222E+04  0.21114129340E+04  0.18096862492E+04 0.  0.
        3    1    3    3  502    0  0.79974645478E+03 -0.32338062890E+03 -0.86246012112E+03  0.12198388803E+04  0.10100000352E+00 0.  1.
       -3    1    3    3    0  502 -0.79974645478E+03  0.32338062890E+03 -0.22524400106E+03  0.89157405373E+03  0.10100000352E+00 0. -1.
</event>
<event>
 5   0  0.9147432E-05  0.1802521E+04  0.7818609E-02  0.8704960E-01
       -2   -1    0    0    0  501  0.00000000000E+00  0.00000000000E+00  0.69774652547E+03  0.69774652547E+03  0.25500000920E-02 0. -1.
        2   -1    0    0  501    0  0.00000000000E+00  0.00000000000E+00 -0.11641346913E+04  0.11641346913E+04  0.25500000920E-02 0.  1.
    10030    2    1    2    0    0  0.00000000000E+00  0.00000000000E+00 -0.46638816585E+03  0.18618812168E+04  0.18025214962E+04 0.  0.
        3    1    3    3  502    0  0.83680508276E+03 -0.15706916461E+03  0.72102194750E+02  0.85446603542E+03  0.10100000352E+00 0. -1.
       -3    1    3    3    0  502 -0.83680508276E+03  0.15706916461E+03 -0.53849036060E+03  0.10074151814E+04  0.10100000352E+00 0.  1.
</event>
<event>
 5   0  0.4335117E-05  0.1801236E+04  0.7818609E-02  0.8705642E-01
       -1   -1    0    0    0  501  0.00000000000E+00  0.00000000000E+00  0.97073808880E+03  0.97073808882E+03  0.50400001928E-02 0. -1.
        1   -1    0    0  501    0  0.00000000000E+00  0.00000000000E+00 -0.83556315293E+03  0.83556315294E+03  0.50400001928E-02 0.  1.
    10030    2    1    2    0    0  0.00000000000E+00  0.00000000000E+00  0.13517493588E+03  0.18063012418E+04  0.18012362179E+04 0.  0.
        3    1    3    3  502    0 -0.28690556868E+03 -0.10226394390E+03  0.91752030777E+03  0.96675552490E+03  0.10100000352E+00 0. -1.
       -3    1    3    3    0  502  0.28690556868E+03  0.10226394390E+03 -0.78234537189E+03  0.83954571685E+03  0.10100000352E+00 0.  1.
</event>
<event>
 5   0  0.8802655E-05  0.1780276E+04  0.7818609E-02  0.8716860E-01
       -2   -1    0    0    0  501  0.00000000000E+00  0.00000000000E+00  0.48866549061E+03  0.48866549062E+03  0.25500000920E-02 0.  1.
        2   -1    0    0  501    0  0.00000000000E+00  0.00000000000E+00 -0.16214471339E+04  0.16214471339E+04  0.25500000920E-02 0. -1.
    10030    2    1    2    0    0  0.00000000000E+00  0.00000000000E+00 -0.11327816433E+04  0.21101126245E+04  0.17802755508E+04 0.  0.
        2    1    3    3  502    0  0.26074266393E+03 -0.81580503835E+03 -0.27892688973E+03  0.90073570330E+03  0.25500000920E-02 0.  1.
       -2    1    3    3    0  502 -0.26074266393E+03  0.81580503835E+03 -0.85385475353E+03  0.12093769212E+04  0.25500000920E-02 0. -1.
</event>
<event>
 5   0  0.8892280E-05  0.1799376E+04  0.7818609E-02  0.8706631E-01
        2   -1    0    0  501    0  0.00000000000E+00  0.00000000000E+00  0.91377618212E+03  0.91377618213E+03  0.25500000920E-02 0.  1.
       -2   -1    0    0    0  501  0.00000000000E+00  0.00000000000E+00 -0.88581730077E+03  0.88581730077E+03  0.25500000920E-02 0. -1.
    10030    2    1    2    0    0  0.00000000000E+00  0.00000000000E+00  0.27958881355E+02  0.17995934829E+04  0.17993762821E+04 0.  0.
        4    1    3    3  502    0  0.43636352209E+03  0.69792998023E+03 -0.34926924379E+03  0.89415322975E+03  0.12699999809E+01 0. -1.
       -4    1    3    3    0  502 -0.43636352209E+03 -0.69792998023E+03  0.37722812515E+03  0.90544025315E+03  0.12699999809E+01 0.  1.
</event>
<event>
 5   0  0.8892280E-05  0.1779158E+04  0.7818609E-02  0.8717462E-01
       -2   -1    0    0    0  501  0.00000000000E+00  0.00000000000E+00  0.51848376019E+03  0.51848376020E+03  0.25500000920E-02 0. -1.
        2   -1    0    0  501    0  0.00000000000E+00  0.00000000000E+00 -0.15262780063E+04  0.15262780063E+04  0.25500000920E-02 0.  1.
    10030    2    1    2    0    0  0.00000000000E+00  0.00000000000E+00 -0.10077942461E+04  0.20447617665E+04  0.17791575083E+04 0.  0.
        4    1    3    3  502    0  0.35342142899E+03  0.32014376479E+02  0.43361157007E+03  0.56031440583E+03  0.12699999809E+01 0. -1.
       -4    1    3    3    0  502 -0.35342142899E+03 -0.32014376479E+02 -0.14414058162E+04  0.14844473607E+04  0.12699999809E+01 0.  1.
</event>
<event>
 5   0  0.4494757E-05  0.1800625E+04  0.7818609E-02  0.8705967E-01
        1   -1    0    0  501    0  0.00000000000E+00  0.00000000000E+00  0.15053018958E+04  0.15053018958E+04  0.50400001928E-02 0.  1.
       -1   -1    0    0    0  501  0.00000000000E+00  0.00000000000E+00 -0.53847199252E+03  0.53847199255E+03  0.50400001928E-02 0. -1.
    10030    2    1    2    0    0  0.00000000000E+00  0.00000000000E+00  0.96682990326E+03  0.20437738883E+04  0.18006253483E+04 0.  0.
        4    1    3    3  502    0 -0.11658911893E+03 -0.79474468487E+03  0.94495616247E+03  0.12402241324E+04  0.12699999809E+01 0.  1.
       -4    1    3    3    0  502  0.11658911893E+03  0.79474468487E+03  0.21873740789E+02  0.80354975590E+03  0.12699999809E+01 0. -1.
</event>
<event>
 5   0  0.4335117E-05  0.1793354E+04  0.7818609E-02  0.8709842E-01
       -1   -1    0    0    0  501  0.00000000000E+00  0.00000000000E+00  0.47409391752E+03  0.47409391754E+03  0.50400001928E-02 0.  1.
        1   -1    0    0  501    0  0.00000000000E+00  0.00000000000E+00 -0.16959285403E+04  0.16959285403E+04  0.50400001928E-02 0. -1.
    10030    2    1    2    0    0  0.00000000000E+00  0.00000000000E+00 -0.12218346228E+04  0.21700224579E+04  0.17933537359E+04 0.  0.
        3    1    3    3  502    0  0.57258222257E+03  0.47900568207E+03 -0.12119685417E+04  0.14234340875E+04  0.10100000352E+00 0. -1.
       -3    1    3    3    0  502 -0.57258222257E+03 -0.47900568207E+03 -0.98660810824E+01  0.74658837040E+03  0.10100000352E+00 0.  1.
</event>
<event>
 5   0  0.4535100E-05  0.1806253E+04  0.7818609E-02  0.8702981E-01
       -1   -1    0    0    0  501  0.00000000000E+00  0.00000000000E+00  0.11158420741E+04  0.11158420741E+04  0.50400001928E-02 0. -1.
        1   -1    0    0  501    0  0.00000000000E+00  0.00000000000E+00 -0.73096162981E+03  0.73096162982E+03  0.50400001928E-02 0.  1.
    10030    2    1    2    0    0  0.00000000000E+00  0.00000000000E+00  0.38488044431E+03  0.18468037040E+04  0.18062532947E+04 0.  0.
        1    1    3    3  502    0  0.76962991083E+03 -0.47016666604E+03  0.24094841893E+03  0.93351113229E+03  0.50400001928E-02 0. -1.
       -1    1    3    3    0  502 -0.76962991083E+03  0.47016666604E+03  0.14393202538E+03  0.91329257166E+03  0.50400001928E-02 0.  1.
</event>
<event>
 5   0  0.4494757E-05  0.1805904E+04  0.7818609E-02  0.8703166E-01
       -1   -1    0    0    0  501  0.00000000000E+00  0.00000000000E+00  0.12101471352E+04  0.12101471352E+04  0.50400001928E-02 0.  1.
        1   -1    0    0  501    0  0.00000000000E+00  0.00000000000E+00 -0.67373782061E+03  0.67373782063E+03  0.50400001928E-02 0. -1.
    10030    2    1    2    0    0  0.00000000000E+00  0.00000000000E+00  0.53640931461E+03  0.18838849559E+04  0.18059035340E+04 0.  0.
        4    1    3    3  502    0  0.15392203839E+03 -0.40144938588E+03  0.10965108318E+04  0.11777908221E+04  0.12699999809E+01 0.  1.
       -4    1    3    3    0  502 -0.15392203839E+03  0.40144938588E+03 -0.56010151720E+03  0.70609413381E+03  0.12699999809E+01 0. -1.
</event>
<event>
 5   0  0.4535100E-05  0.1787872E+04  0.7818609E-02  0.8712776E-01
       -1   -1    0    0    0  501  0.00000000000E+00  0.00000000000E+00  0.66898332887E+03  0.66898332889E+03  0.50400001928E-02 0. -1.
        1   -1    0    0  501    0  0.00000000000E+00  0.00000000000E+00 -0.11945307935E+04  0.11945307936E+04  0.50400001928E-02 0.  1.
    10030    2    1    2    0    0  0.00000000000E+00  0.00000000000E+00 -0.52554746468E+03  0.18635141224E+04  0.17878715689E+04 0.  0.
        1    1    3    3  502    0  0.56758385904E+03 -0.68320121770E+03 -0.15747555078E+03  0.90206091259E+03  0.50400001928E-02 0. -1.
       -1    1    3    3    0  502 -0.56758385904E+03  0.68320121770E+03 -0.36807191389E+03  0.96145320985E+03  0.50400001928E-02 0.  1.
</event>
<event>
 5   0  0.8802655E-05  0.1797406E+04  0.7818609E-02  0.8707680E-01
        2   -1    0    0  501    0  0.00000000000E+00  0.00000000000E+00  0.13205383155E+04  0.13205383155E+04  0.25500000920E-02 0.  1.
       -2   -1    0    0    0  501  0.00000000000E+00  0.00000000000E+00 -0.61161948312E+03  0.61161948312E+03  0.25500000920E-02 0. -1.
    10030    2    1    2    0    0  0.00000000000E+00  0.00000000000E+00  0.70891883237E+03  0.19321577986E+04  0.17974058662E+04 0.  0.
        2    1    3    3  502    0  0.79615562864E+03 -0.37541076673E+03  0.54935223988E+03  0.10375860987E+04  0.25500000920E-02 0.  1.
       -2    1    3    3    0  502 -0.79615562864E+03  0.37541076673E+03  0.15956659249E+03  0.89457169989E+03  0.25500000920E-02 0. -1.
</event>
<event>
 5   0  0.4494757E-05  0.1797370E+04  0.7818609E-02  0.8707699E-01
       -1   -1    0    0    0  501  0.00000000000E+00  0.00000000000E+00  0.29844296369E+03  0.29844296373E+03  0.50400001928E-02 0. -1.
        1   -1    0    0  501    0  0.00000000000E+00  0.00000000000E+00 -0.27061609621E+04  0.27061609621E+04  0.50400001928E-02 0.  1.
    10030    2    1    2    0    0  0.00000000000E+00  0.00000000000E+00 -0.24077179984E+04  0.30046039258E+04  0.17973699650E+04 0.  0.
        4    1    3    3  502    0 -0.82698397638E+03 -0.28095001829E+03 -0.85004298377E+03  0.12187740140E+04  0.12699999809E+01 0. -1.
       -4    1    3    3    0  502  0.82698397638E+03  0.28095001829E+03 -0.15576750146E+04  0.17858299118E+04  0.12699999809E+01 0.  1.
</event>
<event>
 5   0  0.8802655E-05  0.1792050E+04  0.7818609E-02  0.8710539E-01
       -2   -1    0    0    0  501  0.00000000000E+00  0.00000000000E+00  0.54780896899E+03  0.54780896900E+03  0.25500000920E-02 0.  1.
        2   -1    0    0  501    0  0.00000000000E+00  0.00000000000E+00 -0.14655856989E+04  0.14655856989E+04  0.25500000920E-02 0. -1.
    10030    2    1    2    0    0  0.00000000000E+00  0.00000000000E+00 -0.91777672987E+03  0.20133946679E+04  0.17920502121E+04 0.  0.
        2    1    3    3  502    0  0.83010176519E+03  0.13964826154E+03 -0.80388313328E+03  0.11639581906E+04  0.25500000920E-02 0. -1.
       -2    1    3    3    0  502 -0.83010176519E+03 -0.13964826154E+03 -0.11389359659E+03  0.84943647725E+03  0.25500000920E-02 0.  1.
</event>
<event>
 5   0  0.4535100E-05  0.1800508E+04  0.7818609E-02  0.8706029E-01
       -1   -1    0    0    0  501  0.00000000000E+00  0.00000000000E+00  0.85469705753E+03  0.85469705755E+03  0.50400001928E-02 0. -1.
        1   -1    0    0  501    0  0.00000000000E+00  0.00000000000E+00 -0.94823898220E+03  0.94823898222E+03  0.50400001928E-02 0.  1.
    10030    2    1    2    0    0  0.00000000000E+00  0.00000000000E+00 -0.93541924670E+02  0.18029360398E+04  0.18005077817E+04 0.  0.
        1    1    3    3  502    0  0.24562189867E+03 -0.20945820998E+03  0.79475175021E+03  0.85780720638E+03  0.50400001928E-02 0. -1.
       -1    1    3    3    0  502 -0.24562189867E+03  0.20945820998E+03 -0.88829367488E+03  0.94512883338E+03  0.50400001928E-02 0.  1.
</event>
<event>
 5   0  0.4335117E-05  0.1799241E+04  0.7818609E-02  0.8706703E-01
        1   -1    0    0  501    0  0.00000000000E+00  0.00000000000E+00  0.49190474987E+03  0.49190474990E+03  0.50400001928E-02 0.  1.
       -1   -1    0    0    0  501  0.00000000000E+00  0.00000000000E+00 -0.16452710700E+04  0.16452710700E+04  0.50400001928E-02 0. -1.
    10030    2    1    2    0    0  0.00000000000E+00  0.00000000000E+00 -0.11533663201E+04  0.21371758199E+04  0.17992405667E+04 0.  0.
        3    1    3    3  502    0 -0.11267113122E+03 -0.53332557205E+03  0.27340651157E+03  0.60982135120E+03  0.10100000352E+00 0.  1.
       -3    1    3    3    0  502  0.11267113122E+03  0.53332557205E+03 -0.14267728316E+04  0.15273544687E+04  0.10100000352E+00 0. -1.
</event>
<event>
 5   0  0.8802655E-05  0.1809523E+04  0.7818609E-02  0.8701252E-01
        2   -1    0    0  501    0  0.00000000000E+00  0.00000000000E+00  0.66966583655E+03  0.66966583655E+03  0.25500000920E-02 0. -1.
       -2   -1    0    0    0  501  0.00000000000E+00  0.00000000000E+00 -0.12223906232E+04  0.12223906232E+04  0.25500000920E-02 0.  1.
    10030    2    1    2    0    0  0.00000000000E+00  0.00000000000E+00 -0.55272478666E+03  0.18920564598E+04  0.18095228535E+04 0.  0.
        2    1    3    3  502    0  0.46401516131E+03  0.27160850007E+03 -0.10372279409E+04  0.11682992120E+04  0.25500000920E-02 0.  1.
       -2    1    3    3    0  502 -0.46401516131E+03 -0.27160850007E+03  0.48450315427E+03  0.72375724780E+03  0.25500000920E-02 0. -1.
</event>
<event>
 5   0  0.8893075E-05  0.1806309E+04  0.7818609E-02  0.8702951E-01
       -2   -1    0    0    0  501  0.00000000000E+00  0.00000000000E+00  0.10591189229E+04  0.10591189229E+04  0.25500000920E-02 0. -1.
        2   -1    0    0  501    0  0.00000000000E+00  0.00000000000E+00 -0.77015746679E+03  0.77015746679E+03  0.25500000920E-02 0.  1.
    10030    2    1    2    0    0  0.00000000000E+00  0.00000000000E+00  0.28896145609E+03  0.18292763897E+04  0.18063093275E+04 0.  0.
        1    1    3    3  502    0  0.32290946579E+02  0.18627962502E+03  0.10388550970E+04  0.10559179497E+04  0.50400001928E-02 0. -1.
       -1    1    3    3    0  502 -0.32290946579E+02 -0.18627962502E+03 -0.74989364092E+03  0.77335843995E+03  0.50400001928E-02 0.  1.
</event>
<event>
 5   0  0.9184414E-05  0.1795250E+04  0.7818609E-02  0.8708829E-01
        2   -1    0    0  501    0  0.00000000000E+00  0.00000000000E+00  0.81603607679E+03  0.81603607680E+03  0.25500000920E-02 0. -1.
       -2   -1    0    0    0  501  0.00000000000E+00  0.00000000000E+00 -0.98737184681E+03  0.98737184682E+03  0.25500000920E-02 0.  1.
    10030    2    1    2    0    0  0.00000000000E+00  0.00000000000E+00 -0.17133577002E+03  0.18034079236E+04  0.17952504541E+04 0.  0.
        5    1    3    3  502    0 -0.89095550569E+03 -0.45720051861E+02 -0.18519847937E+03  0.91116003151E+03  0.46999998093E+01 0.  1.
       -5    1    3    3    0  502  0.89095550569E+03  0.45720051861E+02  0.13862709344E+02  0.89224789211E+03  0.46999998093E+01 0. -1.
</event>
<event>
 5   0  0.4494757E-05  0.1798430E+04  0.7818609E-02  0.8707135E-01
       -1   -1    0    0    0  501  0.00000000000E+00  0.00000000000E+00  0.71165812364E+03  0.71165812366E+03  0.50400001928E-02 0. -1.
        1   -1    0    0  501    0  0.00000000000E+00  0.00000000000E+00 -0.11362018295E+04  0.11362018295E+04  0.50400001928E-02 0.  1.
    10030    2    1    2    0    0  0.00000000000E+00  0.00000000000E+00 -0.42454370585E+03  0.18478599532E+04  0.17984296062E+04 0.  0.
        4    1    3    3  502    0  0.53454366505E+03  0.68565283366E+03 -0.44821100334E+03  0.97813672591E+03  0.12699999809E+01 0.  1.
       -4    1    3    3    0  502 -0.53454366505E+03 -0.68565283366E+03  0.23667297490E+02  0.86972322725E+03  0.12699999809E+01 0. -1.
</event>
<event>
 5   0  0.4535100E-05  0.1800609E+04  0.7818609E-02  0.8705976E-01
       -1   -1    0    0    0  501  0.00000000000E+00  0.00000000000E+00  0.63255696233E+03  0.63255696235E+03  0.50400001928E-02 0.  1.
        1   -1    0    0  501    0  0.00000000000E+00  0.00000000000E+00 -0.12813839462E+04  0.12813839462E+04  0.50400001928E-02 0. -1.
    10030    2    1    2    0    0  0.00000000000E+00  0.00000000000E+00 -0.64882698384E+03  0.19139409085E+04  0.18006091598E+04 0.  0.
        1    1    3    3  502    0 -0.32349167909E+02 -0.78419906985E+03 -0.79323386785E+03  0.11159008105E+04  0.50400001928E-02 0. -1.
       -1    1    3    3    0  502  0.32349167909E+02  0.78419906985E+03  0.14440688401E+03  0.79804009799E+03  0.50400001928E-02 0.  1.
</event>
<event>
 5   0  0.4335117E-05  0.1766734E+04  0.7818609E-02  0.8724193E-01
        1   -1    0    0  501    0  0.00000000000E+00  0.00000000000E+00  0.94271490988E+03  0.94271490990E+03  0.50400001928E-02 0. -1.
       -1   -1    0    0    0  501  0.00000000000E+00  0.00000000000E+00 -0.82775496794E+03  0.82775496796E+03  0.50400001928E-02 0.  1.
    10030    2    1    2    0    0  0.00000000000E+00  0.00000000000E+00  0.11495994194E+03  0.17704698779E+04  0.17667336529E+04 0.  0.
        3    1    3    3  502    0 -0.19715437584E+03  0.48034785111E+03  0.77364718454E+03  0.93173702423E+03  0.10100000352E+00 0. -1.
       -3    1    3    3    0  502  0.19715437584E+03 -0.48034785111E+03 -0.65868724260E+03  0.83873285362E+03  0.10100000352E+00 0.  1.
</event>
<event>
 5   0  0.9147432E-05  0.1810702E+04  0.7818609E-02  0.8700629E-01
       -2   -1    0    0    0  501  0.00000000000E+00  0.00000000000E+00  0.61639132355E+03  0.61639132356E+03  0.25500000920E-02 0.  1.
        2   -1    0    0  501    0  0.00000000000E+00  0.00000000000E+00 -0.13297730661E+04  0.13297730661E+04  0.25500000920E-02 0. -1.
    10030    2    1    2    0    0  0.00000000000E+00  0.00000000000E+00 -0.71338174256E+03  0.19461643897E+04  0.18107021624E+04 0.  0.
        3    1    3    3  502    0 -0.27529566997E+03 -0.16440154094E+03  0.55331696236E+03  0.63951172281E+03  0.10100000352E+00 0.  1.
       -3    1    3    3    0  502  0.27529566997E+03  0.16440154094E+03 -0.12666987049E+04  0.13066526669E+04  0.10100000352E+00 0. -1.
</event>
<event>
 5   0  0.8802655E-05  0.1788299E+04  0.7818609E-02  0.8712547E-01
        2   -1    0    0  501    0  0.00000000000E+00  0.00000000000E+00  0.11262687479E+04  0.11262687479E+04  0.25500000920E-02 0.  1.
       -2   -1    0    0    0  501  0.00000000000E+00  0.00000000000E+00 -0.70986888858E+03  0.70986888858E+03  0.25500000920E-02 0. -1.
    10030    2    1    2    0    0  0.00000000000E+00  0.00000000000E+00  0.41639985932E+03  0.18361376365E+04  0.17882987942E+04 0.  0.
        2    1    3    3  502    0 -0.61704655644E+03  0.60273013773E+03 -0.33627889725E+02  0.86322703080E+03  0.25500000920E-02 0. -1.
       -2    1    3    3    0  502  0.61704655644E+03 -0.60273013773E+03  0.45002774905E+03  0.97291060569E+03  0.25500000920E-02 0.  1.
</event>
<event>
 5   0  0.4578107E-05  0.1812668E+04  0.7818609E-02  0.8699592E-01
        1   -1    0    0  501    0  0.00000000000E+00  0.00000000000E+00  0.14274395695E+04  0.14274395695E+04  0.50400001928E-02 0.  1.
       -1   -1    0    0    0  501  0.00000000000E+00  0.00000000000E+00 -0.57546461567E+03  0.57546461570E+03  0.50400001928E-02 0. -1.
    10030    2    1    2    0    0  0.00000000000E+00  0.00000000000E+00  0.85197495381E+03  0.20029041852E+04  0.18126676069E+04 0.  0.
        2    1    3    3  502    0  0.33023700813E+03  0.82612384797E+03  0.61706328061E+03  0.10827299691E+04  0.25500000920E-02 0.  1.
       -2    1    3    3    0  502 -0.33023700813E+03 -0.82612384797E+03  0.23491167319E+03  0.92017421608E+03  0.25500000920E-02 0. -1.
</event>
<event>
 5   0  0.4578107E-05  0.1802444E+04  0.7818609E-02  0.8705001E-01
       -1   -1    0    0    0  501  0.00000000000E+00  0.00000000000E+00  0.44565241556E+03  0.44565241559E+03  0.50400001928E-02 0. -1.
        1   -1    0    0  501    0  0.00000000000E+00  0.00000000000E+00 -0.18224996381E+04  0.18224996381E+04  0.50400001928E-02 0.  1.
    10030    2    1    2    0    0  0.00000000000E+00  0.00000000000E+00 -0.13768472225E+04  0.22681520537E+04  0.18024443027E+04 0.  0.
        2    1    3    3  502    0  0.84478959934E+03 -0.14660807105E+03 -0.33915244504E+03  0.92205627520E+03  0.25500000920E-02 0. -1.
       -2    1    3    3    0  502 -0.84478959934E+03  0.14660807105E+03 -0.10376947775E+04  0.13460957785E+04  0.25500000920E-02 0.  1.
</event>
<event>
 5   0  0.8892280E-05  0.1794744E+04  0.7818609E-02  0.8709100E-01
       -2   -1    0    0    0  501  0.00000000000E+00  0.00000000000E+00  0.81628133196E+03  0.81628133197E+03  0.25500000920E-02 0. -1.
        2   -1    0    0  501    0  0.00000000000E+00  0.00000000000E+00 -0.98651824108E+03  0.98651824109E+03  0.25500000920E-02 0.  1.
    10030    2    1    2    0    0  0.00000000000E+00  0.00000000000E+00 -0.17023690912E+03  0.18027995731E+04  0.17947439080E+04 0.  0.
        4    1    3    3  502    0  0.76242698671E+03 -0.21480130762E+03 -0.50872245101E+03  0.94140037013E+03  0.12699999809E+01 0.  1.
       -4    1    3    3    0  502 -0.76242698671E+03  0.21480130762E+03  0.33848554189E+03  0.86139920292E+03  0.12699999809E+01 0. -1.
</event>
<event>
 5   0  0.4335117E-05  0.1801880E+04  0.7818609E-02  0.8705301E-01
        1   -1    0    0  501    0  0.00000000000E+00  0.00000000000E+00  0.13777126407E+04  0.13777126407E+04  0.50400001928E-02 0. -1.
       -1   -1    0    0    0  501  0.00000000000E+00  0.00000000000E+00 -0.58915954804E+03  0.58915954806E+03  0.50400001928E-02 0.  1.
    10030    2    1    2    0    0  0.00000000000E+00  0.00000000000E+00  0.78855309265E+03  0.19668721888E+04  0.18018796372E+04 0.  0.
        3    1    3    3  502    0  0.35579055649E+03 -0.79435242373E+03  0.64819165339E+03  0.10852350542E+04  0.10100000352E+00 0. -1.
       -3    1    3    3    0  502 -0.35579055649E+03  0.79435242373E+03  0.14036143926E+03  0.88163713454E+03  0.10100000352E+00 0.  1.
</event>
<event>
 5   0  0.8893075E-05  0.1789188E+04  0.7818609E-02  0.8712070E-01
       -2   -1    0    0    0  501  0.00000000000E+00  0.00000000000E+00  0.43088301607E+03  0.43088301608E+03  0.25500000920E-02 0.  1.
        2   -1    0    0  501    0  0.00000000000E+00  0.00000000000E+00 -0.18573450433E+04  0.18573450433E+04  0.25500000920E-02 0. -1.
    10030    2    1    2    0    0  0.00000000000E+00  0.00000000000E+00 -0.14264620272E+04  0.22882280594E+04  0.17891880104E+04 0.  0.
        1    1    3    3  502    0  0.45989754062E+03  0.29834516196E+03  0.19090548725E+03  0.58048297875E+03  0.50400001928E-02 0.  1.
       -1    1    3    3    0  502 -0.45989754062E+03 -0.29834516196E+03 -0.16173675145E+04  0.17077450806E+04  0.50400001928E-02 0. -1.
</event>
<event>
 5   0  0.4578107E-05  0.1811021E+04  0.7818609E-02  0.8700461E-01
        1   -1    0    0  501    0  0.00000000000E+00  0.00000000000E+00  0.10723898169E+04  0.10723898169E+04  0.50400001928E-02 0.  1.
       -1   -1    0    0    0  501  0.00000000000E+00  0.00000000000E+00 -0.76459972076E+03  0.76459972077E+03  0.50400001928E-02 0. -1.
    10030    2    1    2    0    0  0.00000000000E+00  0.00000000000E+00  0.30779009611E+03  0.18369895376E+04  0.18110206565E+04 0.  0.
        2    1    3    3  502    0 -0.52372230536E+02  0.62477406492E+02  0.10686597119E+04  0.10717648327E+04  0.25500000920E-02 0.  1.
       -2    1    3    3    0  502  0.52372230536E+02 -0.62477406492E+02 -0.76086961576E+03  0.76522470494E+03  0.25500000920E-02 0. -1.
</event>
<event>
 5   0  0.4494757E-05  0.1799838E+04  0.7818609E-02  0.8706386E-01
        1   -1    0    0  501    0  0.00000000000E+00  0.00000000000E+00  0.94820515759E+03  0.94820515761E+03  0.50400001928E-02 0. -1.
       -1   -1    0    0    0  501  0.00000000000E+00  0.00000000000E+00 -0.85409196045E+03  0.85409196047E+03  0.50400001928E-02 0.  1.
    10030    2    1    2    0    0  0.00000000000E+00  0.00000000000E+00  0.94113197139E+02  0.18022971181E+04  0.17998382172E+04 0.  0.
        4    1    3    3  502    0 -0.28987191374E+03 -0.22396937637E+03  0.87016789124E+03  0.94413017099E+03  0.12699999809E+01 0. -1.
       -4    1    3    3    0  502  0.28987191374E+03  0.22396937637E+03 -0.77605469410E+03  0.85816694708E+03  0.12699999809E+01 0.  1.
</event>
<event>
 5   0  0.8892280E-05  0.1802275E+04  0.7818609E-02  0.8705091E-01
       -2   -1    0    0    0  501  0.00000000000E+00  0.00000000000E+00  0.50267697857E+03  0.50267697858E+03  0.25500000920E-02 0.  1.
        2   -1    0    0  501    0  0.00000000000E+00  0.00000000000E+00 -0.16154476983E+04  0.16154476983E+04  0.25500000920E-02 0. -1.
    10030    2    1    2    0    0  0.00000000000E+00  0.00000000000E+00 -0.11127707197E+04  0.21181246768E+04  0.18022745274E+04 0.  0.
        4    1    3    3  502    0  0.57369687740E+03 -0.45881221447E+03  0.57012276687E+02  0.73680985870E+03  0.12699999809E+01 0.  1.
       -4    1    3    3    0  502 -0.57369687740E+03  0.45881221447E+03 -0.11697829964E+04  0.13813148181E+04  0.12699999809E+01 0. -1.
</event>
<event>
 5   0  0.8802655E-05  0.1807289E+04  0.7818609E-02  0.8702433E-01
        2   -1    0    0  501    0  0.00000000000E+00  0.00000000000E+00  0.12036471414E+04  0.12036471414E+04  0.25500000920E-02 0. -1.
       -2   -1    0    0    0  501  0.00000000000E+00  0.00000000000E+00 -0.67841615424E+03  0.67841615424E+03  0.25500000920E-02 0.  1.
    10030    2    1    2    0    0  0.00000000000E+00  0.00000000000E+00  0.52523098714E+03  0.18820632956E+04  0.18072893124E+04 0.  0.
        2    1    3    3  502    0 -0.10121179607E+03  0.22669596781E+03 -0.64220496317E+03  0.68852168027E+03  0.25500000920E-02 0.  1.
       -2    1    3    3    0  502  0.10121179607E+03 -0.22669596781E+03  0.11674359503E+04  0.11935416153E+04  0.25500000920E-02 0. -1.
</event>
<event>
 5   0  0.4623665E-05  0.1798613E+04  0.7818609E-02  0.8707037E-01
        1   -1    0    0  501    0  0.00000000000E+00  0.00000000000E+00  0.13279026839E+04  0.13279026839E+04  0.50400001928E-02 0. -1.
       -1   -1    0    0    0  501  0.00000000000E+00  0.00000000000E+00 -0.60904507032E+03  0.60904507034E+03  0.50400001928E-02 0.  1.
    10030    2    1    2    0    0  0.00000000000E+00  0.00000000000E+00  0.71885761359E+03  0.19369477543E+04  0.17986134477E+04 0.  0.
        5    1    3    3  502    0  0.79371404620E+03  0.41095306803E+03  0.46639645239E+03  0.10081726797E+04  0.46999998093E+01 0. -1.
       -5    1    3    3    0  502 -0.79371404620E+03 -0.41095306803E+03  0.25246116120E+03  0.92877507458E+03  0.46999998093E+01 0.  1.
</event>
<event>
 5   0  0.9184414E-05  0.1800966E+04  0.7818609E-02  0.8705786E-01
       -2   -1    0    0    0  501  0.00000000000E+00  0.00000000000E+00  0.14588097801E+04  0.14588097801E+04  0.25500000920E-02 0.  1.
        2   -1    0    0  501    0  0.00000000000E+00  0.00000000000E+00 -0.55584314163E+03  0.55584314163E+03  0.25500000920E-02 0. -1.
    10030    2    1    2    0    0  0.00000000000E+00  0.00000000000E+00  0.90296663849E+03  0.20146529218E+04  0.18009657534E+04 0.  0.
        5    1    3    3  502    0  0.34528055282E+03  0.54743279893E+02 -0.47681663982E+03  0.59126278832E+03  0.46999998093E+01 0. -1.
       -5    1    3    3    0  502 -0.34528055282E+03 -0.54743279893E+02  0.13797832783E+04  0.14233901334E+04  0.46999998093E+01 0.  1.
</event>
<event>
 5   0  0.8802655E-05  0.1797730E+04  0.7818609E-02  0.8707507E-01
        2   -1    0    0  501    0  0.00000000000E+00  0.00000000000E+00  0.64245732683E+03  0.64245732683E+03  0.25500000920E-02 0.  1.
       -2   -1    0    0    0  501  0.00000000000E+00  0.00000000000E+00 -0.12576063175E+04  0.12576063175E+04  0.25500000920E-02 0. -1.
    10030    2    1    2    0    0  0.00000000000E+00  0.00000000000E+00 -0.61514899066E+03  0.19000636443E+04  0.17977301165E+04 0.  0.
        2    1    3    3  502    0  0.59831177622E+03 -0.66288124690E+03 -0.19891233091E+03  0.91485225280E+03  0.25500000920E-02 0. -1.
       -2    1    3    3    0  502 -0.59831177622E+03  0.66288124690E+03 -0.41623665975E+03  0.98521139152E+03  0.25500000920E-02 0.  1.
</event>
<event>
 5   0  0.3270375E-05  0.1804344E+04  0.7818609E-02  0.8703993E-01
       -4   -1    0    0    0  501  0.00000000000E+00  0.00000000000E+00  0.55711147215E+03  0.55711291971E+03  0.12699999809E+01 0.  1.
        4   -1    0    0  501    0  0.00000000000E+00  0.00000000000E+00 -0.14609504042E+04  0.14609509563E+04  0.12699999809E+01 0. -1.
    10030    2    1    2    0    0  0.00000000000E+00  0.00000000000E+00 -0.90383893210E+03  0.20180638760E+04  0.18043439229E+04 0.  0.
        2    1    3    3  502    0  0.54351293564E+03 -0.25353843599E+03 -0.12057117315E+04  0.13466361161E+04  0.25500000920E-02 0. -1.
       -2    1    3    3    0  502 -0.54351293564E+03  0.25353843599E+03  0.30187279937E+03  0.67142775988E+03  0.25500000920E-02 0.  1.
</event>
<event>
 5   0  0.4335117E-05  0.1801865E+04  0.7818609E-02  0.8705308E-01
        1   -1    0    0  501    0  0.00000000000E+00  0.00000000000E+00  0.84933434361E+03  0.84933434363E+03  0.50400001928E-02 0.  1.
       -1   -1    0    0    0  501  0.00000000000E+00  0.00000000000E+00 -0.95566556254E+03  0.95566556255E+03  0.50400001928E-02 0. -1.
    10030    2    1    2    0    0  0.00000000000E+00  0.00000000000E+00 -0.10633121893E+03  0.18049999062E+04  0.18018652372E+04 0.  0.
        3    1    3    3  502    0 -0.28823057783E+03 -0.77746758633E+03  0.29979215947E+03  0.88170747013E+03  0.10100000352E+00 0.  1.
       -3    1    3    3    0  502  0.28823057783E+03  0.77746758633E+03 -0.40612337840E+03  0.92329243606E+03  0.10100000352E+00 0. -1.
</event>
<event>
 5   0  0.8893075E-05  0.1790737E+04  0.7818609E-02  0.8711241E-01
       -2   -1    0    0    0  501  0.00000000000E+00  0.00000000000E+00  0.11917905329E+04  0.11917905329E+04  0.25500000920E-02 0.  1.
        2   -1    0    0  501    0  0.00000000000E+00  0.00000000000E+00 -0.67267283990E+03  0.67267283990E+03  0.25500000920E-02 0. -1.
    10030    2    1    2    0    0  0.00000000000E+00  0.00000000000E+00  0.51911769304E+03  0.18644633728E+04  0.17907374150E+04 0.  0.
        1    1    3    3  502    0 -0.80842650424E+03  0.13564505565E+03 -0.11545363291E+03  0.82781793605E+03  0.50400001928E-02 0. -1.
       -1    1    3    3    0  502  0.80842650424E+03 -0.13564505565E+03  0.63457132594E+03  0.10366454368E+04  0.50400001928E-02 0.  1.
</event>
<event>
 5   0  0.4335117E-05  0.1802628E+04  0.7818609E-02  0.8704903E-01
        1   -1    0    0  501    0  0.00000000000E+00  0.00000000000E+00  0.12944574447E+04  0.12944574448E+04  0.50400001928E-02 0. -1.
       -1   -1    0    0    0  501  0.00000000000E+00  0.00000000000E+00 -0.62757334642E+03  0.62757334644E+03  0.50400001928E-02 0.  1.
    10030    2    1    2    0    0  0.00000000000E+00  0.00000000000E+00  0.66688409833E+03  0.19220307912E+04  0.18026280708E+04 0.  0.
        3    1    3    3  502    0  0.68083566735E+02 -0.89342027619E+03  0.43753997770E+03  0.99713409543E+03  0.10100000352E+00 0.  1.
       -3    1    3    3    0  502 -0.68083566735E+02  0.89342027619E+03  0.22934412062E+03  0.92489669577E+03  0.10100000352E+00 0. -1.
</event>
<event>
 5   0  0.8802655E-05  0.1814434E+04  0.7818609E-02  0.8698661E-01
       -2   -1    0    0    0  501  0.00000000000E+00  0.00000000000E+00  0.36041582554E+03  0.36041582555E+03  0.25500000920E-02 0.  1.
        2   -1    0    0  501    0  0.00000000000E+00  0.00000000000E+00 -0.22835930014E+04  0.22835930014E+04  0.25500000920E-02 0. -1.
    10030    2    1    2    0    0  0.00000000000E+00  0.00000000000E+00 -0.19231771759E+04  0.26440088270E+04  0.18144344098E+04 0.  0.
        2    1    3    3  502    0 -0.21038130047E+03 -0.87468094131E+03 -0.79092706344E+03  0.11978700515E+04  0.25500000920E-02 0.  1.
       -2    1    3    3    0  502  0.21038130047E+03  0.87468094131E+03 -0.11322501124E+04  0.14461387754E+04  0.25500000920E-02 0. -1.
</event>
<event>
 5   0  0.9147432E-05  0.1794135E+04  0.7818609E-02  0.8709425E-01
        2   -1    0    0  501    0  0.00000000000E+00  0.00000000000E+00  0.10529738201E+04  0.10529738201E+04  0.25500000920E-02 0. -1.
       -2   -1    0    0    0  501  0.00000000000E+00  0.00000000000E+00 -0.76424478206E+03  0.76424478206E+03  0.25500000920E-02 0.  1.
    10030    2    1    2    0    0  0.00000000000E+00  0.00000000000E+00  0.28872903806E+03  0.18172186022E+04  0.17941346077E+04 0.  0.
        3    1    3    3  502    0 -0.16557328179E+03 -0.51890139658E+03 -0.57758724974E+03  0.79390189084E+03  0.10100000352E+00 0.  1.
       -3    1    3    3    0  502  0.16557328179E+03  0.51890139658E+03  0.86631628780E+03  0.10233167113E+04  0.10100000352E+00 0. -1.
</event>
<event>
 5   0  0.8893075E-05  0.1796167E+04  0.7818609E-02  0.8708341E-01
       -2   -1    0    0    0  501  0.00000000000E+00  0.00000000000E+00  0.10992287196E+04  0.10992287196E+04  0.25500000920E-02 0. -1.
        2   -1    0    0  501    0  0.00000000000E+00  0.00000000000E+00 -0.73374513010E+03  0.73374513010E+03  0.25500000920E-02 0.  1.
    10030    2    1    2    0    0  0.00000000000E+00  0.00000000000E+00  0.36548358951E+03  0.18329738497E+04  0.17961667182E+04 0.  0.
        1    1    3    3  502    0  0.16970658789E+03 -0.87396840326E+03  0.30319714159E+03  0.94050497211E+03  0.50400001928E-02 0.  1.
       -1    1    3    3    0  502 -0.16970658789E+03  0.87396840326E+03  0.62286447915E+02  0.89246887760E+03  0.50400001928E-02 0. -1.
</event>
<event>
 5   0  0.9184414E-05  0.1763528E+04  0.7818609E-02  0.8725939E-01
       -2   -1    0    0    0  501  0.00000000000E+00  0.00000000000E+00  0.10305166566E+04  0.10305166566E+04  0.25500000920E-02 0.  1.
        2   -1    0    0  501    0  0.00000000000E+00  0.00000000000E+00 -0.75448303347E+03  0.75448303347E+03  0.25500000920E-02 0. -1.
    10030    2    1    2    0    0  0.00000000000E+00  0.00000000000E+00  0.27603362313E+03  0.17849996901E+04  0.17635275253E+04 0.  0.
        5    1    3    3  502    0 -0.40510055400E+03 -0.81427517684E+02  0.92644147646E+03  0.10144223966E+04  0.46999998093E+01 0.  1.
       -5    1    3    3    0  502  0.40510055400E+03  0.81427517684E+02 -0.65040785333E+03  0.77057729344E+03  0.46999998093E+01 0. -1.
</event>
<event>
 5   0  0.4494757E-05  0.1803198E+04  0.7818609E-02  0.8704601E-01
       -1   -1    0    0    0  501  0.00000000000E+00  0.00000000000E+00  0.56255743633E+03  0.56255743635E+03  0.50400001928E-02 0. -1.
        1   -1    0    0  501    0  0.00000000000E+00  0.00000000000E+00 -0.14449732787E+04  0.14449732787E+04  0.50400001928E-02 0.  1.
    10030    2    1    2    0    0  0.00000000000E+00  0.00000000000E+00 -0.88241584235E+03  0.20075307150E+04  0.18031976744E+04 0.  0.
        4    1    3    3  502    0  0.31881527771E+03  0.14334741190E+03 -0.13664589151E+04  0.14104620666E+04  0.12699999809E+01 0.  1.
       -4    1    3    3    0  502 -0.31881527771E+03 -0.14334741190E+03  0.48404307273E+03  0.59706864845E+03  0.12699999809E+01 0. -1.
</event>
<event>
 5   0  0.4623665E-05  0.1801844E+04  0.7818609E-02  0.8705319E-01
        1   -1    0    0  501    0  0.00000000000E+00  0.00000000000E+00  0.92754550294E+03  0.92754550295E+03  0.50400001928E-02 0.  1.
       -1   -1    0    0    0  501  0.00000000000E+00  0.00000000000E+00 -0.87506287739E+03  0.87506287741E+03  0.50400001928E-02 0. -1.
    10030    2    1    2    0    0  0.00000000000E+00  0.00000000000E+00  0.52482625545E+02  0.18026083804E+04  0.18018442072E+04 0.  0.
        5    1    3    3  502    0  0.68446973692E+03 -0.57126828595E+03  0.15588126755E+03  0.90507863463E+03  0.46999998093E+01 0.  1.
       -5    1    3    3    0  502 -0.68446973692E+03  0.57126828595E+03 -0.10339864200E+03  0.89752974573E+03  0.46999998093E+01 0. -1.
</event>
<event>
 5   0  0.8892280E-05  0.1674481E+04  0.7818609E-02  0.8776054E-01
       -2   -1    0    0    0  501  0.00000000000E+00  0.00000000000E+00  0.52291351467E+03  0.52291351467E+03  0.25500000920E-02 0. -1.
        2   -1    0    0  501    0  0.00000000000E+00  0.00000000000E+00 -0.13405114343E+04  0.13405114343E+04  0.25500000920E-02 0.  1.
    10030    2    1    2    0    0  0.00000000000E+00  0.00000000000E+00 -0.81759791960E+03  0.18634249489E+04  0.16744808695E+04 0.  0.
        4    1    3    3  502    0 -0.39970689438E+02 -0.82798938569E+03 -0.27804244060E+03  0.87434163261E+03  0.12699999809E+01 0.  1.
       -4    1    3    3    0  502  0.39970689438E+02  0.82798938569E+03 -0.53955547900E+03  0.98908331634E+03  0.12699999809E+01 0. -1.
</event>
<event>
 5   0  0.4494757E-05  0.1800065E+04  0.7818609E-02  0.8706265E-01
       -1   -1    0    0    0  501  0.00000000000E+00  0.00000000000E+00  0.12120881777E+04  0.12120881777E+04  0.50400001928E-02 0. -1.
        1   -1    0    0  501    0  0.00000000000E+00  0.00000000000E+00 -0.66831678252E+03  0.66831678253E+03  0.50400001928E-02 0.  1.
    10030    2    1    2    0    0  0.00000000000E+00  0.00000000000E+00  0.54377139521E+03  0.18804049603E+04  0.18000654111E+04 0.  0.
        4    1    3    3  502    0 -0.32699012522E+03 -0.52911814956E+03 -0.40766188193E+03  0.74369239681E+03  0.12699999809E+01 0.  1.
       -4    1    3    3    0  502  0.32699012522E+03  0.52911814956E+03  0.95143327714E+03  0.11367125635E+04  0.12699999809E+01 0. -1.
</event>
<event>
 5   0  0.4535100E-05  0.1801766E+04  0.7818609E-02  0.8705361E-01
        1   -1    0    0  501    0  0.00000000000E+00  0.00000000000E+00  0.94244301888E+03  0.94244301889E+03  0.50400001928E-02 0. -1.
       -1   -1    0    0    0  501  0.00000000000E+00  0.00000000000E+00 -0.86115564156E+03  0.86115564158E+03  0.50400001928E-02 0.  1.
    10030    2    1    2    0    0  0.00000000000E+00  0.00000000000E+00  0.81287377316E+02  0.18035986605E+04  0.18017659366E+04 0.  0.
        1    1    3    3  502    0  0.18428477033E+03 -0.24852240336E+03  0.88759288041E+03  0.93997094791E+03  0.50400001928E-02 0. -1.
       -1    1    3    3    0  502 -0.18428477033E+03  0.24852240336E+03 -0.80630550309E+03  0.86362771255E+03  0.50400001928E-02 0.  1.
</event>
<event>
 5   0  0.8893075E-05  0.1802015E+04  0.7818609E-02  0.8705229E-01
        2   -1    0    0  501    0  0.00000000000E+00  0.00000000000E+00  0.11615719380E+04  0.11615719380E+04  0.25500000920E-02 0.  1.
       -2   -1    0    0    0  501  0.00000000000E+00  0.00000000000E+00 -0.69889278401E+03  0.69889278402E+03  0.25500000920E-02 0. -1.
    10030    2    1    2    0    0  0.00000000000E+00  0.00000000000E+00  0.46267915401E+03  0.18604647220E+04  0.18020147009E+04 0.  0.
        1    1    3    3  502    0  0.38611026281E+03  0.62649415933E+03  0.76804559190E+03  0.10637058325E+04  0.50400001928E-02 0.  1.
       -1    1    3    3    0  502 -0.38611026281E+03 -0.62649415933E+03 -0.30536643789E+03  0.79675888959E+03  0.50400001928E-02 0. -1.
</event>
<event>
 5   0  0.4623665E-05  0.1795585E+04  0.7818609E-02  0.8708651E-01
        1   -1    0    0  501    0  0.00000000000E+00  0.00000000000E+00  0.93927865586E+03  0.93927865587E+03  0.50400001928E-02 0. -1.
       -1   -1    0    0    0  501  0.00000000000E+00  0.00000000000E+00 -0.85813870957E+03  0.85813870959E+03  0.50400001928E-02 0.  1.
    10030    2    1    2    0    0  0.00000000000E+00  0.00000000000E+00  0.81139946286E+02  0.17974173655E+04  0.17955850007E+04 0.  0.
        5    1    3    3  502    0 -0.25510517847E+03  0.81383881190E+03 -0.24006772144E+03  0.88603999047E+03  0.46999998093E+01 0. -1.
       -5    1    3    3    0  502  0.25510517847E+03 -0.81383881190E+03  0.32120766773E+03  0.91137737499E+03  0.46999998093E+01 0.  1.
</event>
<event>
 5   0  0.8892280E-05  0.1820366E+04  0.7818609E-02  0.8695544E-01
        2   -1    0    0  501    0  0.00000000000E+00  0.00000000000E+00  0.17942188437E+04  0.17942188437E+04  0.25500000920E-02 0. -1.
       -2   -1    0    0    0  501  0.00000000000E+00  0.00000000000E+00 -0.46172347836E+03  0.46172347837E+03  0.25500000920E-02 0.  1.
    10030    2    1    2    0    0  0.00000000000E+00  0.00000000000E+00  0.13324953654E+04  0.22559423221E+04  0.18203658594E+04 0.  0.
        4    1    3    3  502    0 -0.81141297610E+03 -0.24841419276E+03  0.10741396306E+04  0.13688967046E+04  0.12699999809E+01 0. -1.
       -4    1    3    3    0  502  0.81141297610E+03  0.24841419276E+03  0.25835573477E+03  0.88704561750E+03  0.12699999809E+01 0.  1.
</event>
<event>
 5   0  0.8893075E-05  0.1800621E+04  0.7818609E-02  0.8705969E-01
        2   -1    0    0  501    0  0.00000000000E+00  0.00000000000E+00  0.88169784115E+03  0.88169784115E+03  0.25500000920E-02 0. -1.
       -2   -1    0    0    0  501  0.00000000000E+00  0.00000000000E+00 -0.91931583561E+03  0.91931583561E+03  0.25500000920E-02 0.  1.
    10030    2    1    2    0    0  0.00000000000E+00  0.00000000000E+00 -0.37617994455E+02  0.18010136768E+04  0.18006207681E+04 0.  0.
        1    1    3    3  502    0 -0.36810902050E+03  0.79893029030E+02  0.79909288594E+03  0.88342322103E+03  0.50400001928E-02 0. -1.
       -1    1    3    3    0  502  0.36810902050E+03 -0.79893029030E+02 -0.83671088040E+03  0.91759045574E+03  0.50400001928E-02 0.  1.
</event>
<event>
 5   0  0.9147432E-05  0.1800459E+04  0.7818609E-02  0.8706055E-01
       -2   -1    0    0    0  501  0.00000000000E+00  0.00000000000E+00  0.57627261544E+03  0.57627261545E+03  0.25500000920E-02 0. -1.
        2   -1    0    0  501    0  0.00000000000E+00  0.00000000000E+00 -0.14063020836E+04  0.14063020836E+04  0.25500000920E-02 0.  1.
    10030    2    1    2    0    0  0.00000000000E+00  0.00000000000E+00 -0.83002946814E+03  0.19825746990E+04  0.18004592523E+04 0.  0.
        3    1    3    3  502    0  0.55569065720E+03 -0.66611429224E+03 -0.68000769752E+03  0.11022299378E+04  0.10100000352E+00 0. -1.
       -3    1    3    3    0  502 -0.55569065720E+03  0.66611429224E+03 -0.15002177062E+03  0.88034476127E+03  0.10100000352E+00 0.  1.
</event>
<event>
 5   0  0.8802655E-05  0.1800129E+04  0.7818609E-02  0.8706231E-01
       -2   -1    0    0    0  501  0.00000000000E+00  0.00000000000E+00  0.91157551289E+03  0.91157551290E+03  0.25500000920E-02 0.  1.
        2   -1    0    0  501    0  0.00000000000E+00  0.00000000000E+00 -0.88869892053E+03  0.88869892053E+03  0.25500000920E-02 0. -1.
    10030    2    1    2    0    0  0.00000000000E+00  0.00000000000E+00  0.22876592364E+02  0.18002744334E+04  0.18001290779E+04 0.  0.
        2    1    3    3  502    0 -0.66487650603E+03 -0.23874816674E+03 -0.54632953595E+03  0.89304950437E+03  0.25500000920E-02 0. -1.
       -2    1    3    3    0  502  0.66487650603E+03  0.23874816674E+03  0.56920612831E+03  0.90722492906E+03  0.25500000920E-02 0.  1.
</event>
<event>
 5   0  0.8893075E-05  0.1797641E+04  0.7818609E-02  0.8707555E-01
        2   -1    0    0  501    0  0.00000000000E+00  0.00000000000E+00  0.18288437720E+04  0.18288437720E+04  0.25500000920E-02 0.  1.
       -2   -1    0    0    0  501  0.00000000000E+00  0.00000000000E+00 -0.44174283542E+03  0.44174283543E+03  0.25500000920E-02 0. -1.
    10030    2    1    2    0    0  0.00000000000E+00  0.00000000000E+00  0.13871009365E+04  0.22705866074E+04  0.17976413807E+04 0.  0.
        1    1    3    3  502    0  0.26400602815E+03 -0.35484459645E+03  0.16818865438E+04  0.17390676286E+04  0.50400001928E-02 0.  1.
       -1    1    3    3    0  502 -0.26400602815E+03  0.35484459645E+03 -0.29478560729E+03  0.53151897879E+03  0.50400001928E-02 0. -1.
</event>
<event>
 5   0  0.9184414E-05  0.1805403E+04  0.7818609E-02  0.8703431E-01
       -2   -1    0    0    0  501  0.00000000000E+00  0.00000000000E+00  0.53778178493E+03  0.53778178494E+03  0.25500000920E-02 0. -1.
        2   -1    0    0  501    0  0.00000000000E+00  0.00000000000E+00 -0.15152435704E+04  0.15152435704E+04  0.25500000920E-02 0.  1.
    10030    2    1    2    0    0  0.00000000000E+00  0.00000000000E+00 -0.97746178547E+03  0.20530253554E+04  0.18054034363E+04 0.  0.
        5    1    3    3  502    0  0.75767089992E+03 -0.28027984832E+03 -0.30714838300E+02  0.80844757235E+03  0.46999998093E+01 0. -1.
       -5    1    3    3    0  502 -0.75767089992E+03  0.28027984832E+03 -0.94674694717E+03  0.12445777830E+04  0.46999998093E+01 0.  1.
</event>
<event>
 5   0  0.8802655E-05  0.1805142E+04  0.7818609E-02  0.8703570E-01
       -2   -1    0    0    0  501  0.00000000000E+00  0.00000000000E+00  0.28608118287E+03  0.28608118288E+03  0.25500000920E-02 0. -1.
        2   -1    0    0  501    0  0.00000000000E+00  0.00000000000E+00 -0.28475627660E+04  0.28475627660E+04  0.25500000920E-02 0.  1.
    10030    2    1    2    0    0  0.00000000000E+00  0.00000000000E+00 -0.25614815831E+04  0.31336439489E+04  0.18051416835E+04 0.  0.
        2    1    3    3  502    0 -0.29903048136E+03  0.49985485070E+03 -0.24776182364E+04  0.25451652649E+04  0.25500000920E-02 0.  1.
       -2    1    3    3    0  502  0.29903048136E+03 -0.49985485070E+03 -0.83863346778E+02  0.58847868397E+03  0.25500000920E-02 0. -1.
</event>
<event>
 5   0  0.4335117E-05  0.1786068E+04  0.7818609E-02  0.8713744E-01
       -1   -1    0    0    0  501  0.00000000000E+00  0.00000000000E+00  0.10171764083E+04  0.10171764083E+04  0.50400001928E-02 0.  1.
        1   -1    0    0  501    0  0.00000000000E+00  0.00000000000E+00 -0.78404230978E+03  0.78404230980E+03  0.50400001928E-02 0. -1.
    10030    2    1    2    0    0  0.00000000000E+00  0.00000000000E+00  0.23313409850E+03  0.18012187181E+04  0.17860675694E+04 0.  0.
        3    1    3    3  502    0 -0.94622185638E+02  0.26769350543E+03 -0.73731266006E+03  0.79009058958E+03  0.10100000352E+00 0. -1.
       -3    1    3    3    0  502  0.94622185638E+02 -0.26769350543E+03  0.97044675856E+03  0.10111281285E+04  0.10100000352E+00 0.  1.
</event>
<event>
 5   0  0.4535100E-05  0.1788133E+04  0.7818609E-02  0.8712636E-01
        1   -1    0    0  501    0  0.00000000000E+00  0.00000000000E+00  0.10062215246E+04  0.10062215246E+04  0.50400001928E-02 0.  1.
       -1   -1    0    0    0  501  0.00000000000E+00  0.00000000000E+00 -0.79441211821E+03  0.79441211822E+03  0.50400001928E-02 0. -1.
    10030    2    1    2    0    0  0.00000000000E+00  0.00000000000E+00  0.21180940641E+03  0.18006336428E+04  0.17881326268E+04 0.  0.
        1    1    3    3  502    0 -0.39542296487E+03  0.64126886663E+03  0.59069483106E+03  0.95734291867E+03  0.50400001928E-02 0.  1.
       -1    1    3    3    0  502  0.39542296487E+03 -0.64126886663E+03 -0.37888542465E+03  0.84329072418E+03  0.50400001928E-02 0. -1.
</event>
<event>
 5   0  0.8802655E-05  0.1814175E+04  0.7818609E-02  0.8698797E-01
       -2   -1    0    0    0  501  0.00000000000E+00  0.00000000000E+00  0.73258030213E+03  0.73258030213E+03  0.25500000920E-02 0.  1.
        2   -1    0    0  501    0  0.00000000000E+00  0.00000000000E+00 -0.11231642871E+04  0.11231642871E+04  0.25500000920E-02 0. -1.
    10030    2    1    2    0    0  0.00000000000E+00  0.00000000000E+00 -0.39058398498E+03  0.18557445892E+04  0.18141753309E+04 0.  0.
        2    1    3    3  502    0  0.42918614452E+03 -0.77880523187E+03 -0.37847550145E+03  0.96642746290E+03  0.25500000920E-02 0.  1.
       -2    1    3    3    0  502 -0.42918614452E+03  0.77880523187E+03 -0.12108483528E+02  0.88931712635E+03  0.25500000920E-02 0. -1.
</event>
<event>
 5   0  0.9184414E-05  0.1797392E+04  0.7818609E-02  0.8707687E-01
       -2   -1    0    0    0  501  0.00000000000E+00  0.00000000000E+00  0.49409799572E+03  0.49409799572E+03  0.25500000920E-02 0. -1.
        2   -1    0    0  501    0  0.00000000000E+00  0.00000000000E+00 -0.16346047816E+04  0.16346047816E+04  0.25500000920E-02 0.  1.
    10030    2    1    2    0    0  0.00000000000E+00  0.00000000000E+00 -0.11405067859E+04  0.21287027773E+04  0.17973924962E+04 0.  0.
        5    1    3    3  502    0  0.89501188033E+03  0.24457465133E-01 -0.66637088117E+03  0.11158487836E+04  0.46999998093E+01 0. -1.
       -5    1    3    3    0  502 -0.89501188033E+03 -0.24457465133E-01 -0.47413590472E+03  0.10128539938E+04  0.46999998093E+01 0.  1.
</event>
<event>
 5   0  0.9184414E-05  0.1800080E+04  0.7818609E-02  0.8706257E-01
        2   -1    0    0  501    0  0.00000000000E+00  0.00000000000E+00  0.11112179226E+04  0.11112179227E+04  0.25500000920E-02 0. -1.
       -2   -1    0    0    0  501  0.00000000000E+00  0.00000000000E+00 -0.72899483276E+03  0.72899483276E+03  0.25500000920E-02 0.  1.
    10030    2    1    2    0    0  0.00000000000E+00  0.00000000000E+00  0.38222308989E+03  0.18402127554E+04  0.18000801356E+04 0.  0.
        5    1    3    3  502    0  0.80251168349E+02 -0.26851188198E+03  0.10654642808E+04  0.11017146202E+04  0.46999998093E+01 0. -1.
       -5    1    3    3    0  502 -0.80251168349E+02  0.26851188198E+03 -0.68324119088E+03  0.73849813520E+03  0.46999998093E+01 0.  1.
</event>
<event>
 5   0  0.4494757E-05  0.1808594E+04  0.7818609E-02  0.8701743E-01
       -1   -1    0    0    0  501  0.00000000000E+00  0.00000000000E+00  0.13739170985E+04  0.13739170985E+04  0.50400001928E-02 0.  1.
        1   -1    0    0  501    0  0.00000000000E+00  0.00000000000E+00 -0.59519819682E+03  0.59519819684E+03  0.50400001928E-02 0. -1.
    10030    2    1    2    0    0  0.00000000000E+00  0.00000000000E+00  0.77871890164E+03  0.19691152953E+04  0.18085939064E+04 0.  0.
        4    1    3    3  502    0 -0.56801304639E+02  0.69157841247E+03 -0.24197215785E+03  0.73488722051E+03  0.12699999809E+01 0. -1.
       -4    1    3    3    0  502  0.56801304639E+02 -0.69157841247E+03  0.10206910595E+04  0.12342280748E+04  0.12699999809E+01 0.  1.
</event>
<event>
 5   0  0.4623665E-05  0.1797270E+04  0.7818609E-02  0.8707753E-01
        1   -1    0    0  501    0  0.00000000000E+00  0.00000000000E+00  0.14608205485E+04  0.14608205486E+04  0.50400001928E-02 0. -1.
       -1   -1    0    0    0  501  0.00000000000E+00  0.00000000000E+00 -0.55280208276E+03  0.55280208278E+03  0.50400001928E-02 0.  1.
    10030    2    1    2    0    0  0.00000000000E+00  0.00000000000E+00  0.90801846579E+03  0.20136226313E+04  0.17972697536E+04 0.  0.
        5    1    3    3  502    0 -0.86249828355E+03 -0.41703104070E+02  0.73271141555E+03  0.11324886518E+04  0.46999998093E+01 0. -1.
       -5    1    3    3    0  502  0.86249828355E+03  0.41703104070E+02  0.17530705024E+03  0.88113397952E+03  0.46999998093E+01 0.  1.
</event>
<event>
 5   0  0.8893075E-05  0.1777049E+04  0.7818609E-02  0.8718600E-01
        2   -1    0    0  501    0  0.00000000000E+00  0.00000000000E+00  0.89320492450E+03  0.89320492450E+03  0.25500000920E-02 0.  1.
       -2   -1    0    0    0  501  0.00000000000E+00  0.00000000000E+00 -0.88386894456E+03  0.88386894457E+03  0.25500000920E-02 0. -1.
    10030    2    1    2    0    0  0.00000000000E+00  0.00000000000E+00  0.93359799389E+01  0.17770738691E+04  0.17770493453E+04 0.  0.
        1    1    3    3  502    0  0.18121163254E+02 -0.72180956355E+03 -0.51316023648E+03  0.88581648829E+03  0.50400001928E-02 0. -1.
       -1    1    3    3    0  502 -0.18121163254E+02  0.72180956355E+03  0.52249621642E+03  0.89125738078E+03  0.50400001928E-02 0.  1.
</event>
<event>
 5   0  0.8892280E-05  0.1798239E+04  0.7818609E-02  0.8707236E-01
       -2   -1    0    0    0  501  0.00000000000E+00  0.00000000000E+00  0.78808936203E+03  0.78808936203E+03  0.25500000920E-02 0.  1.
        2   -1    0    0  501    0  0.00000000000E+00  0.00000000000E+00 -0.10257922973E+04  0.10257922973E+04  0.25500000920E-02 0. -1.
    10030    2    1    2    0    0  0.00000000000E+00  0.00000000000E+00 -0.23770293524E+03  0.18138816593E+04  0.17982391355E+04 0.  0.
        4    1    3    3  502    0  0.80966657268E+02  0.39822620848E+03 -0.92787234734E+03  0.10129602256E+04  0.12699999809E+01 0. -1.
       -4    1    3    3    0  502 -0.80966657268E+02 -0.39822620848E+03  0.69016941210E+03  0.80092143373E+03  0.12699999809E+01 0.  1.
</event>
<event>
 5   0  0.8802655E-05  0.1781635E+04  0.7818609E-02  0.8716127E-01
       -2   -1    0    0    0  501  0.00000000000E+00  0.00000000000E+00  0.12584952431E+04  0.12584952431E+04  0.25500000920E-02 0. -1.
        2   -1    0    0  501    0  0.00000000000E+00  0.00000000000E+00 -0.63055909332E+03  0.63055909333E+03  0.25500000920E-02 0.  1.
    10030    2    1    2    0    0  0.00000000000E+00  0.00000000000E+00  0.62793614978E+03  0.18890543364E+04  0.17816347768E+04 0.  0.
        2    1    3    3  502    0 -0.36618888432E+03  0.78587396975E+02 -0.54302482822E+03  0.65965615440E+03  0.25500000920E-02 0.  1.
       -2    1    3    3    0  502  0.36618888432E+03 -0.78587396975E+02  0.11709609780E+04  0.12293981820E+04  0.25500000920E-02 0. -1.
</event>
<event>
 5   0  0.8802655E-05  0.1809215E+04  0.7818609E-02  0.8701414E-01
       -2   -1    0    0    0  501  0.00000000000E+00  0.00000000000E+00  0.10193305882E+04  0.10193305882E+04  0.25500000920E-02 0. -1.
        2   -1    0    0  501    0  0.00000000000E+00  0.00000000000E+00 -0.80279605790E+03  0.80279605791E+03  0.25500000920E-02 0.  1.
    10030    2    1    2    0    0  0.00000000000E+00  0.00000000000E+00  0.21653453031E+03  0.18221266461E+04  0.18092148329E+04 0.  0.
        2    1    3    3  502    0  0.20851026950E+03  0.26351188210E+03 -0.73760737259E+03  0.81054283082E+03  0.25500000920E-02 0.  1.
       -2    1    3    3    0  502 -0.20851026950E+03 -0.26351188210E+03  0.95414190290E+03  0.10115838153E+04  0.25500000920E-02 0. -1.
</event>
<event>
 5   0  0.4578107E-05  0.1708792E+04  0.7818609E-02  0.8756366E-01
       -1   -1    0    0    0  501  0.00000000000E+00  0.00000000000E+00  0.29767844279E+03  0.29767844284E+03  0.50400001928E-02 0. -1.
        1   -1    0    0  501    0  0.00000000000E+00  0.00000000000E+00 -0.24522854526E+04  0.24522854526E+04  0.50400001928E-02 0.  1.
    10030    2    1    2    0    0  0.00000000000E+00  0.00000000000E+00 -0.21546070098E+04  0.27499638954E+04  0.17087919884E+04 0.  0.
        2    1    3    3  502    0 -0.34853904120E+03 -0.16461028480E+03  0.14980077592E+03  0.41354114858E+03  0.25500000920E-02 0. -1.
       -2    1    3    3    0  502  0.34853904120E+03  0.16461028480E+03 -0.23044077857E+04  0.23364227469E+04  0.25500000920E-02 0.  1.
</event>
<event>
 5   0  0.4335117E-05  0.1800565E+04  0.7818609E-02  0.8705999E-01
       -1   -1    0    0    0  501  0.00000000000E+00  0.00000000000E+00  0.57918013900E+03  0.57918013902E+03  0.50400001928E-02 0. -1.
        1   -1    0    0  501    0  0.00000000000E+00  0.00000000000E+00 -0.13994068256E+04  0.13994068256E+04  0.50400001928E-02 0.  1.
    10030    2    1    2    0    0  0.00000000000E+00  0.00000000000E+00 -0.82022668660E+03  0.19785869646E+04  0.18005650666E+04 0.  0.
        3    1    3    3  502    0  0.67174136671E+03 -0.59507950086E+03 -0.48899164993E+03  0.10219926223E+04  0.10100000352E+00 0.  1.
       -3    1    3    3    0  502 -0.67174136671E+03  0.59507950086E+03 -0.33123503667E+03  0.95659434235E+03  0.10100000352E+00 0. -1.
</event>
<event>
 5   0  0.9184414E-05  0.1815532E+04  0.7818609E-02  0.8698083E-01
       -2   -1    0    0    0  501  0.00000000000E+00  0.00000000000E+00  0.87805207251E+03  0.87805207251E+03  0.25500000920E-02 0.  1.
        2   -1    0    0  501    0  0.00000000000E+00  0.00000000000E+00 -0.93848587266E+03  0.93848587266E+03  0.25500000920E-02 0. -1.
    10030    2    1    2    0    0  0.00000000000E+00  0.00000000000E+00 -0.60433800150E+02  0.18165379452E+04  0.18155323908E+04 0.  0.
        5    1    3    3  502    0  0.43260530239E+03 -0.12764804864E+03 -0.81841967908E+03  0.93449143018E+03  0.46999998093E+01 0. -1.
       -5    1    3    3    0  502 -0.43260530239E+03  0.12764804864E+03  0.75798587893E+03  0.88204651500E+03  0.46999998093E+01 0.  1.
</event>
<event>
 5   0  0.8893075E-05  0.1806231E+04  0.7818609E-02  0.8702993E-01
       -2   -1    0    0    0  501  0.00000000000E+00  0.00000000000E+00  0.40202689887E+03  0.40202689888E+03  0.25500000920E-02 0. -1.
        2   -1    0    0  501    0  0.00000000000E+00  0.00000000000E+00 -0.20287645741E+04  0.20287645741E+04  0.25500000920E-02 0.  1.
    10030    2    1    2    0    0  0.00000000000E+00  0.00000000000E+00 -0.16267376753E+04  0.24307914730E+04  0.18062313587E+04 0.  0.
        1    1    3    3  502    0 -0.27947680816E+03 -0.34094642098E+03  0.24738151101E+03  0.50551890201E+03  0.50400001928E-02 0. -1.
       -1    1    3    3    0  502  0.27947680816E+03  0.34094642098E+03 -0.18741191863E+04  0.19252725710E+04  0.50400001928E-02 0.  1.
</event>
<event>
 5   0  0.4494757E-05  0.1789920E+04  0.7818609E-02  0.8711678E-01
       -1   -1    0    0    0  501  0.00000000000E+00  0.00000000000E+00  0.11986207138E+04  0.11986207138E+04  0.50400001928E-02 0. -1.
        1   -1    0    0  501    0  0.00000000000E+00  0.00000000000E+00 -0.66822943652E+03  0.66822943654E+03  0.50400001928E-02 0.  1.
    10030    2    1    2    0    0  0.00000000000E+00  0.00000000000E+00  0.53039127726E+03  0.18668501503E+04  0.17899202711E+04 0.  0.
        4    1    3    3  502    0  0.63872829536E+03  0.20323720804E+03  0.88370344131E+03  0.11091494864E+04  0.12699999809E+01 0. -1.
       -4    1    3    3    0  502 -0.63872829536E+03 -0.20323720804E+03 -0.35331216405E+03  0.75770066397E+03  0.12699999809E+01 0.  1.
</event>
<event>
 5   0  0.4335117E-05  0.1803112E+04  0.7818609E-02  0.8704647E-01
       -1   -1    0    0    0  501  0.00000000000E+00  0.00000000000E+00  0.47284491564E+03  0.47284491566E+03  0.50400001928E-02 0.  1.
        1   -1    0    0  501    0  0.00000000000E+00  0.00000000000E+00 -0.17189629059E+04  0.17189629060E+04  0.50400001928E-02 0. -1.
    10030    2    1    2    0    0  0.00000000000E+00  0.00000000000E+00 -0.12461179903E+04  0.21918078216E+04  0.18031116108E+04 0.  0.
        3    1    3    3  502    0 -0.51906691082E+03  0.20326754430E+03 -0.14843608536E+04  0.15855835854E+04  0.10100000352E+00 0. -1.
       -3    1    3    3    0  502  0.51906691082E+03 -0.20326754430E+03  0.23824286326E+03  0.60622423622E+03  0.10100000352E+00 0.  1.
</event>
<event>
 5   0  0.9184414E-05  0.1795875E+04  0.7818609E-02  0.8708496E-01
        2   -1    0    0  501    0  0.00000000000E+00  0.00000000000E+00  0.15622515635E+04  0.15622515635E+04  0.25500000920E-02 0. -1.
       -2   -1    0    0    0  501  0.00000000000E+00  0.00000000000E+00 -0.51610904011E+03  0.51610904011E+03  0.25500000920E-02 0.  1.
    10030    2    1    2    0    0  0.00000000000E+00  0.00000000000E+00  0.10461425234E+04  0.20783606036E+04  0.17958754465E+04 0.  0.
        5    1    3    3  502    0  0.63468561476E+03  0.25200544742E+01 -0.21200606589E+03  0.66917923027E+03  0.46999998093E+01 0.  1.
       -5    1    3    3    0  502 -0.63468561476E+03 -0.25200544742E+01  0.12581485893E+04  0.14091813734E+04  0.46999998093E+01 0. -1.
</event>
<event>
 5   0  0.9184414E-05  0.1719102E+04  0.7818609E-02  0.8750544E-01
        2   -1    0    0  501    0  0.00000000000E+00  0.00000000000E+00  0.13643196051E+04  0.13643196051E+04  0.25500000920E-02 0.  1.
       -2   -1    0    0    0  501  0.00000000000E+00  0.00000000000E+00 -0.54153576788E+03  0.54153576788E+03  0.25500000920E-02 0. -1.
    10030    2    1    2    0    0  0.00000000000E+00  0.00000000000E+00  0.82278383720E+03  0.19058553730E+04  0.17191019341E+04 0.  0.
        5    1    3    3  502    0  0.52883226550E+03 -0.44272601522E+03  0.98008553279E+03  0.11984404996E+04  0.46999998093E+01 0.  1.
       -5    1    3    3    0  502 -0.52883226550E+03  0.44272601522E+03 -0.15730169558E+03  0.70741487334E+03  0.46999998093E+01 0. -1.
</event>
<event>
 5   0  0.8802655E-05  0.1810912E+04  0.7818609E-02  0.8700518E-01
        2   -1    0    0  501    0  0.00000000000E+00  0.00000000000E+00  0.14197048057E+04  0.14197048057E+04  0.25500000920E-02 0.  1.
       -2   -1    0    0    0  501  0.00000000000E+00  0.00000000000E+00 -0.57747940103E+03  0.57747940104E+03  0.25500000920E-02 0. -1.
    10030    2    1    2    0    0  0.00000000000E+00  0.00000000000E+00  0.84222540463E+03  0.19971842067E+04  0.18109116829E+04 0.  0.
        2    1    3    3  502    0 -0.80597174660E+03 -0.55056009489E+01 -0.33915464350E+02  0.80670380356E+03  0.25500000920E-02 0. -1.
       -2    1    3    3    0  502  0.80597174660E+03  0.55056009489E+01  0.87614086898E+03  0.11904804031E+04  0.25500000920E-02 0.  1.
</event>
<event>
 5   0  0.8892280E-05  0.1785026E+04  0.7818609E-02  0.8714303E-01
       -2   -1    0    0    0  501  0.00000000000E+00  0.00000000000E+00  0.64774167463E+03  0.64774167464E+03  0.25500000920E-02 0. -1.
        2   -1    0    0  501    0  0.00000000000E+00  0.00000000000E+00 -0.12297794310E+04  0.12297794310E+04  0.25500000920E-02 0.  1.
    10030    2    1    2    0    0  0.00000000000E+00  0.00000000000E+00 -0.58203775636E+03  0.18775211056E+04  0.17850259248E+04 0.  0.
        4    1    3    3  502    0 -0.46268102703E+03 -0.15852892329E+03 -0.10762782284E+04  0.11821935502E+04  0.12699999809E+01 0.  1.
       -4    1    3    3    0  502  0.46268102703E+03  0.15852892329E+03  0.49424047202E+03  0.69532755546E+03  0.12699999809E+01 0. -1.
</event>
<event>
 5   0  0.4535100E-05  0.1797907E+04  0.7818609E-02  0.8707413E-01
       -1   -1    0    0    0  501  0.00000000000E+00  0.00000000000E+00  0.10598348709E+04  0.10598348710E+04  0.50400001928E-02 0. -1.
        1   -1    0    0  501    0  0.00000000000E+00  0.00000000000E+00 -0.76249354609E+03  0.76249354611E+03  0.50400001928E-02 0.  1.
    10030    2    1    2    0    0  0.00000000000E+00  0.00000000000E+00  0.29734132486E+03  0.18223284171E+04  0.17979068375E+04 0.  0.
        1    1    3    3  502    0  0.11119312518E+02 -0.83888529677E+03  0.47595775681E+03  0.96456620641E+03  0.50400001928E-02 0. -1.
       -1    1    3    3    0  502 -0.11119312518E+02  0.83888529677E+03 -0.17861643196E+03  0.85776221066E+03  0.50400001928E-02 0.  1.
</event>
<event>
 5   0  0.4535100E-05  0.1798419E+04  0.7818609E-02  0.8707141E-01
        1   -1    0    0  501    0  0.00000000000E+00  0.00000000000E+00  0.17898220323E+04  0.17898220323E+04  0.50400001928E-02 0. -1.
       -1   -1    0    0    0  501  0.00000000000E+00  0.00000000000E+00 -0.45176447998E+03  0.45176448001E+03  0.50400001928E-02 0.  1.
    10030    2    1    2    0    0  0.00000000000E+00  0.00000000000E+00  0.13380575523E+04  0.22415865123E+04  0.17984193279E+04 0.  0.
        1    1    3    3  502    0  0.22931345723E+03 -0.80470972534E+03  0.25858798237E+03  0.87579115568E+03  0.50400001928E-02 0.  1.
       -1    1    3    3    0  502 -0.22931345723E+03  0.80470972534E+03  0.10794695700E+04  0.13657953566E+04  0.50400001928E-02 0. -1.
</event>
<event>
 5   0  0.4335117E-05  0.1803080E+04  0.7818609E-02  0.8704663E-01
       -1   -1    0    0    0  501  0.00000000000E+00  0.00000000000E+00  0.43399542224E+03  0.43399542227E+03  0.50400001928E-02 0.  1.
        1   -1    0    0  501    0  0.00000000000E+00  0.00000000000E+00 -0.18727724159E+04  0.18727724159E+04  0.50400001928E-02 0. -1.
    10030    2    1    2    0    0  0.00000000000E+00  0.00000000000E+00 -0.14387769937E+04  0.23067678382E+04  0.18030803148E+04 0.  0.
        3    1    3    3  502    0  0.35726257639E+03 -0.69137066054E+03 -0.13016602676E+04  0.15165584068E+04  0.10100000352E+00 0. -1.
       -3    1    3    3    0  502 -0.35726257639E+03  0.69137066054E+03 -0.13711672609E+03  0.79020943143E+03  0.10100000352E+00 0.  1.
</event>
<event>
 5   0  0.8893075E-05  0.1808033E+04  0.7818609E-02  0.8702039E-01
        2   -1    0    0  501    0  0.00000000000E+00  0.00000000000E+00  0.20888281309E+04  0.20888281309E+04  0.25500000920E-02 0. -1.
       -2   -1    0    0    0  501  0.00000000000E+00  0.00000000000E+00 -0.39124604433E+03  0.39124604433E+03  0.25500000920E-02 0.  1.
    10030    2    1    2    0    0  0.00000000000E+00  0.00000000000E+00  0.16975820866E+04  0.24800741752E+04  0.18080329018E+04 0.  0.
        1    1    3    3  502    0 -0.59910230730E+03 -0.30445058380E+03  0.19359693434E+02  0.67230092246E+03  0.50400001928E-02 0.  1.
       -1    1    3    3    0  502  0.59910230730E+03  0.30445058380E+03  0.16782223931E+04  0.18077732528E+04  0.50400001928E-02 0. -1.
</event>
<event>
 5   0  0.3270375E-05  0.1797991E+04  0.7818609E-02  0.8707369E-01
        3   -1    0    0  501    0  0.00000000000E+00  0.00000000000E+00  0.12040560991E+04  0.12040561034E+04  0.10100000352E+00 0. -1.
       -3   -1    0    0    0  501  0.00000000000E+00  0.00000000000E+00 -0.67122495270E+03  0.67122496030E+03  0.10100000352E+00 0.  1.
    10030    2    1    2    0    0  0.00000000000E+00  0.00000000000E+00  0.53283114643E+03  0.18752810637E+04  0.17979905554E+04 0.  0.
        5    1    3    3  502    0 -0.60452023011E+03 -0.26953460289E+03 -0.36807459548E+03  0.75736028983E+03  0.46999998093E+01 0.  1.
       -5    1    3    3    0  502  0.60452023011E+03  0.26953460289E+03  0.90090574191E+03  0.11179207738E+04  0.46999998093E+01 0. -1.
</event>
<event>
 5   0  0.8892280E-05  0.1842560E+04  0.7818609E-02  0.8683988E-01
        2   -1    0    0  501    0  0.00000000000E+00  0.00000000000E+00  0.17067510686E+04  0.17067510686E+04  0.25500000920E-02 0. -1.
       -2   -1    0    0    0  501  0.00000000000E+00  0.00000000000E+00 -0.49729407770E+03  0.49729407771E+03  0.25500000920E-02 0.  1.
    10030    2    1    2    0    0  0.00000000000E+00  0.00000000000E+00  0.12094569909E+04  0.22040451463E+04  0.18425603909E+04 0.  0.
        4    1    3    3  502    0  0.38011805372E+03 -0.42724394771E+03  0.14687429718E+04  0.15761455059E+04  0.12699999809E+01 0. -1.
       -4    1    3    3    0  502 -0.38011805372E+03  0.42724394771E+03 -0.25928598092E+03  0.62789964040E+03  0.12699999809E+01 0.  1.
</event>
<event>
 5   0  0.4494757E-05  0.1778379E+04  0.7818609E-02  0.8717882E-01
        1   -1    0    0  501    0  0.00000000000E+00  0.00000000000E+00  0.86978980674E+03  0.86978980675E+03  0.50400001928E-02 0. -1.
       -1   -1    0    0    0  501  0.00000000000E+00  0.00000000000E+00 -0.90902225713E+03  0.90902225715E+03  0.50400001928E-02 0.  1.
    10030    2    1    2    0    0  0.00000000000E+00  0.00000000000E+00 -0.39232450397E+02  0.17788120639E+04  0.17783793672E+04 0.  0.
        4    1    3    3  502    0 -0.75288670094E+02 -0.21025168299E+03 -0.88051287943E+03  0.90839347080E+03  0.12699999809E+01 0.  1.
       -4    1    3    3    0  502  0.75288670094E+02  0.21025168299E+03  0.84128042903E+03  0.87041859310E+03  0.12699999809E+01 0. -1.
</event>
<event>
 5   0  0.4623665E-05  0.1799363E+04  0.7818609E-02  0.8706638E-01
        1   -1    0    0  501    0  0.00000000000E+00  0.00000000000E+00  0.14141952193E+04  0.14141952194E+04  0.50400001928E-02 0.  1.
       -1   -1    0    0    0  501  0.00000000000E+00  0.00000000000E+00 -0.57235865781E+03  0.57235865783E+03  0.50400001928E-02 0. -1.
    10030    2    1    2    0    0  0.00000000000E+00  0.00000000000E+00  0.84183656154E+03  0.19865538772E+04  0.17993630847E+04 0.  0.
        5    1    3    3  502    0 -0.20509314101E+03  0.56314411897E+03 -0.31986172407E+03  0.67935860026E+03  0.46999998093E+01 0. -1.
       -5    1    3    3    0  502  0.20509314101E+03 -0.56314411897E+03  0.11616982856E+04  0.13071952769E+04  0.46999998093E+01 0.  1.
</event>
<event>
 5   0  0.8893075E-05  0.1808810E+04  0.7818609E-02  0.8701629E-01
        2   -1    0    0  501    0  0.00000000000E+00  0.00000000000E+00  0.89347715333E+03  0.89347715333E+03  0.25500000920E-02 0.  1.
       -2   -1    0    0    0  501  0.00000000000E+00  0.00000000000E+00 -0.91546631430E+03  0.91546631430E+03  0.25500000920E-02 0. -1.
    10030    2    1    2    0    0  0.00000000000E+00  0.00000000000E+00 -0.21989160969E+02  0.18089434676E+04  0.18088098147E+04 0.  0.
        1    1    3    3  502    0  0.87020940731E+03  0.23946757077E+03 -0.68783852022E+02  0.90517420884E+03  0.50400001928E-02 0. -1.
       -1    1    3    3    0  502 -0.87020940731E+03 -0.23946757077E+03  0.46794691053E+02  0.90376925880E+03  0.50400001928E-02 0.  1.
</event>
<event>
 5   0  0.4335117E-05  0.1805554E+04  0.7818609E-02  0.8703351E-01
        1   -1    0    0  501    0  0.00000000000E+00  0.00000000000E+00  0.52519008849E+03  0.52519008851E+03  0.50400001928E-02 0.  1.
       -1   -1    0    0    0  501  0.00000000000E+00  0.00000000000E+00 -0.15518314780E+04  0.15518314780E+04  0.50400001928E-02 0. -1.
    10030    2    1    2    0    0  0.00000000000E+00  0.00000000000E+00 -0.10266413895E+04  0.20770215665E+04  0.18055542210E+04 0.  0.
        3    1    3    3  502    0  0.77903265114E+03  0.35572597899E+03 -0.84187369574E+03  0.12009097274E+04  0.10100000352E+00 0. -1.
       -3    1    3    3    0  502 -0.77903265114E+03 -0.35572597899E+03 -0.18476769373E+03  0.87611183904E+03  0.10100000352E+00 0.  1.
</event>
<event>
 5   0  0.8802655E-05  0.1810446E+04  0.7818609E-02  0.8700764E-01
        2   -1    0    0  501    0  0.00000000000E+00  0.00000000000E+00  0.78573219944E+03  0.78573219945E+03  0.25500000920E-02 0. -1.
       -2   -1    0    0    0  501  0.00000000000E+00  0.00000000000E+00 -0.10428860102E+04  0.10428860102E+04  0.25500000920E-02 0.  1.
    10030    2    1    2    0    0  0.00000000000E+00  0.00000000000E+00 -0.25715381073E+03  0.18286182096E+04  0.18104464848E+04 0.  0.
        2    1    3    3  502    0  0.77557850006E+02 -0.17480287052E+01  0.78236845218E+03  0.78620523445E+03  0.25500000920E-02 0. -1.
       -2    1    3    3    0  502 -0.77557850006E+02  0.17480287052E+01 -0.10395222629E+04  0.10424129752E+04  0.25500000920E-02 0.  1.
</event>
<event>
 5   0  0.8802655E-05  0.1800243E+04  0.7818609E-02  0.8706170E-01
       -2   -1    0    0    0  501  0.00000000000E+00  0.00000000000E+00  0.83303168148E+03  0.83303168148E+03  0.25500000920E-02 0. -1.
        2   -1    0    0  501    0  0.00000000000E+00  0.00000000000E+00 -0.97261484358E+03  0.97261484358E+03  0.25500000920E-02 0.  1.
    10030    2    1    2    0    0  0.00000000000E+00  0.00000000000E+00 -0.13958316210E+03  0.18056465251E+04  0.18002432931E+04 0.  0.
        2    1    3    3  502    0  0.54707905293E+03  0.62198991382E+03 -0.42305891620E+03  0.93013213557E+03  0.25500000920E-02 0.  1.
       -2    1    3    3    0  502 -0.54707905293E+03 -0.62198991382E+03  0.28347575409E+03  0.87551438949E+03  0.25500000920E-02 0. -1.
</event>
<event>
 5   0  0.8892280E-05  0.1809421E+04  0.7818609E-02  0.8701305E-01
       -2   -1    0    0    0  501  0.00000000000E+00  0.00000000000E+00  0.99034078302E+03  0.99034078303E+03  0.25500000920E-02 0.  1.
        2   -1    0    0  501    0  0.00000000000E+00  0.00000000000E+00 -0.82648451726E+03  0.82648451727E+03  0.25500000920E-02 0. -1.
    10030    2    1    2    0    0  0.00000000000E+00  0.00000000000E+00  0.16385626576E+03  0.18168253003E+04  0.18094212599E+04 0.  0.
        4    1    3    3  502    0  0.27249762360E+03 -0.48632519350E+03  0.79739740866E+03  0.97293956078E+03  0.12699999809E+01 0.  1.
       -4    1    3    3    0  502 -0.27249762360E+03  0.48632519350E+03 -0.63354114290E+03  0.84388573951E+03  0.12699999809E+01 0. -1.
</event>
<event>
 5   0  0.9147432E-05  0.1806709E+04  0.7818609E-02  0.8702740E-01
        2   -1    0    0  501    0  0.00000000000E+00  0.00000000000E+00  0.16132262278E+04  0.16132262278E+04  0.25500000920E-02 0. -1.
       -2   -1    0    0    0  501  0.00000000000E+00  0.00000000000E+00 -0.50584924366E+03  0.50584924366E+03  0.25500000920E-02 0.  1.
    10030    2    1    2    0    0  0.00000000000E+00  0.00000000000E+00  0.11073769841E+04  0.21190754715E+04  0.18067089054E+04 0.  0.
        3    1    3    3  502    0  0.83004380422E+03 -0.34348388060E+03  0.44183017595E+03  0.10010833171E+04  0.10100000352E+00 0.  1.
       -3    1    3    3    0  502 -0.83004380422E+03  0.34348388060E+03  0.66554680819E+03  0.11179921544E+04  0.10100000352E+00 0. -1.
</event>
<event>
 5   0  0.8893075E-05  0.1803519E+04  0.7818609E-02  0.8704430E-01
        2   -1    0    0  501    0  0.00000000000E+00  0.00000000000E+00  0.19609397509E+04  0.19609397509E+04  0.25500000920E-02 0. -1.
       -2   -1    0    0    0  501  0.00000000000E+00  0.00000000000E+00 -0.41468411528E+03  0.41468411528E+03  0.25500000920E-02 0.  1.
    10030    2    1    2    0    0  0.00000000000E+00  0.00000000000E+00  0.15462556356E+04  0.23756238662E+04  0.18035194102E+04 0.  0.
        1    1    3    3  502    0  0.17340602356E+03 -0.10234213529E+03  0.19309498259E+04  0.19414197877E+04  0.50400001928E-02 0. -1.
       -1    1    3    3    0  502 -0.17340602356E+03  0.10234213529E+03 -0.38469419034E+03  0.43420407848E+03  0.50400001928E-02 0.  1.
</event>
<event>
 5   0  0.9184414E-05  0.1797620E+04  0.7818609E-02  0.8707566E-01
        2   -1    0    0  501    0  0.00000000000E+00  0.00000000000E+00  0.10069623628E+04  0.10069623628E+04  0.25500000920E-02 0.  1.
       -2   -1    0    0    0  501  0.00000000000E+00  0.00000000000E+00 -0.80227404346E+03  0.80227404346E+03  0.25500000920E-02 0. -1.
    10030    2    1    2    0    0  0.00000000000E+00  0.00000000000E+00  0.20468831935E+03  0.18092364063E+04  0.17976203898E+04 0.  0.
        5    1    3    3  502    0  0.74344470527E+03  0.35555188599E+03  0.46342490190E+03  0.94546914446E+03  0.46999998093E+01 0.  1.
       -5    1    3    3    0  502 -0.74344470527E+03 -0.35555188599E+03 -0.25873658255E+03  0.86376726181E+03  0.46999998093E+01 0. -1.
</event>
<event>
 5   0  0.4494757E-05  0.1810047E+04  0.7818609E-02  0.8700975E-01
       -1   -1    0    0    0  501  0.00000000000E+00  0.00000000000E+00  0.62871997526E+03  0.62871997528E+03  0.50400001928E-02 0.  1.
        1   -1    0    0  501    0  0.00000000000E+00  0.00000000000E+00 -0.13027547577E+04  0.13027547577E+04  0.50400001928E-02 0. -1.
    10030    2    1    2    0    0  0.00000000000E+00  0.00000000000E+00 -0.67403478246E+03  0.19314747330E+04  0.18100474459E+04 0.  0.
        4    1    3    3  502    0 -0.19698306472E+03 -0.78191766206E+02  0.60186597349E+03  0.63809132813E+03  0.12699999809E+01 0.  1.
       -4    1    3    3    0  502  0.19698306472E+03  0.78191766206E+02 -0.12759007559E+04  0.12933834049E+04  0.12699999809E+01 0. -1.
</event>
<event>
 5   0  0.4623665E-05  0.1792751E+04  0.7818609E-02  0.8710164E-01
        1   -1    0    0  501    0  0.00000000000E+00  0.00000000000E+00  0.59376948822E+03  0.59376948824E+03  0.50400001928E-02 0. -1.
       -1   -1    0    0    0  501  0.00000000000E+00  0.00000000000E+00 -0.13532005447E+04  0.13532005447E+04  0.50400001928E-02 0.  1.
    10030    2    1    2    0    0  0.00000000000E+00  0.00000000000E+00 -0.75943105649E+03  0.19469700330E+04  0.17927511762E+04 0.  0.
        5    1    3    3  502    0  0.13606205232E+03 -0.32268494552E+02 -0.13412684131E+04  0.13485463224E+04  0.46999998093E+01 0.  1.
       -5    1    3    3    0  502 -0.13606205232E+03  0.32268494552E+02  0.58183735658E+03  0.59842371054E+03  0.46999998093E+01 0. -1.
</event>
<event>
 5   0  0.8892280E-05  0.1819580E+04  0.7818609E-02  0.8695956E-01
        2   -1    0    0  501    0  0.00000000000E+00  0.00000000000E+00  0.19222354063E+04  0.19222354063E+04  0.25500000920E-02 0. -1.
       -2   -1    0    0    0  501  0.00000000000E+00  0.00000000000E+00 -0.43060189356E+03  0.43060189356E+03  0.25500000920E-02 0.  1.
    10030    2    1    2    0    0  0.00000000000E+00  0.00000000000E+00  0.14916335127E+04  0.23528372999E+04  0.18195803976E+04 0.  0.
        4    1    3    3  502    0 -0.14922996567E+03 -0.31472815611E+02 -0.41395338101E+03  0.44115658821E+03  0.12699999809E+01 0.  1.
       -4    1    3    3    0  502  0.14922996567E+03  0.31472815611E+02  0.19055868938E+04  0.19116807117E+04  0.12699999809E+01 0. -1.
</event>
<event>
 5   0  0.8802655E-05  0.1803763E+04  0.7818609E-02  0.8704301E-01
       -2   -1    0    0    0  501  0.00000000000E+00  0.00000000000E+00  0.15759443092E+04  0.15759443092E+04  0.25500000920E-02 0. -1.
        2   -1    0    0  501    0  0.00000000000E+00  0.00000000000E+00 -0.51612900386E+03  0.51612900387E+03  0.25500000920E-02 0.  1.
    10030    2    1    2    0    0  0.00000000000E+00  0.00000000000E+00  0.10598153053E+04  0.20920733130E+04  0.18037633619E+04 0.  0.
        2    1    3    3  502    0 -0.70711266312E+03  0.55378578028E+03  0.43494561773E+03  0.99793020757E+03  0.25500000920E-02 0.  1.
       -2    1    3    3    0  502  0.70711266312E+03 -0.55378578028E+03  0.62486968757E+03  0.10941431055E+04  0.25500000920E-02 0. -1.
</event>
<event>
 5   0  0.4623665E-05  0.1796097E+04  0.7818609E-02  0.8708378E-01
       -1   -1    0    0    0  501  0.00000000000E+00  0.00000000000E+00  0.78413773648E+03  0.78413773650E+03  0.50400001928E-02 0. -1.
        1   -1    0    0  501    0  0.00000000000E+00  0.00000000000E+00 -0.10285072072E+04  0.10285072072E+04  0.50400001928E-02 0.  1.
    10030    2    1    2    0    0  0.00000000000E+00  0.00000000000E+00 -0.24436947071E+03  0.18126449437E+04  0.17960972284E+04 0.  0.
        5    1    3    3  502    0  0.36302692961E+03 -0.21068088383E+03  0.67904040776E+03  0.79830630199E+03  0.46999998093E+01 0. -1.
       -5    1    3    3    0  502 -0.36302692961E+03  0.21068088383E+03 -0.92340987847E+03  0.10143386417E+04  0.46999998093E+01 0.  1.
</event>
<event>
 5   0  0.4578107E-05  0.1802857E+04  0.7818609E-02  0.8704782E-01
        1   -1    0    0  501    0  0.00000000000E+00  0.00000000000E+00  0.17464922480E+04  0.17464922481E+04  0.50400001928E-02 0.  1.
       -1   -1    0    0    0  501  0.00000000000E+00  0.00000000000E+00 -0.46526009464E+03  0.46526009467E+03  0.50400001928E-02 0. -1.
    10030    2    1    2    0    0  0.00000000000E+00  0.00000000000E+00  0.12812321534E+04  0.22117523427E+04  0.18028567870E+04 0.  0.
        2    1    3    3  502    0  0.13630274074E+02 -0.41451626312E+03 -0.34125938299E+03  0.53709168980E+03  0.25500000920E-02 0. -1.
       -2    1    3    3    0  502 -0.13630274074E+02  0.41451626312E+03  0.16224915364E+04  0.16746606529E+04  0.25500000920E-02 0.  1.
</event>
<event>
 5   0  0.9184414E-05  0.1798252E+04  0.7818609E-02  0.8707230E-01
        2   -1    0    0  501    0  0.00000000000E+00  0.00000000000E+00  0.86617149343E+03  0.86617149343E+03  0.25500000920E-02 0. -1.
       -2   -1    0    0    0  501  0.00000000000E+00  0.00000000000E+00 -0.93333408468E+03  0.93333408468E+03  0.25500000920E-02 0.  1.
    10030    2    1    2    0    0  0.00000000000E+00  0.00000000000E+00 -0.67162591254E+02  0.17995055781E+04  0.17982517933E+04 0.  0.
        5    1    3    3  502    0  0.25847607522E+03 -0.40078503688E+03  0.72916189278E+03  0.87128507569E+03  0.46999998093E+01 0. -1.
       -5    1    3    3    0  502 -0.25847607522E+03  0.40078503688E+03 -0.79632448403E+03  0.92822050242E+03  0.46999998093E+01 0.  1.
</event>
<event>
 5   0  0.4578107E-05  0.1799370E+04  0.7818609E-02  0.8706635E-01
        1   -1    0    0  501    0  0.00000000000E+00  0.00000000000E+00  0.12513654787E+04  0.12513654787E+04  0.50400001928E-02 0. -1.
       -1   -1    0    0    0  501  0.00000000000E+00  0.00000000000E+00 -0.64683994309E+03  0.64683994311E+03  0.50400001928E-02 0.  1.
    10030    2    1    2    0    0  0.00000000000E+00  0.00000000000E+00  0.60452553556E+03  0.18982054218E+04  0.17993700843E+04 0.  0.
        2    1    3    3  502    0 -0.58565003988E+03 -0.68009680577E+03  0.36827411242E+03  0.97012548483E+03  0.25500000920E-02 0. -1.
       -2    1    3    3    0  502  0.58565003988E+03  0.68009680577E+03  0.23625142314E+03  0.92807993695E+03  0.25500000920E-02 0.  1.
</event>
<event>
 5   0  0.4335117E-05  0.1801918E+04  0.7818609E-02  0.8705280E-01
       -1   -1    0    0    0  501  0.00000000000E+00  0.00000000000E+00  0.65210941727E+03  0.65210941729E+03  0.50400001928E-02 0. -1.
        1   -1    0    0  501    0  0.00000000000E+00  0.00000000000E+00 -0.12447713913E+04  0.12447713913E+04  0.50400001928E-02 0.  1.
    10030    2    1    2    0    0  0.00000000000E+00  0.00000000000E+00 -0.59266197404E+03  0.18968808086E+04  0.18019180299E+04 0.  0.
        3    1    3    3  502    0 -0.39882653283E+03 -0.78642207059E+03 -0.49102335203E+03  0.10092701417E+04  0.10100000352E+00 0.  1.
       -3    1    3    3    0  502  0.39882653283E+03  0.78642207059E+03 -0.10163862201E+03  0.88761066695E+03  0.10100000352E+00 0. -1.
</event>
<event>
 5   0  0.4535100E-05  0.1793097E+04  0.7818609E-02  0.8709979E-01
        1   -1    0    0  501    0  0.00000000000E+00  0.00000000000E+00  0.18231639539E+04  0.18231639539E+04  0.50400001928E-02 0. -1.
       -1   -1    0    0    0  501  0.00000000000E+00  0.00000000000E+00 -0.44088123476E+03  0.44088123478E+03  0.50400001928E-02 0.  1.
    10030    2    1    2    0    0  0.00000000000E+00  0.00000000000E+00  0.13822827191E+04  0.22640451887E+04  0.17930965118E+04 0.  0.
        1    1    3    3  502    0 -0.40465502215E+03  0.55461956078E+03  0.14191637640E+04  0.15765070038E+04  0.50400001928E-02 0. -1.
       -1    1    3    3    0  502  0.40465502215E+03 -0.55461956078E+03 -0.36881044826E+02  0.68753818486E+03  0.50400001928E-02 0.  1.
</event>
<event>
 5   0  0.8893075E-05  0.1797769E+04  0.7818609E-02  0.8707487E-01
       -2   -1    0    0    0  501  0.00000000000E+00  0.00000000000E+00  0.11348366591E+04  0.11348366591E+04  0.25500000920E-02 0.  1.
        2   -1    0    0  501    0  0.00000000000E+00  0.00000000000E+00 -0.71199059897E+03  0.71199059897E+03  0.25500000920E-02 0. -1.
    10030    2    1    2    0    0  0.00000000000E+00  0.00000000000E+00  0.42284606013E+03  0.18468272581E+04  0.17977686532E+04 0.  0.
        1    1    3    3  502    0  0.29085840554E+03 -0.68478421557E+03  0.72963387715E+03  0.10420622000E+04  0.50400001928E-02 0.  1.
       -1    1    3    3    0  502 -0.29085840554E+03  0.68478421557E+03 -0.30678781703E+03  0.80476505806E+03  0.50400001928E-02 0. -1.
</event>
<event>
 5   0  0.9147432E-05  0.1801046E+04  0.7818609E-02  0.8705743E-01
       -2   -1    0    0    0  501  0.00000000000E+00  0.00000000000E+00  0.77481818860E+03  0.77481818861E+03  0.25500000920E-02 0. -1.
        2   -1    0    0  501    0  0.00000000000E+00  0.00000000000E+00 -0.10466217863E+04  0.10466217863E+04  0.25500000920E-02 0.  1.
    10030    2    1    2    0    0  0.00000000000E+00  0.00000000000E+00 -0.27180359773E+03  0.18214399749E+04  0.18010459146E+04 0.  0.
        3    1    3    3  502    0  0.60296206818E+03  0.32324470659E+03  0.45629798272E+03  0.82234922949E+03  0.10100000352E+00 0. -1.
       -3    1    3    3    0  502 -0.60296206818E+03 -0.32324470659E+03 -0.72810158045E+03  0.99909074546E+03  0.10100000352E+00 0.  1.
</event>
<event>
 5   0  0.9184414E-05  0.1815315E+04  0.7818609E-02  0.8698197E-01
       -2   -1    0    0    0  501  0.00000000000E+00  0.00000000000E+00  0.63354732322E+03  0.63354732323E+03  0.25500000920E-02 0.  1.
        2   -1    0    0  501    0  0.00000000000E+00  0.00000000000E+00 -0.13003645627E+04  0.13003645627E+04  0.25500000920E-02 0. -1.
    10030    2    1    2    0    0  0.00000000000E+00  0.00000000000E+00 -0.66681723948E+03  0.19339118859E+04  0.18153153863E+04 0.  0.
        5    1    3    3  502    0  0.85679211216E+03  0.29913755086E+03 -0.35006326207E+03  0.97269850171E+03  0.46999998093E+01 0.  1.
       -5    1    3    3    0  502 -0.85679211216E+03 -0.29913755086E+03 -0.31675397742E+03  0.96121338422E+03  0.46999998093E+01 0. -1.
</event>
<event>
 5   0  0.8892280E-05  0.1825347E+04  0.7818609E-02  0.8692935E-01
       -2   -1    0    0    0  501  0.00000000000E+00  0.00000000000E+00  0.50704022654E+03  0.50704022655E+03  0.25500000920E-02 0.  1.
        2   -1    0    0  501    0  0.00000000000E+00  0.00000000000E+00 -0.16428141866E+04  0.16428141866E+04  0.25500000920E-02 0. -1.
    10030    2    1    2    0    0  0.00000000000E+00  0.00000000000E+00 -0.11357739600E+04  0.21498544131E+04  0.18253469559E+04 0.  0.
        4    1    3    3  502    0 -0.28020707439E+03  0.13458051561E+03  0.44277006526E+03  0.54099432835E+03  0.12699999809E+01 0.  1.
       -4    1    3    3    0  502  0.28020707439E+03 -0.13458051561E+03 -0.15785440253E+04  0.16088600848E+04  0.12699999809E+01 0. -1.
</event>
<event>
 5   0  0.8893075E-05  0.1799924E+04  0.7818609E-02  0.8706340E-01
        2   -1    0    0  501    0  0.00000000000E+00  0.00000000000E+00  0.15530395054E+04  0.15530395054E+04  0.25500000920E-02 0.  1.
       -2   -1    0    0    0  501  0.00000000000E+00  0.00000000000E+00 -0.52151372440E+03  0.52151372440E+03  0.25500000920E-02 0. -1.
    10030    2    1    2    0    0  0.00000000000E+00  0.00000000000E+00  0.10315257810E+04  0.20745532298E+04  0.17999237946E+04 0.  0.
        1    1    3    3  502    0 -0.64246205388E+03  0.13691127128E+03 -0.19326415460E+03  0.68472857422E+03  0.50400001928E-02 0. -1.
       -1    1    3    3    0  502  0.64246205388E+03 -0.13691127128E+03  0.12247899356E+04  0.13898246556E+04  0.50400001928E-02 0.  1.
</event>
<event>
 5   0  0.4578107E-05  0.1801277E+04  0.7818609E-02  0.8705621E-01
        1   -1    0    0  501    0  0.00000000000E+00  0.00000000000E+00  0.14875556639E+04  0.14875556639E+04  0.50400001928E-02 0. -1.
       -1   -1    0    0    0  501  0.00000000000E+00  0.00000000000E+00 -0.54529030632E+03  0.54529030634E+03  0.50400001928E-02 0.  1.
    10030    2    1    2    0    0  0.00000000000E+00  0.00000000000E+00  0.94226535757E+03  0.20328459702E+04  0.18012769733E+04 0.  0.
        2    1    3    3  502    0  0.37194872630E+03  0.60376517097E+03 -0.15546766151E+03  0.72598101246E+03  0.25500000920E-02 0.  1.
       -2    1    3    3    0  502 -0.37194872630E+03 -0.60376517097E+03  0.10977330191E+04  0.13068649578E+04  0.25500000920E-02 0. -1.
</event>
<event>
 5   0  0.4335117E-05  0.1811247E+04  0.7818609E-02  0.8700341E-01
       -1   -1    0    0    0  501  0.00000000000E+00  0.00000000000E+00  0.12994281126E+04  0.12994281126E+04  0.50400001928E-02 0.  1.
        1   -1    0    0  501    0  0.00000000000E+00  0.00000000000E+00 -0.63116514606E+03  0.63116514608E+03  0.50400001928E-02 0. -1.
    10030    2    1    2    0    0  0.00000000000E+00  0.00000000000E+00  0.66826296656E+03  0.19305932587E+04  0.18112467911E+04 0.  0.
        3    1    3    3  502    0 -0.90520760873E+03  0.22803336304E+02  0.31786423811E+03  0.95966582263E+03  0.10100000352E+00 0.  1.
       -3    1    3    3    0  502  0.90520760873E+03 -0.22803336304E+02  0.35039872845E+03  0.97092743609E+03  0.10100000352E+00 0. -1.
</event>
<event>
 5   0  0.9147432E-05  0.1798784E+04  0.7818609E-02  0.8706947E-01
        2   -1    0    0  501    0  0.00000000000E+00  0.00000000000E+00  0.12047720214E+04  0.12047720214E+04  0.25500000920E-02 0. -1.
       -2   -1    0    0    0  501  0.00000000000E+00  0.00000000000E+00 -0.67141798083E+03  0.67141798083E+03  0.25500000920E-02 0.  1.
    10030    2    1    2    0    0  0.00000000000E+00  0.00000000000E+00  0.53335404059E+03  0.18761900023E+04  0.17987835867E+04 0.  0.
        3    1    3    3  502    0  0.39069577310E+03 -0.79709652989E+03  0.11588926179E+03  0.89522980082E+03  0.10100000352E+00 0.  1.
       -3    1    3    3    0  502 -0.39069577310E+03  0.79709652989E+03  0.41746477880E+03  0.98096020144E+03  0.10100000352E+00 0. -1.
</event>
<event>
 5   0  0.9147432E-05  0.1802618E+04  0.7818609E-02  0.8704909E-01
       -2   -1    0    0    0  501  0.00000000000E+00  0.00000000000E+00  0.12235454066E+04  0.12235454066E+04  0.25500000920E-02 0.  1.
        2   -1    0    0  501    0  0.00000000000E+00  0.00000000000E+00 -0.66393750063E+03  0.66393750063E+03  0.25500000920E-02 0. -1.
    10030    2    1    2    0    0  0.00000000000E+00  0.00000000000E+00  0.55960790592E+03  0.18874829072E+04  0.18026177400E+04 0.  0.
        3    1    3    3  502    0  0.33638633464E+03  0.48679777136E+03 -0.43207863811E+03  0.73267987283E+03  0.10100000352E+00 0. -1.
       -3    1    3    3    0  502 -0.33638633464E+03 -0.48679777136E+03  0.99168654404E+03  0.11548030344E+04  0.10100000352E+00 0.  1.
</event>
<event>
 5   0  0.4578107E-05  0.1806896E+04  0.7818609E-02  0.8702641E-01
       -1   -1    0    0    0  501  0.00000000000E+00  0.00000000000E+00  0.45509179007E+03  0.45509179010E+03  0.50400001928E-02 0. -1.
        1   -1    0    0  501    0  0.00000000000E+00  0.00000000000E+00 -0.17935247783E+04  0.17935247783E+04  0.50400001928E-02 0.  1.
    10030    2    1    2    0    0  0.00000000000E+00  0.00000000000E+00 -0.13384329882E+04  0.22486165684E+04  0.18068961253E+04 0.  0.
        2    1    3    3  502    0 -0.15177293162E+03 -0.82002901678E+03 -0.23680200739E+03  0.86692433456E+03  0.25500000920E-02 0. -1.
       -2    1    3    3    0  502  0.15177293162E+03  0.82002901678E+03 -0.11016309808E+04  0.13816922338E+04  0.25500000920E-02 0.  1.
</event>
<event>
 5   0  0.4535100E-05  0.1790989E+04  0.7818609E-02  0.8711106E-01
        1   -1    0    0  501    0  0.00000000000E+00  0.00000000000E+00  0.12298798593E+04  0.12298798593E+04  0.50400001928E-02 0.  1.
       -1   -1    0    0    0  501  0.00000000000E+00  0.00000000000E+00 -0.65202357489E+03  0.65202357490E+03  0.50400001928E-02 0. -1.
    10030    2    1    2    0    0  0.00000000000E+00  0.00000000000E+00  0.57785628439E+03  0.18819034342E+04  0.17909892937E+04 0.  0.
        1    1    3    3  502    0 -0.86615879893E+03 -0.82432031478E+02  0.51154232007E+03  0.10093075101E+04  0.50400001928E-02 0.  1.
       -1    1    3    3    0  502  0.86615879893E+03  0.82432031478E+02  0.66313964327E+02  0.87259592405E+03  0.50400001928E-02 0. -1.
</event>
<event>
 5   0  0.9184414E-05  0.1808667E+04  0.7818609E-02  0.8701704E-01
        2   -1    0    0  501    0  0.00000000000E+00  0.00000000000E+00  0.27841646653E+04  0.27841646653E+04  0.25500000920E-02 0.  1.
       -2   -1    0    0    0  501  0.00000000000E+00  0.00000000000E+00 -0.29373946256E+03  0.29373946257E+03  0.25500000920E-02 0. -1.
    10030    2    1    2    0    0  0.00000000000E+00  0.00000000000E+00  0.24904252028E+04  0.30779041279E+04  0.18086669483E+04 0.  0.
        5    1    3    3  502    0  0.26165100118E+03  0.53990697209E+03  0.93745511830E+02  0.60726525993E+03  0.46999998093E+01 0. -1.
       -5    1    3    3    0  502 -0.26165100118E+03 -0.53990697209E+03  0.23966796909E+04  0.24706388680E+04  0.46999998093E+01 0.  1.
</event>
<event>
 5   0  0.4494757E-05  0.1792795E+04  0.7818609E-02  0.8710140E-01
        1   -1    0    0  501    0  0.00000000000E+00  0.00000000000E+00  0.91614853131E+03  0.91614853132E+03  0.50400001928E-02 0. -1.
       -1   -1    0    0    0  501  0.00000000000E+00  0.00000000000E+00 -0.87707229923E+03  0.87707229924E+03  0.50400001928E-02 0.  1.
    10030    2    1    2    0    0  0.00000000000E+00  0.00000000000E+00  0.39076232081E+02  0.17932208306E+04  0.17927950232E+04 0.  0.
        4    1    3    3  502    0  0.13649273159E+03 -0.86504046415E+03 -0.17182281025E+03  0.89244045259E+03  0.12699999809E+01 0. -1.
       -4    1    3    3    0  502 -0.13649273159E+03  0.86504046415E+03  0.21089904233E+03  0.90078037798E+03  0.12699999809E+01 0.  1.
</event>
<event>
 5   0  0.4535100E-05  0.1819798E+04  0.7818609E-02  0.8695841E-01
       -1   -1    0    0    0  501  0.00000000000E+00  0.00000000000E+00  0.96899842943E+03  0.96899842944E+03  0.50400001928E-02 0. -1.
        1   -1    0    0  501    0  0.00000000000E+00  0.00000000000E+00 -0.85440413240E+03  0.85440413241E+03  0.50400001928E-02 0.  1.
    10030    2    1    2    0    0  0.00000000000E+00  0.00000000000E+00  0.11459429703E+03  0.18234025619E+04  0.18197980794E+04 0.  0.
        1    1    3    3  502    0  0.73300560741E+03  0.41388458186E+03 -0.28881227448E+03  0.88994954774E+03  0.50400001928E-02 0.  1.
       -1    1    3    3    0  502 -0.73300560741E+03 -0.41388458186E+03  0.40340657152E+03  0.93345301412E+03  0.50400001928E-02 0. -1.
</event>
<event>
 5   0  0.8892280E-05  0.1782694E+04  0.7818609E-02  0.8715557E-01
       -2   -1    0    0    0  501  0.00000000000E+00  0.00000000000E+00  0.36323627495E+03  0.36323627496E+03  0.25500000920E-02 0.  1.
        2   -1    0    0  501    0  0.00000000000E+00  0.00000000000E+00 -0.21872812521E+04  0.21872812521E+04  0.25500000920E-02 0. -1.
    10030    2    1    2    0    0  0.00000000000E+00  0.00000000000E+00 -0.18240449771E+04  0.25505175270E+04  0.17826944710E+04 0.  0.
        4    1    3    3  502    0 -0.37821912358E+03  0.78233434876E+03 -0.62802924509E+03  0.10721562779E+04  0.12699999809E+01 0.  1.
       -4    1    3    3    0  502  0.37821912358E+03 -0.78233434876E+03 -0.11960157320E+04  0.14783612491E+04  0.12699999809E+01 0. -1.
</event>
<event>
 5   0  0.4335117E-05  0.1803824E+04  0.7818609E-02  0.8704269E-01
        1   -1    0    0  501    0  0.00000000000E+00  0.00000000000E+00  0.15302812095E+04  0.15302812095E+04  0.50400001928E-02 0. -1.
       -1   -1    0    0    0  501  0.00000000000E+00  0.00000000000E+00 -0.53156559803E+03  0.53156559806E+03  0.50400001928E-02 0.  1.
    10030    2    1    2    0    0  0.00000000000E+00  0.00000000000E+00  0.99871561142E+03  0.20618468075E+04  0.18038235460E+04 0.  0.
        3    1    3    3  502    0 -0.16783720337E+03 -0.64924730623E+03  0.11887492675E+04  0.13648502565E+04  0.10100000352E+00 0. -1.
       -3    1    3    3    0  502  0.16783720337E+03  0.64924730623E+03 -0.19003365608E+03  0.69699655102E+03  0.10100000352E+00 0.  1.
</event>
<event>
 5   0  0.4535100E-05  0.1728517E+04  0.7818609E-02  0.8745265E-01
        1   -1    0    0  501    0  0.00000000000E+00  0.00000000000E+00  0.66474738609E+03  0.66474738610E+03  0.50400001928E-02 0. -1.
       -1   -1    0    0    0  501  0.00000000000E+00  0.00000000000E+00 -0.11236491381E+04  0.11236491381E+04  0.50400001928E-02 0.  1.
    10030    2    1    2    0    0  0.00000000000E+00  0.00000000000E+00 -0.45890175200E+03  0.17883965242E+04  0.17285170840E+04 0.  0.
        1    1    3    3  502    0  0.46603337771E+03  0.35771352991E+03 -0.88528400343E+03  0.10624847507E+04  0.50400001928E-02 0.  1.
       -1    1    3    3    0  502 -0.46603337771E+03 -0.35771352991E+03  0.42638225143E+03  0.72591177355E+03  0.50400001928E-02 0. -1.
</event>
<event>
 5   0  0.4535100E-05  0.1801072E+04  0.7818609E-02  0.8705729E-01
       -1   -1    0    0    0  501  0.00000000000E+00  0.00000000000E+00  0.35967089579E+03  0.35967089582E+03  0.50400001928E-02 0.  1.
        1   -1    0    0  501    0  0.00000000000E+00  0.00000000000E+00 -0.22547429201E+04  0.22547429201E+04  0.50400001928E-02 0. -1.
    10030    2    1    2    0    0  0.00000000000E+00  0.00000000000E+00 -0.18950720243E+04  0.26144138159E+04  0.18010723538E+04 0.  0.
        1    1    3    3  502    0 -0.16437107481E+03 -0.83622388528E+03 -0.13699383720E+04  0.16133875478E+04  0.50400001928E-02 0.  1.
       -1    1    3    3    0  502  0.16437107481E+03  0.83622388528E+03 -0.52513365237E+03  0.10010262681E+04  0.50400001928E-02 0. -1.
</event>
<event>
 5   0  0.4623665E-05  0.1820690E+04  0.7818609E-02  0.8695374E-01
       -1   -1    0    0    0  501  0.00000000000E+00  0.00000000000E+00  0.57745861283E+03  0.57745861285E+03  0.50400001928E-02 0.  1.
        1   -1    0    0  501    0  0.00000000000E+00  0.00000000000E+00 -0.14351291377E+04  0.14351291377E+04  0.50400001928E-02 0. -1.
    10030    2    1    2    0    0  0.00000000000E+00  0.00000000000E+00 -0.85767052486E+03  0.20125877506E+04  0.18206896288E+04 0.  0.
        5    1    3    3  502    0  0.76625901713E+03  0.26549887219E+03 -0.88602557891E+03  0.12011269496E+04  0.46999998093E+01 0. -1.
       -5    1    3    3    0  502 -0.76625901713E+03 -0.26549887219E+03  0.28355054048E+02  0.81146080100E+03  0.46999998093E+01 0.  1.
</event>
<event>
 5   0  0.4623665E-05  0.1808081E+04  0.7818609E-02  0.8702014E-01
        1   -1    0    0  501    0  0.00000000000E+00  0.00000000000E+00  0.70579904832E+03  0.70579904834E+03  0.50400001928E-02 0.  1.
       -1   -1    0    0    0  501  0.00000000000E+00  0.00000000000E+00 -0.11579630293E+04  0.11579630293E+04  0.50400001928E-02 0. -1.
    10030    2    1    2    0    0  0.00000000000E+00  0.00000000000E+00 -0.45216398096E+03  0.18637620776E+04  0.18080809762E+04 0.  0.
        5    1    3    3  502    0 -0.18865003007E+02  0.77130169760E+03  0.25960211477E+03  0.81405008756E+03  0.46999998093E+01 0. -1.
       -5    1    3    3    0  502  0.18865003007E+02 -0.77130169760E+03 -0.71176609573E+03  0.10497119901E+04  0.46999998093E+01 0.  1.
</event>
<event>
 5   0  0.4578107E-05  0.1799378E+04  0.7818609E-02  0.8706630E-01
       -1   -1    0    0    0  501  0.00000000000E+00  0.00000000000E+00  0.68909032280E+03  0.68909032282E+03  0.50400001928E-02 0. -1.
        1   -1    0    0  501    0  0.00000000000E+00  0.00000000000E+00 -0.11746502215E+04  0.11746502215E+04  0.50400001928E-02 0.  1.
    10030    2    1    2    0    0  0.00000000000E+00  0.00000000000E+00 -0.48555989870E+03  0.18637405443E+04  0.17993777817E+04 0.  0.
        2    1    3    3  502    0  0.45662951726E+03 -0.38669062376E+03  0.45311526641E+03  0.75056885041E+03  0.25500000920E-02 0. -1.
       -2    1    3    3    0  502 -0.45662951726E+03  0.38669062376E+03 -0.93867516510E+03  0.11131716939E+04  0.25500000920E-02 0.  1.
</event>
<event>
 5   0  0.4578107E-05  0.1802872E+04  0.7818609E-02  0.8704773E-01
       -1   -1    0    0    0  501  0.00000000000E+00  0.00000000000E+00  0.65523275196E+03  0.65523275198E+03  0.50400001928E-02 0. -1.
        1   -1    0    0  501    0  0.00000000000E+00  0.00000000000E+00 -0.12401504581E+04  0.12401504581E+04  0.50400001928E-02 0.  1.
    10030    2    1    2    0    0  0.00000000000E+00  0.00000000000E+00 -0.58491770612E+03  0.18953832101E+04  0.18028723721E+04 0.  0.
        2    1    3    3  502    0 -0.13558968614E+03  0.77869867545E+03 -0.74809239702E+03  0.10883007051E+04  0.25500000920E-02 0.  1.
       -2    1    3    3    0  502  0.13558968614E+03 -0.77869867545E+03  0.16317469090E+03  0.80708250501E+03  0.25500000920E-02 0. -1.
</event>
<event>
 5   0  0.4578107E-05  0.1799659E+04  0.7818609E-02  0.8706481E-01
        1   -1    0    0  501    0  0.00000000000E+00  0.00000000000E+00  0.17779021432E+04  0.17779021432E+04  0.50400001928E-02 0.  1.
       -1   -1    0    0    0  501  0.00000000000E+00  0.00000000000E+00 -0.45542056146E+03  0.45542056149E+03  0.50400001928E-02 0. -1.
    10030    2    1    2    0    0  0.00000000000E+00  0.00000000000E+00  0.13224815817E+04  0.22333227047E+04  0.17996590703E+04 0.  0.
        2    1    3    3  502    0 -0.79910834303E+02  0.86771075086E+03  0.93979776988E+03  0.12816113049E+04  0.25500000920E-02 0. -1.
       -2    1    3    3    0  502  0.79910834303E+02 -0.86771075086E+03  0.38268381184E+03  0.95171139977E+03  0.25500000920E-02 0.  1.
</event>
<event>
 5   0  0.9184414E-05  0.1801290E+04  0.7818609E-02  0.8705614E-01
       -2   -1    0    0    0  501  0.00000000000E+00  0.00000000000E+00  0.32620082456E+03  0.32620082457E+03  0.25500000920E-02 0.  1.
        2   -1    0    0  501    0  0.00000000000E+00  0.00000000000E+00 -0.24866921450E+04  0.24866921450E+04  0.25500000920E-02 0. -1.
    10030    2    1    2    0    0  0.00000000000E+00  0.00000000000E+00 -0.21604913205E+04  0.28128929696E+04  0.18012895693E+04 0.  0.
        5    1    3    3  502    0  0.67650042538E+03 -0.27347221385E+03 -0.25584671766E+03  0.77325255268E+03  0.46999998093E+01 0.  1.
       -5    1    3    3    0  502 -0.67650042538E+03  0.27347221385E+03 -0.19046446028E+04  0.20396404169E+04  0.46999998093E+01 0. -1.
</event>
<event>
 5   0  0.4535100E-05  0.1800467E+04  0.7818609E-02  0.8706051E-01
        1   -1    0    0  501    0  0.00000000000E+00  0.00000000000E+00  0.94419946280E+03  0.94419946281E+03  0.50400001928E-02 0.  1.
       -1   -1    0    0    0  501  0.00000000000E+00  0.00000000000E+00 -0.85831510152E+03  0.85831510154E+03  0.50400001928E-02 0. -1.
    10030    2    1    2    0    0  0.00000000000E+00  0.00000000000E+00  0.85884361279E+02  0.18025145643E+04  0.18004673369E+04 0.  0.
        1    1    3    3  502    0 -0.69790523407E+03 -0.53528827884E+03 -0.14914938686E+03  0.89210470060E+03  0.50400001928E-02 0. -1.
       -1    1    3    3    0  502  0.69790523407E+03  0.53528827884E+03  0.23503374814E+03  0.91040986375E+03  0.50400001928E-02 0.  1.
</event>
<event>
 5   0  0.3270375E-05  0.1787045E+04  0.7818609E-02  0.8713219E-01
       -3   -1    0    0    0  501  0.00000000000E+00  0.00000000000E+00  0.67107703900E+03  0.67107704660E+03  0.10100000352E+00 0. -1.
        3   -1    0    0  501    0  0.00000000000E+00  0.00000000000E+00 -0.11897029360E+04  0.11897029403E+04  0.10100000352E+00 0.  1.
    10030    2    1    2    0    0  0.00000000000E+00  0.00000000000E+00 -0.51862589700E+03  0.18607799869E+04  0.17870448619E+04 0.  0.
        4    1    3    3  502    0  0.42600136571E+03 -0.18391458326E+03 -0.10544157169E+04  0.11519964646E+04  0.12699999809E+01 0.  1.
       -4    1    3    3    0  502 -0.42600136571E+03  0.18391458326E+03  0.53578981987E+03  0.70878352231E+03  0.12699999809E+01 0. -1.
</event>
<event>
 5   0  0.9147432E-05  0.1911138E+04  0.7818609E-02  0.8649332E-01
       -2   -1    0    0    0  501  0.00000000000E+00  0.00000000000E+00  0.48791825806E+03  0.48791825807E+03  0.25500000920E-02 0.  1.
        2   -1    0    0  501    0  0.00000000000E+00  0.00000000000E+00 -0.18714448143E+04  0.18714448143E+04  0.25500000920E-02 0. -1.
    10030    2    1    2    0    0  0.00000000000E+00  0.00000000000E+00 -0.13835265563E+04  0.23593630724E+04  0.19111379792E+04 0.  0.
        3    1    3    3  502    0  0.68321055357E+03  0.66259620184E+03 -0.58627246919E+03  0.11178219024E+04  0.10100000352E+00 0.  1.
       -3    1    3    3    0  502 -0.68321055357E+03 -0.66259620184E+03 -0.79725408706E+03  0.12415411700E+04  0.10100000352E+00 0. -1.
</event>
<event>
 5   0  0.4494757E-05  0.1778350E+04  0.7818609E-02  0.8717898E-01
       -1   -1    0    0    0  501  0.00000000000E+00  0.00000000000E+00  0.67925479610E+03  0.67925479612E+03  0.50400001928E-02 0. -1.
        1   -1    0    0  501    0  0.00000000000E+00  0.00000000000E+00 -0.11639702407E+04  0.11639702407E+04  0.50400001928E-02 0.  1.
    10030    2    1    2    0    0  0.00000000000E+00  0.00000000000E+00 -0.48471544459E+03  0.18432250368E+04  0.17783502113E+04 0.  0.
        4    1    3    3  502    0 -0.12002342124E+03  0.34560748570E+03  0.59762669216E+03  0.70072065183E+03  0.12699999809E+01 0. -1.
       -4    1    3    3    0  502  0.12002342124E+03 -0.34560748570E+03 -0.10823421367E+04  0.11425043850E+04  0.12699999809E+01 0.  1.
</event>
<event>
 5   0  0.8892280E-05  0.1791569E+04  0.7818609E-02  0.8710796E-01
        2   -1    0    0  501    0  0.00000000000E+00  0.00000000000E+00  0.10350058686E+04  0.10350058686E+04  0.25500000920E-02 0.  1.
       -2   -1    0    0    0  501  0.00000000000E+00  0.00000000000E+00 -0.77529011029E+03  0.77529011029E+03  0.25500000920E-02 0. -1.
    10030    2    1    2    0    0  0.00000000000E+00  0.00000000000E+00  0.25971575832E+03  0.18102959789E+04  0.17915689370E+04 0.  0.
        4    1    3    3  502    0  0.56983090106E+02 -0.87126616645E+03  0.33214134744E+03  0.93416877112E+03  0.12699999809E+01 0. -1.
       -4    1    3    3    0  502 -0.56983090106E+02  0.87126616645E+03 -0.72425589123E+02  0.87612720778E+03  0.12699999809E+01 0.  1.
</event>
<event>
 5   0  0.8893075E-05  0.1799413E+04  0.7818609E-02  0.8706612E-01
        2   -1    0    0  501    0  0.00000000000E+00  0.00000000000E+00  0.14450303196E+04  0.14450303196E+04  0.25500000920E-02 0. -1.
       -2   -1    0    0    0  501  0.00000000000E+00  0.00000000000E+00 -0.56017614964E+03  0.56017614965E+03  0.25500000920E-02 0.  1.
    10030    2    1    2    0    0  0.00000000000E+00  0.00000000000E+00  0.88485416993E+03  0.20052064692E+04  0.17994127048E+04 0.  0.
        1    1    3    3  502    0  0.24305572435E+03  0.30016514680E+03  0.13479464721E+04  0.14021893211E+04  0.50400001928E-02 0. -1.
       -1    1    3    3    0  502 -0.24305572435E+03 -0.30016514680E+03 -0.46309230222E+03  0.60301714809E+03  0.50400001928E-02 0.  1.
</event>
<event>
 5   0  0.4335117E-05  0.1784754E+04  0.7818609E-02  0.8714449E-01
        1   -1    0    0  501    0  0.00000000000E+00  0.00000000000E+00  0.12008051836E+04  0.12008051836E+04  0.50400001928E-02 0.  1.
       -1   -1    0    0    0  501  0.00000000000E+00  0.00000000000E+00 -0.66316913272E+03  0.66316913273E+03  0.50400001928E-02 0. -1.
    10030    2    1    2    0    0  0.00000000000E+00  0.00000000000E+00  0.53763605090E+03  0.18639743164E+04  0.17847542489E+04 0.  0.
        3    1    3    3  502    0 -0.22829308805E+03 -0.65766223549E+03  0.85189998192E+03  0.11001685959E+04  0.10100000352E+00 0.  1.
       -3    1    3    3    0  502  0.22829308805E+03  0.65766223549E+03 -0.31426393102E+03  0.76380572045E+03  0.10100000352E+00 0. -1.
</event>
<event>
 5   0  0.9147432E-05  0.1787368E+04  0.7818609E-02  0.8713046E-01
        2   -1    0    0  501    0  0.00000000000E+00  0.00000000000E+00  0.12453096268E+04  0.12453096268E+04  0.25500000920E-02 0. -1.
       -2   -1    0    0    0  501  0.00000000000E+00  0.00000000000E+00 -0.64134363639E+03  0.64134363639E+03  0.25500000920E-02 0.  1.
    10030    2    1    2    0    0  0.00000000000E+00  0.00000000000E+00  0.60396599042E+03  0.18866532632E+04  0.17873683498E+04 0.  0.
        3    1    3    3  502    0  0.36509263506E+03  0.43888772068E+03 -0.42378314765E+03  0.71099031637E+03  0.10100000352E+00 0.  1.
       -3    1    3    3    0  502 -0.36509263506E+03 -0.43888772068E+03  0.10277491381E+04  0.11756629468E+04  0.10100000352E+00 0. -1.
</event>
<event>
 5   0  0.4494757E-05  0.1789066E+04  0.7818609E-02  0.8712136E-01
       -1   -1    0    0    0  501  0.00000000000E+00  0.00000000000E+00  0.62798529777E+03  0.62798529779E+03  0.50400001928E-02 0. -1.
        1   -1    0    0  501    0  0.00000000000E+00  0.00000000000E+00 -0.12742162198E+04  0.12742162198E+04  0.50400001928E-02 0.  1.
    10030    2    1    2    0    0  0.00000000000E+00  0.00000000000E+00 -0.64623092198E+03  0.19022015176E+04  0.17890657363E+04 0.  0.
        4    1    3    3  502    0 -0.62708439787E+03 -0.15741543560E+02  0.35494727096E+03  0.72074393255E+03  0.12699999809E+01 0. -1.
       -4    1    3    3    0  502  0.62708439787E+03  0.15741543560E+02 -0.10011781929E+04  0.11814575850E+04  0.12699999809E+01 0.  1.
</event>
<event>
 5   0  0.8802655E-05  0.1798104E+04  0.7818609E-02  0.8707309E-01
        2   -1    0    0  501    0  0.00000000000E+00  0.00000000000E+00  0.13101803299E+04  0.13101803299E+04  0.25500000920E-02 0. -1.
       -2   -1    0    0    0  501  0.00000000000E+00  0.00000000000E+00 -0.61693358077E+03  0.61693358077E+03  0.25500000920E-02 0.  1.
    10030    2    1    2    0    0  0.00000000000E+00  0.00000000000E+00  0.69324674915E+03  0.19271139107E+04  0.17981037149E+04 0.  0.
        2    1    3    3  502    0  0.21702006158E+03  0.16494016446E+03  0.12648250851E+04  0.12938645450E+04  0.25500000920E-02 0. -1.
       -2    1    3    3    0  502 -0.21702006158E+03 -0.16494016446E+03 -0.57157833595E+03  0.63324936567E+03  0.25500000920E-02 0.  1.
</event>
<event>
 5   0  0.4494757E-05  0.1797509E+04  0.7818609E-02  0.8707625E-01
       -1   -1    0    0    0  501  0.00000000000E+00  0.00000000000E+00  0.83493771610E+03  0.83493771612E+03  0.50400001928E-02 0.  1.
        1   -1    0    0  501    0  0.00000000000E+00  0.00000000000E+00 -0.96744909034E+03  0.96744909035E+03  0.50400001928E-02 0. -1.
    10030    2    1    2    0    0  0.00000000000E+00  0.00000000000E+00 -0.13251137423E+03  0.18023868065E+04  0.17975090920E+04 0.  0.
        4    1    3    3  502    0  0.34481428888E+03  0.54068411300E+03 -0.69766430128E+03  0.94761452819E+03  0.12699999809E+01 0. -1.
       -4    1    3    3    0  502 -0.34481428888E+03 -0.54068411300E+03  0.56515292704E+03  0.85477227828E+03  0.12699999809E+01 0.  1.
</event>
<event>
 5   0  0.4494757E-05  0.1773574E+04  0.7818609E-02  0.8720480E-01
        1   -1    0    0  501    0  0.00000000000E+00  0.00000000000E+00  0.13991460089E+04  0.13991460089E+04  0.50400001928E-02 0.  1.
       -1   -1    0    0    0  501  0.00000000000E+00  0.00000000000E+00 -0.56205109924E+03  0.56205109926E+03  0.50400001928E-02 0. -1.
    10030    2    1    2    0    0  0.00000000000E+00  0.00000000000E+00  0.83709490964E+03  0.19611971081E+04  0.17735744160E+04 0.  0.
        4    1    3    3  502    0 -0.13541034330E+03  0.87442571124E+03  0.35375117307E+03  0.95294165136E+03  0.12699999809E+01 0. -1.
       -4    1    3    3    0  502  0.13541034330E+03 -0.87442571124E+03  0.48334373657E+03  0.10082554568E+04  0.12699999809E+01 0.  1.
</event>
<event>
 5   0  0.4578107E-05  0.1799311E+04  0.7818609E-02  0.8706666E-01
       -1   -1    0    0    0  501  0.00000000000E+00  0.00000000000E+00  0.39318784461E+03  0.39318784464E+03  0.50400001928E-02 0. -1.
        1   -1    0    0  501    0  0.00000000000E+00  0.00000000000E+00 -0.20585074847E+04  0.20585074847E+04  0.50400001928E-02 0.  1.
    10030    2    1    2    0    0  0.00000000000E+00  0.00000000000E+00 -0.16653196401E+04  0.24516953293E+04  0.17993111138E+04 0.  0.
        2    1    3    3  502    0 -0.62045030239E+03 -0.32778724368E+02  0.53900992883E+02  0.62364921194E+03  0.25500000920E-02 0. -1.
       -2    1    3    3    0  502  0.62045030239E+03  0.32778724368E+02 -0.17192206330E+04  0.18280461174E+04  0.25500000920E-02 0.  1.
</event>
<event>
 5   0  0.8802655E-05  0.1784581E+04  0.7818609E-02  0.8714543E-01
        2   -1    0    0  501    0  0.00000000000E+00  0.00000000000E+00  0.80892164265E+03  0.80892164265E+03  0.25500000920E-02 0. -1.
       -2   -1    0    0    0  501  0.00000000000E+00  0.00000000000E+00 -0.98425096799E+03  0.98425096799E+03  0.25500000920E-02 0.  1.
    10030    2    1    2    0    0  0.00000000000E+00  0.00000000000E+00 -0.17532932534E+03  0.17931726106E+04  0.17845805219E+04 0.  0.
        2    1    3    3  502    0  0.33282179598E+02  0.88160815732E+03  0.46549624524E+02  0.88346336318E+03  0.25500000920E-02 0. -1.
       -2    1    3    3    0  502 -0.33282179598E+02 -0.88160815732E+03 -0.22187894987E+03  0.90970924747E+03  0.25500000920E-02 0.  1.
</event>
<event>
 5   0  0.8893075E-05  0.1844646E+04  0.7818609E-02  0.8682911E-01
        2   -1    0    0  501    0  0.00000000000E+00  0.00000000000E+00  0.25080976609E+04  0.25080976609E+04  0.25500000920E-02 0. -1.
       -2   -1    0    0    0  501  0.00000000000E+00  0.00000000000E+00 -0.33917321005E+03  0.33917321006E+03  0.25500000920E-02 0.  1.
    10030    2    1    2    0    0  0.00000000000E+00  0.00000000000E+00  0.21689244508E+04  0.28472708709E+04  0.18446458032E+04 0.  0.
        1    1    3    3  502    0 -0.11880308065E+03 -0.21905249028E+03 -0.28622717118E+03  0.37950515018E+03  0.50400001928E-02 0.  1.
       -1    1    3    3    0  502  0.11880308065E+03  0.21905249028E+03  0.24551516220E+04  0.24677657208E+04  0.50400001928E-02 0. -1.
</event>
<event>
 5   0  0.3270375E-05  0.1791114E+04  0.7818609E-02  0.8711039E-01
       -4   -1    0    0    0  501  0.00000000000E+00  0.00000000000E+00  0.84835692393E+03  0.84835787453E+03  0.12699999809E+01 0.  1.
        4   -1    0    0  501    0  0.00000000000E+00  0.00000000000E+00 -0.94538168662E+03  0.94538253966E+03  0.12699999809E+01 0. -1.
    10030    2    1    2    0    0  0.00000000000E+00  0.00000000000E+00 -0.97024762696E+02  0.17937404142E+04  0.17911144209E+04 0.  0.
        2    1    3    3  502    0 -0.60065707751E+03  0.48540686752E+03  0.40559918858E+03  0.87230697210E+03  0.25500000920E-02 0.  1.
       -2    1    3    3    0  502  0.60065707751E+03 -0.48540686752E+03 -0.50262395127E+03  0.92143344209E+03  0.25500000920E-02 0. -1.
</event>
<event>
 5   0  0.8893075E-05  0.1781716E+04  0.7818609E-02  0.8716084E-01
       -2   -1    0    0    0  501  0.00000000000E+00  0.00000000000E+00  0.55475417509E+03  0.55475417510E+03  0.25500000920E-02 0. -1.
        2   -1    0    0  501    0  0.00000000000E+00  0.00000000000E+00 -0.14305939672E+04  0.14305939672E+04  0.25500000920E-02 0.  1.
    10030    2    1    2    0    0  0.00000000000E+00  0.00000000000E+00 -0.87583979215E+03  0.19853481423E+04  0.17817160000E+04 0.  0.
        1    1    3    3  502    0  0.47802798807E+03  0.73402778356E+03 -0.61869753020E+03  0.10724244394E+04  0.50400001928E-02 0.  1.
       -1    1    3    3    0  502 -0.47802798807E+03 -0.73402778356E+03 -0.25714226194E+03  0.91292370290E+03  0.50400001928E-02 0. -1.
</event>
<event>
 5   0  0.4535100E-05  0.1801921E+04  0.7818609E-02  0.8705279E-01
        1   -1    0    0  501    0  0.00000000000E+00  0.00000000000E+00  0.21862750558E+04  0.21862750558E+04  0.50400001928E-02 0.  1.
       -1   -1    0    0    0  501  0.00000000000E+00  0.00000000000E+00 -0.37128427925E+03  0.37128427928E+03  0.50400001928E-02 0. -1.
    10030    2    1    2    0    0  0.00000000000E+00  0.00000000000E+00  0.18149907765E+04  0.25575593351E+04  0.18019207068E+04 0.  0.
        1    1    3    3  502    0 -0.83777672205E+03  0.80757572192E+01  0.43718957860E+03  0.94502369363E+03  0.50400001928E-02 0. -1.
       -1    1    3    3    0  502  0.83777672205E+03 -0.80757572192E+01  0.13778011979E+04  0.16125356414E+04  0.50400001928E-02 0.  1.
</event>
<event>
 5   0  0.9184414E-05  0.1803701E+04  0.7818609E-02  0.8704334E-01
        2   -1    0    0  501    0  0.00000000000E+00  0.00000000000E+00  0.15639515823E+04  0.15639515823E+04  0.25500000920E-02 0.  1.
       -2   -1    0    0    0  501  0.00000000000E+00  0.00000000000E+00 -0.52005058216E+03  0.52005058217E+03  0.25500000920E-02 0. -1.
    10030    2    1    2    0    0  0.00000000000E+00  0.00000000000E+00  0.10439010001E+04  0.20840021645E+04  0.18037005637E+04 0.  0.
        5    1    3    3  502    0 -0.83246287347E+03  0.10656027052E+03  0.14055823295E+03  0.85095724558E+03  0.46999998093E+01 0.  1.
       -5    1    3    3    0  502  0.83246287347E+03 -0.10656027052E+03  0.90334276719E+03  0.12330449189E+04  0.46999998093E+01 0. -1.
</event>
<event>
 5   0  0.3270375E-05  0.1806005E+04  0.7818609E-02  0.8703113E-01
       -3   -1    0    0    0  501  0.00000000000E+00  0.00000000000E+00  0.12495496014E+04  0.12495496055E+04  0.10100000352E+00 0.  1.
        3   -1    0    0  501    0  0.00000000000E+00  0.00000000000E+00 -0.65256597637E+03  0.65256598419E+03  0.10100000352E+00 0. -1.
    10030    2    1    2    0    0  0.00000000000E+00  0.00000000000E+00  0.59698362507E+03  0.19021155897E+04  0.18060050576E+04 0.  0.
        3    1    3    3  502    0 -0.19569896504E+03  0.46858400563E+03  0.10849175377E+04  0.11978794301E+04  0.10100000352E+00 0.  1.
       -3    1    3    3    0  502  0.19569896504E+03 -0.46858400563E+03 -0.48793391261E+03  0.70423615963E+03  0.10100000352E+00 0. -1.
</event>
<event>
 5   0  0.8892280E-05  0.1805563E+04  0.7818609E-02  0.8703347E-01
        2   -1    0    0  501    0  0.00000000000E+00  0.00000000000E+00  0.10482046773E+04  0.10482046773E+04  0.25500000920E-02 0. -1.
       -2   -1    0    0    0  501  0.00000000000E+00  0.00000000000E+00 -0.77753402394E+03  0.77753402395E+03  0.25500000920E-02 0.  1.
    10030    2    1    2    0    0  0.00000000000E+00  0.00000000000E+00  0.27067065338E+03  0.18257387013E+04  0.18055634031E+04 0.  0.
        4    1    3    3  502    0  0.28934565046E+03  0.46311752108E+03 -0.59159568984E+03  0.80509988008E+03  0.12699999809E+01 0.  1.
       -4    1    3    3    0  502 -0.28934565046E+03 -0.46311752108E+03  0.86226634321E+03  0.10206388212E+04  0.12699999809E+01 0. -1.
</event>
<event>
 5   0  0.8892280E-05  0.1794598E+04  0.7818609E-02  0.8709177E-01
        2   -1    0    0  501    0  0.00000000000E+00  0.00000000000E+00  0.11856742761E+04  0.11856742761E+04  0.25500000920E-02 0. -1.
       -2   -1    0    0    0  501  0.00000000000E+00  0.00000000000E+00 -0.67906158577E+03  0.67906158577E+03  0.25500000920E-02 0.  1.
    10030    2    1    2    0    0  0.00000000000E+00  0.00000000000E+00  0.50661269030E+03  0.18647358618E+04  0.17945983998E+04 0.  0.
        4    1    3    3  502    0  0.72164583485E+03  0.17550606423E+03  0.77654311481E+03  0.10745212476E+04  0.12699999809E+01 0.  1.
       -4    1    3    3    0  502 -0.72164583485E+03 -0.17550606423E+03 -0.26993042451E+03  0.79021461421E+03  0.12699999809E+01 0. -1.
</event>
<event>
 5   0  0.4578107E-05  0.1796447E+04  0.7818609E-02  0.8708191E-01
       -1   -1    0    0    0  501  0.00000000000E+00  0.00000000000E+00  0.77898106743E+03  0.77898106745E+03  0.50400001928E-02 0.  1.
        1   -1    0    0  501    0  0.00000000000E+00  0.00000000000E+00 -0.10357191593E+04  0.10357191593E+04  0.50400001928E-02 0. -1.
    10030    2    1    2    0    0  0.00000000000E+00  0.00000000000E+00 -0.25673809187E+03  0.18147002268E+04  0.17964471785E+04 0.  0.
        2    1    3    3  502    0 -0.43493116951E+03 -0.20258050665E+03  0.63868925697E+03  0.79882911243E+03  0.25500000920E-02 0.  1.
       -2    1    3    3    0  502  0.43493116951E+03  0.20258050665E+03 -0.89542734884E+03  0.10158711143E+04  0.25500000920E-02 0. -1.
</event>
<event>
 5   0  0.4335117E-05  0.1802389E+04  0.7818609E-02  0.8705030E-01
       -1   -1    0    0    0  501  0.00000000000E+00  0.00000000000E+00  0.17811680333E+04  0.17811680333E+04  0.50400001928E-02 0.  1.
        1   -1    0    0  501    0  0.00000000000E+00  0.00000000000E+00 -0.45596551958E+03  0.45596551961E+03  0.50400001928E-02 0. -1.
    10030    2    1    2    0    0  0.00000000000E+00  0.00000000000E+00  0.13252025137E+04  0.22371335529E+04  0.18023886460E+04 0.  0.
        3    1    3    3  502    0 -0.33143308703E+03  0.83797322976E+03  0.64993290108E+03  0.11110624695E+04  0.10100000352E+00 0.  1.
       -3    1    3    3    0  502  0.33143308703E+03 -0.83797322976E+03  0.67526961262E+03  0.11260710834E+04  0.10100000352E+00 0. -1.
</event>
<event>
 5   0  0.4623665E-05  0.1792057E+04  0.7818609E-02  0.8710535E-01
        1   -1    0    0  501    0  0.00000000000E+00  0.00000000000E+00  0.54489585882E+03  0.54489585884E+03  0.50400001928E-02 0.  1.
       -1   -1    0    0    0  501  0.00000000000E+00  0.00000000000E+00 -0.14734321116E+04  0.14734321116E+04  0.50400001928E-02 0. -1.
    10030    2    1    2    0    0  0.00000000000E+00  0.00000000000E+00 -0.92853625275E+03  0.20183279704E+04  0.17920569811E+04 0.  0.
        5    1    3    3  502    0 -0.57310638505E+03 -0.36623855517E+03 -0.11212411182E+04  0.13114058651E+04  0.46999998093E+01 0. -1.
       -5    1    3    3    0  502  0.57310638505E+03  0.36623855517E+03  0.19270486542E+03  0.70692210535E+03  0.46999998093E+01 0.  1.
</event>
<event>
 5   0  0.8892280E-05  0.1801365E+04  0.7818609E-02  0.8705574E-01
        2   -1    0    0  501    0  0.00000000000E+00  0.00000000000E+00  0.11463793293E+04  0.11463793293E+04  0.25500000920E-02 0. -1.
       -2   -1    0    0    0  501  0.00000000000E+00  0.00000000000E+00 -0.70764430736E+03  0.70764430737E+03  0.25500000920E-02 0.  1.
    10030    2    1    2    0    0  0.00000000000E+00  0.00000000000E+00  0.43873502195E+03  0.18540236367E+04  0.18013648231E+04 0.  0.
        4    1    3    3  502    0  0.39011232255E+03 -0.16336149123E+03 -0.59908453878E+03  0.73333382475E+03  0.12699999809E+01 0.  1.
       -4    1    3    3    0  502 -0.39011232255E+03  0.16336149123E+03  0.10378195607E+04  0.11206898119E+04  0.12699999809E+01 0. -1.
</event>
<event>
 5   0  0.9184414E-05  0.1802098E+04  0.7818609E-02  0.8705184E-01
        2   -1    0    0  501    0  0.00000000000E+00  0.00000000000E+00  0.12953808494E+04  0.12953808494E+04  0.25500000920E-02 0.  1.
       -2   -1    0    0    0  501  0.00000000000E+00  0.00000000000E+00 -0.62675745591E+03  0.62675745592E+03  0.25500000920E-02 0. -1.
    10030    2    1    2    0    0  0.00000000000E+00  0.00000000000E+00  0.66862339352E+03  0.19221383053E+04  0.18020983388E+04 0.  0.
        5    1    3    3  502    0  0.64372897565E+03  0.12812441995E+03 -0.32411204316E+03  0.73203385686E+03  0.46999998093E+01 0. -1.
       -5    1    3    3    0  502 -0.64372897565E+03 -0.12812441995E+03  0.99273543668E+03  0.11901044485E+04  0.46999998093E+01 0.  1.
</event>
<event>
 5   0  0.8893075E-05  0.1816404E+04  0.7818609E-02  0.8697624E-01
       -2   -1    0    0    0  501  0.00000000000E+00  0.00000000000E+00  0.10181549404E+04  0.10181549404E+04  0.25500000920E-02 0.  1.
        2   -1    0    0  501    0  0.00000000000E+00  0.00000000000E+00 -0.81012297202E+03  0.81012297203E+03  0.25500000920E-02 0. -1.
    10030    2    1    2    0    0  0.00000000000E+00  0.00000000000E+00  0.20803196838E+03  0.18282779124E+04  0.18164038167E+04 0.  0.
        1    1    3    3  502    0 -0.55461735661E+03  0.50704138732E+03  0.61738873338E+03  0.97255345808E+03  0.50400001928E-02 0.  1.
       -1    1    3    3    0  502  0.55461735661E+03 -0.50704138732E+03 -0.40935676500E+03  0.85572445435E+03  0.50400001928E-02 0. -1.
</event>
<event>
 5   0  0.8893075E-05  0.1820948E+04  0.7818609E-02  0.8695238E-01
       -2   -1    0    0    0  501  0.00000000000E+00  0.00000000000E+00  0.48976572106E+03  0.48976572107E+03  0.25500000920E-02 0.  1.
        2   -1    0    0  501    0  0.00000000000E+00  0.00000000000E+00 -0.16925702381E+04  0.16925702381E+04  0.25500000920E-02 0. -1.
    10030    2    1    2    0    0  0.00000000000E+00  0.00000000000E+00 -0.12028045171E+04  0.21823359592E+04  0.18209479763E+04 0.  0.
        1    1    3    3  502    0 -0.31599663807E+03 -0.42033158517E+03  0.28936212120E+03  0.60021908831E+03  0.50400001928E-02 0.  1.
       -1    1    3    3    0  502  0.31599663807E+03  0.42033158517E+03 -0.14921666383E+04  0.15821168709E+04  0.50400001928E-02 0. -1.
</event>
<event>
 5   0  0.4623665E-05  0.1723246E+04  0.7818609E-02  0.8748216E-01
        1   -1    0    0  501    0  0.00000000000E+00  0.00000000000E+00  0.19655195531E+04  0.19655195531E+04  0.50400001928E-02 0. -1.
       -1   -1    0    0    0  501  0.00000000000E+00  0.00000000000E+00 -0.37770872818E+03  0.37770872822E+03  0.50400001928E-02 0.  1.
    10030    2    1    2    0    0  0.00000000000E+00  0.00000000000E+00  0.15878108249E+04  0.23432282813E+04  0.17232456478E+04 0.  0.
        5    1    3    3  502    0  0.82974587006E+03 -0.51519309849E+02  0.48610497938E+03  0.96304339941E+03  0.46999998093E+01 0.  1.
       -5    1    3    3    0  502 -0.82974587006E+03  0.51519309849E+02  0.11017058455E+04  0.13801848819E+04  0.46999998093E+01 0. -1.
</event>
<event>
 5   0  0.3270375E-05  0.1840121E+04  0.7818609E-02  0.8685250E-01
       -3   -1    0    0    0  501  0.00000000000E+00  0.00000000000E+00  0.22202086350E+04  0.22202086373E+04  0.10100000352E+00 0.  1.
        3   -1    0    0  501    0  0.00000000000E+00  0.00000000000E+00 -0.38127574865E+03  0.38127576203E+03  0.10100000352E+00 0. -1.
    10030    2    1    2    0    0  0.00000000000E+00  0.00000000000E+00  0.18389328864E+04  0.26014843993E+04  0.18401214415E+04 0.  0.
        2    1    3    3  502    0  0.42223216399E+03  0.77188996411E+02  0.20699845496E+04  0.21140184902E+04  0.25500000920E-02 0.  1.
       -2    1    3    3    0  502 -0.42223216399E+03 -0.77188996411E+02 -0.23105166321E+03  0.48746590912E+03  0.25500000920E-02 0. -1.
</event>
<event>
 5   0  0.8892280E-05  0.1800949E+04  0.7818609E-02  0.8705795E-01
        2   -1    0    0  501    0  0.00000000000E+00  0.00000000000E+00  0.15604175393E+04  0.15604175393E+04  0.25500000920E-02 0.  1.
       -2   -1    0    0    0  501  0.00000000000E+00  0.00000000000E+00 -0.51963939037E+03  0.51963939038E+03  0.25500000920E-02 0. -1.
    10030    2    1    2    0    0  0.00000000000E+00  0.00000000000E+00  0.10407781489E+04  0.20800569296E+04  0.18009491040E+04 0.  0.
        4    1    3    3  502    0  0.67908102102E+03 -0.15088321631E+03 -0.14000804886E+03  0.70959188603E+03  0.12699999809E+01 0. -1.
       -4    1    3    3    0  502 -0.67908102102E+03  0.15088321631E+03  0.11807861977E+04  0.13704650436E+04  0.12699999809E+01 0.  1.
</event>
<event>
 5   0  0.4494757E-05  0.1799508E+04  0.7818609E-02  0.8706561E-01
       -1   -1    0    0    0  501  0.00000000000E+00  0.00000000000E+00  0.15337399079E+04  0.15337399079E+04  0.50400001928E-02 0. -1.
        1   -1    0    0  501    0  0.00000000000E+00  0.00000000000E+00 -0.52783228556E+03  0.52783228558E+03  0.50400001928E-02 0.  1.
    10030    2    1    2    0    0  0.00000000000E+00  0.00000000000E+00  0.10059076224E+04  0.20615721935E+04  0.17995082007E+04 0.  0.
        4    1    3    3  502    0 -0.67371488363E+03 -0.12533247507E+03 -0.16501468491E+03  0.70486270497E+03  0.12699999809E+01 0.  1.
       -4    1    3    3    0  502  0.67371488363E+03  0.12533247507E+03  0.11709223073E+04  0.13567094885E+04  0.12699999809E+01 0. -1.
</event>
<event>
 5   0  0.8892280E-05  0.1803290E+04  0.7818609E-02  0.8704552E-01
       -2   -1    0    0    0  501  0.00000000000E+00  0.00000000000E+00  0.11368859667E+04  0.11368859667E+04  0.25500000920E-02 0. -1.
        2   -1    0    0  501    0  0.00000000000E+00  0.00000000000E+00 -0.71507922021E+03  0.71507922021E+03  0.25500000920E-02 0.  1.
    10030    2    1    2    0    0  0.00000000000E+00  0.00000000000E+00  0.42180674646E+03  0.18519651869E+04  0.18032898053E+04 0.  0.
        4    1    3    3  502    0  0.11579778469E+03 -0.84144919931E+02  0.11251415872E+04  0.11342110468E+04  0.12699999809E+01 0. -1.
       -4    1    3    3    0  502 -0.11579778469E+03  0.84144919931E+02 -0.70333484076E+03  0.71775414009E+03  0.12699999809E+01 0.  1.
</event>
<event>
 5   0  0.4335117E-05  0.1823902E+04  0.7818609E-02  0.8693691E-01
        1   -1    0    0  501    0  0.00000000000E+00  0.00000000000E+00  0.27686093047E+04  0.27686093047E+04  0.50400001928E-02 0.  1.
       -1   -1    0    0    0  501  0.00000000000E+00  0.00000000000E+00 -0.30038700040E+03  0.30038700045E+03  0.50400001928E-02 0. -1.
    10030    2    1    2    0    0  0.00000000000E+00  0.00000000000E+00  0.24682223043E+04  0.30689963051E+04  0.18239015811E+04 0.  0.
        3    1    3    3  502    0 -0.58918917586E+03  0.31234368275E+03  0.22808139529E+04  0.23763027499E+04  0.10100000352E+00 0.  1.
       -3    1    3    3    0  502  0.58918917586E+03 -0.31234368275E+03  0.18740835134E+03  0.69269355523E+03  0.10100000352E+00 0. -1.
</event>
<event>
 5   0  0.4494757E-05  0.1799340E+04  0.7818609E-02  0.8706650E-01
       -1   -1    0    0    0  501  0.00000000000E+00  0.00000000000E+00  0.56789939351E+03  0.56789939353E+03  0.50400001928E-02 0.  1.
        1   -1    0    0  501    0  0.00000000000E+00  0.00000000000E+00 -0.14252638363E+04  0.14252638363E+04  0.50400001928E-02 0. -1.
    10030    2    1    2    0    0  0.00000000000E+00  0.00000000000E+00 -0.85736444278E+03  0.19931632298E+04  0.17993403994E+04 0.  0.
        4    1    3    3  502    0 -0.45235296431E+03 -0.63769752272E+03 -0.92173970389E+03  0.12086715970E+04  0.12699999809E+01 0. -1.
       -4    1    3    3    0  502  0.45235296431E+03  0.63769752272E+03  0.64375261115E+02  0.78449163281E+03  0.12699999809E+01 0.  1.
</event>
<event>
 5   0  0.4578107E-05  0.1799848E+04  0.7818609E-02  0.8706380E-01
        1   -1    0    0  501    0  0.00000000000E+00  0.00000000000E+00  0.91350006984E+03  0.91350006986E+03  0.50400001928E-02 0.  1.
       -1   -1    0    0    0  501  0.00000000000E+00  0.00000000000E+00 -0.88654947547E+03  0.88654947548E+03  0.50400001928E-02 0. -1.
    10030    2    1    2    0    0  0.00000000000E+00  0.00000000000E+00  0.26950594373E+02  0.18000495453E+04  0.17998477800E+04 0.  0.
        2    1    3    3  502    0  0.99220339323E+02  0.31384474876E+03  0.85113698137E+03  0.91256636094E+03  0.25500000920E-02 0.  1.
       -2    1    3    3    0  502 -0.99220339323E+02 -0.31384474876E+03 -0.82418638700E+03  0.88748318439E+03  0.25500000920E-02 0. -1.
</event>
<event>
 5   0  0.8893075E-05  0.1805873E+04  0.7818609E-02  0.8703183E-01
       -2   -1    0    0    0  501  0.00000000000E+00  0.00000000000E+00  0.63045412338E+03  0.63045412339E+03  0.25500000920E-02 0.  1.
        2   -1    0    0  501    0  0.00000000000E+00  0.00000000000E+00 -0.12931856801E+04  0.12931856801E+04  0.25500000920E-02 0. -1.
    10030    2    1    2    0    0  0.00000000000E+00  0.00000000000E+00 -0.66273155670E+03  0.19236398035E+04  0.18058729128E+04 0.  0.
        1    1    3    3  502    0  0.26673611123E+03 -0.25462406652E+03 -0.12093191081E+04  0.12642920048E+04  0.50400001928E-02 0. -1.
       -1    1    3    3    0  502 -0.26673611123E+03  0.25462406652E+03  0.54658755136E+03  0.65934779867E+03  0.50400001928E-02 0.  1.
</event>
<event>
 5   0  0.4535100E-05  0.1791232E+04  0.7818609E-02  0.8710976E-01
        1   -1    0    0  501    0  0.00000000000E+00  0.00000000000E+00  0.55720772567E+03  0.55720772569E+03  0.50400001928E-02 0.  1.
       -1   -1    0    0    0  501  0.00000000000E+00  0.00000000000E+00 -0.14395489740E+04  0.14395489740E+04  0.50400001928E-02 0. -1.
    10030    2    1    2    0    0  0.00000000000E+00  0.00000000000E+00 -0.88234124835E+03  0.19967566997E+04  0.17912317659E+04 0.  0.
        1    1    3    3  502    0  0.15534224815E+03 -0.17409463031E+03 -0.14050739372E+04  0.14243148962E+04  0.50400001928E-02 0. -1.
       -1    1    3    3    0  502 -0.15534224815E+03  0.17409463031E+03  0.52273268889E+03  0.57244180353E+03  0.50400001928E-02 0.  1.
</event>
<event>
 5   0  0.8893075E-05  0.1820689E+04  0.7818609E-02  0.8695374E-01
       -2   -1    0    0    0  501  0.00000000000E+00  0.00000000000E+00  0.96003571713E+03  0.96003571713E+03  0.25500000920E-02 0. -1.
        2   -1    0    0  501    0  0.00000000000E+00  0.00000000000E+00 -0.86322524874E+03  0.86322524874E+03  0.25500000920E-02 0.  1.
    10030    2    1    2    0    0  0.00000000000E+00  0.00000000000E+00  0.96810468391E+02  0.18232609659E+04  0.18206889583E+04 0.  0.
        1    1    3    3  502    0 -0.33181648064E+03  0.22390715804E+03  0.86717291000E+03  0.95510494089E+03  0.50400001928E-02 0. -1.
       -1    1    3    3    0  502  0.33181648064E+03 -0.22390715804E+03 -0.77036244161E+03  0.86815602498E+03  0.50400001928E-02 0.  1.
</event>
<event>
 5   0  0.8802655E-05  0.1793537E+04  0.7818609E-02  0.8709744E-01
        2   -1    0    0  501    0  0.00000000000E+00  0.00000000000E+00  0.12929233683E+04  0.12929233683E+04  0.25500000920E-02 0.  1.
       -2   -1    0    0    0  501  0.00000000000E+00  0.00000000000E+00 -0.62199665449E+03  0.62199665450E+03  0.25500000920E-02 0. -1.
    10030    2    1    2    0    0  0.00000000000E+00  0.00000000000E+00  0.67092671382E+03  0.19149200228E+04  0.17935372978E+04 0.  0.
        2    1    3    3  502    0  0.23148641517E+03 -0.85350377600E+03  0.17660038035E+03  0.90179950677E+03  0.25500000920E-02 0. -1.
       -2    1    3    3    0  502 -0.23148641517E+03  0.85350377600E+03  0.49432633348E+03  0.10131205160E+04  0.25500000920E-02 0.  1.
</event>
<event>
 5   0  0.8892280E-05  0.1801639E+04  0.7818609E-02  0.8705428E-01
       -2   -1    0    0    0  501  0.00000000000E+00  0.00000000000E+00  0.31537287991E+03  0.31537287992E+03  0.25500000920E-02 0. -1.
        2   -1    0    0  501    0  0.00000000000E+00  0.00000000000E+00 -0.25730684999E+04  0.25730684999E+04  0.25500000920E-02 0.  1.
    10030    2    1    2    0    0  0.00000000000E+00  0.00000000000E+00 -0.22576956200E+04  0.28884413798E+04  0.18016392791E+04 0.  0.
        4    1    3    3  502    0 -0.22235779060E+03  0.34311478270E+02 -0.25272961314E+04  0.25372913930E+04  0.12699999809E+01 0.  1.
       -4    1    3    3    0  502  0.22235779060E+03 -0.34311478270E+02  0.26960051139E+03  0.35114998679E+03  0.12699999809E+01 0. -1.
</event>
<event>
 5   0  0.4494757E-05  0.1789827E+04  0.7818609E-02  0.8711728E-01
        1   -1    0    0  501    0  0.00000000000E+00  0.00000000000E+00  0.18712530231E+04  0.18712530231E+04  0.50400001928E-02 0. -1.
       -1   -1    0    0    0  501  0.00000000000E+00  0.00000000000E+00 -0.42798580177E+03  0.42798580180E+03  0.50400001928E-02 0.  1.
    10030    2    1    2    0    0  0.00000000000E+00  0.00000000000E+00  0.14432672213E+04  0.22992388249E+04  0.17898265005E+04 0.  0.
        4    1    3    3  502    0 -0.85721342719E+03  0.22896719993E+03  0.57167284591E+03  0.10554867569E+04  0.12699999809E+01 0.  1.
       -4    1    3    3    0  502  0.85721342719E+03 -0.22896719993E+03  0.87159437540E+03  0.12437520680E+04  0.12699999809E+01 0. -1.
</event>
<event>
 5   0  0.4535100E-05  0.1799835E+04  0.7818609E-02  0.8706387E-01
        1   -1    0    0  501    0  0.00000000000E+00  0.00000000000E+00  0.12629864915E+04  0.12629864915E+04  0.50400001928E-02 0.  1.
       -1   -1    0    0    0  501  0.00000000000E+00  0.00000000000E+00 -0.64121925937E+03  0.64121925939E+03  0.50400001928E-02 0. -1.
    10030    2    1    2    0    0  0.00000000000E+00  0.00000000000E+00  0.62176723208E+03  0.19042057509E+04  0.17998347287E+04 0.  0.
        1    1    3    3  502    0 -0.64821810094E+03  0.22603283401E+03 -0.30472949953E+03  0.75109095078E+03  0.50400001928E-02 0. -1.
       -1    1    3    3    0  502  0.64821810094E+03 -0.22603283401E+03  0.92649673161E+03  0.11531148001E+04  0.50400001928E-02 0.  1.
</event>
<event>
 5   0  0.8892280E-05  0.1801145E+04  0.7818609E-02  0.8705691E-01
        2   -1    0    0  501    0  0.00000000000E+00  0.00000000000E+00  0.64643932312E+03  0.64643932313E+03  0.25500000920E-02 0.  1.
       -2   -1    0    0    0  501  0.00000000000E+00  0.00000000000E+00 -0.12546126722E+04  0.12546126722E+04  0.25500000920E-02 0. -1.
    10030    2    1    2    0    0  0.00000000000E+00  0.00000000000E+00 -0.60817334909E+03  0.19010519953E+04  0.18011451542E+04 0.  0.
        4    1    3    3  502    0 -0.15290940445E+03 -0.87933269495E+03 -0.17733339011E+03  0.90997583403E+03  0.12699999809E+01 0.  1.
       -4    1    3    3    0  502  0.15290940445E+03  0.87933269495E+03 -0.43083995898E+03  0.99107616131E+03  0.12699999809E+01 0. -1.
</event>
<event>
 5   0  0.9184414E-05  0.1793412E+04  0.7818609E-02  0.8709811E-01
        2   -1    0    0  501    0  0.00000000000E+00  0.00000000000E+00  0.10935716274E+04  0.10935716274E+04  0.25500000920E-02 0. -1.
       -2   -1    0    0    0  501  0.00000000000E+00  0.00000000000E+00 -0.73528009551E+03  0.73528009551E+03  0.25500000920E-02 0.  1.
    10030    2    1    2    0    0  0.00000000000E+00  0.00000000000E+00  0.35829153193E+03  0.18288517230E+04  0.17934117772E+04 0.  0.
        5    1    3    3  502    0  0.31684975721E+03 -0.51488874683E+03  0.85446729662E+03  0.10467285423E+04  0.46999998093E+01 0. -1.
       -5    1    3    3    0  502 -0.31684975721E+03  0.51488874683E+03 -0.49617576469E+03  0.78212318066E+03  0.46999998093E+01 0.  1.
</event>
<event>
 5   0  0.4578107E-05  0.1798525E+04  0.7818609E-02  0.8707084E-01
       -1   -1    0    0    0  501  0.00000000000E+00  0.00000000000E+00  0.73117006072E+03  0.73117006074E+03  0.50400001928E-02 0.  1.
        1   -1    0    0  501    0  0.00000000000E+00  0.00000000000E+00 -0.11059981470E+04  0.11059981470E+04  0.50400001928E-02 0. -1.
    10030    2    1    2    0    0  0.00000000000E+00  0.00000000000E+00 -0.37482808627E+03  0.18371682077E+04  0.17985246535E+04 0.  0.
        2    1    3    3  502    0  0.41709576725E+03 -0.66833737092E+03  0.25552601455E+03  0.82821329653E+03  0.25500000920E-02 0.  1.
       -2    1    3    3    0  502 -0.41709576725E+03  0.66833737092E+03 -0.63035410082E+03  0.10089549112E+04  0.25500000920E-02 0. -1.
</event>
<event>
 5   0  0.4335117E-05  0.1798302E+04  0.7818609E-02  0.8707203E-01
       -1   -1    0    0    0  501  0.00000000000E+00  0.00000000000E+00  0.39420817542E+03  0.39420817545E+03  0.50400001928E-02 0.  1.
        1   -1    0    0  501    0  0.00000000000E+00  0.00000000000E+00 -0.20508767680E+04  0.20508767680E+04  0.50400001928E-02 0. -1.
    10030    2    1    2    0    0  0.00000000000E+00  0.00000000000E+00 -0.16566685925E+04  0.24450849434E+04  0.17983018531E+04 0.  0.
        3    1    3    3  502    0 -0.17140349013E+03 -0.31568347643E+03 -0.19490772290E+04  0.19819024366E+04  0.10100000352E+00 0. -1.
       -3    1    3    3    0  502  0.17140349013E+03  0.31568347643E+03  0.29240863643E+03  0.46318250677E+03  0.10100000352E+00 0.  1.
</event>
<event>
 5   0  0.8802655E-05  0.1801607E+04  0.7818609E-02  0.8705445E-01
       -2   -1    0    0    0  501  0.00000000000E+00  0.00000000000E+00  0.31134158707E+03  0.31134158708E+03  0.25500000920E-02 0. -1.
        2   -1    0    0  501    0  0.00000000000E+00  0.00000000000E+00 -0.26062914503E+04  0.26062914503E+04  0.25500000920E-02 0.  1.
    10030    2    1    2    0    0  0.00000000000E+00  0.00000000000E+00 -0.22949498633E+04  0.29176330374E+04  0.18016069677E+04 0.  0.
        2    1    3    3  502    0 -0.49198229186E+03 -0.74249981364E+03 -0.13653172858E+04  0.16301668135E+04  0.25500000920E-02 0.  1.
       -2    1    3    3    0  502  0.49198229186E+03  0.74249981364E+03 -0.92963257741E+03  0.12874662239E+04  0.25500000920E-02 0. -1.
</event>
<event>
 5   0  0.8892280E-05  0.1781433E+04  0.7818609E-02  0.8716236E-01
        2   -1    0    0  501    0  0.00000000000E+00  0.00000000000E+00  0.22640040238E+04  0.22640040238E+04  0.25500000920E-02 0. -1.
       -2   -1    0    0    0  501  0.00000000000E+00  0.00000000000E+00 -0.35043058063E+03  0.35043058063E+03  0.25500000920E-02 0.  1.
    10030    2    1    2    0    0  0.00000000000E+00  0.00000000000E+00  0.19135734431E+04  0.26144346044E+04  0.17814334055E+04 0.  0.
        4    1    3    3  502    0 -0.34672790805E+03 -0.50488928917E+03  0.76656951748E+01  0.61253066235E+03  0.12699999809E+01 0.  1.
       -4    1    3    3    0  502  0.34672790805E+03  0.50488928917E+03  0.19059077480E+04  0.20019039420E+04  0.12699999809E+01 0. -1.
</event>
<event>
 5   0  0.4535100E-05  0.1784929E+04  0.7818609E-02  0.8714355E-01
       -1   -1    0    0    0  501  0.00000000000E+00  0.00000000000E+00  0.95924297466E+03  0.95924297467E+03  0.50400001928E-02 0. -1.
        1   -1    0    0  501    0  0.00000000000E+00  0.00000000000E+00 -0.83033511916E+03  0.83033511918E+03  0.50400001928E-02 0.  1.
    10030    2    1    2    0    0  0.00000000000E+00  0.00000000000E+00  0.12890785550E+03  0.17895780939E+04  0.17849292756E+04 0.  0.
        1    1    3    3  502    0 -0.30712601692E+03 -0.75766810785E+03 -0.29439694019E+03  0.86894010745E+03  0.50400001928E-02 0. -1.
       -1    1    3    3    0  502  0.30712601692E+03  0.75766810785E+03  0.42330479569E+03  0.92063798640E+03  0.50400001928E-02 0.  1.
</event>
<event>
 5   0  0.4535100E-05  0.1795055E+04  0.7818609E-02  0.8708933E-01
        1   -1    0    0  501    0  0.00000000000E+00  0.00000000000E+00  0.89658213978E+03  0.89658213980E+03  0.50400001928E-02 0.  1.
       -1   -1    0    0    0  501  0.00000000000E+00  0.00000000000E+00 -0.89847427956E+03  0.89847427957E+03  0.50400001928E-02 0. -1.
    10030    2    1    2    0    0  0.00000000000E+00  0.00000000000E+00 -0.18921397735E+01  0.17950564194E+04  0.17950554221E+04 0.  0.
        1    1    3    3  502    0 -0.77408342008E+02 -0.17773783225E+03 -0.87728736012E+03  0.89845194678E+03  0.50400001928E-02 0. -1.
       -1    1    3    3    0  502  0.77408342008E+02  0.17773783225E+03  0.87539522035E+03  0.89660447259E+03  0.50400001928E-02 0.  1.
</event>
<event>
 5   0  0.9147432E-05  0.1783174E+04  0.7818609E-02  0.8715299E-01
       -2   -1    0    0    0  501  0.00000000000E+00  0.00000000000E+00  0.54315921219E+03  0.54315921220E+03  0.25500000920E-02 0. -1.
        2   -1    0    0  501    0  0.00000000000E+00  0.00000000000E+00 -0.14635252469E+04  0.14635252469E+04  0.25500000920E-02 0.  1.
    10030    2    1    2    0    0  0.00000000000E+00  0.00000000000E+00 -0.92036603475E+03  0.20066844591E+04  0.17831738223E+04 0.  0.
        3    1    3    3  502    0  0.57378168128E+03 -0.38147992774E+03  0.17658174096E+03  0.71129000730E+03  0.10100000352E+00 0. -1.
       -3    1    3    3    0  502 -0.57378168128E+03  0.38147992774E+03 -0.10969477757E+04  0.12953944518E+04  0.10100000352E+00 0.  1.
</event>
<event>
 5   0  0.4494757E-05  0.1797691E+04  0.7818609E-02  0.8707529E-01
        1   -1    0    0  501    0  0.00000000000E+00  0.00000000000E+00  0.11114396300E+04  0.11114396301E+04  0.50400001928E-02 0.  1.
       -1   -1    0    0    0  501  0.00000000000E+00  0.00000000000E+00 -0.72691558739E+03  0.72691558741E+03  0.50400001928E-02 0. -1.
    10030    2    1    2    0    0  0.00000000000E+00  0.00000000000E+00  0.38452404265E+03  0.18383552175E+04  0.17976905090E+04 0.  0.
        4    1    3    3  502    0  0.86335288733E+03 -0.69075806601E+02  0.43805605775E+03  0.97058971649E+03  0.12699999809E+01 0. -1.
       -4    1    3    3    0  502 -0.86335288733E+03  0.69075806601E+02 -0.53532015103E+02  0.86776550096E+03  0.12699999809E+01 0.  1.
</event>
<event>
 5   0  0.4535100E-05  0.1797722E+04  0.7818609E-02  0.8707512E-01
       -1   -1    0    0    0  501  0.00000000000E+00  0.00000000000E+00  0.54957391825E+03  0.54957391827E+03  0.50400001928E-02 0. -1.
        1   -1    0    0  501    0  0.00000000000E+00  0.00000000000E+00 -0.14701415945E+04  0.14701415945E+04  0.50400001928E-02 0.  1.
    10030    2    1    2    0    0  0.00000000000E+00  0.00000000000E+00 -0.92056767622E+03  0.20197155128E+04  0.17977224218E+04 0.  0.
        1    1    3    3  502    0 -0.17101150347E+03  0.73921692159E+03 -0.10017350673E+04  0.12566462257E+04  0.50400001928E-02 0.  1.
       -1    1    3    3    0  502  0.17101150347E+03 -0.73921692159E+03  0.81167391044E+02  0.76306928708E+03  0.50400001928E-02 0. -1.
</event>
<event>
 5   0  0.4535100E-05  0.1799155E+04  0.7818609E-02  0.8706749E-01
        1   -1    0    0  501    0  0.00000000000E+00  0.00000000000E+00  0.74882732070E+03  0.74882732072E+03  0.50400001928E-02 0.  1.
       -1   -1    0    0    0  501  0.00000000000E+00  0.00000000000E+00 -0.10806761563E+04  0.10806761563E+04  0.50400001928E-02 0. -1.
    10030    2    1    2    0    0  0.00000000000E+00  0.00000000000E+00 -0.33184883562E+03  0.18295034771E+04  0.17991551692E+04 0.  0.
        1    1    3    3  502    0 -0.64565884288E+03 -0.22900666232E+03  0.42693709389E+03  0.80721414441E+03  0.50400001928E-02 0.  1.
       -1    1    3    3    0  502  0.64565884288E+03  0.22900666232E+03 -0.75878592952E+03  0.10222893326E+04  0.50400001928E-02 0. -1.
</event>
<event>
 5   0  0.4335117E-05  0.1797205E+04  0.7818609E-02  0.8707787E-01
        1   -1    0    0  501    0  0.00000000000E+00  0.00000000000E+00  0.13456729024E+04  0.13456729024E+04  0.50400001928E-02 0.  1.
       -1   -1    0    0    0  501  0.00000000000E+00  0.00000000000E+00 -0.60006147108E+03  0.60006147110E+03  0.50400001928E-02 0. -1.
    10030    2    1    2    0    0  0.00000000000E+00  0.00000000000E+00  0.74561143128E+03  0.19457343735E+04  0.17972050094E+04 0.  0.
        3    1    3    3  502    0 -0.77142532690E+03  0.41024597992E+03  0.60012925892E+03  0.10599782718E+04  0.10100000352E+00 0.  1.
       -3    1    3    3    0  502  0.77142532690E+03 -0.41024597992E+03  0.14548217236E+03  0.88575610170E+03  0.10100000352E+00 0. -1.
</event>
<event>
 5   0  0.9184414E-05  0.1799174E+04  0.7818609E-02  0.8706739E-01
        2   -1    0    0  501    0  0.00000000000E+00  0.00000000000E+00  0.12645777510E+04  0.12645777510E+04  0.25500000920E-02 0. -1.
       -2   -1    0    0    0  501  0.00000000000E+00  0.00000000000E+00 -0.63994215562E+03  0.63994215563E+03  0.25500000920E-02 0.  1.
    10030    2    1    2    0    0  0.00000000000E+00  0.00000000000E+00  0.62463559533E+03  0.19045199066E+04  0.17991738236E+04 0.  0.
        5    1    3    3  502    0 -0.68276923704E+03  0.58153019339E+03  0.23834531267E+03  0.92799880115E+03  0.46999998093E+01 0.  1.
       -5    1    3    3    0  502  0.68276923704E+03 -0.58153019339E+03  0.38629028266E+03  0.97652110543E+03  0.46999998093E+01 0. -1.
</event>
<event>
 5   0  0.4494757E-05  0.1790237E+04  0.7818609E-02  0.8711509E-01
        1   -1    0    0  501    0  0.00000000000E+00  0.00000000000E+00  0.18293476122E+04  0.18293476122E+04  0.50400001928E-02 0. -1.
       -1   -1    0    0    0  501  0.00000000000E+00  0.00000000000E+00 -0.43799070390E+03  0.43799070393E+03  0.50400001928E-02 0.  1.
    10030    2    1    2    0    0  0.00000000000E+00  0.00000000000E+00  0.13913569083E+04  0.22673383162E+04  0.17902371333E+04 0.  0.
        4    1    3    3  502    0 -0.65851802584E+03  0.45596026342E+03  0.12017879293E+04  0.14442442979E+04  0.12699999809E+01 0. -1.
       -4    1    3    3    0  502  0.65851802584E+03 -0.45596026342E+03  0.18956897907E+03  0.82309401827E+03  0.12699999809E+01 0.  1.
</event>
<event>
 5   0  0.4535100E-05  0.1802180E+04  0.7818609E-02  0.8705141E-01
        1   -1    0    0  501    0  0.00000000000E+00  0.00000000000E+00  0.14740182812E+04  0.14740182812E+04  0.50400001928E-02 0.  1.
       -1   -1    0    0    0  501  0.00000000000E+00  0.00000000000E+00 -0.55085025457E+03  0.55085025459E+03  0.50400001928E-02 0. -1.
    10030    2    1    2    0    0  0.00000000000E+00  0.00000000000E+00  0.92316802661E+03  0.20248685358E+04  0.18021801746E+04 0.  0.
        1    1    3    3  502    0 -0.73546878555E+02  0.22123984313E+03  0.14395430226E+04  0.14583004922E+04  0.50400001928E-02 0.  1.
       -1    1    3    3    0  502  0.73546878555E+02 -0.22123984313E+03 -0.51637499599E+03  0.56656804361E+03  0.50400001928E-02 0. -1.
</event>
<event>
 5   0  0.4535100E-05  0.1716985E+04  0.7818609E-02  0.8751736E-01
        1   -1    0    0  501    0  0.00000000000E+00  0.00000000000E+00  0.61327682765E+03  0.61327682767E+03  0.50400001928E-02 0. -1.
       -1   -1    0    0    0  501  0.00000000000E+00  0.00000000000E+00 -0.12017568900E+04  0.12017568900E+04  0.50400001928E-02 0.  1.
    10030    2    1    2    0    0  0.00000000000E+00  0.00000000000E+00 -0.58848006238E+03  0.18150337177E+04  0.17169853268E+04 0.  0.
        1    1    3    3  502    0  0.44324528153E+02 -0.28643589223E+03  0.55998939466E+03  0.63055396780E+03  0.50400001928E-02 0. -1.
       -1    1    3    3    0  502 -0.44324528153E+02  0.28643589223E+03 -0.11484694570E+04  0.11844797499E+04  0.50400001928E-02 0.  1.
</event>
<event>
 5   0  0.9184414E-05  0.1795720E+04  0.7818609E-02  0.8708579E-01
        2   -1    0    0  501    0  0.00000000000E+00  0.00000000000E+00  0.30111364554E+04  0.30111364554E+04  0.25500000920E-02 0.  1.
       -2   -1    0    0    0  501  0.00000000000E+00  0.00000000000E+00 -0.26772374205E+03  0.26772374206E+03  0.25500000920E-02 0. -1.
    10030    2    1    2    0    0  0.00000000000E+00  0.00000000000E+00  0.27434127133E+04  0.32788601974E+04  0.17957201560E+04 0.  0.
        5    1    3    3  502    0 -0.61520357731E+03  0.97209317753E+02  0.19089877901E+03  0.65145186071E+03  0.46999998093E+01 0. -1.
       -5    1    3    3    0  502  0.61520357731E+03 -0.97209317753E+02  0.25525139343E+04  0.26274083367E+04  0.46999998093E+01 0.  1.
</event>
<event>
 5   0  0.8892280E-05  0.1796008E+04  0.7818609E-02  0.8708425E-01
        2   -1    0    0  501    0  0.00000000000E+00  0.00000000000E+00  0.95321987728E+03  0.95321987729E+03  0.25500000920E-02 0. -1.
       -2   -1    0    0    0  501  0.00000000000E+00  0.00000000000E+00 -0.84598629221E+03  0.84598629221E+03  0.25500000920E-02 0.  1.
    10030    2    1    2    0    0  0.00000000000E+00  0.00000000000E+00  0.10723358508E+03  0.17992061695E+04  0.17960077390E+04 0.  0.
        4    1    3    3  502    0  0.83877584195E+03 -0.28923818308E+03 -0.85214627587E+02  0.89132866287E+03  0.12699999809E+01 0.  1.
       -4    1    3    3    0  502 -0.83877584195E+03  0.28923818308E+03  0.19244821266E+03  0.90787750663E+03  0.12699999809E+01 0. -1.
</event>
<event>
 5   0  0.4623665E-05  0.1813764E+04  0.7818609E-02  0.8699014E-01
        1   -1    0    0  501    0  0.00000000000E+00  0.00000000000E+00  0.29076418982E+04  0.29076418982E+04  0.50400001928E-02 0.  1.
       -1   -1    0    0    0  501  0.00000000000E+00  0.00000000000E+00 -0.28285298735E+03  0.28285298739E+03  0.50400001928E-02 0. -1.
    10030    2    1    2    0    0  0.00000000000E+00  0.00000000000E+00  0.26247889108E+04  0.31904948855E+04  0.18137642593E+04 0.  0.
        5    1    3    3  502    0  0.59925563156E+03  0.66442651974E+03  0.10524172359E+04  0.13813667292E+04  0.46999998093E+01 0. -1.
       -5    1    3    3    0  502 -0.59925563156E+03 -0.66442651974E+03  0.15723716749E+04  0.18091281564E+04  0.46999998093E+01 0.  1.
</event>
<event>
 5   0  0.8892280E-05  0.1797607E+04  0.7818609E-02  0.8707573E-01
        2   -1    0    0  501    0  0.00000000000E+00  0.00000000000E+00  0.12407456525E+04  0.12407456525E+04  0.25500000920E-02 0. -1.
       -2   -1    0    0    0  501  0.00000000000E+00  0.00000000000E+00 -0.65109893686E+03  0.65109893686E+03  0.25500000920E-02 0.  1.
    10030    2    1    2    0    0  0.00000000000E+00  0.00000000000E+00  0.58964671560E+03  0.18918445893E+04  0.17976074936E+04 0.  0.
        4    1    3    3  502    0 -0.17150003294E+03 -0.55859999546E+03 -0.42391367011E+03  0.72190763179E+03  0.12699999809E+01 0.  1.
       -4    1    3    3    0  502  0.17150003294E+03  0.55859999546E+03  0.10135603857E+04  0.11699369575E+04  0.12699999809E+01 0. -1.
</event>
<event>
 5   0  0.4335117E-05  0.1798462E+04  0.7818609E-02  0.8707118E-01
       -1   -1    0    0    0  501  0.00000000000E+00  0.00000000000E+00  0.53723536258E+03  0.53723536261E+03  0.50400001928E-02 0. -1.
        1   -1    0    0  501    0  0.00000000000E+00  0.00000000000E+00 -0.15051441046E+04  0.15051441046E+04  0.50400001928E-02 0.  1.
    10030    2    1    2    0    0  0.00000000000E+00  0.00000000000E+00 -0.96790874203E+03  0.20423794672E+04  0.17984622752E+04 0.  0.
        3    1    3    3  502    0 -0.52374385030E+03 -0.12358652073E+03  0.33419685296E+03  0.63345780882E+03  0.10100000352E+00 0. -1.
       -3    1    3    3    0  502  0.52374385030E+03  0.12358652073E+03 -0.13021055950E+04  0.14089216584E+04  0.10100000352E+00 0.  1.
</event>
<event>
 5   0  0.8802655E-05  0.1802530E+04  0.7818609E-02  0.8704955E-01
        2   -1    0    0  501    0  0.00000000000E+00  0.00000000000E+00  0.11985455615E+04  0.11985455615E+04  0.25500000920E-02 0. -1.
       -2   -1    0    0    0  501  0.00000000000E+00  0.00000000000E+00 -0.67772059750E+03  0.67772059750E+03  0.25500000920E-02 0.  1.
    10030    2    1    2    0    0  0.00000000000E+00  0.00000000000E+00  0.52082496400E+03  0.18762661590E+04  0.18025304592E+04 0.  0.
        2    1    3    3  502    0  0.20406445041E+03  0.14056175901E+03  0.11623923479E+04  0.11885099404E+04  0.25500000920E-02 0. -1.
       -2    1    3    3    0  502 -0.20406445041E+03 -0.14056175901E+03 -0.64156738393E+03  0.68775621855E+03  0.25500000920E-02 0.  1.
</event>
<event>
 5   0  0.8893075E-05  0.1730325E+04  0.7818609E-02  0.8744255E-01
        2   -1    0    0  501    0  0.00000000000E+00  0.00000000000E+00  0.23163601579E+04  0.23163601579E+04  0.25500000920E-02 0. -1.
       -2   -1    0    0    0  501  0.00000000000E+00  0.00000000000E+00 -0.32313904529E+03  0.32313904530E+03  0.25500000920E-02 0.  1.
    10030    2    1    2    0    0  0.00000000000E+00  0.00000000000E+00  0.19932211126E+04  0.26394992032E+04  0.17303252989E+04 0.  0.
        1    1    3    3  502    0  0.59940865505E+03 -0.59184220493E+03  0.12976221808E+04  0.15470589049E+04  0.50400001928E-02 0. -1.
       -1    1    3    3    0  502 -0.59940865505E+03  0.59184220493E+03  0.69559893187E+03  0.10924402983E+04  0.50400001928E-02 0.  1.
</event>
<event>
 5   0  0.4494757E-05  0.1806450E+04  0.7818609E-02  0.8702877E-01
       -1   -1    0    0    0  501  0.00000000000E+00  0.00000000000E+00  0.47366765693E+03  0.47366765696E+03  0.50400001928E-02 0. -1.
        1   -1    0    0  501    0  0.00000000000E+00  0.00000000000E+00 -0.17223370895E+04  0.17223370895E+04  0.50400001928E-02 0.  1.
    10030    2    1    2    0    0  0.00000000000E+00  0.00000000000E+00 -0.12486694326E+04  0.21960047464E+04  0.18064499701E+04 0.  0.
        4    1    3    3  502    0  0.40808601888E+03 -0.76288034062E+02  0.35080761914E+03  0.54352705681E+03  0.12699999809E+01 0. -1.
       -4    1    3    3    0  502 -0.40808601888E+03  0.76288034062E+02 -0.15994770517E+04  0.16524776896E+04  0.12699999809E+01 0.  1.
</event>
<event>
 5   0  0.8893075E-05  0.1737235E+04  0.7818609E-02  0.8740408E-01
       -2   -1    0    0    0  501  0.00000000000E+00  0.00000000000E+00  0.58954343394E+03  0.58954343394E+03  0.25500000920E-02 0.  1.
        2   -1    0    0  501    0  0.00000000000E+00  0.00000000000E+00 -0.12797972341E+04  0.12797972341E+04  0.25500000920E-02 0. -1.
    10030    2    1    2    0    0  0.00000000000E+00  0.00000000000E+00 -0.69025380014E+03  0.18693406680E+04  0.17372346487E+04 0.  0.
        1    1    3    3  502    0 -0.69085822385E+03  0.51785743795E+03 -0.44740567286E+03  0.97243675765E+03  0.50400001928E-02 0. -1.
       -1    1    3    3    0  502  0.69085822385E+03 -0.51785743795E+03 -0.24284812728E+03  0.89690391038E+03  0.50400001928E-02 0.  1.
</event>
<event>
 5   0  0.4578107E-05  0.1796033E+04  0.7818609E-02  0.8708412E-01
        1   -1    0    0  501    0  0.00000000000E+00  0.00000000000E+00  0.65043207758E+03  0.65043207760E+03  0.50400001928E-02 0. -1.
       -1   -1    0    0    0  501  0.00000000000E+00  0.00000000000E+00 -0.12398424495E+04  0.12398424495E+04  0.50400001928E-02 0.  1.
    10030    2    1    2    0    0  0.00000000000E+00  0.00000000000E+00 -0.58941037193E+03  0.18902745271E+04  0.17960326281E+04 0.  0.
        2    1    3    3  502    0  0.49819933242E+03 -0.39965880445E+03 -0.95910081334E+03  0.11523038249E+04  0.25500000920E-02 0.  1.
       -2    1    3    3    0  502 -0.49819933242E+03  0.39965880445E+03  0.36969044141E+03  0.73797070218E+03  0.25500000920E-02 0. -1.
</event>
<event>
 5   0  0.8892280E-05  0.1803418E+04  0.7818609E-02  0.8704484E-01
       -2   -1    0    0    0  501  0.00000000000E+00  0.00000000000E+00  0.29423850424E+03  0.29423850425E+03  0.25500000920E-02 0. -1.
        2   -1    0    0  501    0  0.00000000000E+00  0.00000000000E+00 -0.27633346388E+04  0.27633346388E+04  0.25500000920E-02 0.  1.
    10030    2    1    2    0    0  0.00000000000E+00  0.00000000000E+00 -0.24690961346E+04  0.30575731431E+04  0.18034183662E+04 0.  0.
        4    1    3    3  502    0  0.90007896602E+03  0.46513840277E+02 -0.12816602001E+04  0.15668312493E+04  0.12699999809E+01 0.  1.
       -4    1    3    3    0  502 -0.90007896602E+03 -0.46513840277E+02 -0.11874359345E+04  0.14907418938E+04  0.12699999809E+01 0. -1.
</event>
<event>
 5   0  0.9147432E-05  0.1774393E+04  0.7818609E-02  0.8720037E-01
        2   -1    0    0  501    0  0.00000000000E+00  0.00000000000E+00  0.10955184562E+04  0.10955184562E+04  0.25500000920E-02 0.  1.
       -2   -1    0    0    0  501  0.00000000000E+00  0.00000000000E+00 -0.71848844529E+03  0.71848844530E+03  0.25500000920E-02 0. -1.
    10030    2    1    2    0    0  0.00000000000E+00  0.00000000000E+00  0.37703001094E+03  0.18140069015E+04  0.17743926876E+04 0.  0.
        3    1    3    3  502    0  0.69439378325E+03 -0.31738106593E+02  0.75211899430E+03  0.10241450217E+04  0.10100000352E+00 0.  1.
       -3    1    3    3    0  502 -0.69439378325E+03  0.31738106593E+02 -0.37508898336E+03  0.78986187987E+03  0.10100000352E+00 0. -1.
</event>
<event>
 5   0  0.4578107E-05  0.1787553E+04  0.7818609E-02  0.8712947E-01
        1   -1    0    0  501    0  0.00000000000E+00  0.00000000000E+00  0.69687657466E+03  0.69687657468E+03  0.50400001928E-02 0. -1.
       -1   -1    0    0    0  501  0.00000000000E+00  0.00000000000E+00 -0.11463099726E+04  0.11463099726E+04  0.50400001928E-02 0.  1.
    10030    2    1    2    0    0  0.00000000000E+00  0.00000000000E+00 -0.44943339794E+03  0.18431865473E+04  0.17875531514E+04 0.  0.
        2    1    3    3  502    0 -0.85255919065E+03 -0.26223413110E+03 -0.28316101973E+03  0.93584404480E+03  0.25500000920E-02 0.  1.
       -2    1    3    3    0  502  0.85255919065E+03  0.26223413110E+03 -0.16627237821E+03  0.90734250250E+03  0.25500000920E-02 0. -1.
</event>
<event>
 5   0  0.4494757E-05  0.1797784E+04  0.7818609E-02  0.8707479E-01
        1   -1    0    0  501    0  0.00000000000E+00  0.00000000000E+00  0.96111591960E+03  0.96111591961E+03  0.50400001928E-02 0.  1.
       -1   -1    0    0    0  501  0.00000000000E+00  0.00000000000E+00 -0.84069654672E+03  0.84069654674E+03  0.50400001928E-02 0. -1.
    10030    2    1    2    0    0  0.00000000000E+00  0.00000000000E+00  0.12041937287E+03  0.18018124663E+04  0.17977840077E+04 0.  0.
        4    1    3    3  502    0 -0.61607292266E+03 -0.56091556265E+03  0.39835733362E+03  0.92350543724E+03  0.12699999809E+01 0. -1.
       -4    1    3    3    0  502  0.61607292266E+03  0.56091556265E+03 -0.27793796075E+03  0.87830702911E+03  0.12699999809E+01 0.  1.
</event>
<event>
 5   0  0.4335117E-05  0.1817409E+04  0.7818609E-02  0.8697096E-01
       -1   -1    0    0    0  501  0.00000000000E+00  0.00000000000E+00  0.10716106172E+04  0.10716106172E+04  0.50400001928E-02 0.  1.
        1   -1    0    0  501    0  0.00000000000E+00  0.00000000000E+00 -0.77056333907E+03  0.77056333908E+03  0.50400001928E-02 0. -1.
    10030    2    1    2    0    0  0.00000000000E+00  0.00000000000E+00  0.30104727813E+03  0.18421739563E+04  0.18174089858E+04 0.  0.
        3    1    3    3  502    0  0.89189330074E+03  0.16300863063E+03  0.88880713621E+02  0.91101331770E+03  0.10100000352E+00 0.  1.
       -3    1    3    3    0  502 -0.89189330074E+03 -0.16300863063E+03  0.21216656451E+03  0.93116063859E+03  0.10100000352E+00 0. -1.
</event>
<event>
 5   0  0.4335117E-05  0.1792102E+04  0.7818609E-02  0.8710511E-01
       -1   -1    0    0    0  501  0.00000000000E+00  0.00000000000E+00  0.46758999702E+03  0.46758999705E+03  0.50400001928E-02 0. -1.
        1   -1    0    0  501    0  0.00000000000E+00  0.00000000000E+00 -0.17171185254E+04  0.17171185254E+04  0.50400001928E-02 0.  1.
    10030    2    1    2    0    0  0.00000000000E+00  0.00000000000E+00 -0.12495285284E+04  0.21847085225E+04  0.17921020576E+04 0.  0.
        3    1    3    3  502    0 -0.31636871206E+03  0.80851703346E+03 -0.35458424596E+03  0.93782671803E+03  0.10100000352E+00 0. -1.
       -3    1    3    3    0  502  0.31636871206E+03 -0.80851703346E+03 -0.89494428244E+03  0.12468818044E+04  0.10100000352E+00 0.  1.
</event>
<event>
 5   0  0.8893075E-05  0.1798885E+04  0.7818609E-02  0.8706893E-01
        2   -1    0    0  501    0  0.00000000000E+00  0.00000000000E+00  0.19458646800E+04  0.19458646800E+04  0.25500000920E-02 0.  1.
       -2   -1    0    0    0  501  0.00000000000E+00  0.00000000000E+00 -0.41575188332E+03  0.41575188333E+03  0.25500000920E-02 0. -1.
    10030    2    1    2    0    0  0.00000000000E+00  0.00000000000E+00  0.15301127966E+04  0.23616165633E+04  0.17988851052E+04 0.  0.
        1    1    3    3  502    0  0.85108404077E+03  0.26741106973E+03  0.91556895081E+03  0.12783267299E+04  0.50400001928E-02 0.  1.
       -1    1    3    3    0  502 -0.85108404077E+03 -0.26741106973E+03  0.61454384582E+03  0.10832898334E+04  0.50400001928E-02 0. -1.
</event>
<event>
 5   0  0.9184414E-05  0.1799279E+04  0.7818609E-02  0.8706683E-01
       -2   -1    0    0    0  501  0.00000000000E+00  0.00000000000E+00  0.11741704341E+04  0.11741704341E+04  0.25500000920E-02 0.  1.
        2   -1    0    0  501    0  0.00000000000E+00  0.00000000000E+00 -0.68929602326E+03  0.68929602327E+03  0.25500000920E-02 0. -1.
    10030    2    1    2    0    0  0.00000000000E+00  0.00000000000E+00  0.48487441082E+03  0.18634664574E+04  0.17992787565E+04 0.  0.
        5    1    3    3  502    0  0.45529493896E+03 -0.46271042221E+02 -0.55972194544E+03  0.72301122882E+03  0.46999998093E+01 0. -1.
       -5    1    3    3    0  502 -0.45529493896E+03  0.46271042221E+02  0.10445963563E+04  0.11404552285E+04  0.46999998093E+01 0.  1.
</event>
<event>
 5   0  0.8802655E-05  0.1800954E+04  0.7818609E-02  0.8705792E-01
       -2   -1    0    0    0  501  0.00000000000E+00  0.00000000000E+00  0.55344248557E+03  0.55344248558E+03  0.25500000920E-02 0. -1.
        2   -1    0    0  501    0  0.00000000000E+00  0.00000000000E+00 -0.14651184027E+04  0.14651184027E+04  0.25500000920E-02 0.  1.
    10030    2    1    2    0    0  0.00000000000E+00  0.00000000000E+00 -0.91167591709E+03  0.20185608882E+04  0.18009539366E+04 0.  0.
        2    1    3    3  502    0  0.34573620743E+03 -0.48763025898E+02 -0.13861578051E+04  0.14294561268E+04  0.25500000920E-02 0.  1.
       -2    1    3    3    0  502 -0.34573620743E+03  0.48763025898E+02  0.47448188805E+03  0.58910476140E+03  0.25500000920E-02 0. -1.
</event>
<event>
 5   0  0.4535100E-05  0.1793918E+04  0.7818609E-02  0.8709541E-01
        1   -1    0    0  501    0  0.00000000000E+00  0.00000000000E+00  0.80528498773E+03  0.80528498774E+03  0.50400001928E-02 0.  1.
       -1   -1    0    0    0  501  0.00000000000E+00  0.00000000000E+00 -0.99906897861E+03  0.99906897862E+03  0.50400001928E-02 0. -1.
    10030    2    1    2    0    0  0.00000000000E+00  0.00000000000E+00 -0.19378399088E+03  0.18043539664E+04  0.17939177798E+04 0.  0.
        1    1    3    3  502    0 -0.50234554669E+03 -0.44654232180E+03 -0.69430371897E+03  0.96633780204E+03  0.50400001928E-02 0. -1.
       -1    1    3    3    0  502  0.50234554669E+03  0.44654232180E+03  0.50051972810E+03  0.83801616433E+03  0.50400001928E-02 0.  1.
</event>
<event>
 5   0  0.8802655E-05  0.1796949E+04  0.7818609E-02  0.8707924E-01
       -2   -1    0    0    0  501  0.00000000000E+00  0.00000000000E+00  0.40024896802E+03  0.40024896803E+03  0.25500000920E-02 0. -1.
        2   -1    0    0  501    0  0.00000000000E+00  0.00000000000E+00 -0.20168851372E+04  0.20168851372E+04  0.25500000920E-02 0.  1.
    10030    2    1    2    0    0  0.00000000000E+00  0.00000000000E+00 -0.16166361692E+04  0.24171341053E+04  0.17969487414E+04 0.  0.
        2    1    3    3  502    0  0.11542799044E+03  0.57617885974E+03 -0.17225634679E+04  0.18200358788E+04  0.25500000920E-02 0.  1.
       -2    1    3    3    0  502 -0.11542799044E+03 -0.57617885974E+03  0.10592729867E+03  0.59709822642E+03  0.25500000920E-02 0. -1.
</event>
<event>
 5   0  0.4535100E-05  0.1796520E+04  0.7818609E-02  0.8708152E-01
        1   -1    0    0  501    0  0.00000000000E+00  0.00000000000E+00  0.66441919751E+03  0.66441919753E+03  0.50400001928E-02 0. -1.
       -1   -1    0    0    0  501  0.00000000000E+00  0.00000000000E+00 -0.12144004638E+04  0.12144004638E+04  0.50400001928E-02 0.  1.
    10030    2    1    2    0    0  0.00000000000E+00  0.00000000000E+00 -0.54998126627E+03  0.18788196613E+04  0.17965199488E+04 0.  0.
        1    1    3    3  502    0 -0.22300124926E+03 -0.32525862016E+03  0.56904285676E+03  0.69233842882E+03  0.50400001928E-02 0. -1.
       -1    1    3    3    0  502  0.22300124926E+03  0.32525862016E+03 -0.11190241230E+04  0.11864812325E+04  0.50400001928E-02 0.  1.
</event>
<event>
 5   0  0.4623665E-05  0.1800913E+04  0.7818609E-02  0.8705814E-01
        1   -1    0    0  501    0  0.00000000000E+00  0.00000000000E+00  0.52139954641E+03  0.52139954643E+03  0.50400001928E-02 0.  1.
       -1   -1    0    0    0  501  0.00000000000E+00  0.00000000000E+00 -0.15550880988E+04  0.15550880988E+04  0.50400001928E-02 0. -1.
    10030    2    1    2    0    0  0.00000000000E+00  0.00000000000E+00 -0.10336885524E+04  0.20764876452E+04  0.18009133565E+04 0.  0.
        5    1    3    3  502    0  0.19804173873E+03 -0.30589908787E+03 -0.14662527314E+04  0.15108652967E+04  0.46999998093E+01 0. -1.
       -5    1    3    3    0  502 -0.19804173873E+03  0.30589908787E+03  0.43256417903E+03  0.56562234858E+03  0.46999998093E+01 0.  1.
</event>
<event>
 5   0  0.8892280E-05  0.1803567E+04  0.7818609E-02  0.8704405E-01
        2   -1    0    0  501    0  0.00000000000E+00  0.00000000000E+00  0.99080308690E+03  0.99080308690E+03  0.25500000920E-02 0. -1.
       -2   -1    0    0    0  501  0.00000000000E+00  0.00000000000E+00 -0.82076163906E+03  0.82076163907E+03  0.25500000920E-02 0.  1.
    10030    2    1    2    0    0  0.00000000000E+00  0.00000000000E+00  0.17004144783E+03  0.18115647260E+04  0.18035666504E+04 0.  0.
        4    1    3    3  502    0 -0.59697907367E+03 -0.10700522704E+03  0.75534624878E+03  0.96870207054E+03  0.12699999809E+01 0. -1.
       -4    1    3    3    0  502  0.59697907367E+03  0.10700522704E+03 -0.58530480094E+03  0.84286265543E+03  0.12699999809E+01 0.  1.
</event>
<event>
 5   0  0.4335117E-05  0.1796923E+04  0.7818609E-02  0.8707937E-01
        1   -1    0    0  501    0  0.00000000000E+00  0.00000000000E+00  0.13038457017E+04  0.13038457017E+04  0.50400001928E-02 0.  1.
       -1   -1    0    0    0  501  0.00000000000E+00  0.00000000000E+00 -0.61911720488E+03  0.61911720490E+03  0.50400001928E-02 0. -1.
    10030    2    1    2    0    0  0.00000000000E+00  0.00000000000E+00  0.68472849677E+03  0.19229629066E+04  0.17969232665E+04 0.  0.
        3    1    3    3  502    0  0.81973861256E+03  0.33190879898E+03  0.51190138625E+03  0.10218502254E+04  0.10100000352E+00 0. -1.
       -3    1    3    3    0  502 -0.81973861256E+03 -0.33190879898E+03  0.17282711052E+03  0.90111268113E+03  0.10100000352E+00 0.  1.
</event>
<event>
 5   0  0.3270375E-05  0.1786216E+04  0.7818609E-02  0.8713664E-01
       -3   -1    0    0    0  501  0.00000000000E+00  0.00000000000E+00  0.79249499747E+03  0.79249500390E+03  0.10100000352E+00 0.  1.
        3   -1    0    0  501    0  0.00000000000E+00  0.00000000000E+00 -0.10064940664E+04  0.10064940714E+04  0.10100000352E+00 0. -1.
    10030    2    1    2    0    0  0.00000000000E+00  0.00000000000E+00 -0.21399906891E+03  0.17989890753E+04  0.17862155782E+04 0.  0.
        4    1    3    3  502    0  0.99932112913E+02  0.47412487354E+03  0.64860489361E+03  0.80961147708E+03  0.12699999809E+01 0.  1.
       -4    1    3    3    0  502 -0.99932112913E+02 -0.47412487354E+03 -0.86260396252E+03  0.98937759827E+03  0.12699999809E+01 0. -1.
</event>
<event>
 5   0  0.4535100E-05  0.1795363E+04  0.7818609E-02  0.8708769E-01
        1   -1    0    0  501    0  0.00000000000E+00  0.00000000000E+00  0.17621346937E+04  0.17621346937E+04  0.50400001928E-02 0.  1.
       -1   -1    0    0    0  501  0.00000000000E+00  0.00000000000E+00 -0.45730467540E+03  0.45730467543E+03  0.50400001928E-02 0. -1.
    10030    2    1    2    0    0  0.00000000000E+00  0.00000000000E+00  0.13048300183E+04  0.22194393692E+04  0.17953633996E+04 0.  0.
        1    1    3    3  502    0  0.59566246540E+03  0.64646516353E+03  0.42750206419E+03  0.97749117400E+03  0.50400001928E-02 0.  1.
       -1    1    3    3    0  502 -0.59566246540E+03 -0.64646516353E+03  0.87732795414E+03  0.12419481952E+04  0.50400001928E-02 0. -1.
</event>
<event>
 5   0  0.4578107E-05  0.1796515E+04  0.7818609E-02  0.8708155E-01
       -1   -1    0    0    0  501  0.00000000000E+00  0.00000000000E+00  0.56919334335E+03  0.56919334337E+03  0.50400001928E-02 0.  1.
        1   -1    0    0  501    0  0.00000000000E+00  0.00000000000E+00 -0.14175610175E+04  0.14175610176E+04  0.50400001928E-02 0. -1.
    10030    2    1    2    0    0  0.00000000000E+00  0.00000000000E+00 -0.84836767420E+03  0.19867543609E+04  0.17965147314E+04 0.  0.
        2    1    3    3  502    0 -0.85072154575E+03  0.22974139923E+03 -0.23149780721E+03  0.91109796052E+03  0.25500000920E-02 0.  1.
       -2    1    3    3    0  502  0.85072154575E+03 -0.22974139923E+03 -0.61686986698E+03  0.10756564004E+04  0.25500000920E-02 0. -1.
</event>
<event>
 5   0  0.4494757E-05  0.1801434E+04  0.7818609E-02  0.8705537E-01
       -1   -1    0    0    0  501  0.00000000000E+00  0.00000000000E+00  0.36806304260E+03  0.36806304263E+03  0.50400001928E-02 0.  1.
        1   -1    0    0  501    0  0.00000000000E+00  0.00000000000E+00 -0.22042172072E+04  0.22042172072E+04  0.50400001928E-02 0. -1.
    10030    2    1    2    0    0  0.00000000000E+00  0.00000000000E+00 -0.18361541646E+04  0.25722802498E+04  0.18014337533E+04 0.  0.
        4    1    3    3  502    0 -0.45942422533E+03 -0.53825407269E+03 -0.17137446172E+04  0.18541063323E+04  0.12699999809E+01 0. -1.
       -4    1    3    3    0  502  0.45942422533E+03  0.53825407269E+03 -0.12240954736E+03  0.71817391750E+03  0.12699999809E+01 0.  1.
</event>
<event>
 5   0  0.4623665E-05  0.1805475E+04  0.7818609E-02  0.8703393E-01
       -1   -1    0    0    0  501  0.00000000000E+00  0.00000000000E+00  0.34218159569E+03  0.34218159573E+03  0.50400001928E-02 0. -1.
        1   -1    0    0  501    0  0.00000000000E+00  0.00000000000E+00 -0.23815873211E+04  0.23815873211E+04  0.50400001928E-02 0.  1.
    10030    2    1    2    0    0  0.00000000000E+00  0.00000000000E+00 -0.20394057254E+04  0.27237689168E+04  0.18054753943E+04 0.  0.
        5    1    3    3  502    0 -0.86937492039E+03 -0.11734661042E+01 -0.65295361505E+03  0.10872831474E+04  0.46999998093E+01 0. -1.
       -5    1    3    3    0  502  0.86937492039E+03  0.11734661042E+01 -0.13864521104E+04  0.16364857694E+04  0.46999998093E+01 0.  1.
</event>
<event>
 5   0  0.8893075E-05  0.1799737E+04  0.7818609E-02  0.8706439E-01
       -2   -1    0    0    0  501  0.00000000000E+00  0.00000000000E+00  0.84831039933E+03  0.84831039933E+03  0.25500000920E-02 0. -1.
        2   -1    0    0  501    0  0.00000000000E+00  0.00000000000E+00 -0.95456029374E+03  0.95456029374E+03  0.25500000920E-02 0.  1.
    10030    2    1    2    0    0  0.00000000000E+00  0.00000000000E+00 -0.10624989440E+03  0.18028706931E+04  0.17997371185E+04 0.  0.
        1    1    3    3  502    0 -0.62021807531E+03 -0.27260323290E+03 -0.64642336438E+03  0.93640063518E+03  0.50400001928E-02 0.  1.
       -1    1    3    3    0  502  0.62021807531E+03  0.27260323290E+03  0.54017346998E+03  0.86647005789E+03  0.50400001928E-02 0. -1.
</event>
<event>
 5   0  0.4578107E-05  0.1785665E+04  0.7818609E-02  0.8713960E-01
       -1   -1    0    0    0  501  0.00000000000E+00  0.00000000000E+00  0.15482908068E+04  0.15482908068E+04  0.50400001928E-02 0.  1.
        1   -1    0    0  501    0  0.00000000000E+00  0.00000000000E+00 -0.51485799835E+03  0.51485799837E+03  0.50400001928E-02 0. -1.
    10030    2    1    2    0    0  0.00000000000E+00  0.00000000000E+00  0.10334328085E+04  0.20631488052E+04  0.17856650366E+04 0.  0.
        2    1    3    3  502    0 -0.19095484403E+03  0.85055052401E+03  0.29372225982E+03  0.91987646576E+03  0.25500000920E-02 0.  1.
       -2    1    3    3    0  502  0.19095484403E+03 -0.85055052401E+03  0.73971054867E+03  0.11432723395E+04  0.25500000920E-02 0. -1.
</event>
<event>
 5   0  0.9147432E-05  0.1802142E+04  0.7818609E-02  0.8705161E-01
        2   -1    0    0  501    0  0.00000000000E+00  0.00000000000E+00  0.10678166528E+04  0.10678166528E+04  0.25500000920E-02 0. -1.
       -2   -1    0    0    0  501  0.00000000000E+00  0.00000000000E+00 -0.76036326240E+03  0.76036326241E+03  0.25500000920E-02 0.  1.
    10030    2    1    2    0    0  0.00000000000E+00  0.00000000000E+00  0.30745339040E+03  0.18281799152E+04  0.18021415636E+04 0.  0.
        3    1    3    3  502    0 -0.36017600399E+03  0.74980320252E+03  0.50513751494E+03  0.97318832481E+03  0.10100000352E+00 0. -1.
       -3    1    3    3    0  502  0.36017600399E+03 -0.74980320252E+03 -0.19768412454E+03  0.85499159040E+03  0.10100000352E+00 0.  1.
</event>
<event>
 5   0  0.4494757E-05  0.1794574E+04  0.7818609E-02  0.8709191E-01
        1   -1    0    0  501    0  0.00000000000E+00  0.00000000000E+00  0.21531949128E+04  0.21531949128E+04  0.50400001928E-02 0. -1.
       -1   -1    0    0    0  501  0.00000000000E+00  0.00000000000E+00 -0.37392042124E+03  0.37392042128E+03  0.50400001928E-02 0.  1.
    10030    2    1    2    0    0  0.00000000000E+00  0.00000000000E+00  0.17792744915E+04  0.25271153340E+04  0.17945735414E+04 0.  0.
        4    1    3    3  502    0  0.64242713312E+03  0.48593701248E+03  0.14463201824E+04  0.16555032722E+04  0.12699999809E+01 0. -1.
       -4    1    3    3    0  502 -0.64242713312E+03 -0.48593701248E+03  0.33295430916E+03  0.87161206185E+03  0.12699999809E+01 0.  1.
</event>
<event>
 5   0  0.8893075E-05  0.1809208E+04  0.7818609E-02  0.8701418E-01
       -2   -1    0    0    0  501  0.00000000000E+00  0.00000000000E+00  0.67216907162E+03  0.67216907163E+03  0.25500000920E-02 0.  1.
        2   -1    0    0  501    0  0.00000000000E+00  0.00000000000E+00 -0.12174151721E+04  0.12174151721E+04  0.25500000920E-02 0. -1.
    10030    2    1    2    0    0  0.00000000000E+00  0.00000000000E+00 -0.54524610047E+03  0.18895842437E+04  0.18092084745E+04 0.  0.
        1    1    3    3  502    0  0.36670481299E+03 -0.85517431575E+02  0.58642802308E+03  0.69690994916E+03  0.50400001928E-02 0.  1.
       -1    1    3    3    0  502 -0.36670481299E+03  0.85517431575E+02 -0.11316741235E+04  0.11926742946E+04  0.50400001928E-02 0. -1.
</event>
<event>
 5   0  0.4335117E-05  0.1850698E+04  0.7818609E-02  0.8679794E-01
        1   -1    0    0  501    0  0.00000000000E+00  0.00000000000E+00  0.19934934509E+04  0.19934934509E+04  0.50400001928E-02 0.  1.
       -1   -1    0    0    0  501  0.00000000000E+00  0.00000000000E+00 -0.42953279660E+03  0.42953279663E+03  0.50400001928E-02 0. -1.
    10030    2    1    2    0    0  0.00000000000E+00  0.00000000000E+00  0.15639606543E+04  0.24230262475E+04  0.18506980489E+04 0.  0.
        3    1    3    3  502    0  0.15317177518E+03 -0.23953602945E+03 -0.37092681203E+03  0.46736047351E+03  0.10100000352E+00 0. -1.
       -3    1    3    3    0  502 -0.15317177518E+03  0.23953602945E+03  0.19348874663E+04  0.19556657740E+04  0.10100000352E+00 0.  1.
</event>
<event>
 5   0  0.8892280E-05  0.1798178E+04  0.7818609E-02  0.8707269E-01
       -2   -1    0    0    0  501  0.00000000000E+00  0.00000000000E+00  0.96422682727E+03  0.96422682727E+03  0.25500000920E-02 0.  1.
        2   -1    0    0  501    0  0.00000000000E+00  0.00000000000E+00 -0.83835110846E+03  0.83835110846E+03  0.25500000920E-02 0. -1.
    10030    2    1    2    0    0  0.00000000000E+00  0.00000000000E+00  0.12587571881E+03  0.18025779357E+04  0.17981775546E+04 0.  0.
        4    1    3    3  502    0 -0.23510994829E+01  0.51188440274E+03  0.80388657120E+03  0.95303011583E+03  0.12699999809E+01 0.  1.
       -4    1    3    3    0  502  0.23510994829E+01 -0.51188440274E+03 -0.67801085239E+03  0.84954781990E+03  0.12699999809E+01 0. -1.
</event>
<event>
 5   0  0.8892280E-05  0.1807792E+04  0.7818609E-02  0.8702167E-01
       -2   -1    0    0    0  501  0.00000000000E+00  0.00000000000E+00  0.84217775180E+03  0.84217775180E+03  0.25500000920E-02 0.  1.
        2   -1    0    0  501    0  0.00000000000E+00  0.00000000000E+00 -0.97013710825E+03  0.97013710826E+03  0.25500000920E-02 0. -1.
    10030    2    1    2    0    0  0.00000000000E+00  0.00000000000E+00 -0.12795935645E+03  0.18123148601E+04  0.18077919004E+04 0.  0.
        4    1    3    3  502    0  0.37990116866E+03  0.62290271938E+03 -0.59888146935E+03  0.94392442652E+03  0.12699999809E+01 0. -1.
       -4    1    3    3    0  502 -0.37990116866E+03 -0.62290271938E+03  0.47092211289E+03  0.86839043354E+03  0.12699999809E+01 0.  1.
</event>
<event>
 5   0  0.9184414E-05  0.1763058E+04  0.7818609E-02  0.8726195E-01
        2   -1    0    0  501    0  0.00000000000E+00  0.00000000000E+00  0.90675023160E+03  0.90675023160E+03  0.25500000920E-02 0.  1.
       -2   -1    0    0    0  501  0.00000000000E+00  0.00000000000E+00 -0.85700959806E+03  0.85700959806E+03  0.25500000920E-02 0. -1.
    10030    2    1    2    0    0  0.00000000000E+00  0.00000000000E+00  0.49740633540E+02  0.17637598297E+04  0.17630583105E+04 0.  0.
        5    1    3    3  502    0  0.64869074043E+03  0.16451386418E+03 -0.54912367951E+03  0.86569243593E+03  0.46999998093E+01 0. -1.
       -5    1    3    3    0  502 -0.64869074043E+03 -0.16451386418E+03  0.59886431306E+03  0.89806739373E+03  0.46999998093E+01 0.  1.
</event>
<event>
 5   0  0.8802655E-05  0.1791644E+04  0.7818609E-02  0.8710756E-01
        2   -1    0    0  501    0  0.00000000000E+00  0.00000000000E+00  0.12346640803E+04  0.12346640803E+04  0.25500000920E-02 0. -1.
       -2   -1    0    0    0  501  0.00000000000E+00  0.00000000000E+00 -0.64997196820E+03  0.64997196820E+03  0.25500000920E-02 0.  1.
    10030    2    1    2    0    0  0.00000000000E+00  0.00000000000E+00  0.58469211208E+03  0.18846360485E+04  0.17916439851E+04 0.  0.
        2    1    3    3  502    0  0.17262489354E+03 -0.82357445044E+03 -0.30885866475E+02  0.84203810249E+03  0.25500000920E-02 0.  1.
       -2    1    3    3    0  502 -0.17262489354E+03  0.82357445044E+03  0.61557797856E+03  0.10425979460E+04  0.25500000920E-02 0. -1.
</event>
<event>
 5   0  0.9147432E-05  0.1765430E+04  0.7818609E-02  0.8724903E-01
       -2   -1    0    0    0  501  0.00000000000E+00  0.00000000000E+00  0.99347989818E+03  0.99347989818E+03  0.25500000920E-02 0. -1.
        2   -1    0    0  501    0  0.00000000000E+00  0.00000000000E+00 -0.78429945979E+03  0.78429945979E+03  0.25500000920E-02 0.  1.
    10030    2    1    2    0    0  0.00000000000E+00  0.00000000000E+00  0.20918043839E+03  0.17777793580E+04  0.17654299731E+04 0.  0.
        3    1    3    3  502    0 -0.14401202235E+03  0.49494165089E+03 -0.61699681756E+03  0.80398493982E+03  0.10100000352E+00 0.  1.
       -3    1    3    3    0  502  0.14401202235E+03 -0.49494165089E+03  0.82617725596E+03  0.97379441816E+03  0.10100000352E+00 0. -1.
</event>
<event>
 5   0  0.9147432E-05  0.1798766E+04  0.7818609E-02  0.8706956E-01
       -2   -1    0    0    0  501  0.00000000000E+00  0.00000000000E+00  0.11374108827E+04  0.11374108827E+04  0.25500000920E-02 0.  1.
        2   -1    0    0  501    0  0.00000000000E+00  0.00000000000E+00 -0.71116730782E+03  0.71116730783E+03  0.25500000920E-02 0. -1.
    10030    2    1    2    0    0  0.00000000000E+00  0.00000000000E+00  0.42624357487E+03  0.18485781905E+04  0.17987656160E+04 0.  0.
        3    1    3    3  502    0 -0.15031121436E+03  0.44311475243E+03 -0.57622730342E+03  0.74228165839E+03  0.10100000352E+00 0. -1.
       -3    1    3    3    0  502  0.15031121436E+03 -0.44311475243E+03  0.10024708783E+04  0.11062965321E+04  0.10100000352E+00 0.  1.
</event>
<event>
 5   0  0.8802655E-05  0.1798079E+04  0.7818609E-02  0.8707322E-01
        2   -1    0    0  501    0  0.00000000000E+00  0.00000000000E+00  0.52694656757E+03  0.52694656758E+03  0.25500000920E-02 0.  1.
       -2   -1    0    0    0  501  0.00000000000E+00  0.00000000000E+00 -0.15338781981E+04  0.15338781981E+04  0.25500000920E-02 0. -1.
    10030    2    1    2    0    0  0.00000000000E+00  0.00000000000E+00 -0.10069316305E+04  0.20608247656E+04  0.17980788098E+04 0.  0.
        2    1    3    3  502    0 -0.17044625010E+03  0.87122593773E+02  0.50331927652E+03  0.53849100702E+03  0.25500000920E-02 0.  1.
       -2    1    3    3    0  502  0.17044625010E+03 -0.87122593773E+02 -0.15102509070E+04  0.15223337586E+04  0.25500000920E-02 0. -1.
</event>
<event>
 5   0  0.3270375E-05  0.1796945E+04  0.7818609E-02  0.8707926E-01
       -3   -1    0    0    0  501  0.00000000000E+00  0.00000000000E+00  0.63764058408E+03  0.63764059207E+03  0.10100000352E+00 0. -1.
        3   -1    0    0  501    0  0.00000000000E+00  0.00000000000E+00 -0.12660002285E+04  0.12660002326E+04  0.10100000352E+00 0.  1.
    10030    2    1    2    0    0  0.00000000000E+00  0.00000000000E+00 -0.62835964447E+03  0.19036408247E+04  0.17969453376E+04 0.  0.
        3    1    3    3  502    0 -0.11406451756E+03  0.89100429250E+03 -0.33410518982E+03  0.95839743922E+03  0.10100000352E+00 0. -1.
       -3    1    3    3    0  502  0.11406451756E+03 -0.89100429250E+03 -0.29425445465E+03  0.94524338544E+03  0.10100000352E+00 0.  1.
</event>
<event>
 5   0  0.3270375E-05  0.1832886E+04  0.7818609E-02  0.8689004E-01
        4   -1    0    0  501    0  0.00000000000E+00  0.00000000000E+00  0.67799758144E+03  0.67799877090E+03  0.12699999809E+01 0. -1.
       -4   -1    0    0    0  501  0.00000000000E+00  0.00000000000E+00 -0.12387450909E+04  0.12387457419E+04  0.12699999809E+01 0.  1.
    10030    2    1    2    0    0  0.00000000000E+00  0.00000000000E+00 -0.56074750945E+03  0.19167445128E+04  0.18328861825E+04 0.  0.
        2    1    3    3  502    0 -0.87459116415E+03 -0.19744032795E+03 -0.82023636107E+02  0.90034452539E+03  0.25500000920E-02 0.  1.
       -2    1    3    3    0  502  0.87459116415E+03  0.19744032795E+03 -0.47872387334E+03  0.10163999874E+04  0.25500000920E-02 0. -1.
</event>
<event>
 5   0  0.9147432E-05  0.1797798E+04  0.7818609E-02  0.8707471E-01
       -2   -1    0    0    0  501  0.00000000000E+00  0.00000000000E+00  0.10192246873E+04  0.10192246874E+04  0.25500000920E-02 0. -1.
        2   -1    0    0  501    0  0.00000000000E+00  0.00000000000E+00 -0.79277891332E+03  0.79277891333E+03  0.25500000920E-02 0.  1.
    10030    2    1    2    0    0  0.00000000000E+00  0.00000000000E+00  0.22644577403E+03  0.18120036007E+04  0.17977984760E+04 0.  0.
        3    1    3    3  502    0  0.40662158356E+02  0.41361471302E+03  0.91657106794E+03  0.10063960824E+04  0.10100000352E+00 0. -1.
       -3    1    3    3    0  502 -0.40662158356E+02 -0.41361471302E+03 -0.69012529391E+03  0.80560751825E+03  0.10100000352E+00 0.  1.
</event>
<event>
 5   0  0.4494757E-05  0.1812140E+04  0.7818609E-02  0.8699870E-01
       -1   -1    0    0    0  501  0.00000000000E+00  0.00000000000E+00  0.92704288916E+03  0.92704288917E+03  0.50400001928E-02 0. -1.
        1   -1    0    0  501    0  0.00000000000E+00  0.00000000000E+00 -0.88557205843E+03  0.88557205844E+03  0.50400001928E-02 0.  1.
    10030    2    1    2    0    0  0.00000000000E+00  0.00000000000E+00  0.41470830732E+02  0.18126149476E+04  0.18121404798E+04 0.  0.
        4    1    3    3  502    0 -0.55955000732E+03  0.10005833493E+03  0.72650770384E+03  0.92245484319E+03  0.12699999809E+01 0. -1.
       -4    1    3    3    0  502  0.55955000732E+03 -0.10005833493E+03 -0.68503687311E+03  0.89016010442E+03  0.12699999809E+01 0.  1.
</event>
<event>
 5   0  0.8893075E-05  0.1801103E+04  0.7818609E-02  0.8705713E-01
        2   -1    0    0  501    0  0.00000000000E+00  0.00000000000E+00  0.61613100347E+03  0.61613100348E+03  0.25500000920E-02 0. -1.
       -2   -1    0    0    0  501  0.00000000000E+00  0.00000000000E+00 -0.13162665256E+04  0.13162665256E+04  0.25500000920E-02 0.  1.
    10030    2    1    2    0    0  0.00000000000E+00  0.00000000000E+00 -0.70013552213E+03  0.19323975291E+04  0.18011025682E+04 0.  0.
        1    1    3    3  502    0  0.75553882613E+03 -0.12293970543E+03 -0.85903218945E+03  0.11506039247E+04  0.50400001928E-02 0.  1.
       -1    1    3    3    0  502 -0.75553882613E+03  0.12293970543E+03  0.15889666732E+03  0.78179360440E+03  0.50400001928E-02 0. -1.
</event>
<event>
 5   0  0.8802655E-05  0.1800220E+04  0.7818609E-02  0.8706183E-01
        2   -1    0    0  501    0  0.00000000000E+00  0.00000000000E+00  0.13514787493E+04  0.13514787493E+04  0.25500000920E-02 0.  1.
       -2   -1    0    0    0  501  0.00000000000E+00  0.00000000000E+00 -0.59948980145E+03  0.59948980146E+03  0.25500000920E-02 0. -1.
    10030    2    1    2    0    0  0.00000000000E+00  0.00000000000E+00  0.75198894781E+03  0.19509685507E+04  0.18002196833E+04 0.  0.
        2    1    3    3  502    0  0.48484781801E+03  0.66168427017E+02  0.11947320105E+04  0.12910616733E+04  0.25500000920E-02 0.  1.
       -2    1    3    3    0  502 -0.48484781801E+03 -0.66168427017E+02 -0.44274306266E+03  0.65990687744E+03  0.25500000920E-02 0. -1.
</event>
<event>
 5   0  0.4578107E-05  0.1849505E+04  0.7818609E-02  0.8680407E-01
        1   -1    0    0  501    0  0.00000000000E+00  0.00000000000E+00  0.11222363407E+04  0.11222363407E+04  0.50400001928E-02 0.  1.
       -1   -1    0    0    0  501  0.00000000000E+00  0.00000000000E+00 -0.76202069715E+03  0.76202069717E+03  0.50400001928E-02 0. -1.
    10030    2    1    2    0    0  0.00000000000E+00  0.00000000000E+00  0.36021564355E+03  0.18842570379E+04  0.18495051433E+04 0.  0.
        2    1    3    3  502    0  0.38672123017E+03  0.52367205115E+03 -0.48902973611E+03  0.81420870164E+03  0.25500000920E-02 0.  1.
       -2    1    3    3    0  502 -0.38672123017E+03 -0.52367205115E+03  0.84924537966E+03  0.10700483362E+04  0.25500000920E-02 0. -1.
</event>
<event>
 5   0  0.9184414E-05  0.1778034E+04  0.7818609E-02  0.8718069E-01
       -2   -1    0    0    0  501  0.00000000000E+00  0.00000000000E+00  0.90656338712E+03  0.90656338713E+03  0.25500000920E-02 0. -1.
        2   -1    0    0  501    0  0.00000000000E+00  0.00000000000E+00 -0.87181037872E+03  0.87181037873E+03  0.25500000920E-02 0.  1.
    10030    2    1    2    0    0  0.00000000000E+00  0.00000000000E+00  0.34753008402E+02  0.17783737659E+04  0.17780341615E+04 0.  0.
        5    1    3    3  502    0 -0.47967304797E+03 -0.62615864442E+02  0.76338912859E+03  0.90376547349E+03  0.46999998093E+01 0. -1.
       -5    1    3    3    0  502  0.47967304797E+03  0.62615864442E+02 -0.72863612019E+03  0.87460829236E+03  0.46999998093E+01 0.  1.
</event>
<event>
 5   0  0.4335117E-05  0.1831260E+04  0.7818609E-02  0.8689850E-01
        1   -1    0    0  501    0  0.00000000000E+00  0.00000000000E+00  0.11501442874E+04  0.11501442874E+04  0.50400001928E-02 0. -1.
       -1   -1    0    0    0  501  0.00000000000E+00  0.00000000000E+00 -0.72893338662E+03  0.72893338664E+03  0.50400001928E-02 0.  1.
    10030    2    1    2    0    0  0.00000000000E+00  0.00000000000E+00  0.42121090077E+03  0.18790776740E+04  0.18312602989E+04 0.  0.
        3    1    3    3  502    0 -0.54863473369E+03 -0.15893130535E+03  0.94491679287E+03  0.11041408363E+04  0.10100000352E+00 0. -1.
       -3    1    3    3    0  502  0.54863473369E+03  0.15893130535E+03 -0.52370589209E+03  0.77493683771E+03  0.10100000352E+00 0.  1.
</event>
<event>
 5   0  0.4335117E-05  0.1792419E+04  0.7818609E-02  0.8710341E-01
       -1   -1    0    0    0  501  0.00000000000E+00  0.00000000000E+00  0.68947981397E+03  0.68947981399E+03  0.50400001928E-02 0. -1.
        1   -1    0    0  501    0  0.00000000000E+00  0.00000000000E+00 -0.11649235334E+04  0.11649235334E+04  0.50400001928E-02 0.  1.
    10030    2    1    2    0    0  0.00000000000E+00  0.00000000000E+00 -0.47544371942E+03  0.18544033474E+04  0.17924187693E+04 0.  0.
        3    1    3    3  502    0  0.64448691382E+02 -0.85656766360E+03  0.26713322682E+02  0.85940410050E+03  0.10100000352E+00 0. -1.
       -3    1    3    3    0  502 -0.64448691382E+02  0.85656766360E+03 -0.50215704210E+03  0.99499924688E+03  0.10100000352E+00 0.  1.
</event>
<event>
 5   0  0.4494757E-05  0.1808346E+04  0.7818609E-02  0.8701874E-01
       -1   -1    0    0    0  501  0.00000000000E+00  0.00000000000E+00  0.14939810616E+04  0.14939810616E+04  0.50400001928E-02 0.  1.
        1   -1    0    0  501    0  0.00000000000E+00  0.00000000000E+00 -0.54721522220E+03  0.54721522223E+03  0.50400001928E-02 0. -1.
    10030    2    1    2    0    0  0.00000000000E+00  0.00000000000E+00  0.94676583937E+03  0.20411962838E+04  0.18083464033E+04 0.  0.
        4    1    3    3  502    0 -0.77140050400E+02 -0.10528718541E+03 -0.53652441928E+03  0.55217392565E+03  0.12699999809E+01 0. -1.
       -4    1    3    3    0  502  0.77140050400E+02  0.10528718541E+03  0.14832902587E+04  0.14890223582E+04  0.12699999809E+01 0.  1.
</event>
<event>
 5   0  0.8892280E-05  0.1772095E+04  0.7818609E-02  0.8721281E-01
        2   -1    0    0  501    0  0.00000000000E+00  0.00000000000E+00  0.86016950056E+03  0.86016950056E+03  0.25500000920E-02 0.  1.
       -2   -1    0    0    0  501  0.00000000000E+00  0.00000000000E+00 -0.91270400436E+03  0.91270400437E+03  0.25500000920E-02 0. -1.
    10030    2    1    2    0    0  0.00000000000E+00  0.00000000000E+00 -0.52534503803E+02  0.17728735049E+04  0.17720949722E+04 0.  0.
        4    1    3    3  502    0  0.56697352847E+03  0.60506128547E+03  0.28615249688E+03  0.87717900427E+03  0.12699999809E+01 0.  1.
       -4    1    3    3    0  502 -0.56697352847E+03 -0.60506128547E+03 -0.33868700068E+03  0.89569450065E+03  0.12699999809E+01 0. -1.
</event>
<event>
 5   0  0.8802655E-05  0.1746459E+04  0.7818609E-02  0.8735302E-01
        2   -1    0    0  501    0  0.00000000000E+00  0.00000000000E+00  0.15711608283E+04  0.15711608283E+04  0.25500000920E-02 0.  1.
       -2   -1    0    0    0  501  0.00000000000E+00  0.00000000000E+00 -0.48532909492E+03  0.48532909493E+03  0.25500000920E-02 0. -1.
    10030    2    1    2    0    0  0.00000000000E+00  0.00000000000E+00  0.10858317334E+04  0.20564899233E+04  0.17464593471E+04 0.  0.
        2    1    3    3  502    0  0.54014386119E+03  0.62971616147E+03  0.86373802248E+03  0.11976398483E+04  0.25500000920E-02 0. -1.
       -2    1    3    3    0  502 -0.54014386119E+03 -0.62971616147E+03  0.22209371093E+03  0.85885007495E+03  0.25500000920E-02 0.  1.
</event>
<event>
 5   0  0.8892280E-05  0.1807653E+04  0.7818609E-02  0.8702240E-01
       -2   -1    0    0    0  501  0.00000000000E+00  0.00000000000E+00  0.68892317994E+03  0.68892317994E+03  0.25500000920E-02 0.  1.
        2   -1    0    0  501    0  0.00000000000E+00  0.00000000000E+00 -0.11857667638E+04  0.11857667638E+04  0.25500000920E-02 0. -1.
    10030    2    1    2    0    0  0.00000000000E+00  0.00000000000E+00 -0.49684358382E+03  0.18746899437E+04  0.18076528534E+04 0.  0.
        4    1    3    3  502    0 -0.81685220788E+03  0.31981061582E+03 -0.47414984384E+03  0.99716901618E+03  0.12699999809E+01 0.  1.
       -4    1    3    3    0  502  0.81685220788E+03 -0.31981061582E+03 -0.22693739978E+02  0.87752092752E+03  0.12699999809E+01 0. -1.
</event>
<event>
 5   0  0.8893075E-05  0.1825273E+04  0.7818609E-02  0.8692974E-01
       -2   -1    0    0    0  501  0.00000000000E+00  0.00000000000E+00  0.41536847919E+03  0.41536847920E+03  0.25500000920E-02 0.  1.
        2   -1    0    0  501    0  0.00000000000E+00  0.00000000000E+00 -0.20052206069E+04  0.20052206069E+04  0.25500000920E-02 0. -1.
    10030    2    1    2    0    0  0.00000000000E+00  0.00000000000E+00 -0.15898521277E+04  0.24205890861E+04  0.18252730579E+04 0.  0.
        1    1    3    3  502    0  0.82826152458E+02  0.58370499553E+03  0.12894947749E+03  0.60348957001E+03  0.50400001928E-02 0.  1.
       -1    1    3    3    0  502 -0.82826152458E+02 -0.58370499553E+03 -0.17188016052E+04  0.18170995161E+04  0.50400001928E-02 0. -1.
</event>
<event>
 5   0  0.9147432E-05  0.1798065E+04  0.7818609E-02  0.8707329E-01
       -2   -1    0    0    0  501  0.00000000000E+00  0.00000000000E+00  0.56574597332E+03  0.56574597332E+03  0.25500000920E-02 0.  1.
        2   -1    0    0  501    0  0.00000000000E+00  0.00000000000E+00 -0.14286619270E+04  0.14286619270E+04  0.25500000920E-02 0. -1.
    10030    2    1    2    0    0  0.00000000000E+00  0.00000000000E+00 -0.86291595366E+03  0.19944079003E+04  0.17980653297E+04 0.  0.
        3    1    3    3  502    0 -0.57779237632E+03  0.20379846117E+03 -0.11612401023E+04  0.13129571312E+04  0.10100000352E+00 0. -1.
       -3    1    3    3    0  502  0.57779237632E+03 -0.20379846117E+03  0.29832414863E+03  0.68145076914E+03  0.10100000352E+00 0.  1.
</event>
<event>
 5   0  0.4535100E-05  0.1799105E+04  0.7818609E-02  0.8706776E-01
       -1   -1    0    0    0  501  0.00000000000E+00  0.00000000000E+00  0.61875679076E+03  0.61875679078E+03  0.50400001928E-02 0.  1.
        1   -1    0    0  501    0  0.00000000000E+00  0.00000000000E+00 -0.13077749320E+04  0.13077749320E+04  0.50400001928E-02 0. -1.
    10030    2    1    2    0    0  0.00000000000E+00  0.00000000000E+00 -0.68901814120E+03  0.19265317227E+04  0.17991049107E+04 0.  0.
        1    1    3    3  502    0 -0.21629149301E+03 -0.79601932484E+03  0.39746361591E+02  0.82583808870E+03  0.50400001928E-02 0.  1.
       -1    1    3    3    0  502  0.21629149301E+03  0.79601932484E+03 -0.72876450280E+03  0.11006936340E+04  0.50400001928E-02 0. -1.
</event>
<event>
 5   0  0.8802655E-05  0.1794727E+04  0.7818609E-02  0.8709108E-01
        2   -1    0    0  501    0  0.00000000000E+00  0.00000000000E+00  0.23083296889E+04  0.23083296889E+04  0.25500000920E-02 0.  1.
       -2   -1    0    0    0  501  0.00000000000E+00  0.00000000000E+00 -0.34885031753E+03  0.34885031754E+03  0.25500000920E-02 0. -1.
    10030    2    1    2    0    0  0.00000000000E+00  0.00000000000E+00  0.19594793714E+04  0.26571800065E+04  0.17947273274E+04 0.  0.
        2    1    3    3  502    0 -0.41755283042E+03  0.52976068188E+03  0.10350438202E+03  0.68242941273E+03  0.25500000920E-02 0. -1.
       -2    1    3    3    0  502  0.41755283042E+03 -0.52976068188E+03  0.18559749894E+04  0.19747505937E+04  0.25500000920E-02 0.  1.
</event>
<event>
 5   0  0.4578107E-05  0.1799944E+04  0.7818609E-02  0.8706329E-01
       -1   -1    0    0    0  501  0.00000000000E+00  0.00000000000E+00  0.10261485349E+04  0.10261485350E+04  0.50400001928E-02 0. -1.
        1   -1    0    0  501    0  0.00000000000E+00  0.00000000000E+00 -0.78931005212E+03  0.78931005213E+03  0.50400001928E-02 0.  1.
    10030    2    1    2    0    0  0.00000000000E+00  0.00000000000E+00  0.23683848283E+03  0.18154585871E+04  0.17999437254E+04 0.  0.
        2    1    3    3  502    0  0.11883163423E+03  0.65419868369E+03  0.73015555641E+03  0.98753430908E+03  0.25500000920E-02 0. -1.
       -2    1    3    3    0  502 -0.11883163423E+03 -0.65419868369E+03 -0.49331707359E+03  0.82792427802E+03  0.25500000920E-02 0.  1.
</event>
<event>
 5   0  0.8802655E-05  0.1830652E+04  0.7818609E-02  0.8690167E-01
       -2   -1    0    0    0  501  0.00000000000E+00  0.00000000000E+00  0.47039228186E+03  0.47039228187E+03  0.25500000920E-02 0.  1.
        2   -1    0    0  501    0  0.00000000000E+00  0.00000000000E+00 -0.17811124444E+04  0.17811124444E+04  0.25500000920E-02 0. -1.
    10030    2    1    2    0    0  0.00000000000E+00  0.00000000000E+00 -0.13107201625E+04  0.22515047263E+04  0.18306518478E+04 0.  0.
        2    1    3    3  502    0 -0.25670752686E+03  0.81591239431E+03 -0.25454014638E+03  0.89241384775E+03  0.25500000920E-02 0. -1.
       -2    1    3    3    0  502  0.25670752686E+03 -0.81591239431E+03 -0.10561800162E+04  0.13590908785E+04  0.25500000920E-02 0.  1.
</event>
<event>
 5   0  0.8892280E-05  0.1808837E+04  0.7818609E-02  0.8701614E-01
        2   -1    0    0  501    0  0.00000000000E+00  0.00000000000E+00  0.20006786681E+04  0.20006786681E+04  0.25500000920E-02 0. -1.
       -2   -1    0    0    0  501  0.00000000000E+00  0.00000000000E+00 -0.40884753322E+03  0.40884753323E+03  0.25500000920E-02 0.  1.
    10030    2    1    2    0    0  0.00000000000E+00  0.00000000000E+00  0.15918311348E+04  0.24095262013E+04  0.18088366850E+04 0.  0.
        4    1    3    3  502    0  0.62917024932E+02 -0.80616115538E+03  0.13355609991E+04  0.15612748495E+04  0.12699999809E+01 0. -1.
       -4    1    3    3    0  502 -0.62917024932E+02  0.80616115538E+03  0.25627013576E+03  0.84825135181E+03  0.12699999809E+01 0.  1.
</event>
<event>
 5   0  0.4535100E-05  0.1791972E+04  0.7818609E-02  0.8710580E-01
       -1   -1    0    0    0  501  0.00000000000E+00  0.00000000000E+00  0.73624652962E+03  0.73624652964E+03  0.50400001928E-02 0.  1.
        1   -1    0    0  501    0  0.00000000000E+00  0.00000000000E+00 -0.10903837493E+04  0.10903837493E+04  0.50400001928E-02 0. -1.
    10030    2    1    2    0    0  0.00000000000E+00  0.00000000000E+00 -0.35413721963E+03  0.18266302789E+04  0.17919723785E+04 0.  0.
        1    1    3    3  502    0 -0.75820230274E+03  0.17044704650E+03  0.27750283188E+03  0.82518528179E+03  0.50400001928E-02 0.  1.
       -1    1    3    3    0  502  0.75820230274E+03 -0.17044704650E+03 -0.63164005151E+03  0.10014449971E+04  0.50400001928E-02 0. -1.
</event>
<event>
 5   0  0.4335117E-05  0.1799469E+04  0.7818609E-02  0.8706582E-01
       -1   -1    0    0    0  501  0.00000000000E+00  0.00000000000E+00  0.73618112585E+03  0.73618112587E+03  0.50400001928E-02 0.  1.
        1   -1    0    0  501    0  0.00000000000E+00  0.00000000000E+00 -0.10996231002E+04  0.10996231002E+04  0.50400001928E-02 0. -1.
    10030    2    1    2    0    0  0.00000000000E+00  0.00000000000E+00 -0.36344197437E+03  0.18358042261E+04  0.17994685571E+04 0.  0.
        3    1    3    3  502    0  0.52845526869E+03 -0.46661596319E+03 -0.75204992984E+03  0.10308125607E+04  0.10100000352E+00 0. -1.
       -3    1    3    3    0  502 -0.52845526869E+03  0.46661596319E+03  0.38860795547E+03  0.80499166540E+03  0.10100000352E+00 0.  1.
</event>
<event>
 5   0  0.9147432E-05  0.1793628E+04  0.7818609E-02  0.8709695E-01
       -2   -1    0    0    0  501  0.00000000000E+00  0.00000000000E+00  0.97755291074E+03  0.97755291074E+03  0.25500000920E-02 0.  1.
        2   -1    0    0  501    0  0.00000000000E+00  0.00000000000E+00 -0.82274367453E+03  0.82274367453E+03  0.25500000920E-02 0. -1.
    10030    2    1    2    0    0  0.00000000000E+00  0.00000000000E+00  0.15480923621E+03  0.18002965853E+04  0.17936281374E+04 0.  0.
        3    1    3    3  502    0 -0.15976026825E+03  0.19720551031E+02  0.96293364697E+03  0.97629578618E+03  0.10100000352E+00 0.  1.
       -3    1    3    3    0  502  0.15976026825E+03 -0.19720551031E+02 -0.80812441076E+03  0.82400079910E+03  0.10100000352E+00 0. -1.
</event>
<event>
 5   0  0.4623665E-05  0.1797129E+04  0.7818609E-02  0.8707828E-01
       -1   -1    0    0    0  501  0.00000000000E+00  0.00000000000E+00  0.59476119710E+03  0.59476119712E+03  0.50400001928E-02 0. -1.
        1   -1    0    0  501    0  0.00000000000E+00  0.00000000000E+00 -0.13575496683E+04  0.13575496684E+04  0.50400001928E-02 0.  1.
    10030    2    1    2    0    0  0.00000000000E+00  0.00000000000E+00 -0.76278847125E+03  0.19523108655E+04  0.17971286720E+04 0.  0.
        5    1    3    3  502    0  0.36263993009E+03 -0.66929698824E+03  0.13725072325E+03  0.77351537050E+03  0.46999998093E+01 0. -1.
       -5    1    3    3    0  502 -0.36263993009E+03  0.66929698824E+03 -0.90003919450E+03  0.11787954950E+04  0.46999998093E+01 0.  1.
</event>
<event>
 5   0  0.4494757E-05  0.1802593E+04  0.7818609E-02  0.8704922E-01
       -1   -1    0    0    0  501  0.00000000000E+00  0.00000000000E+00  0.82788049570E+03  0.82788049571E+03  0.50400001928E-02 0.  1.
        1   -1    0    0  501    0  0.00000000000E+00  0.00000000000E+00 -0.98122294527E+03  0.98122294528E+03  0.50400001928E-02 0. -1.
    10030    2    1    2    0    0  0.00000000000E+00  0.00000000000E+00 -0.15334244957E+03  0.18091034410E+04  0.18025929528E+04 0.  0.
        4    1    3    3  502    0  0.25289225006E+03  0.26168943139E+03 -0.90420851570E+03  0.97469508125E+03  0.12699999809E+01 0. -1.
       -4    1    3    3    0  502 -0.25289225006E+03 -0.26168943139E+03  0.75086606614E+03  0.83440835975E+03  0.12699999809E+01 0.  1.
</event>
<event>
 5   0  0.8892280E-05  0.1810630E+04  0.7818609E-02  0.8700667E-01
        2   -1    0    0  501    0  0.00000000000E+00  0.00000000000E+00  0.25008728535E+04  0.25008728535E+04  0.25500000920E-02 0.  1.
       -2   -1    0    0    0  501  0.00000000000E+00  0.00000000000E+00 -0.32772363109E+03  0.32772363110E+03  0.25500000920E-02 0. -1.
    10030    2    1    2    0    0  0.00000000000E+00  0.00000000000E+00  0.21731492224E+04  0.28285964846E+04  0.18106298710E+04 0.  0.
        4    1    3    3  502    0 -0.63597542069E+02  0.70923374610E+03  0.19599311882E+04  0.20852791251E+04  0.12699999809E+01 0. -1.
       -4    1    3    3    0  502  0.63597542069E+02 -0.70923374610E+03  0.21321803416E+03  0.74331735952E+03  0.12699999809E+01 0.  1.
</event>
<event>
 5   0  0.8893075E-05  0.1805893E+04  0.7818609E-02  0.8703172E-01
        2   -1    0    0  501    0  0.00000000000E+00  0.00000000000E+00  0.11793799006E+04  0.11793799006E+04  0.25500000920E-02 0.  1.
       -2   -1    0    0    0  501  0.00000000000E+00  0.00000000000E+00 -0.69130583289E+03  0.69130583290E+03  0.25500000920E-02 0. -1.
    10030    2    1    2    0    0  0.00000000000E+00  0.00000000000E+00  0.48807406772E+03  0.18706857335E+04  0.18058928036E+04 0.  0.
        1    1    3    3  502    0  0.42557308032E+03  0.74634492035E+03  0.53179698610E+03  0.10104213088E+04  0.50400001928E-02 0.  1.
       -1    1    3    3    0  502 -0.42557308032E+03 -0.74634492035E+03 -0.43722918373E+02  0.86026442472E+03  0.50400001928E-02 0. -1.
</event>
<event>
 5   0  0.4578107E-05  0.1788756E+04  0.7818609E-02  0.8712302E-01
       -1   -1    0    0    0  501  0.00000000000E+00  0.00000000000E+00  0.27549375957E+03  0.27549375962E+03  0.50400001928E-02 0. -1.
        1   -1    0    0  501    0  0.00000000000E+00  0.00000000000E+00 -0.29035569639E+04  0.29035569639E+04  0.50400001928E-02 0.  1.
    10030    2    1    2    0    0  0.00000000000E+00  0.00000000000E+00 -0.26280632043E+04  0.31790507235E+04  0.17887557957E+04 0.  0.
        2    1    3    3  502    0  0.60042325008E+03 -0.49229610448E+03 -0.52511201434E+03  0.93733993905E+03  0.25500000920E-02 0. -1.
       -2    1    3    3    0  502 -0.60042325008E+03  0.49229610448E+03 -0.21029511900E+04  0.22417107845E+04  0.25500000920E-02 0.  1.
</event>
<event>
 5   0  0.8802655E-05  0.1799312E+04  0.7818609E-02  0.8706665E-01
        2   -1    0    0  501    0  0.00000000000E+00  0.00000000000E+00  0.18664943504E+04  0.18664943504E+04  0.25500000920E-02 0. -1.
       -2   -1    0    0    0  501  0.00000000000E+00  0.00000000000E+00 -0.43363712877E+03  0.43363712878E+03  0.25500000920E-02 0.  1.
    10030    2    1    2    0    0  0.00000000000E+00  0.00000000000E+00  0.14328572217E+04  0.23001314792E+04  0.17993123698E+04 0.  0.
        2    1    3    3  502    0  0.52097203330E+03 -0.10878502925E+03 -0.21081698439E+03  0.57244199967E+03  0.25500000920E-02 0.  1.
       -2    1    3    3    0  502 -0.52097203330E+03  0.10878502925E+03  0.16436742060E+04  0.17276894795E+04  0.25500000920E-02 0. -1.
</event>
<event>
 5   0  0.8893075E-05  0.1804756E+04  0.7818609E-02  0.8703774E-01
       -2   -1    0    0    0  501  0.00000000000E+00  0.00000000000E+00  0.14433116849E+04  0.14433116849E+04  0.25500000920E-02 0.  1.
        2   -1    0    0  501    0  0.00000000000E+00  0.00000000000E+00 -0.56417905321E+03  0.56417905322E+03  0.25500000920E-02 0. -1.
    10030    2    1    2    0    0  0.00000000000E+00  0.00000000000E+00  0.87913263172E+03  0.20074907382E+04  0.18047561829E+04 0.  0.
        1    1    3    3  502    0  0.26362878783E+03 -0.76110219868E+03 -0.12962780580E+02  0.80557105727E+03  0.50400001928E-02 0. -1.
       -1    1    3    3    0  502 -0.26362878783E+03  0.76110219868E+03  0.89209541230E+03  0.12019196809E+04  0.50400001928E-02 0.  1.
</event>
<event>
 5   0  0.9147432E-05  0.1798396E+04  0.7818609E-02  0.8707153E-01
        2   -1    0    0  501    0  0.00000000000E+00  0.00000000000E+00  0.66577209455E+03  0.66577209455E+03  0.25500000920E-02 0.  1.
       -2   -1    0    0    0  501  0.00000000000E+00  0.00000000000E+00 -0.12144657301E+04  0.12144657301E+04  0.25500000920E-02 0. -1.
    10030    2    1    2    0    0  0.00000000000E+00  0.00000000000E+00 -0.54869363555E+03  0.18802378247E+04  0.17983963889E+04 0.  0.
        3    1    3    3  502    0 -0.42454401348E+03 -0.19792145537E+03  0.52814229153E+03  0.70593541644E+03  0.10100000352E+00 0.  1.
       -3    1    3    3    0  502  0.42454401348E+03  0.19792145537E+03 -0.10768359271E+04  0.11743024082E+04  0.10100000352E+00 0. -1.
</event>
<event>
 5   0  0.8802655E-05  0.1801174E+04  0.7818609E-02  0.8705675E-01
       -2   -1    0    0    0  501  0.00000000000E+00  0.00000000000E+00  0.68983087519E+03  0.68983087519E+03  0.25500000920E-02 0.  1.
        2   -1    0    0  501    0  0.00000000000E+00  0.00000000000E+00 -0.11757327907E+04  0.11757327907E+04  0.25500000920E-02 0. -1.
    10030    2    1    2    0    0  0.00000000000E+00  0.00000000000E+00 -0.48590191552E+03  0.18655636659E+04  0.18011738173E+04 0.  0.
        2    1    3    3  502    0  0.34817474850E+03 -0.33240894596E+03 -0.10313017153E+04  0.11381144894E+04  0.25500000920E-02 0. -1.
       -2    1    3    3    0  502 -0.34817474850E+03  0.33240894596E+03  0.54539979980E+03  0.72744917655E+03  0.25500000920E-02 0.  1.
</event>
<event>
 5   0  0.4623665E-05  0.1816147E+04  0.7818609E-02  0.8697760E-01
        1   -1    0    0  501    0  0.00000000000E+00  0.00000000000E+00  0.16883924347E+04  0.16883924347E+04  0.50400001928E-02 0. -1.
       -1   -1    0    0    0  501  0.00000000000E+00  0.00000000000E+00 -0.48839202212E+03  0.48839202214E+03  0.50400001928E-02 0.  1.
    10030    2    1    2    0    0  0.00000000000E+00  0.00000000000E+00  0.12000004125E+04  0.21767844568E+04  0.18161469052E+04 0.  0.
        5    1    3    3  502    0  0.88628062668E+03 -0.97420163249E+02  0.39382034663E+03  0.97473103616E+03  0.46999998093E+01 0.  1.
       -5    1    3    3    0  502 -0.88628062668E+03  0.97420163249E+02  0.80618006591E+03  0.12020534207E+04  0.46999998093E+01 0. -1.
</event>
<event>
 5   0  0.8892280E-05  0.1799291E+04  0.7818609E-02  0.8706677E-01
        2   -1    0    0  501    0  0.00000000000E+00  0.00000000000E+00  0.13151796684E+04  0.13151796684E+04  0.25500000920E-02 0.  1.
       -2   -1    0    0    0  501  0.00000000000E+00  0.00000000000E+00 -0.61540044814E+03  0.61540044815E+03  0.25500000920E-02 0. -1.
    10030    2    1    2    0    0  0.00000000000E+00  0.00000000000E+00  0.69977922026E+03  0.19305801166E+04  0.17992911463E+04 0.  0.
        4    1    3    3  502    0 -0.71793684733E+03  0.18987980966E+03  0.89475500483E+03  0.11627879387E+04  0.12699999809E+01 0.  1.
       -4    1    3    3    0  502  0.71793684733E+03 -0.18987980966E+03 -0.19497578457E+03  0.76779217783E+03  0.12699999809E+01 0. -1.
</event>
<event>
 5   0  0.4335117E-05  0.1800874E+04  0.7818609E-02  0.8705835E-01
        1   -1    0    0  501    0  0.00000000000E+00  0.00000000000E+00  0.11526291748E+04  0.11526291748E+04  0.50400001928E-02 0.  1.
       -1   -1    0    0    0  501  0.00000000000E+00  0.00000000000E+00 -0.70342386211E+03  0.70342386213E+03  0.50400001928E-02 0. -1.
    10030    2    1    2    0    0  0.00000000000E+00  0.00000000000E+00  0.44920531264E+03  0.18560530369E+04  0.18008740830E+04 0.  0.
        3    1    3    3  502    0 -0.26646366597E+02  0.58819148130E+02 -0.70103444922E+03  0.70400215215E+03  0.10100000352E+00 0. -1.
       -3    1    3    3    0  502  0.26646366597E+02 -0.58819148130E+02  0.11502397619E+04  0.11520508847E+04  0.10100000352E+00 0.  1.
</event>
<event>
 5   0  0.4535100E-05  0.1804257E+04  0.7818609E-02  0.8704039E-01
        1   -1    0    0  501    0  0.00000000000E+00  0.00000000000E+00  0.86294712434E+03  0.86294712435E+03  0.50400001928E-02 0.  1.
       -1   -1    0    0    0  501  0.00000000000E+00  0.00000000000E+00 -0.94308918061E+03  0.94308918063E+03  0.50400001928E-02 0. -1.
    10030    2    1    2    0    0  0.00000000000E+00  0.00000000000E+00 -0.80142056274E+02  0.18060363050E+04  0.18042572948E+04 0.  0.
        1    1    3    3  502    0 -0.22146950205E+03  0.50674689201E+02 -0.91398365551E+03  0.94179763592E+03  0.50400001928E-02 0. -1.
       -1    1    3    3    0  502  0.22146950205E+03 -0.50674689201E+02  0.83384159923E+03  0.86423866906E+03  0.50400001928E-02 0.  1.
</event>
<event>
 5   0  0.9147432E-05  0.1800584E+04  0.7818609E-02  0.8705989E-01
       -2   -1    0    0    0  501  0.00000000000E+00  0.00000000000E+00  0.59369574752E+03  0.59369574752E+03  0.25500000920E-02 0. -1.
        2   -1    0    0  501    0  0.00000000000E+00  0.00000000000E+00 -0.13652209569E+04  0.13652209569E+04  0.25500000920E-02 0.  1.
    10030    2    1    2    0    0  0.00000000000E+00  0.00000000000E+00 -0.77152520938E+03  0.19589167044E+04  0.18005842125E+04 0.  0.
        3    1    3    3  502    0  0.14457764652E+03  0.97559610661E+02 -0.13466647079E+04  0.13579125227E+04  0.10100000352E+00 0.  1.
       -3    1    3    3    0  502 -0.14457764652E+03 -0.97559610661E+02  0.57513949853E+03  0.60100418175E+03  0.10100000352E+00 0. -1.
</event>
<event>
 5   0  0.3270375E-05  0.1807867E+04  0.7818609E-02  0.8702127E-01
        3   -1    0    0  501    0  0.00000000000E+00  0.00000000000E+00  0.14418174759E+04  0.14418174795E+04  0.10100000352E+00 0.  1.
       -3   -1    0    0    0  501  0.00000000000E+00  0.00000000000E+00 -0.56671233073E+03  0.56671233973E+03  0.10100000352E+00 0. -1.
    10030    2    1    2    0    0  0.00000000000E+00  0.00000000000E+00  0.87510514519E+03  0.20085298192E+04  0.18078669806E+04 0.  0.
        4    1    3    3  502    0  0.65376186492E+03  0.40705035206E+03  0.96337052538E+03  0.12333608341E+04  0.12699999809E+01 0.  1.
       -4    1    3    3    0  502 -0.65376186492E+03 -0.40705035206E+03 -0.88265380192E+02  0.77516898504E+03  0.12699999809E+01 0. -1.
</event>
<event>
 5   0  0.4335117E-05  0.1801705E+04  0.7818609E-02  0.8705394E-01
       -1   -1    0    0    0  501  0.00000000000E+00  0.00000000000E+00  0.94294213559E+03  0.94294213560E+03  0.50400001928E-02 0.  1.
        1   -1    0    0  501    0  0.00000000000E+00  0.00000000000E+00 -0.86064119613E+03  0.86064119614E+03  0.50400001928E-02 0. -1.
    10030    2    1    2    0    0  0.00000000000E+00  0.00000000000E+00  0.82300939459E+02  0.18035833317E+04  0.18017045790E+04 0.  0.
        3    1    3    3  502    0 -0.13371881581E+00  0.31858286740E+03 -0.80236678319E+03  0.86330036849E+03  0.10100000352E+00 0. -1.
       -3    1    3    3    0  502  0.13371881581E+00 -0.31858286740E+03  0.88466772265E+03  0.94028296325E+03  0.10100000352E+00 0.  1.
</event>
<event>
 5   0  0.4494757E-05  0.1803599E+04  0.7818609E-02  0.8704388E-01
        1   -1    0    0  501    0  0.00000000000E+00  0.00000000000E+00  0.58383382008E+03  0.58383382010E+03  0.50400001928E-02 0.  1.
       -1   -1    0    0    0  501  0.00000000000E+00  0.00000000000E+00 -0.13929343847E+04  0.13929343847E+04  0.50400001928E-02 0. -1.
    10030    2    1    2    0    0  0.00000000000E+00  0.00000000000E+00 -0.80910056462E+03  0.19767682048E+04  0.18035988501E+04 0.  0.
        4    1    3    3  502    0  0.41200524830E+03 -0.64294914106E+03  0.12120335516E+03  0.77319065489E+03  0.12699999809E+01 0.  1.
       -4    1    3    3    0  502 -0.41200524830E+03  0.64294914106E+03 -0.93030391978E+03  0.12035775499E+04  0.12699999809E+01 0. -1.
</event>
<event>
 5   0  0.4623665E-05  0.1736537E+04  0.7818609E-02  0.8740796E-01
       -1   -1    0    0    0  501  0.00000000000E+00  0.00000000000E+00  0.47775317670E+03  0.47775317673E+03  0.50400001928E-02 0.  1.
        1   -1    0    0  501    0  0.00000000000E+00  0.00000000000E+00 -0.15779915215E+04  0.15779915216E+04  0.50400001928E-02 0. -1.
    10030    2    1    2    0    0  0.00000000000E+00  0.00000000000E+00 -0.11002383448E+04  0.20557446983E+04  0.17365373158E+04 0.  0.
        5    1    3    3  502    0 -0.56585542888E+03 -0.59064066986E+03 -0.20534622507E+03  0.84334923337E+03  0.46999998093E+01 0.  1.
       -5    1    3    3    0  502  0.56585542888E+03  0.59064066986E+03 -0.89489211978E+03  0.12123954649E+04  0.46999998093E+01 0. -1.
</event>
<event>
 5   0  0.4494757E-05  0.1794990E+04  0.7818609E-02  0.8708968E-01
       -1   -1    0    0    0  501  0.00000000000E+00  0.00000000000E+00  0.73361737015E+03  0.73361737017E+03  0.50400001928E-02 0.  1.
        1   -1    0    0  501    0  0.00000000000E+00  0.00000000000E+00 -0.10979802888E+04  0.10979802889E+04  0.50400001928E-02 0. -1.
    10030    2    1    2    0    0  0.00000000000E+00  0.00000000000E+00 -0.36436291869E+03  0.18315976590E+04  0.17949901526E+04 0.  0.
        4    1    3    3  502    0  0.87508700063E+03  0.67502612029E+02  0.91579416662E+01  0.87773534855E+03  0.12699999809E+01 0.  1.
       -4    1    3    3    0  502 -0.87508700063E+03 -0.67502612029E+02 -0.37352086035E+03  0.95386231047E+03  0.12699999809E+01 0. -1.
</event>
<event>
 5   0  0.8893075E-05  0.1797117E+04  0.7818609E-02  0.8707834E-01
        2   -1    0    0  501    0  0.00000000000E+00  0.00000000000E+00  0.74549749713E+03  0.74549749714E+03  0.25500000920E-02 0.  1.
       -2   -1    0    0    0  501  0.00000000000E+00  0.00000000000E+00 -0.10830452532E+04  0.10830452532E+04  0.25500000920E-02 0. -1.
    10030    2    1    2    0    0  0.00000000000E+00  0.00000000000E+00 -0.33754775609E+03  0.18285427504E+04  0.17971171643E+04 0.  0.
        1    1    3    3  502    0 -0.71755787260E+03 -0.45053082403E+03  0.13569139183E+03  0.85806729210E+03  0.50400001928E-02 0.  1.
       -1    1    3    3    0  502  0.71755787260E+03  0.45053082403E+03 -0.47323914792E+03  0.97047545826E+03  0.50400001928E-02 0. -1.
</event>
<event>
 5   0  0.4535100E-05  0.1801769E+04  0.7818609E-02  0.8705359E-01
       -1   -1    0    0    0  501  0.00000000000E+00  0.00000000000E+00  0.77537012389E+03  0.77537012391E+03  0.50400001928E-02 0.  1.
        1   -1    0    0  501    0  0.00000000000E+00  0.00000000000E+00 -0.10467165074E+04  0.10467165074E+04  0.50400001928E-02 0. -1.
    10030    2    1    2    0    0  0.00000000000E+00  0.00000000000E+00 -0.27134638352E+03  0.18220866313E+04  0.18017688065E+04 0.  0.
        1    1    3    3  502    0 -0.39643665055E+02  0.44921963080E+03 -0.92435406741E+03  0.10284942094E+04  0.50400001928E-02 0. -1.
       -1    1    3    3    0  502  0.39643665055E+02 -0.44921963080E+03  0.65300768389E+03  0.79359242191E+03  0.50400001928E-02 0.  1.
</event>
<event>
 5   0  0.9147432E-05  0.1806917E+04  0.7818609E-02  0.8702630E-01
       -2   -1    0    0    0  501  0.00000000000E+00  0.00000000000E+00  0.58197534296E+03  0.58197534297E+03  0.25500000920E-02 0. -1.
        2   -1    0    0  501    0  0.00000000000E+00  0.00000000000E+00 -0.14025282819E+04  0.14025282819E+04  0.25500000920E-02 0.  1.
    10030    2    1    2    0    0  0.00000000000E+00  0.00000000000E+00 -0.82055293897E+03  0.19845036249E+04  0.18069165757E+04 0.  0.
        3    1    3    3  502    0 -0.29512437243E+03  0.56148583320E+03  0.29628001504E+03  0.70010470188E+03  0.10100000352E+00 0. -1.
       -3    1    3    3    0  502  0.29512437243E+03 -0.56148583320E+03 -0.11168329540E+04  0.12843989230E+04  0.10100000352E+00 0.  1.
</event>
<event>
 5   0  0.8892280E-05  0.1760714E+04  0.7818609E-02  0.8727475E-01
        2   -1    0    0  501    0  0.00000000000E+00  0.00000000000E+00  0.12725669454E+04  0.12725669454E+04  0.25500000920E-02 0. -1.
       -2   -1    0    0    0  501  0.00000000000E+00  0.00000000000E+00 -0.60902743141E+03  0.60902743141E+03  0.25500000920E-02 0.  1.
    10030    2    1    2    0    0  0.00000000000E+00  0.00000000000E+00  0.66353951395E+03  0.18815943768E+04  0.17607136940E+04 0.  0.
        4    1    3    3  502    0  0.10439958766E+03 -0.67278469002E+03  0.92819767078E+03  0.11511259887E+04  0.12699999809E+01 0. -1.
       -4    1    3    3    0  502 -0.10439958766E+03  0.67278469002E+03 -0.26465815683E+03  0.73046838802E+03  0.12699999809E+01 0.  1.
</event>
<event>
 5   0  0.4494757E-05  0.1813905E+04  0.7818609E-02  0.8698940E-01
       -1   -1    0    0    0  501  0.00000000000E+00  0.00000000000E+00  0.54533727099E+03  0.54533727102E+03  0.50400001928E-02 0. -1.
        1   -1    0    0  501    0  0.00000000000E+00  0.00000000000E+00 -0.15083566488E+04  0.15083566488E+04  0.50400001928E-02 0.  1.
    10030    2    1    2    0    0  0.00000000000E+00  0.00000000000E+00 -0.96301937784E+03  0.20536939199E+04  0.18139052882E+04 0.  0.
        4    1    3    3  502    0  0.29111260704E+03 -0.25090514510E+03  0.44858775528E+03  0.59070511163E+03  0.12699999809E+01 0. -1.
       -4    1    3    3    0  502 -0.29111260704E+03  0.25090514510E+03 -0.14116071331E+04  0.14629888082E+04  0.12699999809E+01 0.  1.
</event>
<event>
 5   0  0.4535100E-05  0.1800019E+04  0.7818609E-02  0.8706290E-01
       -1   -1    0    0    0  501  0.00000000000E+00  0.00000000000E+00  0.73568963345E+03  0.73568963346E+03  0.50400001928E-02 0.  1.
        1   -1    0    0  501    0  0.00000000000E+00  0.00000000000E+00 -0.11010307030E+04  0.11010307030E+04  0.50400001928E-02 0. -1.
    10030    2    1    2    0    0  0.00000000000E+00  0.00000000000E+00 -0.36534106958E+03  0.18367203365E+04  0.18000187492E+04 0.  0.
        1    1    3    3  502    0  0.70060357394E+03 -0.55757445325E+03 -0.89808157832E+02  0.89988896202E+03  0.50400001928E-02 0. -1.
       -1    1    3    3    0  502 -0.70060357394E+03  0.55757445325E+03 -0.27553291175E+03  0.93683137448E+03  0.50400001928E-02 0.  1.
</event>
<event>
 5   0  0.8802655E-05  0.1800296E+04  0.7818609E-02  0.8706142E-01
       -2   -1    0    0    0  501  0.00000000000E+00  0.00000000000E+00  0.51981172811E+03  0.51981172812E+03  0.25500000920E-02 0. -1.
        2   -1    0    0  501    0  0.00000000000E+00  0.00000000000E+00 -0.15587687977E+04  0.15587687977E+04  0.25500000920E-02 0.  1.
    10030    2    1    2    0    0  0.00000000000E+00  0.00000000000E+00 -0.10389570696E+04  0.20785805258E+04  0.18002958673E+04 0.  0.
        2    1    3    3  502    0 -0.25137306151E+03 -0.59607211386E+03 -0.12421515526E+04  0.14005109284E+04  0.25500000920E-02 0.  1.
       -2    1    3    3    0  502  0.25137306151E+03  0.59607211386E+03  0.20319448302E+03  0.67806959739E+03  0.25500000920E-02 0. -1.
</event>
<event>
 5   0  0.9147432E-05  0.1803466E+04  0.7818609E-02  0.8704459E-01
       -2   -1    0    0    0  501  0.00000000000E+00  0.00000000000E+00  0.55424348066E+03  0.55424348067E+03  0.25500000920E-02 0. -1.
        2   -1    0    0  501    0  0.00000000000E+00  0.00000000000E+00 -0.14670848126E+04  0.14670848126E+04  0.25500000920E-02 0.  1.
    10030    2    1    2    0    0  0.00000000000E+00  0.00000000000E+00 -0.91284133191E+03  0.20213282932E+04  0.18034657667E+04 0.  0.
        3    1    3    3  502    0 -0.38628641283E+03  0.73432243040E+03 -0.85216947150E+03  0.11893861622E+04  0.10100000352E+00 0.  1.
       -3    1    3    3    0  502  0.38628641283E+03 -0.73432243040E+03 -0.60671860413E+02  0.83194213102E+03  0.10100000352E+00 0. -1.
</event>
<event>
 5   0  0.4494757E-05  0.1801973E+04  0.7818609E-02  0.8705251E-01
       -1   -1    0    0    0  501  0.00000000000E+00  0.00000000000E+00  0.73946321529E+03  0.73946321531E+03  0.50400001928E-02 0.  1.
        1   -1    0    0  501    0  0.00000000000E+00  0.00000000000E+00 -0.10977917919E+04  0.10977917919E+04  0.50400001928E-02 0. -1.
    10030    2    1    2    0    0  0.00000000000E+00  0.00000000000E+00 -0.35832857659E+03  0.18372550072E+04  0.18019729722E+04 0.  0.
        4    1    3    3  502    0  0.12332296528E+03 -0.81048171495E+03  0.20189926025E+03  0.84430686852E+03  0.12699999809E+01 0.  1.
       -4    1    3    3    0  502 -0.12332296528E+03  0.81048171495E+03 -0.56022783684E+03  0.99294813868E+03  0.12699999809E+01 0. -1.
</event>
<event>
 5   0  0.4578107E-05  0.1805989E+04  0.7818609E-02  0.8703121E-01
       -1   -1    0    0    0  501  0.00000000000E+00  0.00000000000E+00  0.41433604303E+03  0.41433604306E+03  0.50400001928E-02 0.  1.
        1   -1    0    0  501    0  0.00000000000E+00  0.00000000000E+00 -0.19679652394E+04  0.19679652394E+04  0.50400001928E-02 0. -1.
    10030    2    1    2    0    0  0.00000000000E+00  0.00000000000E+00 -0.15536291964E+04  0.23823012825E+04  0.18059888484E+04 0.  0.
        2    1    3    3  502    0  0.78288666542E+02  0.63804406466E+03  0.59724478084E+02  0.64559767429E+03  0.25500000920E-02 0.  1.
       -2    1    3    3    0  502 -0.78288666542E+02 -0.63804406466E+03 -0.16133536744E+04  0.17367036082E+04  0.25500000920E-02 0. -1.
</event>
<event>
 5   0  0.4535100E-05  0.1802967E+04  0.7818609E-02  0.8704723E-01
        1   -1    0    0  501    0  0.00000000000E+00  0.00000000000E+00  0.13037648376E+04  0.13037648376E+04  0.50400001928E-02 0.  1.
       -1   -1    0    0    0  501  0.00000000000E+00  0.00000000000E+00 -0.62332778527E+03  0.62332778529E+03  0.50400001928E-02 0. -1.
    10030    2    1    2    0    0  0.00000000000E+00  0.00000000000E+00  0.68043705228E+03  0.19270926229E+04  0.18029673860E+04 0.  0.
        1    1    3    3  502    0 -0.87632168960E+03 -0.18409725466E+03  0.45150857113E+03  0.10028417087E+04  0.50400001928E-02 0. -1.
       -1    1    3    3    0  502  0.87632168960E+03  0.18409725466E+03  0.22892848115E+03  0.92425091417E+03  0.50400001928E-02 0.  1.
</event>
<event>
 5   0  0.8802655E-05  0.1799922E+04  0.7818609E-02  0.8706341E-01
       -2   -1    0    0    0  501  0.00000000000E+00  0.00000000000E+00  0.61965781535E+03  0.61965781536E+03  0.25500000920E-02 0. -1.
        2   -1    0    0  501    0  0.00000000000E+00  0.00000000000E+00 -0.13070596855E+04  0.13070596855E+04  0.25500000920E-02 0.  1.
    10030    2    1    2    0    0  0.00000000000E+00  0.00000000000E+00 -0.68740187018E+03  0.19267175009E+04  0.17999219419E+04 0.  0.
        2    1    3    3  502    0 -0.75486183847E+03  0.48693878680E+03 -0.28503144545E+03  0.94242702751E+03  0.25500000920E-02 0. -1.
       -2    1    3    3    0  502  0.75486183847E+03 -0.48693878680E+03 -0.40237042473E+03  0.98429047338E+03  0.25500000920E-02 0.  1.
</event>
<event>
 5   0  0.4623665E-05  0.1815314E+04  0.7818609E-02  0.8698198E-01
       -1   -1    0    0    0  501  0.00000000000E+00  0.00000000000E+00  0.47379232769E+03  0.47379232772E+03  0.50400001928E-02 0. -1.
        1   -1    0    0  501    0  0.00000000000E+00  0.00000000000E+00 -0.17388233643E+04  0.17388233643E+04  0.50400001928E-02 0.  1.
    10030    2    1    2    0    0  0.00000000000E+00  0.00000000000E+00 -0.12650310366E+04  0.22126156920E+04  0.18153139335E+04 0.  0.
        5    1    3    3  502    0  0.10756797457E+03 -0.25984259722E+03 -0.16843652042E+04  0.17076876985E+04  0.46999998093E+01 0.  1.
       -5    1    3    3    0  502 -0.10756797457E+03  0.25984259722E+03  0.41933416762E+03  0.50492799350E+03  0.46999998093E+01 0. -1.
</event>
<event>
 5   0  0.4335117E-05  0.1803337E+04  0.7818609E-02  0.8704527E-01
       -1   -1    0    0    0  501  0.00000000000E+00  0.00000000000E+00  0.49939236551E+03  0.49939236554E+03  0.50400001928E-02 0.  1.
        1   -1    0    0  501    0  0.00000000000E+00  0.00000000000E+00 -0.16279906055E+04  0.16279906055E+04  0.50400001928E-02 0. -1.
    10030    2    1    2    0    0  0.00000000000E+00  0.00000000000E+00 -0.11285982400E+04  0.21273829710E+04  0.18033369952E+04 0.  0.
        3    1    3    3  502    0 -0.25619007597E+02 -0.64487153994E+03 -0.13071217781E+04  0.14577664386E+04  0.10100000352E+00 0. -1.
       -3    1    3    3    0  502  0.25619007597E+02  0.64487153994E+03  0.17852353816E+03  0.66961653239E+03  0.10100000352E+00 0.  1.
</event>
<event>
 5   0  0.9147432E-05  0.1807141E+04  0.7818609E-02  0.8702511E-01
       -2   -1    0    0    0  501  0.00000000000E+00  0.00000000000E+00  0.79088221396E+03  0.79088221397E+03  0.25500000920E-02 0. -1.
        2   -1    0    0  501    0  0.00000000000E+00  0.00000000000E+00 -0.10323153747E+04  0.10323153747E+04  0.25500000920E-02 0.  1.
    10030    2    1    2    0    0  0.00000000000E+00  0.00000000000E+00 -0.24143316076E+03  0.18231975887E+04  0.18071412441E+04 0.  0.
        3    1    3    3  502    0  0.15371405539E+03 -0.38907263025E+03  0.68729529206E+03  0.80459949734E+03  0.10100000352E+00 0. -1.
       -3    1    3    3    0  502 -0.15371405539E+03  0.38907263025E+03 -0.92872845282E+03  0.10185980914E+04  0.10100000352E+00 0.  1.
</event>
<event>
 5   0  0.9147432E-05  0.1816442E+04  0.7818609E-02  0.8697604E-01
       -2   -1    0    0    0  501  0.00000000000E+00  0.00000000000E+00  0.45265042311E+03  0.45265042311E+03  0.25500000920E-02 0.  1.
        2   -1    0    0  501    0  0.00000000000E+00  0.00000000000E+00 -0.18223019561E+04  0.18223019561E+04  0.25500000920E-02 0. -1.
    10030    2    1    2    0    0  0.00000000000E+00  0.00000000000E+00 -0.13696515330E+04  0.22749523792E+04  0.18164424037E+04 0.  0.
        3    1    3    3  502    0 -0.50532703124E+03 -0.36524032152E+02  0.25921825503E+03  0.56910765886E+03  0.10100000352E+00 0.  1.
       -3    1    3    3    0  502  0.50532703124E+03  0.36524032152E+02 -0.16288697880E+04  0.17058447204E+04  0.10100000352E+00 0. -1.
</event>
<event>
 5   0  0.4535100E-05  0.1802067E+04  0.7818609E-02  0.8705201E-01
        1   -1    0    0  501    0  0.00000000000E+00  0.00000000000E+00  0.58599124350E+03  0.58599124352E+03  0.50400001928E-02 0. -1.
       -1   -1    0    0    0  501  0.00000000000E+00  0.00000000000E+00 -0.13854493015E+04  0.13854493016E+04  0.50400001928E-02 0.  1.
    10030    2    1    2    0    0  0.00000000000E+00  0.00000000000E+00 -0.79945805805E+03  0.19714405451E+04  0.18020667680E+04 0.  0.
        1    1    3    3  502    0 -0.71418039927E+03 -0.54709464091E+03 -0.45437340725E+03  0.10078796466E+04  0.50400001928E-02 0.  1.
       -1    1    3    3    0  502  0.71418039927E+03  0.54709464091E+03 -0.34508465079E+03  0.96356089847E+03  0.50400001928E-02 0. -1.
</event>
<event>
 5   0  0.8893075E-05  0.1818428E+04  0.7818609E-02  0.8696561E-01
        2   -1    0    0  501    0  0.00000000000E+00  0.00000000000E+00  0.22010861470E+04  0.22010861470E+04  0.25500000920E-02 0. -1.
       -2   -1    0    0    0  501  0.00000000000E+00  0.00000000000E+00 -0.37557360361E+03  0.37557360362E+03  0.25500000920E-02 0.  1.
    10030    2    1    2    0    0  0.00000000000E+00  0.00000000000E+00  0.18255125434E+04  0.25766597506E+04  0.18184277342E+04 0.  0.
        1    1    3    3  502    0 -0.36371265019E+03  0.29197264951E+03 -0.19314862567E+03  0.50481809753E+03  0.50400001928E-02 0.  1.
       -1    1    3    3    0  502  0.36371265019E+03 -0.29197264951E+03  0.20186611690E+04  0.20718416531E+04  0.50400001928E-02 0. -1.
</event>
<event>
 5   0  0.4578107E-05  0.1803534E+04  0.7818609E-02  0.8704422E-01
        1   -1    0    0  501    0  0.00000000000E+00  0.00000000000E+00  0.12167804350E+04  0.12167804350E+04  0.50400001928E-02 0.  1.
       -1   -1    0    0    0  501  0.00000000000E+00  0.00000000000E+00 -0.66830805952E+03  0.66830805953E+03  0.50400001928E-02 0. -1.
    10030    2    1    2    0    0  0.00000000000E+00  0.00000000000E+00  0.54847237547E+03  0.18850884945E+04  0.18035344980E+04 0.  0.
        2    1    3    3  502    0  0.88611532159E+01 -0.52666253193E+03  0.10392709610E+04  0.11651335000E+04  0.25500000920E-02 0.  1.
       -2    1    3    3    0  502 -0.88611532159E+01  0.52666253193E+03 -0.49079858550E+03  0.71995499450E+03  0.25500000920E-02 0. -1.
</event>
<event>
 5   0  0.4535100E-05  0.1803979E+04  0.7818609E-02  0.8704186E-01
        1   -1    0    0  501    0  0.00000000000E+00  0.00000000000E+00  0.84644971746E+03  0.84644971747E+03  0.50400001928E-02 0. -1.
       -1   -1    0    0    0  501  0.00000000000E+00  0.00000000000E+00 -0.96117339570E+03  0.96117339571E+03  0.50400001928E-02 0.  1.
    10030    2    1    2    0    0  0.00000000000E+00  0.00000000000E+00 -0.11472367824E+03  0.18076231132E+04  0.18039788793E+04 0.  0.
        1    1    3    3  502    0  0.14052425589E+02  0.21621813690E+03  0.81998513083E+03  0.84812933459E+03  0.50400001928E-02 0. -1.
       -1    1    3    3    0  502 -0.14052425589E+02 -0.21621813690E+03 -0.93470880907E+03  0.95949377860E+03  0.50400001928E-02 0.  1.
</event>
<event>
 5   0  0.3270375E-05  0.1785312E+04  0.7818609E-02  0.8714149E-01
       -4   -1    0    0    0  501  0.00000000000E+00  0.00000000000E+00  0.13535241653E+04  0.13535247611E+04  0.12699999809E+01 0.  1.
        4   -1    0    0  501    0  0.00000000000E+00  0.00000000000E+00 -0.58870983492E+03  0.58871120477E+03  0.12699999809E+01 0. -1.
    10030    2    1    2    0    0  0.00000000000E+00  0.00000000000E+00  0.76481433040E+03  0.19422359659E+04  0.17853121820E+04 0.  0.
        4    1    3    3  502    0  0.16694228782E+03  0.82368110230E+03  0.55109204730E+02  0.84223448225E+03  0.12699999809E+01 0. -1.
       -4    1    3    3    0  502 -0.16694228782E+03 -0.82368110230E+03  0.70970512567E+03  0.11000014837E+04  0.12699999809E+01 0.  1.
</event>
<event>
 5   0  0.8893075E-05  0.1798909E+04  0.7818609E-02  0.8706880E-01
       -2   -1    0    0    0  501  0.00000000000E+00  0.00000000000E+00  0.45756997820E+03  0.45756997821E+03  0.25500000920E-02 0.  1.
        2   -1    0    0  501    0  0.00000000000E+00  0.00000000000E+00 -0.17680764059E+04  0.17680764059E+04  0.25500000920E-02 0. -1.
    10030    2    1    2    0    0  0.00000000000E+00  0.00000000000E+00 -0.13105064277E+04  0.22256463841E+04  0.17989093168E+04 0.  0.
        1    1    3    3  502    0  0.34049675692E+03  0.47760066071E+02  0.37305412851E+03  0.50733465110E+03  0.50400001928E-02 0.  1.
       -1    1    3    3    0  502 -0.34049675692E+03 -0.47760066071E+02 -0.16835605562E+04  0.17183117330E+04  0.50400001928E-02 0. -1.
</event>
<event>
 5   0  0.4578107E-05  0.1796188E+04  0.7818609E-02  0.8708329E-01
        1   -1    0    0  501    0  0.00000000000E+00  0.00000000000E+00  0.75344966085E+03  0.75344966087E+03  0.50400001928E-02 0.  1.
       -1   -1    0    0    0  501  0.00000000000E+00  0.00000000000E+00 -0.10705061922E+04  0.10705061922E+04  0.50400001928E-02 0. -1.
    10030    2    1    2    0    0  0.00000000000E+00  0.00000000000E+00 -0.31705653134E+03  0.18239558531E+04  0.17961876600E+04 0.  0.
        2    1    3    3  502    0  0.36705797158E+03 -0.30868935455E+03  0.61252041980E+03  0.77794725836E+03  0.25500000920E-02 0.  1.
       -2    1    3    3    0  502 -0.36705797158E+03  0.30868935455E+03 -0.92957695113E+03  0.10460085947E+04  0.25500000920E-02 0. -1.
</event>
<event>
 5   0  0.4578107E-05  0.1804013E+04  0.7818609E-02  0.8704168E-01
       -1   -1    0    0    0  501  0.00000000000E+00  0.00000000000E+00  0.56114871694E+03  0.56114871696E+03  0.50400001928E-02 0. -1.
        1   -1    0    0  501    0  0.00000000000E+00  0.00000000000E+00 -0.14499111902E+04  0.14499111902E+04  0.50400001928E-02 0.  1.
    10030    2    1    2    0    0  0.00000000000E+00  0.00000000000E+00 -0.88876247328E+03  0.20110599072E+04  0.18040130865E+04 0.  0.
        2    1    3    3  502    0 -0.84768844318E+03  0.24973261312E+03 -0.64588570350E+03  0.10945823024E+04  0.25500000920E-02 0.  1.
       -2    1    3    3    0  502  0.84768844318E+03 -0.24973261312E+03 -0.24287676978E+03  0.91647760478E+03  0.25500000920E-02 0. -1.
</event>
<event>
 5   0  0.8802655E-05  0.1823731E+04  0.7818609E-02  0.8693781E-01
        2   -1    0    0  501    0  0.00000000000E+00  0.00000000000E+00  0.22136395990E+04  0.22136395990E+04  0.25500000920E-02 0. -1.
       -2   -1    0    0    0  501  0.00000000000E+00  0.00000000000E+00 -0.37562507386E+03  0.37562507387E+03  0.25500000920E-02 0.  1.
    10030    2    1    2    0    0  0.00000000000E+00  0.00000000000E+00  0.18380145251E+04  0.25892646728E+04  0.18237308331E+04 0.  0.
        2    1    3    3  502    0  0.19823599547E+03 -0.88829018218E+03  0.83942985605E+03  0.12381435462E+04  0.25500000920E-02 0. -1.
       -2    1    3    3    0  502 -0.19823599547E+03  0.88829018218E+03  0.99858466905E+03  0.13511211267E+04  0.25500000920E-02 0.  1.
</event>
<event>
 5   0  0.4335117E-05  0.1799988E+04  0.7818609E-02  0.8706306E-01
        1   -1    0    0  501    0  0.00000000000E+00  0.00000000000E+00  0.10154655196E+04  0.10154655196E+04  0.50400001928E-02 0. -1.
       -1   -1    0    0    0  501  0.00000000000E+00  0.00000000000E+00 -0.79765296000E+03  0.79765296002E+03  0.50400001928E-02 0.  1.
    10030    2    1    2    0    0  0.00000000000E+00  0.00000000000E+00  0.21781255961E+03  0.18131184796E+04  0.17999878639E+04 0.  0.
        3    1    3    3  502    0 -0.46271230448E+03 -0.29442129769E+03 -0.60988345588E+03  0.82020998361E+03  0.10100000352E+00 0.  1.
       -3    1    3    3    0  502  0.46271230448E+03  0.29442129769E+03  0.82769601548E+03  0.99290849604E+03  0.10100000352E+00 0. -1.
</event>
<event>
 5   0  0.9184414E-05  0.1799322E+04  0.7818609E-02  0.8706660E-01
        2   -1    0    0  501    0  0.00000000000E+00  0.00000000000E+00  0.19422817465E+04  0.19422817465E+04  0.25500000920E-02 0. -1.
       -2   -1    0    0    0  501  0.00000000000E+00  0.00000000000E+00 -0.41672136941E+03  0.41672136942E+03  0.25500000920E-02 0.  1.
    10030    2    1    2    0    0  0.00000000000E+00  0.00000000000E+00  0.15255603770E+04  0.23590031159E+04  0.17993224382E+04 0.  0.
        5    1    3    3  502    0  0.58916715310E+02  0.82191371878E+01 -0.41412396589E+03  0.41840110263E+03  0.46999998093E+01 0.  1.
       -5    1    3    3    0  502 -0.58916715310E+02 -0.82191371878E+01  0.19396843429E+04  0.19406020132E+04  0.46999998093E+01 0. -1.
</event>
<event>
 5   0  0.4335117E-05  0.1804190E+04  0.7818609E-02  0.8704074E-01
        1   -1    0    0  501    0  0.00000000000E+00  0.00000000000E+00  0.11750344408E+04  0.11750344408E+04  0.50400001928E-02 0. -1.
       -1   -1    0    0    0  501  0.00000000000E+00  0.00000000000E+00 -0.69255485117E+03  0.69255485119E+03  0.50400001928E-02 0.  1.
    10030    2    1    2    0    0  0.00000000000E+00  0.00000000000E+00  0.48247958965E+03  0.18675892920E+04  0.18041904582E+04 0.  0.
        3    1    3    3  502    0  0.44147345900E+03  0.34013107587E+00  0.10555710733E+04  0.11441718541E+04  0.10100000352E+00 0. -1.
       -3    1    3    3    0  502 -0.44147345900E+03 -0.34013107587E+00 -0.57309148365E+03  0.72341743795E+03  0.10100000352E+00 0.  1.
</event>
<event>
 5   0  0.8802655E-05  0.1796893E+04  0.7818609E-02  0.8707954E-01
       -2   -1    0    0    0  501  0.00000000000E+00  0.00000000000E+00  0.47285641028E+03  0.47285641029E+03  0.25500000920E-02 0. -1.
        2   -1    0    0  501    0  0.00000000000E+00  0.00000000000E+00 -0.17070842808E+04  0.17070842808E+04  0.25500000920E-02 0.  1.
    10030    2    1    2    0    0  0.00000000000E+00  0.00000000000E+00 -0.12342278705E+04  0.21799406911E+04  0.17968925901E+04 0.  0.
        2    1    3    3  502    0  0.62332396639E+03 -0.39658362415E+03  0.31416815232E+01  0.73879713602E+03  0.25500000920E-02 0. -1.
       -2    1    3    3    0  502 -0.62332396639E+03  0.39658362415E+03 -0.12373695521E+04  0.14411435551E+04  0.25500000920E-02 0.  1.
</event>
<event>
 5   0  0.8802655E-05  0.1812107E+04  0.7818609E-02  0.8699888E-01
       -2   -1    0    0    0  501  0.00000000000E+00  0.00000000000E+00  0.13131606270E+04  0.13131606270E+04  0.25500000920E-02 0.  1.
        2   -1    0    0  501    0  0.00000000000E+00  0.00000000000E+00 -0.62515790134E+03  0.62515790135E+03  0.25500000920E-02 0. -1.
    10030    2    1    2    0    0  0.00000000000E+00  0.00000000000E+00  0.68800272565E+03  0.19383185283E+04  0.18121067758E+04 0.  0.
        2    1    3    3  502    0 -0.10952541270E+03  0.85788787307E+03  0.63293600636E+03  0.10717161037E+04  0.25500000920E-02 0.  1.
       -2    1    3    3    0  502  0.10952541270E+03 -0.85788787307E+03  0.55066719285E+02  0.86660242463E+03  0.25500000920E-02 0. -1.
</event>
<event>
 5   0  0.4535100E-05  0.1792006E+04  0.7818609E-02  0.8710562E-01
        1   -1    0    0  501    0  0.00000000000E+00  0.00000000000E+00  0.99743284971E+03  0.99743284972E+03  0.50400001928E-02 0.  1.
       -1   -1    0    0    0  501  0.00000000000E+00  0.00000000000E+00 -0.80488734744E+03  0.80488734746E+03  0.50400001928E-02 0. -1.
    10030    2    1    2    0    0  0.00000000000E+00  0.00000000000E+00  0.19254550226E+03  0.18023201972E+04  0.17920056704E+04 0.  0.
        1    1    3    3  502    0 -0.78989301540E+03  0.26244969155E+03  0.42985979435E+03  0.93679787532E+03  0.50400001928E-02 0.  1.
       -1    1    3    3    0  502  0.78989301540E+03 -0.26244969155E+03 -0.23731429209E+03  0.86552232186E+03  0.50400001928E-02 0. -1.
</event>
<event>
 5   0  0.9147432E-05  0.1805831E+04  0.7818609E-02  0.8703205E-01
        2   -1    0    0  501    0  0.00000000000E+00  0.00000000000E+00  0.93865566585E+03  0.93865566586E+03  0.25500000920E-02 0.  1.
       -2   -1    0    0    0  501  0.00000000000E+00  0.00000000000E+00 -0.86853626491E+03  0.86853626491E+03  0.25500000920E-02 0. -1.
    10030    2    1    2    0    0  0.00000000000E+00  0.00000000000E+00  0.70119400944E+02  0.18071919308E+04  0.18058310952E+04 0.  0.
        3    1    3    3  502    0  0.89052218181E+03  0.14904502538E+03  0.31549926174E+02  0.90345978545E+03  0.10100000352E+00 0.  1.
       -3    1    3    3    0  502 -0.89052218181E+03 -0.14904502538E+03  0.38569474770E+02  0.90373214531E+03  0.10100000352E+00 0. -1.
</event>
<event>
 5   0  0.8802655E-05  0.1770610E+04  0.7818609E-02  0.8722087E-01
       -2   -1    0    0    0  501  0.00000000000E+00  0.00000000000E+00  0.72240150625E+03  0.72240150626E+03  0.25500000920E-02 0.  1.
        2   -1    0    0  501    0  0.00000000000E+00  0.00000000000E+00 -0.10849439712E+04  0.10849439712E+04  0.25500000920E-02 0. -1.
    10030    2    1    2    0    0  0.00000000000E+00  0.00000000000E+00 -0.36254246495E+03  0.18073454775E+04  0.17706102440E+04 0.  0.
        2    1    3    3  502    0 -0.77062850875E+03 -0.35724764936E+03 -0.43599005929E+03  0.95476777977E+03  0.25500000920E-02 0.  1.
       -2    1    3    3    0  502  0.77062850875E+03  0.35724764936E+03  0.73447594340E+02  0.85257769769E+03  0.25500000920E-02 0. -1.
</event>
<event>
 5   0  0.4335117E-05  0.1769885E+04  0.7818609E-02  0.8722480E-01
       -1   -1    0    0    0  501  0.00000000000E+00  0.00000000000E+00  0.11847888085E+04  0.11847888085E+04  0.50400001928E-02 0.  1.
        1   -1    0    0  501    0  0.00000000000E+00  0.00000000000E+00 -0.66098105616E+03  0.66098105618E+03  0.50400001928E-02 0. -1.
    10030    2    1    2    0    0  0.00000000000E+00  0.00000000000E+00  0.52380775231E+03  0.18457698647E+04  0.17698846945E+04 0.  0.
        3    1    3    3  502    0  0.47976418726E+03 -0.42086193982E+03  0.90123393192E+03  0.11043192736E+04  0.10100000352E+00 0.  1.
       -3    1    3    3    0  502 -0.47976418726E+03  0.42086193982E+03 -0.37742617961E+03  0.74145059108E+03  0.10100000352E+00 0. -1.
</event>
<event>
 5   0  0.4335117E-05  0.1801856E+04  0.7818609E-02  0.8705313E-01
        1   -1    0    0  501    0  0.00000000000E+00  0.00000000000E+00  0.17737704666E+04  0.17737704666E+04  0.50400001928E-02 0.  1.
       -1   -1    0    0    0  501  0.00000000000E+00  0.00000000000E+00 -0.45759634708E+03  0.45759634711E+03  0.50400001928E-02 0. -1.
    10030    2    1    2    0    0  0.00000000000E+00  0.00000000000E+00  0.13161741195E+04  0.22313668137E+04  0.18018555837E+04 0.  0.
        3    1    3    3  502    0  0.45110558240E+03  0.26704398463E+03  0.15654528028E+04  0.16508940681E+04  0.10100000352E+00 0.  1.
       -3    1    3    3    0  502 -0.45110558240E+03 -0.26704398463E+03 -0.24927868330E+03  0.58047274557E+03  0.10100000352E+00 0. -1.
</event>
<event>
 5   0  0.4494757E-05  0.1801981E+04  0.7818609E-02  0.8705247E-01
       -1   -1    0    0    0  501  0.00000000000E+00  0.00000000000E+00  0.16993225042E+04  0.16993225042E+04  0.50400001928E-02 0.  1.
        1   -1    0    0  501    0  0.00000000000E+00  0.00000000000E+00 -0.47771014895E+03  0.47771014898E+03  0.50400001928E-02 0. -1.
    10030    2    1    2    0    0  0.00000000000E+00  0.00000000000E+00  0.12216123553E+04  0.21770326532E+04  0.18019806954E+04 0.  0.
        4    1    3    3  502    0  0.11457086247E+03 -0.51890578109E+03  0.14898360209E+04  0.15817720045E+04  0.12699999809E+01 0.  1.
       -4    1    3    3    0  502 -0.11457086247E+03  0.51890578109E+03 -0.26822366564E+03  0.59526064869E+03  0.12699999809E+01 0. -1.
</event>
<event>
 5   0  0.9147432E-05  0.1787255E+04  0.7818609E-02  0.8713107E-01
        2   -1    0    0  501    0  0.00000000000E+00  0.00000000000E+00  0.17834326072E+04  0.17834326072E+04  0.25500000920E-02 0. -1.
       -2   -1    0    0    0  501  0.00000000000E+00  0.00000000000E+00 -0.44777144828E+03  0.44777144829E+03  0.25500000920E-02 0.  1.
    10030    2    1    2    0    0  0.00000000000E+00  0.00000000000E+00  0.13356611589E+04  0.22312040555E+04  0.17872551037E+04 0.  0.
        3    1    3    3  502    0 -0.37576703233E+03 -0.34001324995E+03  0.15867053781E+04  0.16656661850E+04  0.10100000352E+00 0. -1.
       -3    1    3    3    0  502  0.37576703233E+03  0.34001324995E+03 -0.25104421922E+03  0.56553787047E+03  0.10100000352E+00 0.  1.
</event>
<event>
 5   0  0.8802655E-05  0.1795503E+04  0.7818609E-02  0.8708695E-01
       -2   -1    0    0    0  501  0.00000000000E+00  0.00000000000E+00  0.76060844712E+03  0.76060844712E+03  0.25500000920E-02 0. -1.
        2   -1    0    0  501    0  0.00000000000E+00  0.00000000000E+00 -0.10596222288E+04  0.10596222288E+04  0.25500000920E-02 0.  1.
    10030    2    1    2    0    0  0.00000000000E+00  0.00000000000E+00 -0.29901378171E+03  0.18202306760E+04  0.17955028466E+04 0.  0.
        2    1    3    3  502    0 -0.20746634864E+03  0.62645520633E+03 -0.76655125336E+03  0.10114787370E+04  0.25500000920E-02 0.  1.
       -2    1    3    3    0  502  0.20746634864E+03 -0.62645520633E+03  0.46753747166E+03  0.80875193896E+03  0.25500000920E-02 0. -1.
</event>
<event>
 5   0  0.8892280E-05  0.1801260E+04  0.7818609E-02  0.8705630E-01
        2   -1    0    0  501    0  0.00000000000E+00  0.00000000000E+00  0.72123946798E+03  0.72123946798E+03  0.25500000920E-02 0.  1.
       -2   -1    0    0    0  501  0.00000000000E+00  0.00000000000E+00 -0.11246391637E+04  0.11246391637E+04  0.25500000920E-02 0. -1.
    10030    2    1    2    0    0  0.00000000000E+00  0.00000000000E+00 -0.40339969574E+03  0.18458786317E+04  0.18012597282E+04 0.  0.
        4    1    3    3  502    0 -0.22558191687E+02  0.10030366704E+03  0.71520552401E+03  0.72255813061E+03  0.12699999809E+01 0.  1.
       -4    1    3    3    0  502  0.22558191687E+02 -0.10030366704E+03 -0.11186052197E+04  0.11233205011E+04  0.12699999809E+01 0. -1.
</event>
<event>
 5   0  0.4578107E-05  0.1796750E+04  0.7818609E-02  0.8708030E-01
        1   -1    0    0  501    0  0.00000000000E+00  0.00000000000E+00  0.24577465721E+04  0.24577465721E+04  0.50400001928E-02 0.  1.
       -1   -1    0    0    0  501  0.00000000000E+00  0.00000000000E+00 -0.32838114602E+03  0.32838114605E+03  0.50400001928E-02 0. -1.
    10030    2    1    2    0    0  0.00000000000E+00  0.00000000000E+00  0.21293654261E+04  0.27861277182E+04  0.17967499949E+04 0.  0.
        2    1    3    3  502    0  0.67491452505E+03  0.44381533340E+03  0.45498796701E+03  0.92708991819E+03  0.25500000920E-02 0. -1.
       -2    1    3    3    0  502 -0.67491452505E+03 -0.44381533340E+03  0.16743774591E+04  0.18590378000E+04  0.25500000920E-02 0.  1.
</event>
<event>
 5   0  0.3270375E-05  0.1804526E+04  0.7818609E-02  0.8703897E-01
       -3   -1    0    0    0  501  0.00000000000E+00  0.00000000000E+00  0.46508794879E+03  0.46508795976E+03  0.10100000352E+00 0. -1.
        3   -1    0    0  501    0  0.00000000000E+00  0.00000000000E+00 -0.17503745982E+04  0.17503746011E+04  0.10100000352E+00 0.  1.
    10030    2    1    2    0    0  0.00000000000E+00  0.00000000000E+00 -0.12852866494E+04  0.22154625608E+04  0.18045255851E+04 0.  0.
        1    1    3    3  502    0  0.17461908204E+03 -0.77368779426E+03 -0.11458775300E+03  0.80138316676E+03  0.50400001928E-02 0.  1.
       -1    1    3    3    0  502 -0.17461908204E+03  0.77368779426E+03 -0.11706988964E+04  0.14140793941E+04  0.50400001928E-02 0. -1.
</event>
<event>
 5   0  0.8893075E-05  0.1803247E+04  0.7818609E-02  0.8704575E-01
       -2   -1    0    0    0  501  0.00000000000E+00  0.00000000000E+00  0.74625663022E+03  0.74625663023E+03  0.25500000920E-02 0. -1.
        2   -1    0    0  501    0  0.00000000000E+00  0.00000000000E+00 -0.10893371105E+04  0.10893371105E+04  0.25500000920E-02 0.  1.
    10030    2    1    2    0    0  0.00000000000E+00  0.00000000000E+00 -0.34308048028E+03  0.18355937407E+04  0.18032471170E+04 0.  0.
        1    1    3    3  502    0  0.66617416475E+03 -0.36728588031E+03 -0.66420340801E+03  0.10098777663E+04  0.50400001928E-02 0. -1.
       -1    1    3    3    0  502 -0.66617416475E+03  0.36728588031E+03  0.32112292773E+03  0.82571597441E+03  0.50400001928E-02 0.  1.
</event>
<event>
 5   0  0.8802655E-05  0.1828423E+04  0.7818609E-02  0.8691329E-01
       -2   -1    0    0    0  501  0.00000000000E+00  0.00000000000E+00  0.81994938632E+03  0.81994938632E+03  0.25500000920E-02 0. -1.
        2   -1    0    0  501    0  0.00000000000E+00  0.00000000000E+00 -0.10193097416E+04  0.10193097416E+04  0.25500000920E-02 0.  1.
    10030    2    1    2    0    0  0.00000000000E+00  0.00000000000E+00 -0.19936035527E+03  0.18392591279E+04  0.18284227051E+04 0.  0.
        2    1    3    3  502    0  0.52125906881E+03 -0.74964110039E+03 -0.53477572674E+02  0.91462158678E+03  0.25500000920E-02 0.  1.
       -2    1    3    3    0  502 -0.52125906881E+03  0.74964110039E+03 -0.14588278260E+03  0.92463754114E+03  0.25500000920E-02 0. -1.
</event>
<event>
 5   0  0.4535100E-05  0.1841592E+04  0.7818609E-02  0.8684489E-01
       -1   -1    0    0    0  501  0.00000000000E+00  0.00000000000E+00  0.50231038185E+03  0.50231038187E+03  0.50400001928E-02 0. -1.
        1   -1    0    0  501    0  0.00000000000E+00  0.00000000000E+00 -0.16879316388E+04  0.16879316388E+04  0.50400001928E-02 0.  1.
    10030    2    1    2    0    0  0.00000000000E+00  0.00000000000E+00 -0.11856212570E+04  0.21902420207E+04  0.18415923393E+04 0.  0.
        1    1    3    3  502    0 -0.87430575721E+01 -0.82714258056E+03 -0.10738963896E+04  0.13555422330E+04  0.50400001928E-02 0.  1.
       -1    1    3    3    0  502  0.87430575721E+01  0.82714258056E+03 -0.11172486732E+03  0.83469978773E+03  0.50400001928E-02 0. -1.
</event>
<event>
 5   0  0.4335117E-05  0.1795595E+04  0.7818609E-02  0.8708646E-01
       -1   -1    0    0    0  501  0.00000000000E+00  0.00000000000E+00  0.62323300183E+03  0.62323300185E+03  0.50400001928E-02 0.  1.
        1   -1    0    0  501    0  0.00000000000E+00  0.00000000000E+00 -0.12933205992E+04  0.12933205992E+04  0.50400001928E-02 0. -1.
    10030    2    1    2    0    0  0.00000000000E+00  0.00000000000E+00 -0.67008759739E+03  0.19165536011E+04  0.17955946975E+04 0.  0.
        3    1    3    3  502    0 -0.77183094557E+02 -0.89300570469E+03 -0.28037171223E+03  0.93916171446E+03  0.10100000352E+00 0.  1.
       -3    1    3    3    0  502  0.77183094557E+02  0.89300570469E+03 -0.38971588516E+03  0.97739188662E+03  0.10100000352E+00 0. -1.
</event>
<event>
 5   0  0.4494757E-05  0.1800648E+04  0.7818609E-02  0.8705955E-01
       -1   -1    0    0    0  501  0.00000000000E+00  0.00000000000E+00  0.56575734879E+03  0.56575734882E+03  0.50400001928E-02 0.  1.
        1   -1    0    0  501    0  0.00000000000E+00  0.00000000000E+00 -0.14327398623E+04  0.14327398623E+04  0.50400001928E-02 0. -1.
    10030    2    1    2    0    0  0.00000000000E+00  0.00000000000E+00 -0.86698251349E+03  0.19984972111E+04  0.18006477790E+04 0.  0.
        4    1    3    3  502    0  0.11698687125E+03 -0.28307475076E+03 -0.13731343914E+04  0.14068819823E+04  0.12699999809E+01 0. -1.
       -4    1    3    3    0  502 -0.11698687125E+03  0.28307475076E+03  0.50615187787E+03  0.59161522879E+03  0.12699999809E+01 0.  1.
</event>
<event>
 5   0  0.4535100E-05  0.1842155E+04  0.7818609E-02  0.8684197E-01
       -1   -1    0    0    0  501  0.00000000000E+00  0.00000000000E+00  0.66169335951E+03  0.66169335953E+03  0.50400001928E-02 0. -1.
        1   -1    0    0  501    0  0.00000000000E+00  0.00000000000E+00 -0.12821409330E+04  0.12821409330E+04  0.50400001928E-02 0.  1.
    10030    2    1    2    0    0  0.00000000000E+00  0.00000000000E+00 -0.62044757349E+03  0.19438342925E+04  0.18421554129E+04 0.  0.
        1    1    3    3  502    0  0.28650553116E+03  0.58689613513E+02  0.61140017659E+03  0.67774631396E+03  0.50400001928E-02 0. -1.
       -1    1    3    3    0  502 -0.28650553116E+03 -0.58689613513E+02 -0.12318477501E+04  0.12660879786E+04  0.50400001928E-02 0.  1.
</event>
<event>
 5   0  0.9147432E-05  0.1797114E+04  0.7818609E-02  0.8707836E-01
        2   -1    0    0  501    0  0.00000000000E+00  0.00000000000E+00  0.93672638011E+03  0.93672638011E+03  0.25500000920E-02 0.  1.
       -2   -1    0    0    0  501  0.00000000000E+00  0.00000000000E+00 -0.86194321283E+03  0.86194321283E+03  0.25500000920E-02 0. -1.
    10030    2    1    2    0    0  0.00000000000E+00  0.00000000000E+00  0.74783167281E+02  0.17986695929E+04  0.17971142931E+04 0.  0.
        3    1    3    3  502    0  0.21672948020E+03 -0.11946905192E+03  0.90194493123E+03  0.93528027410E+03  0.10100000352E+00 0.  1.
       -3    1    3    3    0  502 -0.21672948020E+03  0.11946905192E+03 -0.82716176395E+03  0.86338931884E+03  0.10100000352E+00 0. -1.
</event>
<event>
 5   0  0.4578107E-05  0.1714583E+04  0.7818609E-02  0.8753091E-01
        1   -1    0    0  501    0  0.00000000000E+00  0.00000000000E+00  0.10152000233E+04  0.10152000233E+04  0.50400001928E-02 0. -1.
       -1   -1    0    0    0  501  0.00000000000E+00  0.00000000000E+00 -0.72394450214E+03  0.72394450216E+03  0.50400001928E-02 0.  1.
    10030    2    1    2    0    0  0.00000000000E+00  0.00000000000E+00  0.29125552114E+03  0.17391445255E+04  0.17145827194E+04 0.  0.
        2    1    3    3  502    0  0.63615396353E+03 -0.44957862817E+03  0.50871605587E+03  0.93037886570E+03  0.25500000920E-02 0. -1.
       -2    1    3    3    0  502 -0.63615396353E+03  0.44957862817E+03 -0.21746053473E+03  0.80876565975E+03  0.25500000920E-02 0.  1.
</event>
<event>
 5   0  0.8893075E-05  0.1797906E+04  0.7818609E-02  0.8707414E-01
        2   -1    0    0  501    0  0.00000000000E+00  0.00000000000E+00  0.15296515892E+04  0.15296515892E+04  0.25500000920E-02 0. -1.
       -2   -1    0    0    0  501  0.00000000000E+00  0.00000000000E+00 -0.52830107929E+03  0.52830107930E+03  0.25500000920E-02 0.  1.
    10030    2    1    2    0    0  0.00000000000E+00  0.00000000000E+00  0.10013505099E+04  0.20579526685E+04  0.17979060993E+04 0.  0.
        1    1    3    3  502    0 -0.48090714758E+03  0.51648335917E+03  0.11380753813E+04  0.13391199791E+04  0.50400001928E-02 0. -1.
       -1    1    3    3    0  502  0.48090714758E+03 -0.51648335917E+03 -0.13672487137E+03  0.71883268941E+03  0.50400001928E-02 0.  1.
</event>
<event>
 5   0  0.4578107E-05  0.1804280E+04  0.7818609E-02  0.8704027E-01
        1   -1    0    0  501    0  0.00000000000E+00  0.00000000000E+00  0.82914575222E+03  0.82914575224E+03  0.50400001928E-02 0. -1.
       -1   -1    0    0    0  501  0.00000000000E+00  0.00000000000E+00 -0.98156000844E+03  0.98156000845E+03  0.50400001928E-02 0.  1.
    10030    2    1    2    0    0  0.00000000000E+00  0.00000000000E+00 -0.15241425622E+03  0.18107057607E+04  0.18042797029E+04 0.  0.
        2    1    3    3  502    0  0.18080909888E+03  0.20669375579E+03  0.78617994109E+03  0.83276235427E+03  0.25500000920E-02 0. -1.
       -2    1    3    3    0  502 -0.18080909888E+03 -0.20669375579E+03 -0.93859419731E+03  0.97794340641E+03  0.25500000920E-02 0.  1.
</event>
<event>
 5   0  0.4335117E-05  0.1798377E+04  0.7818609E-02  0.8707163E-01
       -1   -1    0    0    0  501  0.00000000000E+00  0.00000000000E+00  0.35248323140E+03  0.35248323144E+03  0.50400001928E-02 0. -1.
        1   -1    0    0  501    0  0.00000000000E+00  0.00000000000E+00 -0.22938391191E+04  0.22938391191E+04  0.50400001928E-02 0.  1.
    10030    2    1    2    0    0  0.00000000000E+00  0.00000000000E+00 -0.19413558877E+04  0.26463223505E+04  0.17983768516E+04 0.  0.
        3    1    3    3  502    0 -0.45487726915E+03 -0.62133617248E+03 -0.28746823112E+03  0.82195496430E+03  0.10100000352E+00 0. -1.
       -3    1    3    3    0  502  0.45487726915E+03  0.62133617248E+03 -0.16538876566E+04  0.18243673862E+04  0.10100000352E+00 0.  1.
</event>
<event>
 5   0  0.8892280E-05  0.1801474E+04  0.7818609E-02  0.8705516E-01
        2   -1    0    0  501    0  0.00000000000E+00  0.00000000000E+00  0.19895302962E+04  0.19895302962E+04  0.25500000920E-02 0.  1.
       -2   -1    0    0    0  501  0.00000000000E+00  0.00000000000E+00 -0.40779834233E+03  0.40779834234E+03  0.25500000920E-02 0. -1.
    10030    2    1    2    0    0  0.00000000000E+00  0.00000000000E+00  0.15817319538E+04  0.23973286385E+04  0.18014740151E+04 0.  0.
        4    1    3    3  502    0 -0.23343702712E+02 -0.42174827744E+03  0.18495593853E+04  0.18971789770E+04  0.12699999809E+01 0.  1.
       -4    1    3    3    0  502  0.23343702712E+02  0.42174827744E+03 -0.26782743147E+03  0.50014966153E+03  0.12699999809E+01 0. -1.
</event>
<event>
 5   0  0.4494757E-05  0.1804143E+04  0.7818609E-02  0.8704099E-01
       -1   -1    0    0    0  501  0.00000000000E+00  0.00000000000E+00  0.46952620627E+03  0.46952620629E+03  0.50400001928E-02 0.  1.
        1   -1    0    0  501    0  0.00000000000E+00  0.00000000000E+00 -0.17330943994E+04  0.17330943994E+04  0.50400001928E-02 0. -1.
    10030    2    1    2    0    0  0.00000000000E+00  0.00000000000E+00 -0.12635681931E+04  0.22026206057E+04  0.18041432742E+04 0.  0.
        4    1    3    3  502    0 -0.36981573724E+03 -0.34850396715E+03 -0.15417303904E+04  0.16233154050E+04  0.12699999809E+01 0. -1.
       -4    1    3    3    0  502  0.36981573724E+03  0.34850396715E+03  0.27816219727E+03  0.57930520066E+03  0.12699999809E+01 0.  1.
</event>
<event>
 5   0  0.8802655E-05  0.1797032E+04  0.7818609E-02  0.8707879E-01
        2   -1    0    0  501    0  0.00000000000E+00  0.00000000000E+00  0.14381200183E+04  0.14381200183E+04  0.25500000920E-02 0.  1.
       -2   -1    0    0    0  501  0.00000000000E+00  0.00000000000E+00 -0.56137936757E+03  0.56137936758E+03  0.25500000920E-02 0. -1.
    10030    2    1    2    0    0  0.00000000000E+00  0.00000000000E+00  0.87674065075E+03  0.19994993859E+04  0.17970318933E+04 0.  0.
        2    1    3    3  502    0  0.29921981904E+03 -0.40563899019E+03 -0.38924462465E+03  0.63685702343E+03  0.25500000920E-02 0. -1.
       -2    1    3    3    0  502 -0.29921981904E+03  0.40563899019E+03  0.12659852754E+04  0.13626423625E+04  0.25500000920E-02 0.  1.
</event>
<event>
 5   0  0.4623665E-05  0.1806787E+04  0.7818609E-02  0.8702699E-01
       -1   -1    0    0    0  501  0.00000000000E+00  0.00000000000E+00  0.64463901720E+03  0.64463901722E+03  0.50400001928E-02 0.  1.
        1   -1    0    0  501    0  0.00000000000E+00  0.00000000000E+00 -0.12660105051E+04  0.12660105051E+04  0.50400001928E-02 0. -1.
    10030    2    1    2    0    0  0.00000000000E+00  0.00000000000E+00 -0.62137148793E+03  0.19106495224E+04  0.18067869468E+04 0.  0.
        5    1    3    3  502    0 -0.26532488584E+03  0.82971981181E+03 -0.57627611753E+02  0.87302651323E+03  0.46999998093E+01 0.  1.
       -5    1    3    3    0  502  0.26532488584E+03 -0.82971981181E+03 -0.56374387617E+03  0.10376230091E+04  0.46999998093E+01 0. -1.
</event>
<event>
 5   0  0.9147432E-05  0.1792032E+04  0.7818609E-02  0.8710548E-01
        2   -1    0    0  501    0  0.00000000000E+00  0.00000000000E+00  0.70574114661E+03  0.70574114661E+03  0.25500000920E-02 0.  1.
       -2   -1    0    0    0  501  0.00000000000E+00  0.00000000000E+00 -0.11375914236E+04  0.11375914236E+04  0.25500000920E-02 0. -1.
    10030    2    1    2    0    0  0.00000000000E+00  0.00000000000E+00 -0.43185027702E+03  0.18433325702E+04  0.17920324502E+04 0.  0.
        3    1    3    3  502    0 -0.40256413653E+03  0.37552710260E+03  0.51125403342E+03  0.75130498846E+03  0.10100000352E+00 0.  1.
       -3    1    3    3    0  502  0.40256413653E+03 -0.37552710260E+03 -0.94310431043E+03  0.10920275818E+04  0.10100000352E+00 0. -1.
</event>
<event>
 5   0  0.4578107E-05  0.1795590E+04  0.7818609E-02  0.8708648E-01
       -1   -1    0    0    0  501  0.00000000000E+00  0.00000000000E+00  0.42511891599E+03  0.42511891602E+03  0.50400001928E-02 0.  1.
        1   -1    0    0  501    0  0.00000000000E+00  0.00000000000E+00 -0.18960241572E+04  0.18960241572E+04  0.50400001928E-02 0. -1.
    10030    2    1    2    0    0  0.00000000000E+00  0.00000000000E+00 -0.14709052412E+04  0.23211430732E+04  0.17955898579E+04 0.  0.
        2    1    3    3  502    0 -0.22874155939E+03  0.34200590395E+03 -0.17669723457E+04  0.18142441979E+04  0.25500000920E-02 0. -1.
       -2    1    3    3    0  502  0.22874155939E+03 -0.34200590395E+03  0.29606710453E+03  0.50689887524E+03  0.25500000920E-02 0.  1.
</event>
<event>
 5   0  0.8802655E-05  0.1801442E+04  0.7818609E-02  0.8705533E-01
       -2   -1    0    0    0  501  0.00000000000E+00  0.00000000000E+00  0.95710833222E+03  0.95710833222E+03  0.25500000920E-02 0.  1.
        2   -1    0    0  501    0  0.00000000000E+00  0.00000000000E+00 -0.84765568293E+03  0.84765568294E+03  0.25500000920E-02 0. -1.
    10030    2    1    2    0    0  0.00000000000E+00  0.00000000000E+00  0.10945264928E+03  0.18047640152E+04  0.18014419968E+04 0.  0.
        2    1    3    3  502    0 -0.15933999068E+03  0.62099392992E+03 -0.57911377495E+03  0.86394181399E+03  0.25500000920E-02 0. -1.
       -2    1    3    3    0  502  0.15933999068E+03 -0.62099392992E+03  0.68856642423E+03  0.94082220117E+03  0.25500000920E-02 0.  1.
</event>
<event>
 5   0  0.8893075E-05  0.1796378E+04  0.7818609E-02  0.8708228E-01
       -2   -1    0    0    0  501  0.00000000000E+00  0.00000000000E+00  0.83211900664E+03  0.83211900664E+03  0.25500000920E-02 0. -1.
        2   -1    0    0  501    0  0.00000000000E+00  0.00000000000E+00 -0.96950528661E+03  0.96950528662E+03  0.25500000920E-02 0.  1.
    10030    2    1    2    0    0  0.00000000000E+00  0.00000000000E+00 -0.13738627998E+03  0.18016242933E+04  0.17963783299E+04 0.  0.
        1    1    3    3  502    0  0.44819808547E+03  0.46003700979E+03  0.56101639064E+03  0.85279245118E+03  0.50400001928E-02 0. -1.
       -1    1    3    3    0  502 -0.44819808547E+03 -0.46003700979E+03 -0.69840267061E+03  0.94883184208E+03  0.50400001928E-02 0.  1.
</event>
<event>
 5   0  0.4335117E-05  0.1812937E+04  0.7818609E-02  0.8699450E-01
        1   -1    0    0  501    0  0.00000000000E+00  0.00000000000E+00  0.10159582290E+04  0.10159582290E+04  0.50400001928E-02 0. -1.
       -1   -1    0    0    0  501  0.00000000000E+00  0.00000000000E+00 -0.80877864110E+03  0.80877864112E+03  0.50400001928E-02 0.  1.
    10030    2    1    2    0    0  0.00000000000E+00  0.00000000000E+00  0.20717958787E+03  0.18247368701E+04  0.18129371924E+04 0.  0.
        3    1    3    3  502    0  0.78835870097E+03  0.35813420930E+03  0.37350633698E+03  0.94301460605E+03  0.10100000352E+00 0. -1.
       -3    1    3    3    0  502 -0.78835870097E+03 -0.35813420930E+03 -0.16632674911E+03  0.88172226405E+03  0.10100000352E+00 0.  1.
</event>
<event>
 5   0  0.4494757E-05  0.1810609E+04  0.7818609E-02  0.8700678E-01
        1   -1    0    0  501    0  0.00000000000E+00  0.00000000000E+00  0.21069856085E+04  0.21069856085E+04  0.50400001928E-02 0.  1.
       -1   -1    0    0    0  501  0.00000000000E+00  0.00000000000E+00 -0.38898048916E+03  0.38898048919E+03  0.50400001928E-02 0. -1.
    10030    2    1    2    0    0  0.00000000000E+00  0.00000000000E+00  0.17180051194E+04  0.24959660977E+04  0.18106090607E+04 0.  0.
        4    1    3    3  502    0  0.44346494111E+03 -0.68375795780E+03  0.14024074507E+04  0.16220155269E+04  0.12699999809E+01 0.  1.
       -4    1    3    3    0  502 -0.44346494111E+03  0.68375795780E+03  0.31559766866E+03  0.87395057081E+03  0.12699999809E+01 0. -1.
</event>
<event>
 5   0  0.8802655E-05  0.1801482E+04  0.7818609E-02  0.8705512E-01
       -2   -1    0    0    0  501  0.00000000000E+00  0.00000000000E+00  0.40355764377E+03  0.40355764378E+03  0.25500000920E-02 0. -1.
        2   -1    0    0  501    0  0.00000000000E+00  0.00000000000E+00 -0.20104542985E+04  0.20104542985E+04  0.25500000920E-02 0.  1.
    10030    2    1    2    0    0  0.00000000000E+00  0.00000000000E+00 -0.16068966547E+04  0.24140119423E+04  0.18014818341E+04 0.  0.
        2    1    3    3  502    0 -0.29504685959E+03 -0.71883789768E+03 -0.14139328962E+04  0.16133774535E+04  0.25500000920E-02 0.  1.
       -2    1    3    3    0  502  0.29504685959E+03  0.71883789768E+03 -0.19296375851E+03  0.80063448876E+03  0.25500000920E-02 0. -1.
</event>
<event>
 5   0  0.8892280E-05  0.1799280E+04  0.7818609E-02  0.8706682E-01
        2   -1    0    0  501    0  0.00000000000E+00  0.00000000000E+00  0.56136016021E+03  0.56136016022E+03  0.25500000920E-02 0.  1.
       -2   -1    0    0    0  501  0.00000000000E+00  0.00000000000E+00 -0.14417703592E+04  0.14417703592E+04  0.25500000920E-02 0. -1.
    10030    2    1    2    0    0  0.00000000000E+00  0.00000000000E+00 -0.88041019897E+03  0.20031305194E+04  0.17992803448E+04 0.  0.
        4    1    3    3  502    0  0.10928284894E+03  0.78289723933E+03  0.37967906258E+02  0.79140002731E+03  0.12699999809E+01 0.  1.
       -4    1    3    3    0  502 -0.10928284894E+03 -0.78289723933E+03 -0.91837810523E+03  0.12117304921E+04  0.12699999809E+01 0. -1.
</event>
<event>
 5   0  0.9147432E-05  0.1794617E+04  0.7818609E-02  0.8709167E-01
       -2   -1    0    0    0  501  0.00000000000E+00  0.00000000000E+00  0.75082019608E+03  0.75082019608E+03  0.25500000920E-02 0. -1.
        2   -1    0    0  501    0  0.00000000000E+00  0.00000000000E+00 -0.10723769437E+04  0.10723769437E+04  0.25500000920E-02 0.  1.
    10030    2    1    2    0    0  0.00000000000E+00  0.00000000000E+00 -0.32155674765E+03  0.18231971398E+04  0.17946166913E+04 0.  0.
        3    1    3    3  502    0 -0.12139065887E+03 -0.69730669363E+03  0.39953933908E+03  0.81277549835E+03  0.10100000352E+00 0. -1.
       -3    1    3    3    0  502  0.12139065887E+03  0.69730669363E+03 -0.72109608673E+03  0.10104216415E+04  0.10100000352E+00 0.  1.
</event>
<event>
 5   0  0.9184414E-05  0.1802121E+04  0.7818609E-02  0.8705172E-01
        2   -1    0    0  501    0  0.00000000000E+00  0.00000000000E+00  0.68376672967E+03  0.68376672967E+03  0.25500000920E-02 0.  1.
       -2   -1    0    0    0  501  0.00000000000E+00  0.00000000000E+00 -0.11874080912E+04  0.11874080912E+04  0.25500000920E-02 0. -1.
    10030    2    1    2    0    0  0.00000000000E+00  0.00000000000E+00 -0.50364136157E+03  0.18711748209E+04  0.18021211361E+04 0.  0.
        5    1    3    3  502    0 -0.76272830559E+03  0.25967268048E+03 -0.67064229217E+03  0.10483165281E+04  0.46999998093E+01 0. -1.
       -5    1    3    3    0  502  0.76272830559E+03 -0.25967268048E+03  0.16700093061E+03  0.82285829276E+03  0.46999998093E+01 0.  1.
</event>
<event>
 5   0  0.4494757E-05  0.1793800E+04  0.7818609E-02  0.8709604E-01
        1   -1    0    0  501    0  0.00000000000E+00  0.00000000000E+00  0.11486238611E+04  0.11486238612E+04  0.50400001928E-02 0.  1.
       -1   -1    0    0    0  501  0.00000000000E+00  0.00000000000E+00 -0.70034171998E+03  0.70034172000E+03  0.50400001928E-02 0. -1.
    10030    2    1    2    0    0  0.00000000000E+00  0.00000000000E+00  0.44828214116E+03  0.18489655812E+04  0.17937995546E+04 0.  0.
        4    1    3    3  502    0 -0.26873346137E+03  0.79610909778E+03  0.54750911494E+03  0.10028834492E+04  0.12699999809E+01 0.  1.
       -4    1    3    3    0  502  0.26873346137E+03 -0.79610909778E+03 -0.99226973776E+02  0.84608213197E+03  0.12699999809E+01 0. -1.
</event>
<event>
 5   0  0.4623665E-05  0.1805553E+04  0.7818609E-02  0.8703352E-01
       -1   -1    0    0    0  501  0.00000000000E+00  0.00000000000E+00  0.58561570827E+03  0.58561570829E+03  0.50400001928E-02 0. -1.
        1   -1    0    0  501    0  0.00000000000E+00  0.00000000000E+00 -0.13917069524E+04  0.13917069524E+04  0.50400001928E-02 0.  1.
    10030    2    1    2    0    0  0.00000000000E+00  0.00000000000E+00 -0.80609124411E+03  0.19773226607E+04  0.18055530484E+04 0.  0.
        5    1    3    3  502    0 -0.41185919515E+03  0.76999515642E+03 -0.65388350545E+03  0.10909199174E+04  0.46999998093E+01 0.  1.
       -5    1    3    3    0  502  0.41185919515E+03 -0.76999515642E+03 -0.15220773865E+03  0.88640274325E+03  0.46999998093E+01 0. -1.
</event>
<event>
 5   0  0.4535100E-05  0.1794344E+04  0.7818609E-02  0.8709313E-01
        1   -1    0    0  501    0  0.00000000000E+00  0.00000000000E+00  0.74840607149E+03  0.74840607151E+03  0.50400001928E-02 0.  1.
       -1   -1    0    0    0  501  0.00000000000E+00  0.00000000000E+00 -0.10755087458E+04  0.10755087458E+04  0.50400001928E-02 0. -1.
    10030    2    1    2    0    0  0.00000000000E+00  0.00000000000E+00 -0.32710267434E+03  0.18239148174E+04  0.17943436408E+04 0.  0.
        1    1    3    3  502    0 -0.13156313097E+03  0.67983473700E+03  0.41631757420E+03  0.80796314871E+03  0.50400001928E-02 0.  1.
       -1    1    3    3    0  502  0.13156313097E+03 -0.67983473700E+03 -0.74342024854E+03  0.10159516686E+04  0.50400001928E-02 0. -1.
</event>
<event>
 5   0  0.8892280E-05  0.1832024E+04  0.7818609E-02  0.8689453E-01
        2   -1    0    0  501    0  0.00000000000E+00  0.00000000000E+00  0.86192529387E+03  0.86192529387E+03  0.25500000920E-02 0.  1.
       -2   -1    0    0    0  501  0.00000000000E+00  0.00000000000E+00 -0.97349259725E+03  0.97349259725E+03  0.25500000920E-02 0. -1.
    10030    2    1    2    0    0  0.00000000000E+00  0.00000000000E+00 -0.11156730338E+03  0.18354178911E+04  0.18320239005E+04 0.  0.
        4    1    3    3  502    0  0.31994495160E+03  0.51596334856E+01  0.80410992654E+03  0.86543964592E+03  0.12699999809E+01 0.  1.
       -4    1    3    3    0  502 -0.31994495160E+03 -0.51596334856E+01 -0.91567722992E+03  0.96997824520E+03  0.12699999809E+01 0. -1.
</event>
<event>
 5   0  0.8892280E-05  0.1788832E+04  0.7818609E-02  0.8712261E-01
        2   -1    0    0  501    0  0.00000000000E+00  0.00000000000E+00  0.52870984109E+03  0.52870984110E+03  0.25500000920E-02 0.  1.
       -2   -1    0    0    0  501  0.00000000000E+00  0.00000000000E+00 -0.15130801867E+04  0.15130801867E+04  0.25500000920E-02 0. -1.
    10030    2    1    2    0    0  0.00000000000E+00  0.00000000000E+00 -0.98437034556E+03  0.20417900278E+04  0.17888324517E+04 0.  0.
        4    1    3    3  502    0 -0.72259775332E+03 -0.25941534356E+02 -0.10930895320E+04  0.13105978843E+04  0.12699999809E+01 0. -1.
       -4    1    3    3    0  502  0.72259775332E+03  0.25941534356E+02  0.10871918645E+03  0.73119214350E+03  0.12699999809E+01 0.  1.
</event>
<event>
 5   0  0.3270375E-05  0.1803546E+04  0.7818609E-02  0.8704416E-01
        3   -1    0    0  501    0  0.00000000000E+00  0.00000000000E+00  0.22797094894E+04  0.22797094916E+04  0.10100000352E+00 0. -1.
       -3   -1    0    0    0  501  0.00000000000E+00  0.00000000000E+00 -0.35670964900E+03  0.35670966329E+03  0.10100000352E+00 0.  1.
    10030    2    1    2    0    0  0.00000000000E+00  0.00000000000E+00  0.19229998404E+04  0.26364191549E+04  0.18035458337E+04 0.  0.
        2    1    3    3  502    0 -0.59388114931E+03 -0.15266853425E+03 -0.50478531537E+01  0.61321120480E+03  0.25500000920E-02 0.  1.
       -2    1    3    3    0  502  0.59388114931E+03  0.15266853425E+03  0.19280476936E+04  0.20232079501E+04  0.25500000920E-02 0. -1.
</event>
<event>
 5   0  0.8802655E-05  0.1804793E+04  0.7818609E-02  0.8703755E-01
        2   -1    0    0  501    0  0.00000000000E+00  0.00000000000E+00  0.14289499828E+04  0.14289499828E+04  0.25500000920E-02 0. -1.
       -2   -1    0    0    0  501  0.00000000000E+00  0.00000000000E+00 -0.56987246476E+03  0.56987246477E+03  0.25500000920E-02 0.  1.
    10030    2    1    2    0    0  0.00000000000E+00  0.00000000000E+00  0.85907751802E+03  0.19988224476E+04  0.18047927845E+04 0.  0.
        2    1    3    3  502    0 -0.12588239318E+03  0.26374840351E+03  0.13750870684E+04  0.14058001433E+04  0.25500000920E-02 0. -1.
       -2    1    3    3    0  502  0.12588239318E+03 -0.26374840351E+03 -0.51600955037E+03  0.59302230425E+03  0.25500000920E-02 0.  1.
</event>
<event>
 5   0  0.4578107E-05  0.1799802E+04  0.7818609E-02  0.8706405E-01
        1   -1    0    0  501    0  0.00000000000E+00  0.00000000000E+00  0.74829148800E+03  0.74829148802E+03  0.50400001928E-02 0.  1.
       -1   -1    0    0    0  501  0.00000000000E+00  0.00000000000E+00 -0.10822277239E+04  0.10822277239E+04  0.50400001928E-02 0. -1.
    10030    2    1    2    0    0  0.00000000000E+00  0.00000000000E+00 -0.33393623587E+03  0.18305192119E+04  0.17998019823E+04 0.  0.
        2    1    3    3  502    0 -0.25696322891E+03  0.45612022703E+03  0.57747076161E+03  0.77945381071E+03  0.25500000920E-02 0.  1.
       -2    1    3    3    0  502  0.25696322891E+03 -0.45612022703E+03 -0.91140699748E+03  0.10510654012E+04  0.25500000920E-02 0. -1.
</event>
<event>
 5   0  0.4335117E-05  0.1771497E+04  0.7818609E-02  0.8721606E-01
       -1   -1    0    0    0  501  0.00000000000E+00  0.00000000000E+00  0.74400609490E+03  0.74400609492E+03  0.50400001928E-02 0.  1.
        1   -1    0    0  501    0  0.00000000000E+00  0.00000000000E+00 -0.10544940255E+04  0.10544940255E+04  0.50400001928E-02 0. -1.
    10030    2    1    2    0    0  0.00000000000E+00  0.00000000000E+00 -0.31048793060E+03  0.17985001204E+04  0.17714965222E+04 0.  0.
        3    1    3    3  502    0 -0.49920640634E+03  0.70769383297E+03 -0.34385086980E+03  0.93181061821E+03  0.10100000352E+00 0. -1.
       -3    1    3    3    0  502  0.49920640634E+03 -0.70769383297E+03  0.33362939198E+02  0.86668950222E+03  0.10100000352E+00 0.  1.
</event>
<event>
 5   0  0.9184414E-05  0.1813554E+04  0.7818609E-02  0.8699124E-01
       -2   -1    0    0    0  501  0.00000000000E+00  0.00000000000E+00  0.70211954771E+03  0.70211954772E+03  0.25500000920E-02 0.  1.
        2   -1    0    0  501    0  0.00000000000E+00  0.00000000000E+00 -0.11710894972E+04  0.11710894972E+04  0.25500000920E-02 0. -1.
    10030    2    1    2    0    0  0.00000000000E+00  0.00000000000E+00 -0.46896994947E+03  0.18732090449E+04  0.18135543313E+04 0.  0.
        5    1    3    3  502    0  0.68873848266E+02  0.88945708913E+03 -0.66833811425E+02  0.89463197390E+03  0.46999998093E+01 0.  1.
       -5    1    3    3    0  502 -0.68873848266E+02 -0.88945708913E+03 -0.40213613805E+03  0.97857707101E+03  0.46999998093E+01 0. -1.
</event>
<event>
 5   0  0.8893075E-05  0.1795663E+04  0.7818609E-02  0.8708609E-01
       -2   -1    0    0    0  501  0.00000000000E+00  0.00000000000E+00  0.56551589884E+03  0.56551589885E+03  0.25500000920E-02 0. -1.
        2   -1    0    0  501    0  0.00000000000E+00  0.00000000000E+00 -0.14254266429E+04  0.14254266429E+04  0.25500000920E-02 0.  1.
    10030    2    1    2    0    0  0.00000000000E+00  0.00000000000E+00 -0.85991074402E+03  0.19909425417E+04  0.17956630298E+04 0.  0.
        1    1    3    3  502    0 -0.34733380401E+03  0.79494721208E+03 -0.68645708221E+03  0.11062572789E+04  0.50400001928E-02 0.  1.
       -1    1    3    3    0  502  0.34733380401E+03 -0.79494721208E+03 -0.17345366182E+03  0.88468526281E+03  0.50400001928E-02 0. -1.
</event>
<event>
 5   0  0.4494757E-05  0.1799689E+04  0.7818609E-02  0.8706465E-01
       -1   -1    0    0    0  501  0.00000000000E+00  0.00000000000E+00  0.71194486899E+03  0.71194486901E+03  0.50400001928E-02 0. -1.
        1   -1    0    0  501    0  0.00000000000E+00  0.00000000000E+00 -0.11373351868E+04  0.11373351868E+04  0.50400001928E-02 0.  1.
    10030    2    1    2    0    0  0.00000000000E+00  0.00000000000E+00 -0.42539031783E+03  0.18492800559E+04  0.17996888071E+04 0.  0.
        4    1    3    3  502    0 -0.66902867308E+03 -0.34440434934E+03 -0.71975459588E+03  0.10412790272E+04  0.12699999809E+01 0.  1.
       -4    1    3    3    0  502  0.66902867308E+03  0.34440434934E+03  0.29436427805E+03  0.80800102867E+03  0.12699999809E+01 0. -1.
</event>
<event>
 5   0  0.4494757E-05  0.1808748E+04  0.7818609E-02  0.8701661E-01
        1   -1    0    0  501    0  0.00000000000E+00  0.00000000000E+00  0.60946987981E+03  0.60946987984E+03  0.50400001928E-02 0. -1.
       -1   -1    0    0    0  501  0.00000000000E+00  0.00000000000E+00 -0.13419735403E+04  0.13419735403E+04  0.50400001928E-02 0.  1.
    10030    2    1    2    0    0  0.00000000000E+00  0.00000000000E+00 -0.73250366047E+03  0.19514434201E+04  0.18087481332E+04 0.  0.
        4    1    3    3  502    0  0.12166730776E+03  0.50703084823E+03 -0.11634700613E+04  0.12749695726E+04  0.12699999809E+01 0.  1.
       -4    1    3    3    0  502 -0.12166730776E+03 -0.50703084823E+03  0.43096640078E+03  0.67647384749E+03  0.12699999809E+01 0. -1.
</event>
<event>
 5   0  0.4623665E-05  0.1802607E+04  0.7818609E-02  0.8704914E-01
       -1   -1    0    0    0  501  0.00000000000E+00  0.00000000000E+00  0.11850861534E+04  0.11850861534E+04  0.50400001928E-02 0. -1.
        1   -1    0    0  501    0  0.00000000000E+00  0.00000000000E+00 -0.68547576840E+03  0.68547576842E+03  0.50400001928E-02 0.  1.
    10030    2    1    2    0    0  0.00000000000E+00  0.00000000000E+00  0.49961038501E+03  0.18705619218E+04  0.18026068253E+04 0.  0.
        5    1    3    3  502    0  0.67339048350E+02  0.85467851867E+03  0.53834470957E+03  0.10123472892E+04  0.46999998093E+01 0. -1.
       -5    1    3    3    0  502 -0.67339048350E+02 -0.85467851867E+03 -0.38734324558E+02  0.85821463260E+03  0.46999998093E+01 0.  1.
</event>
<event>
 5   0  0.8892280E-05  0.1773543E+04  0.7818609E-02  0.8720497E-01
        2   -1    0    0  501    0  0.00000000000E+00  0.00000000000E+00  0.76879871584E+03  0.76879871585E+03  0.25500000920E-02 0. -1.
       -2   -1    0    0    0  501  0.00000000000E+00  0.00000000000E+00 -0.10228470557E+04  0.10228470557E+04  0.25500000920E-02 0.  1.
    10030    2    1    2    0    0  0.00000000000E+00  0.00000000000E+00 -0.25404833989E+03  0.17916457716E+04  0.17735427854E+04 0.  0.
        4    1    3    3  502    0 -0.72077980162E+03  0.45133686483E+03 -0.38085248995E+03  0.93181474553E+03  0.12699999809E+01 0.  1.
       -4    1    3    3    0  502  0.72077980162E+03 -0.45133686483E+03  0.12680415006E+03  0.85983102605E+03  0.12699999809E+01 0. -1.
</event>
<event>
 5   0  0.4623665E-05  0.1812703E+04  0.7818609E-02  0.8699573E-01
       -1   -1    0    0    0  501  0.00000000000E+00  0.00000000000E+00  0.67069674052E+03  0.67069674054E+03  0.50400001928E-02 0. -1.
        1   -1    0    0  501    0  0.00000000000E+00  0.00000000000E+00 -0.12248048957E+04  0.12248048957E+04  0.50400001928E-02 0.  1.
    10030    2    1    2    0    0  0.00000000000E+00  0.00000000000E+00 -0.55410815522E+03  0.18955016363E+04  0.18127025695E+04 0.  0.
        5    1    3    3  502    0  0.82932407307E+03  0.21784955130E+03 -0.58408760075E+03  0.10375053063E+04  0.46999998093E+01 0.  1.
       -5    1    3    3    0  502 -0.82932407307E+03 -0.21784955130E+03  0.29979445528E+02  0.85799633002E+03  0.46999998093E+01 0. -1.
</event>
<event>
 5   0  0.9147432E-05  0.1821437E+04  0.7818609E-02  0.8694982E-01
        2   -1    0    0  501    0  0.00000000000E+00  0.00000000000E+00  0.14456430349E+04  0.14456430349E+04  0.25500000920E-02 0. -1.
       -2   -1    0    0    0  501  0.00000000000E+00  0.00000000000E+00 -0.57372988674E+03  0.57372988674E+03  0.25500000920E-02 0.  1.
    10030    2    1    2    0    0  0.00000000000E+00  0.00000000000E+00  0.87191314819E+03  0.20193729217E+04  0.18214374705E+04 0.  0.
        3    1    3    3  502    0 -0.88623430809E+03  0.17290777667E+03  0.30430811894E+03  0.95284405309E+03  0.10100000352E+00 0.  1.
       -3    1    3    3    0  502  0.88623430809E+03 -0.17290777667E+03  0.56760502925E+03  0.10665288686E+04  0.10100000352E+00 0. -1.
</event>
<event>
 5   0  0.9147432E-05  0.1799009E+04  0.7818609E-02  0.8706827E-01
        2   -1    0    0  501    0  0.00000000000E+00  0.00000000000E+00  0.14140849659E+04  0.14140849659E+04  0.25500000920E-02 0. -1.
       -2   -1    0    0    0  501  0.00000000000E+00  0.00000000000E+00 -0.57217782871E+03  0.57217782872E+03  0.25500000920E-02 0.  1.
    10030    2    1    2    0    0  0.00000000000E+00  0.00000000000E+00  0.84190713717E+03  0.19862627946E+04  0.17990086886E+04 0.  0.
        3    1    3    3  502    0 -0.70890966852E+03 -0.41668455566E+03  0.18409428660E+02  0.82250705426E+03  0.10100000352E+00 0. -1.
       -3    1    3    3    0  502  0.70890966852E+03  0.41668455566E+03  0.82349770851E+03  0.11637557403E+04  0.10100000352E+00 0.  1.
</event>
<event>
 5   0  0.3270375E-05  0.1796672E+04  0.7818609E-02  0.8708071E-01
       -3   -1    0    0    0  501  0.00000000000E+00  0.00000000000E+00  0.11721798784E+04  0.11721798827E+04  0.10100000352E+00 0. -1.
        3   -1    0    0  501    0  0.00000000000E+00  0.00000000000E+00 -0.68846708085E+03  0.68846708825E+03  0.10100000352E+00 0.  1.
    10030    2    1    2    0    0  0.00000000000E+00  0.00000000000E+00  0.48371279755E+03  0.18606469710E+04  0.17966716673E+04 0.  0.
        4    1    3    3  502    0 -0.57456329556E+03  0.54014268006E+03  0.68744284758E+03  0.10461626915E+04  0.12699999809E+01 0. -1.
       -4    1    3    3    0  502  0.57456329556E+03 -0.54014268006E+03 -0.20373005003E+03  0.81448427954E+03  0.12699999809E+01 0.  1.
</event>
<event>
 5   0  0.4623665E-05  0.1815625E+04  0.7818609E-02  0.8698034E-01
       -1   -1    0    0    0  501  0.00000000000E+00  0.00000000000E+00  0.23662908050E+04  0.23662908050E+04  0.50400001928E-02 0.  1.
        1   -1    0    0  501    0  0.00000000000E+00  0.00000000000E+00 -0.34827643068E+03  0.34827643071E+03  0.50400001928E-02 0. -1.
    10030    2    1    2    0    0  0.00000000000E+00  0.00000000000E+00  0.20180143743E+04  0.27145672357E+04  0.18156247581E+04 0.  0.
        5    1    3    3  502    0  0.57906578610E+02 -0.83618895479E+03  0.15302344568E+04  0.17447649477E+04  0.46999998093E+01 0.  1.
       -5    1    3    3    0  502 -0.57906578610E+02  0.83618895479E+03  0.48777991759E+03  0.96980228807E+03  0.46999998093E+01 0. -1.
</event>
<event>
 5   0  0.9147432E-05  0.1769567E+04  0.7818609E-02  0.8722653E-01
        2   -1    0    0  501    0  0.00000000000E+00  0.00000000000E+00  0.13735425132E+04  0.13735425132E+04  0.25500000920E-02 0.  1.
       -2   -1    0    0    0  501  0.00000000000E+00  0.00000000000E+00 -0.56994341496E+03  0.56994341497E+03  0.25500000920E-02 0. -1.
    10030    2    1    2    0    0  0.00000000000E+00  0.00000000000E+00  0.80359909824E+03  0.19434859282E+04  0.17695666256E+04 0.  0.
        3    1    3    3  502    0 -0.44470474994E+03  0.76400586954E+03  0.44251339690E+03  0.98857746280E+03  0.10100000352E+00 0.  1.
       -3    1    3    3    0  502  0.44470474994E+03 -0.76400586954E+03  0.36108570134E+03  0.95490846537E+03  0.10100000352E+00 0. -1.
</event>
<event>
 5   0  0.3270375E-05  0.1812408E+04  0.7818609E-02  0.8699729E-01
       -3   -1    0    0    0  501  0.00000000000E+00  0.00000000000E+00  0.41009213783E+03  0.41009215027E+03  0.10100000352E+00 0. -1.
        3   -1    0    0  501    0  0.00000000000E+00  0.00000000000E+00 -0.20024911941E+04  0.20024911966E+04  0.10100000352E+00 0.  1.
    10030    2    1    2    0    0  0.00000000000E+00  0.00000000000E+00 -0.15923990562E+04  0.24125833469E+04  0.18124082463E+04 0.  0.
        3    1    3    3  502    0  0.85957018659E+03 -0.14858535217E+03 -0.46941048369E+03  0.99059816523E+03  0.10100000352E+00 0. -1.
       -3    1    3    3    0  502 -0.85957018659E+03  0.14858535217E+03 -0.11229885725E+04  0.14219851816E+04  0.10100000352E+00 0.  1.
</event>
<event>
 5   0  0.8802655E-05  0.1797990E+04  0.7818609E-02  0.8707369E-01
        2   -1    0    0  501    0  0.00000000000E+00  0.00000000000E+00  0.67101405318E+03  0.67101405319E+03  0.25500000920E-02 0.  1.
       -2   -1    0    0    0  501  0.00000000000E+00  0.00000000000E+00 -0.12044337708E+04  0.12044337708E+04  0.25500000920E-02 0. -1.
    10030    2    1    2    0    0  0.00000000000E+00  0.00000000000E+00 -0.53341971761E+03  0.18754478240E+04  0.17979899736E+04 0.  0.
        2    1    3    3  502    0 -0.24397394263E+03 -0.37149016013E+02  0.63498981895E+03  0.68126015900E+03  0.25500000920E-02 0.  1.
       -2    1    3    3    0  502  0.24397394263E+03  0.37149016013E+02 -0.11684095366E+04  0.11941876650E+04  0.25500000920E-02 0. -1.
</event>
<event>
 5   0  0.8893075E-05  0.1805695E+04  0.7818609E-02  0.8703277E-01
        2   -1    0    0  501    0  0.00000000000E+00  0.00000000000E+00  0.84862202044E+03  0.84862202045E+03  0.25500000920E-02 0.  1.
       -2   -1    0    0    0  501  0.00000000000E+00  0.00000000000E+00 -0.96053778505E+03  0.96053778505E+03  0.25500000920E-02 0. -1.
    10030    2    1    2    0    0  0.00000000000E+00  0.00000000000E+00 -0.11191576460E+03  0.18091598055E+04  0.18056948977E+04 0.  0.
        1    1    3    3  502    0 -0.42879941511E+03 -0.13409363269E+03 -0.84058477794E+03  0.95311741651E+03  0.50400001928E-02 0. -1.
       -1    1    3    3    0  502  0.42879941511E+03  0.13409363269E+03  0.72866901334E+03  0.85604238899E+03  0.50400001928E-02 0.  1.
</event>
<event>
 5   0  0.4535100E-05  0.1795243E+04  0.7818609E-02  0.8708833E-01
        1   -1    0    0  501    0  0.00000000000E+00  0.00000000000E+00  0.73107030524E+03  0.73107030525E+03  0.50400001928E-02 0. -1.
       -1   -1    0    0    0  501  0.00000000000E+00  0.00000000000E+00 -0.11021158557E+04  0.11021158558E+04  0.50400001928E-02 0.  1.
    10030    2    1    2    0    0  0.00000000000E+00  0.00000000000E+00 -0.37104555051E+03  0.18331861610E+04  0.17952427970E+04 0.  0.
        1    1    3    3  502    0 -0.47784480652E+03  0.42195339348E+03 -0.83081566119E+03  0.10472034130E+04  0.50400001928E-02 0.  1.
       -1    1    3    3    0  502  0.47784480652E+03 -0.42195339348E+03  0.45977011068E+03  0.78598274796E+03  0.50400001928E-02 0. -1.
</event>
<event>
 5   0  0.8892280E-05  0.1799917E+04  0.7818609E-02  0.8706344E-01
       -2   -1    0    0    0  501  0.00000000000E+00  0.00000000000E+00  0.24340076644E+04  0.24340076644E+04  0.25500000920E-02 0.  1.
        2   -1    0    0  501    0  0.00000000000E+00  0.00000000000E+00 -0.33275365112E+03  0.33275365113E+03  0.25500000920E-02 0. -1.
    10030    2    1    2    0    0  0.00000000000E+00  0.00000000000E+00  0.21012540133E+04  0.27667613155E+04  0.17999165950E+04 0.  0.
        4    1    3    3  502    0  0.82709974473E+03 -0.30365711041E+03  0.76876981442E+03  0.11693204304E+04  0.12699999809E+01 0.  1.
       -4    1    3    3    0  502 -0.82709974473E+03  0.30365711041E+03  0.13324841989E+04  0.15974408852E+04  0.12699999809E+01 0. -1.
</event>
<event>
 5   0  0.8892280E-05  0.1812115E+04  0.7818609E-02  0.8699883E-01
        2   -1    0    0  501    0  0.00000000000E+00  0.00000000000E+00  0.16797011192E+04  0.16797011192E+04  0.25500000920E-02 0.  1.
       -2   -1    0    0    0  501  0.00000000000E+00  0.00000000000E+00 -0.48874198823E+03  0.48874198824E+03  0.25500000920E-02 0. -1.
    10030    2    1    2    0    0  0.00000000000E+00  0.00000000000E+00  0.11909591310E+04  0.21684431075E+04  0.18121152995E+04 0.  0.
        4    1    3    3  502    0 -0.29039714770E+03  0.23878344760E+02  0.16221058388E+04  0.16480684585E+04  0.12699999809E+01 0.  1.
       -4    1    3    3    0  502  0.29039714770E+03 -0.23878344760E+02 -0.43114670780E+03  0.52037464897E+03  0.12699999809E+01 0. -1.
</event>
<event>
 5   0  0.9184414E-05  0.1800389E+04  0.7818609E-02  0.8706093E-01
       -2   -1    0    0    0  501  0.00000000000E+00  0.00000000000E+00  0.40476685594E+03  0.40476685595E+03  0.25500000920E-02 0.  1.
        2   -1    0    0  501    0  0.00000000000E+00  0.00000000000E+00 -0.20020161049E+04  0.20020161049E+04  0.25500000920E-02 0. -1.
    10030    2    1    2    0    0  0.00000000000E+00  0.00000000000E+00 -0.15972492489E+04  0.24067829608E+04  0.18003885851E+04 0.  0.
        5    1    3    3  502    0  0.12856670388E+03  0.55614614139E+03  0.13187768308E+03  0.58586836510E+03  0.46999998093E+01 0.  1.
       -5    1    3    3    0  502 -0.12856670388E+03 -0.55614614139E+03 -0.17291269320E+04  0.18209145957E+04  0.46999998093E+01 0. -1.
</event>
<event>
 5   0  0.4494757E-05  0.1797938E+04  0.7818609E-02  0.8707397E-01
       -1   -1    0    0    0  501  0.00000000000E+00  0.00000000000E+00  0.73010661996E+03  0.73010661998E+03  0.50400001928E-02 0. -1.
        1   -1    0    0  501    0  0.00000000000E+00  0.00000000000E+00 -0.11068870319E+04  0.11068870319E+04  0.50400001928E-02 0.  1.
    10030    2    1    2    0    0  0.00000000000E+00  0.00000000000E+00 -0.37678041194E+03  0.18369936519E+04  0.17979383188E+04 0.  0.
        4    1    3    3  502    0 -0.62281155741E+03  0.44908558670E+03 -0.66606240717E+03  0.10164707784E+04  0.12699999809E+01 0.  1.
       -4    1    3    3    0  502  0.62281155741E+03 -0.44908558670E+03  0.28928199524E+03  0.82052287347E+03  0.12699999809E+01 0. -1.
</event>
<event>
 5   0  0.4578107E-05  0.1799226E+04  0.7818609E-02  0.8706711E-01
       -1   -1    0    0    0  501  0.00000000000E+00  0.00000000000E+00  0.79678172994E+03  0.79678172996E+03  0.50400001928E-02 0. -1.
        1   -1    0    0  501    0  0.00000000000E+00  0.00000000000E+00 -0.10157150245E+04  0.10157150245E+04  0.50400001928E-02 0.  1.
    10030    2    1    2    0    0  0.00000000000E+00  0.00000000000E+00 -0.21893329458E+03  0.18124967545E+04  0.17992255827E+04 0.  0.
        2    1    3    3  502    0 -0.23963914574E+03 -0.29975295615E+03 -0.92911698956E+03  0.10052547613E+04  0.25500000920E-02 0.  1.
       -2    1    3    3    0  502  0.23963914574E+03  0.29975295615E+03  0.71018369498E+03  0.80724199316E+03  0.25500000920E-02 0. -1.
</event>
<event>
 5   0  0.9147432E-05  0.1781523E+04  0.7818609E-02  0.8716187E-01
       -2   -1    0    0    0  501  0.00000000000E+00  0.00000000000E+00  0.29374886521E+03  0.29374886522E+03  0.25500000920E-02 0. -1.
        2   -1    0    0  501    0  0.00000000000E+00  0.00000000000E+00 -0.27011377862E+04  0.27011377862E+04  0.25500000920E-02 0.  1.
    10030    2    1    2    0    0  0.00000000000E+00  0.00000000000E+00 -0.24073889210E+04  0.29948866514E+04  0.17815231230E+04 0.  0.
        3    1    3    3  502    0  0.15474548855E+02  0.51466426615E+03 -0.24256195888E+04  0.24796671487E+04  0.10100000352E+00 0.  1.
       -3    1    3    3    0  502 -0.15474548855E+02 -0.51466426615E+03  0.18230667837E+02  0.51521950270E+03  0.10100000352E+00 0. -1.
</event>
<event>
 5   0  0.8892280E-05  0.1801822E+04  0.7818609E-02  0.8705331E-01
       -2   -1    0    0    0  501  0.00000000000E+00  0.00000000000E+00  0.70825442120E+03  0.70825442120E+03  0.25500000920E-02 0. -1.
        2   -1    0    0  501    0  0.00000000000E+00  0.00000000000E+00 -0.11459727382E+04  0.11459727382E+04  0.25500000920E-02 0.  1.
    10030    2    1    2    0    0  0.00000000000E+00  0.00000000000E+00 -0.43771831697E+03  0.18542271594E+04  0.18018215876E+04 0.  0.
        4    1    3    3  502    0  0.42094185540E+03  0.74525835637E+03  0.70452028903E+02  0.85881730574E+03  0.12699999809E+01 0. -1.
       -4    1    3    3    0  502 -0.42094185540E+03 -0.74525835637E+03 -0.50817034587E+03  0.99540985362E+03  0.12699999809E+01 0.  1.
</event>
<event>
 5   0  0.8892280E-05  0.1804368E+04  0.7818609E-02  0.8703980E-01
        2   -1    0    0  501    0  0.00000000000E+00  0.00000000000E+00  0.17509021660E+04  0.17509021660E+04  0.25500000920E-02 0. -1.
       -2   -1    0    0    0  501  0.00000000000E+00  0.00000000000E+00 -0.46486680386E+03  0.46486680386E+03  0.25500000920E-02 0.  1.
    10030    2    1    2    0    0  0.00000000000E+00  0.00000000000E+00  0.12860353622E+04  0.22157689699E+04  0.18043683591E+04 0.  0.
        4    1    3    3  502    0  0.73263190104E+03 -0.34444284121E+03  0.15405625391E+03  0.82409059911E+03  0.12699999809E+01 0.  1.
       -4    1    3    3    0  502 -0.73263190104E+03  0.34444284121E+03  0.11319791083E+04  0.13916783708E+04  0.12699999809E+01 0. -1.
</event>
<event>
 5   0  0.4335117E-05  0.1813368E+04  0.7818609E-02  0.8699223E-01
       -1   -1    0    0    0  501  0.00000000000E+00  0.00000000000E+00  0.71957960040E+03  0.71957960042E+03  0.50400001928E-02 0. -1.
        1   -1    0    0  501    0  0.00000000000E+00  0.00000000000E+00 -0.11424390679E+04  0.11424390679E+04  0.50400001928E-02 0.  1.
    10030    2    1    2    0    0  0.00000000000E+00  0.00000000000E+00 -0.42285946747E+03  0.18620186683E+04  0.18133679693E+04 0.  0.
        3    1    3    3  502    0  0.71583068758E+03  0.50157547920E+03  0.36043072082E+02  0.87480892077E+03  0.10100000352E+00 0.  1.
       -3    1    3    3    0  502 -0.71583068758E+03 -0.50157547920E+03 -0.45890253956E+03  0.98720974754E+03  0.10100000352E+00 0. -1.
</event>
<event>
 5   0  0.4535100E-05  0.1788214E+04  0.7818609E-02  0.8712593E-01
        1   -1    0    0  501    0  0.00000000000E+00  0.00000000000E+00  0.96483736783E+03  0.96483736785E+03  0.50400001928E-02 0.  1.
       -1   -1    0    0    0  501  0.00000000000E+00  0.00000000000E+00 -0.82856141692E+03  0.82856141694E+03  0.50400001928E-02 0. -1.
    10030    2    1    2    0    0  0.00000000000E+00  0.00000000000E+00  0.13627595091E+03  0.17933987848E+04  0.17882136524E+04 0.  0.
        1    1    3    3  502    0 -0.44304338801E+03  0.54036309712E+03 -0.49128523415E+03  0.85419020230E+03  0.50400001928E-02 0. -1.
       -1    1    3    3    0  502  0.44304338801E+03 -0.54036309712E+03  0.62756118506E+03  0.93920858248E+03  0.50400001928E-02 0.  1.
</event>
<event>
 5   0  0.4578107E-05  0.1786211E+04  0.7818609E-02  0.8713667E-01
       -1   -1    0    0    0  501  0.00000000000E+00  0.00000000000E+00  0.75336745973E+03  0.75336745975E+03  0.50400001928E-02 0. -1.
        1   -1    0    0  501    0  0.00000000000E+00  0.00000000000E+00 -0.10587631071E+04  0.10587631071E+04  0.50400001928E-02 0.  1.
    10030    2    1    2    0    0  0.00000000000E+00  0.00000000000E+00 -0.30539564733E+03  0.18121305668E+04  0.17862112668E+04 0.  0.
        2    1    3    3  502    0 -0.88308305232E+03  0.72082430715E+02 -0.38791626927E+02  0.88686884286E+03  0.25500000920E-02 0. -1.
       -2    1    3    3    0  502  0.88308305232E+03 -0.72082430715E+02 -0.26660402040E+03  0.92526172396E+03  0.25500000920E-02 0.  1.
</event>
<event>
 5   0  0.8893075E-05  0.1807857E+04  0.7818609E-02  0.8702132E-01
       -2   -1    0    0    0  501  0.00000000000E+00  0.00000000000E+00  0.31477756094E+03  0.31477756095E+03  0.25500000920E-02 0.  1.
        2   -1    0    0  501    0  0.00000000000E+00  0.00000000000E+00 -0.25957588040E+04  0.25957588040E+04  0.25500000920E-02 0. -1.
    10030    2    1    2    0    0  0.00000000000E+00  0.00000000000E+00 -0.22809812430E+04  0.29105363649E+04  0.18078568805E+04 0.  0.
        1    1    3    3  502    0 -0.57835266787E+03 -0.20953152758E+03 -0.74168247764E+02  0.61959357525E+03  0.50400001928E-02 0.  1.
       -1    1    3    3    0  502  0.57835266787E+03  0.20953152758E+03 -0.22068129953E+04  0.22909427897E+04  0.50400001928E-02 0. -1.
</event>
<event>
 5   0  0.8892280E-05  0.1801831E+04  0.7818609E-02  0.8705326E-01
       -2   -1    0    0    0  501  0.00000000000E+00  0.00000000000E+00  0.36169956684E+03  0.36169956684E+03  0.25500000920E-02 0. -1.
        2   -1    0    0  501    0  0.00000000000E+00  0.00000000000E+00 -0.22439867499E+04  0.22439867499E+04  0.25500000920E-02 0.  1.
    10030    2    1    2    0    0  0.00000000000E+00  0.00000000000E+00 -0.18822871831E+04  0.26056863168E+04  0.18018313300E+04 0.  0.
        4    1    3    3  502    0  0.65011269004E+03  0.62210735743E+03 -0.10055468036E+04  0.13493665407E+04  0.12699999809E+01 0.  1.
       -4    1    3    3    0  502 -0.65011269004E+03 -0.62210735743E+03 -0.87674037950E+03  0.12563197761E+04  0.12699999809E+01 0. -1.
</event>
<event>
 5   0  0.4623665E-05  0.1796575E+04  0.7818609E-02  0.8708123E-01
       -1   -1    0    0    0  501  0.00000000000E+00  0.00000000000E+00  0.53626422505E+03  0.53626422507E+03  0.50400001928E-02 0.  1.
        1   -1    0    0  501    0  0.00000000000E+00  0.00000000000E+00 -0.15047067456E+04  0.15047067456E+04  0.50400001928E-02 0. -1.
    10030    2    1    2    0    0  0.00000000000E+00  0.00000000000E+00 -0.96844252058E+03  0.20409709707E+04  0.17965749602E+04 0.  0.
        5    1    3    3  502    0  0.49879806006E+03 -0.48009281998E+03  0.16601300584E+03  0.71194875421E+03  0.46999998093E+01 0.  1.
       -5    1    3    3    0  502 -0.49879806006E+03  0.48009281998E+03 -0.11344555264E+04  0.13290222165E+04  0.46999998093E+01 0. -1.
</event>
<event>
 5   0  0.8893075E-05  0.1793330E+04  0.7818609E-02  0.8709854E-01
       -2   -1    0    0    0  501  0.00000000000E+00  0.00000000000E+00  0.75889188492E+03  0.75889188492E+03  0.25500000920E-02 0.  1.
        2   -1    0    0  501    0  0.00000000000E+00  0.00000000000E+00 -0.10594502995E+04  0.10594502995E+04  0.25500000920E-02 0. -1.
    10030    2    1    2    0    0  0.00000000000E+00  0.00000000000E+00 -0.30055841463E+03  0.18183421845E+04  0.17933301256E+04 0.  0.
        1    1    3    3  502    0  0.52416237650E+03 -0.38463078899E+03 -0.77640391540E+03  0.10126648412E+04  0.50400001928E-02 0. -1.
       -1    1    3    3    0  502 -0.52416237650E+03  0.38463078899E+03  0.47584550077E+03  0.80567734324E+03  0.50400001928E-02 0.  1.
</event>
<event>
 5   0  0.4335117E-05  0.1802787E+04  0.7818609E-02  0.8704819E-01
        1   -1    0    0  501    0  0.00000000000E+00  0.00000000000E+00  0.15955819938E+04  0.15955819938E+04  0.50400001928E-02 0.  1.
       -1   -1    0    0    0  501  0.00000000000E+00  0.00000000000E+00 -0.50922525123E+03  0.50922525125E+03  0.50400001928E-02 0. -1.
    10030    2    1    2    0    0  0.00000000000E+00  0.00000000000E+00  0.10863567426E+04  0.21048072451E+04  0.18027874436E+04 0.  0.
        3    1    3    3  502    0  0.85049228598E+03 -0.30349299721E+02  0.19633681651E+03  0.87338786585E+03  0.10100000352E+00 0. -1.
       -3    1    3    3    0  502 -0.85049228598E+03  0.30349299721E+02  0.89001992606E+03  0.12314193792E+04  0.10100000352E+00 0.  1.
</event>
<event>
 5   0  0.4623665E-05  0.1791413E+04  0.7818609E-02  0.8710879E-01
       -1   -1    0    0    0  501  0.00000000000E+00  0.00000000000E+00  0.14920430860E+04  0.14920430860E+04  0.50400001928E-02 0. -1.
        1   -1    0    0  501    0  0.00000000000E+00  0.00000000000E+00 -0.53771225314E+03  0.53771225317E+03  0.50400001928E-02 0.  1.
    10030    2    1    2    0    0  0.00000000000E+00  0.00000000000E+00  0.95433083282E+03  0.20297553391E+04  0.17914126823E+04 0.  0.
        5    1    3    3  502    0  0.37580719211E+03  0.80975761080E+03  0.55988039818E+03  0.10537678037E+04  0.46999998093E+01 0. -1.
       -5    1    3    3    0  502 -0.37580719211E+03 -0.80975761080E+03  0.39445043463E+03  0.97598753541E+03  0.46999998093E+01 0.  1.
</event>
<event>
 5   0  0.4623665E-05  0.1798613E+04  0.7818609E-02  0.8707037E-01
       -1   -1    0    0    0  501  0.00000000000E+00  0.00000000000E+00  0.47591247052E+03  0.47591247055E+03  0.50400001928E-02 0. -1.
        1   -1    0    0  501    0  0.00000000000E+00  0.00000000000E+00 -0.16993724049E+04  0.16993724049E+04  0.50400001928E-02 0.  1.
    10030    2    1    2    0    0  0.00000000000E+00  0.00000000000E+00 -0.12234599343E+04  0.21752848754E+04  0.17986133765E+04 0.  0.
        5    1    3    3  502    0  0.60214263768E+02  0.79950873928E+03 -0.11043238462E+04  0.13646952880E+04  0.46999998093E+01 0.  1.
       -5    1    3    3    0  502 -0.60214263768E+02 -0.79950873928E+03 -0.11913608813E+03  0.81058958743E+03  0.46999998093E+01 0. -1.
</event>
<event>
 5   0  0.9184414E-05  0.1803381E+04  0.7818609E-02  0.8704504E-01
       -2   -1    0    0    0  501  0.00000000000E+00  0.00000000000E+00  0.80120241813E+03  0.80120241813E+03  0.25500000920E-02 0.  1.
        2   -1    0    0  501    0  0.00000000000E+00  0.00000000000E+00 -0.10147820782E+04  0.10147820782E+04  0.25500000920E-02 0. -1.
    10030    2    1    2    0    0  0.00000000000E+00  0.00000000000E+00 -0.21357966006E+03  0.18159844963E+04  0.18033811077E+04 0.  0.
        5    1    3    3  502    0  0.13899089286E+03  0.80512382307E+03  0.27729543773E+03  0.86281961531E+03  0.46999998093E+01 0.  1.
       -5    1    3    3    0  502 -0.13899089286E+03 -0.80512382307E+03 -0.49087509778E+03  0.95316488101E+03  0.46999998093E+01 0. -1.
</event>
<event>
 5   0  0.9184414E-05  0.1813726E+04  0.7818609E-02  0.8699034E-01
       -2   -1    0    0    0  501  0.00000000000E+00  0.00000000000E+00  0.64339744990E+03  0.64339744990E+03  0.25500000920E-02 0. -1.
        2   -1    0    0  501    0  0.00000000000E+00  0.00000000000E+00 -0.12782147264E+04  0.12782147264E+04  0.25500000920E-02 0.  1.
    10030    2    1    2    0    0  0.00000000000E+00  0.00000000000E+00 -0.63481727648E+03  0.19216121763E+04  0.18137255530E+04 0.  0.
        5    1    3    3  502    0  0.44688168292E+03  0.77935748989E+03 -0.18645772963E+03  0.91754559043E+03  0.46999998093E+01 0.  1.
       -5    1    3    3    0  502 -0.44688168292E+03 -0.77935748989E+03 -0.44835954684E+03  0.10040665859E+04  0.46999998093E+01 0. -1.
</event>
<event>
 5   0  0.8892280E-05  0.1804290E+04  0.7818609E-02  0.8704022E-01
        2   -1    0    0  501    0  0.00000000000E+00  0.00000000000E+00  0.88353201226E+03  0.88353201226E+03  0.25500000920E-02 0. -1.
       -2   -1    0    0    0  501  0.00000000000E+00  0.00000000000E+00 -0.92114969794E+03  0.92114969795E+03  0.25500000920E-02 0.  1.
    10030    2    1    2    0    0  0.00000000000E+00  0.00000000000E+00 -0.37617685681E+02  0.18046817102E+04  0.18042896067E+04 0.  0.
        4    1    3    3  502    0 -0.47050528305E+03 -0.66138057239E+03  0.37505858917E+03  0.89413088590E+03  0.12699999809E+01 0. -1.
       -4    1    3    3    0  502  0.47050528305E+03  0.66138057239E+03 -0.41267627485E+03  0.91055082431E+03  0.12699999809E+01 0.  1.
</event>
<event>
 5   0  0.4535100E-05  0.1796888E+04  0.7818609E-02  0.8707956E-01
        1   -1    0    0  501    0  0.00000000000E+00  0.00000000000E+00  0.10934461226E+04  0.10934461226E+04  0.50400001928E-02 0. -1.
       -1   -1    0    0    0  501  0.00000000000E+00  0.00000000000E+00 -0.73821828173E+03  0.73821828174E+03  0.50400001928E-02 0.  1.
    10030    2    1    2    0    0  0.00000000000E+00  0.00000000000E+00  0.35522784090E+03  0.18316644044E+04  0.17968883302E+04 0.  0.
        1    1    3    3  502    0  0.44189775517E+03 -0.20106555563E+03  0.94822152378E+03  0.10652816725E+04  0.50400001928E-02 0. -1.
       -1    1    3    3    0  502 -0.44189775517E+03  0.20106555563E+03 -0.59299368288E+03  0.76638273183E+03  0.50400001928E-02 0.  1.
</event>
<event>
 5   0  0.9184414E-05  0.1775356E+04  0.7818609E-02  0.8719516E-01
       -2   -1    0    0    0  501  0.00000000000E+00  0.00000000000E+00  0.66597967250E+03  0.66597967251E+03  0.25500000920E-02 0.  1.
        2   -1    0    0  501    0  0.00000000000E+00  0.00000000000E+00 -0.11831776652E+04  0.11831776652E+04  0.25500000920E-02 0. -1.
    10030    2    1    2    0    0  0.00000000000E+00  0.00000000000E+00 -0.51719799268E+03  0.18491573377E+04  0.17753560477E+04 0.  0.
        5    1    3    3  502    0 -0.33888560186E+03 -0.75439563586E+03  0.77287430195E+02  0.83063329058E+03  0.46999998093E+01 0. -1.
       -5    1    3    3    0  502  0.33888560186E+03  0.75439563586E+03 -0.59448542288E+03  0.10185240471E+04  0.46999998093E+01 0.  1.
</event>
<event>
 5   0  0.4623665E-05  0.1801630E+04  0.7818609E-02  0.8705433E-01
       -1   -1    0    0    0  501  0.00000000000E+00  0.00000000000E+00  0.55737473135E+03  0.55737473137E+03  0.50400001928E-02 0.  1.
        1   -1    0    0  501    0  0.00000000000E+00  0.00000000000E+00 -0.14558738718E+04  0.14558738718E+04  0.50400001928E-02 0. -1.
    10030    2    1    2    0    0  0.00000000000E+00  0.00000000000E+00 -0.89849914047E+03  0.20132486032E+04  0.18016296048E+04 0.  0.
        5    1    3    3  502    0 -0.45386205202E+02 -0.34223982638E+03  0.48049926128E+03  0.59168373010E+03  0.46999998093E+01 0.  1.
       -5    1    3    3    0  502  0.45386205202E+02  0.34223982638E+03 -0.13789984017E+04  0.14215648731E+04  0.46999998093E+01 0. -1.
</event>
<event>
 5   0  0.9147432E-05  0.1778963E+04  0.7818609E-02  0.8717567E-01
        2   -1    0    0  501    0  0.00000000000E+00  0.00000000000E+00  0.82856616504E+03  0.82856616504E+03  0.25500000920E-02 0.  1.
       -2   -1    0    0    0  501  0.00000000000E+00  0.00000000000E+00 -0.95487513276E+03  0.95487513276E+03  0.25500000920E-02 0. -1.
    10030    2    1    2    0    0  0.00000000000E+00  0.00000000000E+00 -0.12630896772E+03  0.17834412978E+04  0.17789628741E+04 0.  0.
        3    1    3    3  502    0  0.58957434989E+03  0.28117147149E+03  0.54212192978E+03  0.84885305405E+03  0.10100000352E+00 0.  1.
       -3    1    3    3    0  502 -0.58957434989E+03 -0.28117147149E+03 -0.66843089750E+03  0.93458824375E+03  0.10100000352E+00 0. -1.
</event>
<event>
 5   0  0.9184414E-05  0.1804385E+04  0.7818609E-02  0.8703971E-01
       -2   -1    0    0    0  501  0.00000000000E+00  0.00000000000E+00  0.34988751854E+03  0.34988751855E+03  0.25500000920E-02 0. -1.
        2   -1    0    0  501    0  0.00000000000E+00  0.00000000000E+00 -0.23263215288E+04  0.23263215288E+04  0.25500000920E-02 0.  1.
    10030    2    1    2    0    0  0.00000000000E+00  0.00000000000E+00 -0.19764340102E+04  0.26762090473E+04  0.18043845123E+04 0.  0.
        5    1    3    3  502    0  0.85531814730E+02  0.78587790700E+03 -0.34340637692E+03  0.86189895333E+03  0.46999998093E+01 0. -1.
       -5    1    3    3    0  502 -0.85531814730E+02 -0.78587790700E+03 -0.16330276333E+04  0.18143100940E+04  0.46999998093E+01 0.  1.
</event>
<event>
 5   0  0.4494757E-05  0.1787302E+04  0.7818609E-02  0.8713081E-01
       -1   -1    0    0    0  501  0.00000000000E+00  0.00000000000E+00  0.35921207157E+03  0.35921207161E+03  0.50400001928E-02 0.  1.
        1   -1    0    0  501    0  0.00000000000E+00  0.00000000000E+00 -0.22232330222E+04  0.22232330222E+04  0.50400001928E-02 0. -1.
    10030    2    1    2    0    0  0.00000000000E+00  0.00000000000E+00 -0.18640209506E+04  0.25824450938E+04  0.17873020333E+04 0.  0.
        4    1    3    3  502    0 -0.30274888581E+03  0.20965256650E+02 -0.21464994120E+04  0.21678463434E+04  0.12699999809E+01 0. -1.
       -4    1    3    3    0  502  0.30274888581E+03 -0.20965256650E+02  0.28247846136E+03  0.41459875045E+03  0.12699999809E+01 0.  1.
</event>
<event>
 5   0  0.9147432E-05  0.1799241E+04  0.7818609E-02  0.8706703E-01
       -2   -1    0    0    0  501  0.00000000000E+00  0.00000000000E+00  0.73876191314E+03  0.73876191315E+03  0.25500000920E-02 0. -1.
        2   -1    0    0  501    0  0.00000000000E+00  0.00000000000E+00 -0.10955045249E+04  0.10955045249E+04  0.25500000920E-02 0.  1.
    10030    2    1    2    0    0  0.00000000000E+00  0.00000000000E+00 -0.35674261174E+03  0.18342664380E+04  0.17992409718E+04 0.  0.
        3    1    3    3  502    0 -0.79812814340E+03  0.40109280709E+03 -0.28737817335E+03  0.93833373482E+03  0.10100000352E+00 0. -1.
       -3    1    3    3    0  502  0.79812814340E+03 -0.40109280709E+03 -0.69364438393E+02  0.89593270322E+03  0.10100000352E+00 0.  1.
</event>
<event>
 5   0  0.8802655E-05  0.1797624E+04  0.7818609E-02  0.8707564E-01
       -2   -1    0    0    0  501  0.00000000000E+00  0.00000000000E+00  0.53240179250E+03  0.53240179250E+03  0.25500000920E-02 0.  1.
        2   -1    0    0  501    0  0.00000000000E+00  0.00000000000E+00 -0.15173927744E+04  0.15173927744E+04  0.25500000920E-02 0. -1.
    10030    2    1    2    0    0  0.00000000000E+00  0.00000000000E+00 -0.98499098186E+03  0.20497945669E+04  0.17976235791E+04 0.  0.
        2    1    3    3  502    0  0.58967983288E+03 -0.38212191730E+03  0.14659383799E+03  0.71779469093E+03  0.25500000920E-02 0.  1.
       -2    1    3    3    0  502 -0.58967983288E+03  0.38212191730E+03 -0.11315848199E+04  0.13319998759E+04  0.25500000920E-02 0. -1.
</event>
<event>
 5   0  0.8892280E-05  0.1797501E+04  0.7818609E-02  0.8707629E-01
        2   -1    0    0  501    0  0.00000000000E+00  0.00000000000E+00  0.98829840350E+03  0.98829840350E+03  0.25500000920E-02 0.  1.
       -2   -1    0    0    0  501  0.00000000000E+00  0.00000000000E+00 -0.81731650294E+03  0.81731650295E+03  0.25500000920E-02 0. -1.
    10030    2    1    2    0    0  0.00000000000E+00  0.00000000000E+00  0.17098190055E+03  0.18056149064E+04  0.17975011488E+04 0.  0.
        4    1    3    3  502    0 -0.51669769796E+03 -0.23279872839E+03  0.78619194681E+03  0.96916002247E+03  0.12699999809E+01 0.  1.
       -4    1    3    3    0  502  0.51669769796E+03  0.23279872839E+03 -0.61521004626E+03  0.83645488398E+03  0.12699999809E+01 0. -1.
</event>
<event>
 5   0  0.9147432E-05  0.1803940E+04  0.7818609E-02  0.8704207E-01
       -2   -1    0    0    0  501  0.00000000000E+00  0.00000000000E+00  0.69803218686E+03  0.69803218686E+03  0.25500000920E-02 0. -1.
        2   -1    0    0  501    0  0.00000000000E+00  0.00000000000E+00 -0.11654900754E+04  0.11654900754E+04  0.25500000920E-02 0.  1.
    10030    2    1    2    0    0  0.00000000000E+00  0.00000000000E+00 -0.46745788853E+03  0.18635222623E+04  0.18039396732E+04 0.  0.
        3    1    3    3  502    0 -0.67956511387E+03 -0.15388165290E+03 -0.82541325774E+03  0.10801830231E+04  0.10100000352E+00 0.  1.
       -3    1    3    3    0  502  0.67956511387E+03  0.15388165290E+03  0.35795536921E+03  0.78333923918E+03  0.10100000352E+00 0. -1.
</event>
<event>
 5   0  0.8893075E-05  0.1803905E+04  0.7818609E-02  0.8704226E-01
       -2   -1    0    0    0  501  0.00000000000E+00  0.00000000000E+00  0.56748971630E+03  0.56748971631E+03  0.25500000920E-02 0.  1.
        2   -1    0    0  501    0  0.00000000000E+00  0.00000000000E+00 -0.14335384185E+04  0.14335384185E+04  0.25500000920E-02 0. -1.
    10030    2    1    2    0    0  0.00000000000E+00  0.00000000000E+00 -0.86604870221E+03  0.20010281348E+04  0.18039049980E+04 0.  0.
        1    1    3    3  502    0 -0.15712967692E+03 -0.66973498410E+03 -0.10801074537E+04  0.12805728389E+04  0.50400001928E-02 0. -1.
       -1    1    3    3    0  502  0.15712967692E+03  0.66973498410E+03  0.21405875145E+03  0.72045529590E+03  0.50400001928E-02 0.  1.
</event>
<event>
 5   0  0.8893075E-05  0.1802443E+04  0.7818609E-02  0.8705001E-01
       -2   -1    0    0    0  501  0.00000000000E+00  0.00000000000E+00  0.38738238189E+03  0.38738238190E+03  0.25500000920E-02 0. -1.
        2   -1    0    0  501    0  0.00000000000E+00  0.00000000000E+00 -0.20966367175E+04  0.20966367175E+04  0.25500000920E-02 0.  1.
    10030    2    1    2    0    0  0.00000000000E+00  0.00000000000E+00 -0.17092543356E+04  0.24840190994E+04  0.18024429262E+04 0.  0.
        1    1    3    3  502    0  0.31244450591E+03 -0.29875061419E+03 -0.19444273339E+04  0.19919013920E+04  0.50400001928E-02 0.  1.
       -1    1    3    3    0  502 -0.31244450591E+03  0.29875061419E+03  0.23517299829E+03  0.49211770737E+03  0.50400001928E-02 0. -1.
</event>
<event>
 5   0  0.4535100E-05  0.1801858E+04  0.7818609E-02  0.8705312E-01
       -1   -1    0    0    0  501  0.00000000000E+00  0.00000000000E+00  0.72028572109E+03  0.72028572111E+03  0.50400001928E-02 0.  1.
        1   -1    0    0  501    0  0.00000000000E+00  0.00000000000E+00 -0.11268764214E+04  0.11268764214E+04  0.50400001928E-02 0. -1.
    10030    2    1    2    0    0  0.00000000000E+00  0.00000000000E+00 -0.40659070028E+03  0.18471621425E+04  0.18018579253E+04 0.  0.
        1    1    3    3  502    0 -0.34806356353E+03 -0.81477793575E+03 -0.35905884120E+02  0.88673590284E+03  0.50400001928E-02 0.  1.
       -1    1    3    3    0  502  0.34806356353E+03  0.81477793575E+03 -0.37068481616E+03  0.96042623964E+03  0.50400001928E-02 0. -1.
</event>
<event>
 5   0  0.4578107E-05  0.1768275E+04  0.7818609E-02  0.8723355E-01
       -1   -1    0    0    0  501  0.00000000000E+00  0.00000000000E+00  0.53432670820E+03  0.53432670822E+03  0.50400001928E-02 0.  1.
        1   -1    0    0  501    0  0.00000000000E+00  0.00000000000E+00 -0.14629602128E+04  0.14629602128E+04  0.50400001928E-02 0. -1.
    10030    2    1    2    0    0  0.00000000000E+00  0.00000000000E+00 -0.92863350464E+03  0.19972869211E+04  0.17682745429E+04 0.  0.
        2    1    3    3  502    0  0.59113051929E+03  0.20358818617E+03 -0.11704335257E+04  0.13269506692E+04  0.25500000920E-02 0. -1.
       -2    1    3    3    0  502 -0.59113051929E+03 -0.20358818617E+03  0.24180002106E+03  0.67033625188E+03  0.25500000920E-02 0.  1.
</event>
<event>
 5   0  0.8893075E-05  0.1797229E+04  0.7818609E-02  0.8707774E-01
        2   -1    0    0  501    0  0.00000000000E+00  0.00000000000E+00  0.11519935464E+04  0.11519935464E+04  0.25500000920E-02 0.  1.
       -2   -1    0    0    0  501  0.00000000000E+00  0.00000000000E+00 -0.70096584989E+03  0.70096584990E+03  0.25500000920E-02 0. -1.
    10030    2    1    2    0    0  0.00000000000E+00  0.00000000000E+00  0.45102769647E+03  0.18529593963E+04  0.17972291287E+04 0.  0.
        1    1    3    3  502    0  0.42870680037E+03  0.45282869202E+03  0.89262111750E+03  0.10888598645E+04  0.50400001928E-02 0.  1.
       -1    1    3    3    0  502 -0.42870680037E+03 -0.45282869202E+03 -0.44159342102E+03  0.76409953181E+03  0.50400001928E-02 0. -1.
</event>
<event>
 5   0  0.4335117E-05  0.1795287E+04  0.7818609E-02  0.8708810E-01
        1   -1    0    0  501    0  0.00000000000E+00  0.00000000000E+00  0.12931604673E+04  0.12931604673E+04  0.50400001928E-02 0.  1.
       -1   -1    0    0    0  501  0.00000000000E+00  0.00000000000E+00 -0.62309643343E+03  0.62309643345E+03  0.50400001928E-02 0. -1.
    10030    2    1    2    0    0  0.00000000000E+00  0.00000000000E+00  0.67006403382E+03  0.19162569007E+04  0.17952868016E+04 0.  0.
        3    1    3    3  502    0  0.24641130617E+03 -0.55595791983E+03  0.10397919175E+04  0.12045642292E+04  0.10100000352E+00 0.  1.
       -3    1    3    3    0  502 -0.24641130617E+03  0.55595791983E+03 -0.36972788370E+03  0.71169267147E+03  0.10100000352E+00 0. -1.
</event>
<event>
 5   0  0.9184414E-05  0.1847829E+04  0.7818609E-02  0.8681270E-01
       -2   -1    0    0    0  501  0.00000000000E+00  0.00000000000E+00  0.58256524531E+03  0.58256524532E+03  0.25500000920E-02 0. -1.
        2   -1    0    0  501    0  0.00000000000E+00  0.00000000000E+00 -0.14652751930E+04  0.14652751930E+04  0.25500000920E-02 0.  1.
    10030    2    1    2    0    0  0.00000000000E+00  0.00000000000E+00 -0.88270994770E+03  0.20478404383E+04  0.18478294318E+04 0.  0.
        5    1    3    3  502    0 -0.58589413195E+02 -0.68697527718E+03  0.24021648368E+03  0.73013272754E+03  0.46999998093E+01 0. -1.
       -5    1    3    3    0  502  0.58589413195E+02  0.68697527718E+03 -0.11229264314E+04  0.13177077108E+04  0.46999998093E+01 0.  1.
</event>
<event>
 5   0  0.4335117E-05  0.1778587E+04  0.7818609E-02  0.8717770E-01
        1   -1    0    0  501    0  0.00000000000E+00  0.00000000000E+00  0.13946570293E+04  0.13946570293E+04  0.50400001928E-02 0.  1.
       -1   -1    0    0    0  501  0.00000000000E+00  0.00000000000E+00 -0.56705222124E+03  0.56705222126E+03  0.50400001928E-02 0. -1.
    10030    2    1    2    0    0  0.00000000000E+00  0.00000000000E+00  0.82760480802E+03  0.19617092505E+04  0.17785874916E+04 0.  0.
        3    1    3    3  502    0 -0.20554940180E+03  0.57783110792E+03 -0.29647585887E+03  0.68120282659E+03  0.10100000352E+00 0. -1.
       -3    1    3    3    0  502  0.20554940180E+03 -0.57783110792E+03  0.11240806669E+04  0.12805064239E+04  0.10100000352E+00 0.  1.
</event>
<event>
 5   0  0.8802655E-05  0.1808085E+04  0.7818609E-02  0.8702012E-01
        2   -1    0    0  501    0  0.00000000000E+00  0.00000000000E+00  0.81119924594E+03  0.81119924595E+03  0.25500000920E-02 0. -1.
       -2   -1    0    0    0  501  0.00000000000E+00  0.00000000000E+00 -0.10075121980E+04  0.10075121980E+04  0.25500000920E-02 0.  1.
    10030    2    1    2    0    0  0.00000000000E+00  0.00000000000E+00 -0.19631295209E+03  0.18187114440E+04  0.18080853247E+04 0.  0.
        2    1    3    3  502    0 -0.44775298123E+03  0.57904595788E+03 -0.63185568617E+03  0.96696357826E+03  0.25500000920E-02 0.  1.
       -2    1    3    3    0  502  0.44775298123E+03 -0.57904595788E+03  0.43554273408E+03  0.85174786572E+03  0.25500000920E-02 0. -1.
</event>
<event>
 5   0  0.4494757E-05  0.1793880E+04  0.7818609E-02  0.8709561E-01
       -1   -1    0    0    0  501  0.00000000000E+00  0.00000000000E+00  0.38470970740E+03  0.38470970744E+03  0.50400001928E-02 0. -1.
        1   -1    0    0  501    0  0.00000000000E+00  0.00000000000E+00 -0.20911899362E+04  0.20911899362E+04  0.50400001928E-02 0.  1.
    10030    2    1    2    0    0  0.00000000000E+00  0.00000000000E+00 -0.17064802288E+04  0.24758996437E+04  0.17938796710E+04 0.  0.
        4    1    3    3  502    0 -0.33403958538E+03 -0.68341994669E+03 -0.15091645384E+04  0.16900368295E+04  0.12699999809E+01 0.  1.
       -4    1    3    3    0  502  0.33403958538E+03  0.68341994669E+03 -0.19731569043E+03  0.78586281419E+03  0.12699999809E+01 0. -1.
</event>
<event>
 5   0  0.4623665E-05  0.1803840E+04  0.7818609E-02  0.8704260E-01
       -1   -1    0    0    0  501  0.00000000000E+00  0.00000000000E+00  0.59747916345E+03  0.59747916347E+03  0.50400001928E-02 0.  1.
        1   -1    0    0  501    0  0.00000000000E+00  0.00000000000E+00 -0.13614857849E+04  0.13614857849E+04  0.50400001928E-02 0. -1.
    10030    2    1    2    0    0  0.00000000000E+00  0.00000000000E+00 -0.76400662143E+03  0.19589649483E+04  0.18038396689E+04 0.  0.
        5    1    3    3  502    0 -0.40314668341E+03 -0.80678896059E+03 -0.38338664945E+03  0.98002198355E+03  0.46999998093E+01 0.  1.
       -5    1    3    3    0  502  0.40314668341E+03  0.80678896059E+03 -0.38061997198E+03  0.97894296480E+03  0.46999998093E+01 0. -1.
</event>
<event>
 5   0  0.4535100E-05  0.1798360E+04  0.7818609E-02  0.8707172E-01
        1   -1    0    0  501    0  0.00000000000E+00  0.00000000000E+00  0.68155535167E+03  0.68155535169E+03  0.50400001928E-02 0.  1.
       -1   -1    0    0    0  501  0.00000000000E+00  0.00000000000E+00 -0.11862930365E+04  0.11862930366E+04  0.50400001928E-02 0. -1.
    10030    2    1    2    0    0  0.00000000000E+00  0.00000000000E+00 -0.50473768487E+03  0.18678483882E+04  0.17983596612E+04 0.  0.
        1    1    3    3  502    0 -0.50331258431E+03  0.52205104243E+03 -0.80457335396E+03  0.10831431717E+04  0.50400001928E-02 0. -1.
       -1    1    3    3    0  502  0.50331258431E+03 -0.52205104243E+03  0.29983566909E+03  0.78470521657E+03  0.50400001928E-02 0.  1.
</event>
<event>
 5   0  0.4578107E-05  0.1798835E+04  0.7818609E-02  0.8706919E-01
        1   -1    0    0  501    0  0.00000000000E+00  0.00000000000E+00  0.12820449992E+04  0.12820449992E+04  0.50400001928E-02 0.  1.
       -1   -1    0    0    0  501  0.00000000000E+00  0.00000000000E+00 -0.63098532915E+03  0.63098532917E+03  0.50400001928E-02 0. -1.
    10030    2    1    2    0    0  0.00000000000E+00  0.00000000000E+00  0.65105967001E+03  0.19130303283E+04  0.17988347182E+04 0.  0.
        2    1    3    3  502    0  0.43793515973E+03 -0.15870470164E+03 -0.49271464474E+03  0.67804285086E+03  0.25500000920E-02 0. -1.
       -2    1    3    3    0  502 -0.43793515973E+03  0.15870470164E+03  0.11437743148E+04  0.12349874775E+04  0.25500000920E-02 0.  1.
</event>
<event>
 5   0  0.9147432E-05  0.1796491E+04  0.7818609E-02  0.8708168E-01
       -2   -1    0    0    0  501  0.00000000000E+00  0.00000000000E+00  0.10400938570E+04  0.10400938570E+04  0.25500000920E-02 0. -1.
        2   -1    0    0  501    0  0.00000000000E+00  0.00000000000E+00 -0.77574208030E+03  0.77574208031E+03  0.25500000920E-02 0.  1.
    10030    2    1    2    0    0  0.00000000000E+00  0.00000000000E+00  0.26435177665E+03  0.18158359373E+04  0.17964905481E+04 0.  0.
        3    1    3    3  502    0  0.56704421368E+03  0.69614459049E+03  0.10566115755E+03  0.90405791936E+03  0.10100000352E+00 0. -1.
       -3    1    3    3    0  502 -0.56704421368E+03 -0.69614459049E+03  0.15869061910E+03  0.91177801790E+03  0.10100000352E+00 0.  1.
</event>
<event>
 5   0  0.8893075E-05  0.1816415E+04  0.7818609E-02  0.8697618E-01
        2   -1    0    0  501    0  0.00000000000E+00  0.00000000000E+00  0.17001352424E+04  0.17001352424E+04  0.25500000920E-02 0.  1.
       -2   -1    0    0    0  501  0.00000000000E+00  0.00000000000E+00 -0.48516210002E+03  0.48516210002E+03  0.25500000920E-02 0. -1.
    10030    2    1    2    0    0  0.00000000000E+00  0.00000000000E+00  0.12149731424E+04  0.21852973424E+04  0.18164153540E+04 0.  0.
        1    1    3    3  502    0 -0.71555254247E+03 -0.28804936491E+01  0.12803715857E+04  0.14667566723E+04  0.50400001928E-02 0.  1.
       -1    1    3    3    0  502  0.71555254247E+03  0.28804936491E+01 -0.65398443254E+02  0.71854067017E+03  0.50400001928E-02 0. -1.
</event>
<event>
 5   0  0.4578107E-05  0.1799114E+04  0.7818609E-02  0.8706771E-01
       -1   -1    0    0    0  501  0.00000000000E+00  0.00000000000E+00  0.65171487918E+03  0.65171487920E+03  0.50400001928E-02 0. -1.
        1   -1    0    0  501    0  0.00000000000E+00  0.00000000000E+00 -0.12416511433E+04  0.12416511433E+04  0.50400001928E-02 0.  1.
    10030    2    1    2    0    0  0.00000000000E+00  0.00000000000E+00 -0.58993626411E+03  0.18933660225E+04  0.17991136983E+04 0.  0.
        2    1    3    3  502    0 -0.61732658968E+03  0.36926544478E+03 -0.86340725412E+03  0.11237976568E+04  0.25500000920E-02 0.  1.
       -2    1    3    3    0  502  0.61732658968E+03 -0.36926544478E+03  0.27347099001E+03  0.76956836565E+03  0.25500000920E-02 0. -1.
</event>
<event>
 5   0  0.4494757E-05  0.1790078E+04  0.7818609E-02  0.8711594E-01
       -1   -1    0    0    0  501  0.00000000000E+00  0.00000000000E+00  0.95786549540E+03  0.95786549541E+03  0.50400001928E-02 0. -1.
        1   -1    0    0  501    0  0.00000000000E+00  0.00000000000E+00 -0.83633313059E+03  0.83633313061E+03  0.50400001928E-02 0.  1.
    10030    2    1    2    0    0  0.00000000000E+00  0.00000000000E+00  0.12153236481E+03  0.17941986260E+04  0.17900778178E+04 0.  0.
        4    1    3    3  502    0 -0.15484159694E+03 -0.36661940787E+02 -0.82204117489E+03  0.83730121471E+03  0.12699999809E+01 0.  1.
       -4    1    3    3    0  502  0.15484159694E+03  0.36661940787E+02  0.94357353970E+03  0.95689741130E+03  0.12699999809E+01 0. -1.
</event>
<event>
 5   0  0.4335117E-05  0.1806046E+04  0.7818609E-02  0.8703091E-01
       -1   -1    0    0    0  501  0.00000000000E+00  0.00000000000E+00  0.11766861895E+04  0.11766861895E+04  0.50400001928E-02 0.  1.
        1   -1    0    0  501    0  0.00000000000E+00  0.00000000000E+00 -0.69300613631E+03  0.69300613633E+03  0.50400001928E-02 0. -1.
    10030    2    1    2    0    0  0.00000000000E+00  0.00000000000E+00  0.48368005318E+03  0.18696923258E+04  0.18060462340E+04 0.  0.
        3    1    3    3  502    0 -0.31160768347E+02 -0.34829595296E+03 -0.62006826588E+03  0.71187479860E+03  0.10100000352E+00 0. -1.
       -3    1    3    3    0  502  0.31160768347E+02  0.34829595296E+03  0.11037483191E+04  0.11578175272E+04  0.10100000352E+00 0.  1.
</event>
<event>
 5   0  0.4494757E-05  0.1806519E+04  0.7818609E-02  0.8702840E-01
       -1   -1    0    0    0  501  0.00000000000E+00  0.00000000000E+00  0.11981140188E+04  0.11981140188E+04  0.50400001928E-02 0.  1.
        1   -1    0    0  501    0  0.00000000000E+00  0.00000000000E+00 -0.68096845547E+03  0.68096845549E+03  0.50400001928E-02 0. -1.
    10030    2    1    2    0    0  0.00000000000E+00  0.00000000000E+00  0.51714556334E+03  0.18790824743E+04  0.18065191423E+04 0.  0.
        4    1    3    3  502    0 -0.49136566506E+03  0.20839898832E+02  0.10466338476E+04  0.11564248968E+04  0.12699999809E+01 0.  1.
       -4    1    3    3    0  502  0.49136566506E+03 -0.20839898832E+02 -0.52948828427E+03  0.72265757746E+03  0.12699999809E+01 0. -1.
</event>
<event>
 5   0  0.8802655E-05  0.1800804E+04  0.7818609E-02  0.8705872E-01
       -2   -1    0    0    0  501  0.00000000000E+00  0.00000000000E+00  0.10186550345E+04  0.10186550345E+04  0.25500000920E-02 0. -1.
        2   -1    0    0  501    0  0.00000000000E+00  0.00000000000E+00 -0.79587653950E+03  0.79587653951E+03  0.25500000920E-02 0.  1.
    10030    2    1    2    0    0  0.00000000000E+00  0.00000000000E+00  0.22277849497E+03  0.18145315740E+04  0.18008038692E+04 0.  0.
        2    1    3    3  502    0 -0.37370574185E+03 -0.33066004630E+03  0.86659022042E+03  0.99998532881E+03  0.25500000920E-02 0. -1.
       -2    1    3    3    0  502  0.37370574185E+03  0.33066004630E+03 -0.64381172544E+03  0.81454624518E+03  0.25500000920E-02 0.  1.
</event>
<event>
 5   0  0.8893075E-05  0.1800850E+04  0.7818609E-02  0.8705848E-01
        2   -1    0    0  501    0  0.00000000000E+00  0.00000000000E+00  0.14749293246E+04  0.14749293246E+04  0.25500000920E-02 0. -1.
       -2   -1    0    0    0  501  0.00000000000E+00  0.00000000000E+00 -0.54969771709E+03  0.54969771709E+03  0.25500000920E-02 0.  1.
    10030    2    1    2    0    0  0.00000000000E+00  0.00000000000E+00  0.92523160755E+03  0.20246270417E+04  0.18008501133E+04 0.  0.
        1    1    3    3  502    0 -0.10101393965E+02  0.95696428314E+02  0.14691318485E+04  0.14722799438E+04  0.50400001928E-02 0. -1.
       -1    1    3    3    0  502  0.10101393965E+02 -0.95696428314E+02 -0.54390024092E+03  0.55234709798E+03  0.50400001928E-02 0.  1.
</event>
<event>
 5   0  0.4535100E-05  0.1795642E+04  0.7818609E-02  0.8708620E-01
        1   -1    0    0  501    0  0.00000000000E+00  0.00000000000E+00  0.48993599832E+03  0.48993599835E+03  0.50400001928E-02 0.  1.
       -1   -1    0    0    0  501  0.00000000000E+00  0.00000000000E+00 -0.16452822245E+04  0.16452822245E+04  0.50400001928E-02 0. -1.
    10030    2    1    2    0    0  0.00000000000E+00  0.00000000000E+00 -0.11553462262E+04  0.21352182229E+04  0.17956424914E+04 0.  0.
        1    1    3    3  502    0  0.61912769667E+03  0.21674155417E+03  0.15126936636E+03  0.67318528453E+03  0.50400001928E-02 0.  1.
       -1    1    3    3    0  502 -0.61912769667E+03 -0.21674155417E+03 -0.13066155926E+04  0.14620329384E+04  0.50400001928E-02 0. -1.
</event>
<event>
 5   0  0.8802655E-05  0.1810690E+04  0.7818609E-02  0.8700635E-01
       -2   -1    0    0    0  501  0.00000000000E+00  0.00000000000E+00  0.48460596555E+03  0.48460596556E+03  0.25500000920E-02 0. -1.
        2   -1    0    0  501    0  0.00000000000E+00  0.00000000000E+00 -0.16913725551E+04  0.16913725551E+04  0.25500000920E-02 0.  1.
    10030    2    1    2    0    0  0.00000000000E+00  0.00000000000E+00 -0.12067665895E+04  0.21759785206E+04  0.18106896257E+04 0.  0.
        2    1    3    3  502    0 -0.53203573921E+03  0.18795213480E+03  0.24744639130E+03  0.61613127607E+03  0.25500000920E-02 0. -1.
       -2    1    3    3    0  502  0.53203573921E+03 -0.18795213480E+03 -0.14542129808E+04  0.15598472446E+04  0.25500000920E-02 0.  1.
</event>
<event>
 5   0  0.4335117E-05  0.1801809E+04  0.7818609E-02  0.8705338E-01
        1   -1    0    0  501    0  0.00000000000E+00  0.00000000000E+00  0.91521333440E+03  0.91521333442E+03  0.50400001928E-02 0. -1.
       -1   -1    0    0    0  501  0.00000000000E+00  0.00000000000E+00 -0.88681970735E+03  0.88681970737E+03  0.50400001928E-02 0.  1.
    10030    2    1    2    0    0  0.00000000000E+00  0.00000000000E+00  0.28393627050E+02  0.18020330418E+04  0.18018093366E+04 0.  0.
        3    1    3    3  502    0 -0.14000166497E+03  0.15830972485E+03 -0.86167831151E+03  0.88721584629E+03  0.10100000352E+00 0.  1.
       -3    1    3    3    0  502  0.14000166497E+03 -0.15830972485E+03  0.89007193856E+03  0.91481719550E+03  0.10100000352E+00 0. -1.
</event>
<event>
 5   0  0.8893075E-05  0.1811425E+04  0.7818609E-02  0.8700247E-01
        2   -1    0    0  501    0  0.00000000000E+00  0.00000000000E+00  0.11909674352E+04  0.11909674352E+04  0.25500000920E-02 0.  1.
       -2   -1    0    0    0  501  0.00000000000E+00  0.00000000000E+00 -0.68878076471E+03  0.68878076471E+03  0.25500000920E-02 0. -1.
    10030    2    1    2    0    0  0.00000000000E+00  0.00000000000E+00  0.50218667045E+03  0.18797481999E+04  0.18114253622E+04 0.  0.
        1    1    3    3  502    0  0.11556258030E+03  0.88248738035E+03  0.76902673128E+02  0.89333795822E+03  0.50400001928E-02 0. -1.
       -1    1    3    3    0  502 -0.11556258030E+03 -0.88248738035E+03  0.42528399732E+03  0.98641024166E+03  0.50400001928E-02 0.  1.
</event>
<event>
 5   0  0.4335117E-05  0.1797180E+04  0.7818609E-02  0.8707800E-01
       -1   -1    0    0    0  501  0.00000000000E+00  0.00000000000E+00  0.50606401600E+03  0.50606401602E+03  0.50400001928E-02 0. -1.
        1   -1    0    0  501    0  0.00000000000E+00  0.00000000000E+00 -0.15955776299E+04  0.15955776299E+04  0.50400001928E-02 0.  1.
    10030    2    1    2    0    0  0.00000000000E+00  0.00000000000E+00 -0.10895136139E+04  0.21016416459E+04  0.17971804842E+04 0.  0.
        3    1    3    3  502    0 -0.47186963613E+02  0.75746141429E+03  0.17886423776E+02  0.75914052588E+03  0.10100000352E+00 0. -1.
       -3    1    3    3    0  502  0.47186963613E+02 -0.75746141429E+03 -0.11074000376E+04  0.13425011200E+04  0.10100000352E+00 0.  1.
</event>
<event>
 5   0  0.9184414E-05  0.1795777E+04  0.7818609E-02  0.8708549E-01
       -2   -1    0    0    0  501  0.00000000000E+00  0.00000000000E+00  0.13794441687E+04  0.13794441687E+04  0.25500000920E-02 0. -1.
        2   -1    0    0  501    0  0.00000000000E+00  0.00000000000E+00 -0.58444091790E+03  0.58444091791E+03  0.25500000920E-02 0.  1.
    10030    2    1    2    0    0  0.00000000000E+00  0.00000000000E+00  0.79500325081E+03  0.19638850866E+04  0.17957768416E+04 0.  0.
        5    1    3    3  502    0  0.52407774773E+03 -0.69459810548E+03  0.63972523219E+03  0.10799974428E+04  0.46999998093E+01 0.  1.
       -5    1    3    3    0  502 -0.52407774773E+03  0.69459810548E+03  0.15527801863E+03  0.88388764380E+03  0.46999998093E+01 0. -1.
</event>
<event>
 5   0  0.8893075E-05  0.1797399E+04  0.7818609E-02  0.8707684E-01
       -2   -1    0    0    0  501  0.00000000000E+00  0.00000000000E+00  0.11991302709E+04  0.11991302709E+04  0.25500000920E-02 0.  1.
        2   -1    0    0  501    0  0.00000000000E+00  0.00000000000E+00 -0.67353869855E+03  0.67353869856E+03  0.25500000920E-02 0. -1.
    10030    2    1    2    0    0  0.00000000000E+00  0.00000000000E+00  0.52559157239E+03  0.18726689695E+04  0.17973988340E+04 0.  0.
        1    1    3    3  502    0 -0.88153566832E+01 -0.88944373479E+03  0.39651688334E+03  0.97386524051E+03  0.50400001928E-02 0.  1.
       -1    1    3    3    0  502  0.88153566832E+01  0.88944373479E+03  0.12907468905E+03  0.89880372899E+03  0.50400001928E-02 0. -1.
</event>
<event>
 5   0  0.4578107E-05  0.1805785E+04  0.7818609E-02  0.8703229E-01
        1   -1    0    0  501    0  0.00000000000E+00  0.00000000000E+00  0.64745243358E+03  0.64745243360E+03  0.50400001928E-02 0. -1.
       -1   -1    0    0    0  501  0.00000000000E+00  0.00000000000E+00 -0.12591121732E+04  0.12591121733E+04  0.50400001928E-02 0.  1.
    10030    2    1    2    0    0  0.00000000000E+00  0.00000000000E+00 -0.61165973967E+03  0.19065646069E+04  0.18057854144E+04 0.  0.
        2    1    3    3  502    0  0.67219528399E+03 -0.53510276350E+03 -0.59886923963E+03  0.10472945304E+04  0.25500000920E-02 0. -1.
       -2    1    3    3    0  502 -0.67219528399E+03  0.53510276350E+03 -0.12790500038E+02  0.85927007641E+03  0.25500000920E-02 0.  1.
</event>
<event>
 5   0  0.8802655E-05  0.1802428E+04  0.7818609E-02  0.8705009E-01
       -2   -1    0    0    0  501  0.00000000000E+00  0.00000000000E+00  0.12503342486E+04  0.12503342486E+04  0.25500000920E-02 0.  1.
        2   -1    0    0  501    0  0.00000000000E+00  0.00000000000E+00 -0.64957580567E+03  0.64957580567E+03  0.25500000920E-02 0. -1.
    10030    2    1    2    0    0  0.00000000000E+00  0.00000000000E+00  0.60075844295E+03  0.18999100543E+04  0.18024282254E+04 0.  0.
        2    1    3    3  502    0  0.35699001467E+03  0.80118038138E+02  0.11685283373E+04  0.12244669231E+04  0.25500000920E-02 0.  1.
       -2    1    3    3    0  502 -0.35699001467E+03 -0.80118038138E+02 -0.56776989434E+03  0.67544313123E+03  0.25500000920E-02 0. -1.
</event>
<event>
 5   0  0.8893075E-05  0.1791558E+04  0.7818609E-02  0.8710802E-01
       -2   -1    0    0    0  501  0.00000000000E+00  0.00000000000E+00  0.12982029865E+04  0.12982029865E+04  0.25500000920E-02 0. -1.
        2   -1    0    0  501    0  0.00000000000E+00  0.00000000000E+00 -0.61810060455E+03  0.61810060455E+03  0.25500000920E-02 0.  1.
    10030    2    1    2    0    0  0.00000000000E+00  0.00000000000E+00  0.68010238191E+03  0.19163035910E+04  0.17915580379E+04 0.  0.
        1    1    3    3  502    0 -0.61228085066E+03 -0.13200489743E+03  0.10250376387E+04  0.12012557154E+04  0.50400001928E-02 0. -1.
       -1    1    3    3    0  502  0.61228085066E+03  0.13200489743E+03 -0.34493525678E+03  0.71504787562E+03  0.50400001928E-02 0.  1.
</event>
<event>
 5   0  0.4578107E-05  0.1794202E+04  0.7818609E-02  0.8709389E-01
       -1   -1    0    0    0  501  0.00000000000E+00  0.00000000000E+00  0.95041492701E+03  0.95041492702E+03  0.50400001928E-02 0.  1.
        1   -1    0    0  501    0  0.00000000000E+00  0.00000000000E+00 -0.84677761845E+03  0.84677761846E+03  0.50400001928E-02 0. -1.
    10030    2    1    2    0    0  0.00000000000E+00  0.00000000000E+00  0.10363730856E+03  0.17971925455E+04  0.17942018710E+04 0.  0.
        2    1    3    3  502    0 -0.24450083928E+02 -0.53265811640E+03  0.77445559433E+03  0.94026801667E+03  0.25500000920E-02 0.  1.
       -2    1    3    3    0  502  0.24450083928E+02  0.53265811640E+03 -0.67081828577E+03  0.85692452882E+03  0.25500000920E-02 0. -1.
</event>
<event>
 5   0  0.4494757E-05  0.1800273E+04  0.7818609E-02  0.8706154E-01
       -1   -1    0    0    0  501  0.00000000000E+00  0.00000000000E+00  0.81206002305E+03  0.81206002307E+03  0.50400001928E-02 0. -1.
        1   -1    0    0  501    0  0.00000000000E+00  0.00000000000E+00 -0.99776563994E+03  0.99776563995E+03  0.50400001928E-02 0.  1.
    10030    2    1    2    0    0  0.00000000000E+00  0.00000000000E+00 -0.18570561689E+03  0.18098256630E+04  0.18002728555E+04 0.  0.
        4    1    3    3  502    0  0.48917000908E+02 -0.20102070238E+03  0.78783326395E+03  0.81454592286E+03  0.12699999809E+01 0. -1.
       -4    1    3    3    0  502 -0.48917000908E+02  0.20102070238E+03 -0.97353888084E+03  0.99527974016E+03  0.12699999809E+01 0.  1.
</event>
<event>
 5   0  0.9184414E-05  0.1817515E+04  0.7818609E-02  0.8697040E-01
        2   -1    0    0  501    0  0.00000000000E+00  0.00000000000E+00  0.23628681036E+04  0.23628681036E+04  0.25500000920E-02 0.  1.
       -2   -1    0    0    0  501  0.00000000000E+00  0.00000000000E+00 -0.34950748536E+03  0.34950748537E+03  0.25500000920E-02 0. -1.
    10030    2    1    2    0    0  0.00000000000E+00  0.00000000000E+00  0.20133606182E+04  0.27123755890E+04  0.18175148848E+04 0.  0.
        5    1    3    3  502    0  0.52600606618E+03 -0.69730032813E+03  0.13809841992E+04  0.16340286343E+04  0.46999998093E+01 0.  1.
       -5    1    3    3    0  502 -0.52600606618E+03  0.69730032813E+03  0.63237641898E+03  0.10783469546E+04  0.46999998093E+01 0. -1.
</event>
<event>
 5   0  0.4335117E-05  0.1803425E+04  0.7818609E-02  0.8704480E-01
        1   -1    0    0  501    0  0.00000000000E+00  0.00000000000E+00  0.51451496922E+03  0.51451496924E+03  0.50400001928E-02 0.  1.
       -1   -1    0    0    0  501  0.00000000000E+00  0.00000000000E+00 -0.15802944799E+04  0.15802944799E+04  0.50400001928E-02 0. -1.
    10030    2    1    2    0    0  0.00000000000E+00  0.00000000000E+00 -0.10657795107E+04  0.20948094492E+04  0.18034247040E+04 0.  0.
        3    1    3    3  502    0 -0.80955535141E+03  0.23582108153E+03 -0.90403678936E+03  0.12362337870E+04  0.10100000352E+00 0. -1.
       -3    1    3    3    0  502  0.80955535141E+03 -0.23582108153E+03 -0.16174272134E+03  0.85857566213E+03  0.10100000352E+00 0.  1.
</event>
<event>
 5   0  0.4335117E-05  0.1792446E+04  0.7818609E-02  0.8710327E-01
        1   -1    0    0  501    0  0.00000000000E+00  0.00000000000E+00  0.19692496780E+04  0.19692496780E+04  0.50400001928E-02 0. -1.
       -1   -1    0    0    0  501  0.00000000000E+00  0.00000000000E+00 -0.40787920020E+03  0.40787920023E+03  0.50400001928E-02 0.  1.
    10030    2    1    2    0    0  0.00000000000E+00  0.00000000000E+00  0.15613704778E+04  0.23771288783E+04  0.17924463548E+04 0.  0.
        3    1    3    3  502    0  0.84035955645E+03 -0.31005642147E+03  0.74141549710E+03  0.11627708795E+04  0.10100000352E+00 0. -1.
       -3    1    3    3    0  502 -0.84035955645E+03  0.31005642147E+03  0.81995498073E+03  0.12143579988E+04  0.10100000352E+00 0.  1.
</event>
<event>
 5   0  0.9147432E-05  0.1794110E+04  0.7818609E-02  0.8709438E-01
       -2   -1    0    0    0  501  0.00000000000E+00  0.00000000000E+00  0.48242394852E+03  0.48242394852E+03  0.25500000920E-02 0.  1.
        2   -1    0    0  501    0  0.00000000000E+00  0.00000000000E+00 -0.16680501136E+04  0.16680501136E+04  0.25500000920E-02 0. -1.
    10030    2    1    2    0    0  0.00000000000E+00  0.00000000000E+00 -0.11856261651E+04  0.21504740622E+04  0.17941096089E+04 0.  0.
        3    1    3    3  502    0  0.35857664990E+03 -0.82170593649E+03 -0.62935562250E+03  0.10953841197E+04  0.10100000352E+00 0. -1.
       -3    1    3    3    0  502 -0.35857664990E+03  0.82170593649E+03 -0.55627054262E+03  0.10550899425E+04  0.10100000352E+00 0.  1.
</event>
<event>
 5   0  0.9184414E-05  0.1806381E+04  0.7818609E-02  0.8702914E-01
        2   -1    0    0  501    0  0.00000000000E+00  0.00000000000E+00  0.57400718720E+03  0.57400718721E+03  0.25500000920E-02 0. -1.
       -2   -1    0    0    0  501  0.00000000000E+00  0.00000000000E+00 -0.14211547221E+04  0.14211547221E+04  0.25500000920E-02 0.  1.
    10030    2    1    2    0    0  0.00000000000E+00  0.00000000000E+00 -0.84714753489E+03  0.19951619093E+04  0.18063809395E+04 0.  0.
        5    1    3    3  502    0 -0.67608134700E+03 -0.56166563142E+03 -0.19406813330E+03  0.90013265669E+03  0.46999998093E+01 0. -1.
       -5    1    3    3    0  502  0.67608134700E+03  0.56166563142E+03 -0.65307940159E+03  0.10950292526E+04  0.46999998093E+01 0.  1.
</event>
<event>
 5   0  0.4623665E-05  0.1796743E+04  0.7818609E-02  0.8708033E-01
        1   -1    0    0  501    0  0.00000000000E+00  0.00000000000E+00  0.10739848049E+04  0.10739848049E+04  0.50400001928E-02 0.  1.
       -1   -1    0    0    0  501  0.00000000000E+00  0.00000000000E+00 -0.75147400853E+03  0.75147400855E+03  0.50400001928E-02 0. -1.
    10030    2    1    2    0    0  0.00000000000E+00  0.00000000000E+00  0.32251079638E+03  0.18254588135E+04  0.17967433500E+04 0.  0.
        5    1    3    3  502    0  0.84210122970E+03 -0.31204447203E+03  0.18493764978E+03  0.91691344078E+03  0.46999998093E+01 0. -1.
       -5    1    3    3    0  502 -0.84210122970E+03  0.31204447203E+03  0.13757314661E+03  0.90854537269E+03  0.46999998093E+01 0.  1.
</event>
<event>
 5   0  0.4578107E-05  0.1796058E+04  0.7818609E-02  0.8708398E-01
        1   -1    0    0  501    0  0.00000000000E+00  0.00000000000E+00  0.14417305417E+04  0.14417305417E+04  0.50400001928E-02 0.  1.
       -1   -1    0    0    0  501  0.00000000000E+00  0.00000000000E+00 -0.55936694125E+03  0.55936694127E+03  0.50400001928E-02 0. -1.
    10030    2    1    2    0    0  0.00000000000E+00  0.00000000000E+00  0.88236360048E+03  0.20010974830E+04  0.17960583546E+04 0.  0.
        2    1    3    3  502    0 -0.28105129890E+03  0.35392997393E+02 -0.50828565543E+03  0.58189071517E+03  0.25500000920E-02 0. -1.
       -2    1    3    3    0  502  0.28105129890E+03 -0.35392997393E+02  0.13906492559E+04  0.14192067678E+04  0.25500000920E-02 0.  1.
</event>
<event>
 5   0  0.8892280E-05  0.1800880E+04  0.7818609E-02  0.8705832E-01
       -2   -1    0    0    0  501  0.00000000000E+00  0.00000000000E+00  0.10288037564E+04  0.10288037564E+04  0.25500000920E-02 0.  1.
        2   -1    0    0  501    0  0.00000000000E+00  0.00000000000E+00 -0.78809220053E+03  0.78809220054E+03  0.25500000920E-02 0. -1.
    10030    2    1    2    0    0  0.00000000000E+00  0.00000000000E+00  0.24071155583E+03  0.18168959569E+04  0.18008800252E+04 0.  0.
        4    1    3    3  502    0  0.50095092501E+03 -0.12830270999E+03  0.86405269081E+03  0.10069767028E+04  0.12699999809E+01 0.  1.
       -4    1    3    3    0  502 -0.50095092501E+03  0.12830270999E+03 -0.62334113498E+03  0.80991925407E+03  0.12699999809E+01 0. -1.
</event>
<event>
 5   0  0.9184414E-05  0.1799652E+04  0.7818609E-02  0.8706485E-01
       -2   -1    0    0    0  501  0.00000000000E+00  0.00000000000E+00  0.10857342408E+04  0.10857342408E+04  0.25500000920E-02 0.  1.
        2   -1    0    0  501    0  0.00000000000E+00  0.00000000000E+00 -0.74575016264E+03  0.74575016265E+03  0.25500000920E-02 0. -1.
    10030    2    1    2    0    0  0.00000000000E+00  0.00000000000E+00  0.33998407812E+03  0.18314844034E+04  0.17996516181E+04 0.  0.
        5    1    3    3  502    0  0.60033969178E+03 -0.36392499695E+03 -0.40282749674E+03  0.80940795095E+03  0.46999998093E+01 0. -1.
       -5    1    3    3    0  502 -0.60033969178E+03  0.36392499695E+03  0.74281157487E+03  0.10220764525E+04  0.46999998093E+01 0.  1.
</event>
<event>
 5   0  0.4535100E-05  0.1800174E+04  0.7818609E-02  0.8706207E-01
        1   -1    0    0  501    0  0.00000000000E+00  0.00000000000E+00  0.73853286924E+03  0.73853286926E+03  0.50400001928E-02 0. -1.
       -1   -1    0    0    0  501  0.00000000000E+00  0.00000000000E+00 -0.10969816045E+04  0.10969816045E+04  0.50400001928E-02 0.  1.
    10030    2    1    2    0    0  0.00000000000E+00  0.00000000000E+00 -0.35844873523E+03  0.18355144737E+04  0.18001744048E+04 0.  0.
        1    1    3    3  502    0 -0.36245649156E+03  0.22244322126E+03  0.62963410202E+03  0.75979918229E+03  0.50400001928E-02 0. -1.
       -1    1    3    3    0  502  0.36245649156E+03 -0.22244322126E+03 -0.98808283726E+03  0.10757152915E+04  0.50400001928E-02 0.  1.
</event>
<event>
 5   0  0.8802655E-05  0.1826030E+04  0.7818609E-02  0.8692578E-01
        2   -1    0    0  501    0  0.00000000000E+00  0.00000000000E+00  0.13146523859E+04  0.13146523859E+04  0.25500000920E-02 0. -1.
       -2   -1    0    0    0  501  0.00000000000E+00  0.00000000000E+00 -0.63408105664E+03  0.63408105665E+03  0.25500000920E-02 0.  1.
    10030    2    1    2    0    0  0.00000000000E+00  0.00000000000E+00  0.68057132926E+03  0.19487334425E+04  0.18260297631E+04 0.  0.
        2    1    3    3  502    0  0.68851802596E+02  0.80759597666E+03 -0.10824738762E+03  0.81772203662E+03  0.25500000920E-02 0.  1.
       -2    1    3    3    0  502 -0.68851802596E+02 -0.80759597666E+03  0.78881871688E+03  0.11310114059E+04  0.25500000920E-02 0. -1.
</event>
<event>
 5   0  0.4578107E-05  0.1797087E+04  0.7818609E-02  0.8707850E-01
        1   -1    0    0  501    0  0.00000000000E+00  0.00000000000E+00  0.64798072077E+03  0.64798072079E+03  0.50400001928E-02 0. -1.
       -1   -1    0    0    0  501  0.00000000000E+00  0.00000000000E+00 -0.12459951344E+04  0.12459951344E+04  0.50400001928E-02 0.  1.
    10030    2    1    2    0    0  0.00000000000E+00  0.00000000000E+00 -0.59801441365E+03  0.18939758552E+04  0.17970874495E+04 0.  0.
        2    1    3    3  502    0 -0.54816768007E+03 -0.22328247435E+03 -0.10115014533E+04  0.11719548024E+04  0.25500000920E-02 0.  1.
       -2    1    3    3    0  502  0.54816768007E+03  0.22328247435E+03  0.41348703962E+03  0.72202105285E+03  0.25500000920E-02 0. -1.
</event>
<event>
 5   0  0.8893075E-05  0.1802596E+04  0.7818609E-02  0.8704920E-01
       -2   -1    0    0    0  501  0.00000000000E+00  0.00000000000E+00  0.10015509408E+04  0.10015509408E+04  0.25500000920E-02 0.  1.
        2   -1    0    0  501    0  0.00000000000E+00  0.00000000000E+00 -0.81108038523E+03  0.81108038523E+03  0.25500000920E-02 0. -1.
    10030    2    1    2    0    0  0.00000000000E+00  0.00000000000E+00  0.19047055561E+03  0.18126313261E+04  0.18025962642E+04 0.  0.
        1    1    3    3  502    0 -0.50511860372E+03 -0.72456266329E+03 -0.85214179395E+02  0.88735410815E+03  0.50400001928E-02 0. -1.
       -1    1    3    3    0  502  0.50511860372E+03  0.72456266329E+03  0.27568473500E+03  0.92527721792E+03  0.50400001928E-02 0.  1.
</event>
<event>
 5   0  0.4335117E-05  0.1794942E+04  0.7818609E-02  0.8708994E-01
        1   -1    0    0  501    0  0.00000000000E+00  0.00000000000E+00  0.77708072033E+03  0.77708072035E+03  0.50400001928E-02 0.  1.
       -1   -1    0    0    0  501  0.00000000000E+00  0.00000000000E+00 -0.10365134580E+04  0.10365134580E+04  0.50400001928E-02 0. -1.
    10030    2    1    2    0    0  0.00000000000E+00  0.00000000000E+00 -0.25943273770E+03  0.18135941784E+04  0.17949424778E+04 0.  0.
        3    1    3    3  502    0 -0.22703584721E+03  0.44270587917E+03 -0.88441901168E+03  0.10147565076E+04  0.10100000352E+00 0. -1.
       -3    1    3    3    0  502  0.22703584721E+03 -0.44270587917E+03  0.62498627398E+03  0.79883767076E+03  0.10100000352E+00 0.  1.
</event>
<event>
 5   0  0.4335117E-05  0.1797013E+04  0.7818609E-02  0.8707889E-01
        1   -1    0    0  501    0  0.00000000000E+00  0.00000000000E+00  0.79390571861E+03  0.79390571863E+03  0.50400001928E-02 0.  1.
       -1   -1    0    0    0  501  0.00000000000E+00  0.00000000000E+00 -0.10168892593E+04  0.10168892593E+04  0.50400001928E-02 0. -1.
    10030    2    1    2    0    0  0.00000000000E+00  0.00000000000E+00 -0.22298354070E+03  0.18107949780E+04  0.17970132979E+04 0.  0.
        3    1    3    3  502    0 -0.42218711924E+03  0.63257763993E+03 -0.59361463502E+03  0.96476669683E+03  0.10100000352E+00 0. -1.
       -3    1    3    3    0  502  0.42218711924E+03 -0.63257763993E+03  0.37063109432E+03  0.84602828113E+03  0.10100000352E+00 0.  1.
</event>
<event>
 5   0  0.8892280E-05  0.1791954E+04  0.7818609E-02  0.8710590E-01
       -2   -1    0    0    0  501  0.00000000000E+00  0.00000000000E+00  0.16094479004E+04  0.16094479004E+04  0.25500000920E-02 0.  1.
        2   -1    0    0  501    0  0.00000000000E+00  0.00000000000E+00 -0.49878874378E+03  0.49878874378E+03  0.25500000920E-02 0. -1.
    10030    2    1    2    0    0  0.00000000000E+00  0.00000000000E+00  0.11106591566E+04  0.21082366442E+04  0.17919536784E+04 0.  0.
        4    1    3    3  502    0 -0.33723808978E+03 -0.64004631097E+03 -0.66531537459E+02  0.72651006033E+03  0.12699999809E+01 0. -1.
       -4    1    3    3    0  502  0.33723808978E+03  0.64004631097E+03  0.11771906941E+04  0.13817265838E+04  0.12699999809E+01 0.  1.
</event>
<event>
 5   0  0.8893075E-05  0.1797346E+04  0.7818609E-02  0.8707712E-01
       -2   -1    0    0    0  501  0.00000000000E+00  0.00000000000E+00  0.10487266026E+04  0.10487266026E+04  0.25500000920E-02 0. -1.
        2   -1    0    0  501    0  0.00000000000E+00  0.00000000000E+00 -0.77008890427E+03  0.77008890427E+03  0.25500000920E-02 0.  1.
    10030    2    1    2    0    0  0.00000000000E+00  0.00000000000E+00  0.27863769836E+03  0.18188155069E+04  0.17973455097E+04 0.  0.
        1    1    3    3  502    0 -0.58889070323E+03 -0.14277977397E+02  0.82611344564E+03  0.10146228590E+04  0.50400001928E-02 0. -1.
       -1    1    3    3    0  502  0.58889070323E+03  0.14277977397E+02 -0.54747574728E+03  0.80419264787E+03  0.50400001928E-02 0.  1.
</event>
<event>
 5   0  0.3270375E-05  0.1800558E+04  0.7818609E-02  0.8706003E-01
        4   -1    0    0  501    0  0.00000000000E+00  0.00000000000E+00  0.87467463202E+03  0.87467555402E+03  0.12699999809E+01 0. -1.
       -4   -1    0    0    0  501  0.00000000000E+00  0.00000000000E+00 -0.92663153833E+03  0.92663240863E+03  0.12699999809E+01 0.  1.
    10030    2    1    2    0    0  0.00000000000E+00  0.00000000000E+00 -0.51956906314E+02  0.18013079627E+04  0.18005584845E+04 0.  0.
        1    1    3    3  502    0  0.85946473671E+03 -0.24176185906E+03 -0.14167383004E+03  0.90399109746E+03  0.50400001928E-02 0.  1.
       -1    1    3    3    0  502 -0.85946473671E+03  0.24176185906E+03  0.89716923728E+02  0.89731686520E+03  0.50400001928E-02 0. -1.
</event>
<event>
 5   0  0.4494757E-05  0.1808191E+04  0.7818609E-02  0.8701956E-01
       -1   -1    0    0    0  501  0.00000000000E+00  0.00000000000E+00  0.74936096668E+03  0.74936096670E+03  0.50400001928E-02 0.  1.
        1   -1    0    0  501    0  0.00000000000E+00  0.00000000000E+00 -0.10907805905E+04  0.10907805905E+04  0.50400001928E-02 0. -1.
    10030    2    1    2    0    0  0.00000000000E+00  0.00000000000E+00 -0.34141962381E+03  0.18401415572E+04  0.18081906954E+04 0.  0.
        4    1    3    3  502    0 -0.79014430773E+03  0.24390948809E+03 -0.54263574231E+03  0.98907786708E+03  0.12699999809E+01 0. -1.
       -4    1    3    3    0  502  0.79014430773E+03 -0.24390948809E+03  0.20121611849E+03  0.85106369013E+03  0.12699999809E+01 0.  1.
</event>
<event>
 5   0  0.4623665E-05  0.1813329E+04  0.7818609E-02  0.8699243E-01
       -1   -1    0    0    0  501  0.00000000000E+00  0.00000000000E+00  0.61098438182E+03  0.61098438184E+03  0.50400001928E-02 0. -1.
        1   -1    0    0  501    0  0.00000000000E+00  0.00000000000E+00 -0.13454361592E+04  0.13454361593E+04  0.50400001928E-02 0.  1.
    10030    2    1    2    0    0  0.00000000000E+00  0.00000000000E+00 -0.73445177743E+03  0.19564205411E+04  0.18133289608E+04 0.  0.
        5    1    3    3  502    0 -0.10498532923E+02 -0.58985518280E+03 -0.11100144071E+04  0.12570574489E+04  0.46999998093E+01 0.  1.
       -5    1    3    3    0  502  0.10498532923E+02  0.58985518280E+03  0.37556262970E+03  0.69936309217E+03  0.46999998093E+01 0. -1.
</event>
<event>
 5   0  0.8802655E-05  0.1798582E+04  0.7818609E-02  0.8707054E-01
       -2   -1    0    0    0  501  0.00000000000E+00  0.00000000000E+00  0.82491046320E+03  0.82491046321E+03  0.25500000920E-02 0. -1.
        2   -1    0    0  501    0  0.00000000000E+00  0.00000000000E+00 -0.98037845246E+03  0.98037845246E+03  0.25500000920E-02 0.  1.
    10030    2    1    2    0    0  0.00000000000E+00  0.00000000000E+00 -0.15546798926E+03  0.18052889157E+04  0.17985821564E+04 0.  0.
        2    1    3    3  502    0  0.71835884295E+03  0.78789590349E+02  0.45949751794E+03  0.85637911919E+03  0.25500000920E-02 0. -1.
       -2    1    3    3    0  502 -0.71835884295E+03 -0.78789590349E+02 -0.61496550719E+03  0.94890979647E+03  0.25500000920E-02 0.  1.
</event>
<event>
 5   0  0.4494757E-05  0.1804163E+04  0.7818609E-02  0.8704089E-01
        1   -1    0    0  501    0  0.00000000000E+00  0.00000000000E+00  0.13761120809E+04  0.13761120809E+04  0.50400001928E-02 0. -1.
       -1   -1    0    0    0  501  0.00000000000E+00  0.00000000000E+00 -0.59134070905E+03  0.59134070907E+03  0.50400001928E-02 0.  1.
    10030    2    1    2    0    0  0.00000000000E+00  0.00000000000E+00  0.78477137187E+03  0.19674527900E+04  0.18041630677E+04 0.  0.
        4    1    3    3  502    0 -0.53148071287E+03 -0.13780933873E+03 -0.38813588611E+03  0.67239440880E+03  0.12699999809E+01 0.  1.
       -4    1    3    3    0  502  0.53148071287E+03  0.13780933873E+03  0.11729072580E+04  0.12950583812E+04  0.12699999809E+01 0. -1.
</event>
<event>
 5   0  0.9184414E-05  0.1801268E+04  0.7818609E-02  0.8705626E-01
       -2   -1    0    0    0  501  0.00000000000E+00  0.00000000000E+00  0.99832962531E+03  0.99832962532E+03  0.25500000920E-02 0.  1.
        2   -1    0    0  501    0  0.00000000000E+00  0.00000000000E+00 -0.81249833215E+03  0.81249833215E+03  0.25500000920E-02 0. -1.
    10030    2    1    2    0    0  0.00000000000E+00  0.00000000000E+00  0.18583129317E+03  0.18108279575E+04  0.18012675043E+04 0.  0.
        5    1    3    3  502    0 -0.27985060009E+03  0.57382282180E+03 -0.54569614245E+03  0.83987818109E+03  0.46999998093E+01 0. -1.
       -5    1    3    3    0  502  0.27985060009E+03 -0.57382282180E+03  0.73152743562E+03  0.97094977638E+03  0.46999998093E+01 0.  1.
</event>
<event>
 5   0  0.4623665E-05  0.1797280E+04  0.7818609E-02  0.8707747E-01
       -1   -1    0    0    0  501  0.00000000000E+00  0.00000000000E+00  0.36496281476E+03  0.36496281479E+03  0.50400001928E-02 0.  1.
        1   -1    0    0  501    0  0.00000000000E+00  0.00000000000E+00 -0.22127015307E+04  0.22127015307E+04  0.50400001928E-02 0. -1.
    10030    2    1    2    0    0  0.00000000000E+00  0.00000000000E+00 -0.18477387160E+04  0.25776643455E+04  0.17972799214E+04 0.  0.
        5    1    3    3  502    0  0.51296103845E+03  0.26446430236E+03  0.64026209139E+02  0.58068221916E+03  0.46999998093E+01 0.  1.
       -5    1    3    3    0  502 -0.51296103845E+03 -0.26446430236E+03 -0.19117649251E+04  0.19969821264E+04  0.46999998093E+01 0. -1.
</event>
<event>
 5   0  0.4535100E-05  0.1801748E+04  0.7818609E-02  0.8705370E-01
        1   -1    0    0  501    0  0.00000000000E+00  0.00000000000E+00  0.61017781315E+03  0.61017781317E+03  0.50400001928E-02 0. -1.
       -1   -1    0    0    0  501  0.00000000000E+00  0.00000000000E+00 -0.13300615291E+04  0.13300615291E+04  0.50400001928E-02 0.  1.
    10030    2    1    2    0    0  0.00000000000E+00  0.00000000000E+00 -0.71988371595E+03  0.19402393423E+04  0.18017480792E+04 0.  0.
        1    1    3    3  502    0 -0.17858669891E+03 -0.66275865392E+03 -0.98825521859E+03  0.12032417128E+04  0.50400001928E-02 0.  1.
       -1    1    3    3    0  502  0.17858669891E+03  0.66275865392E+03  0.26837150264E+03  0.73699762946E+03  0.50400001928E-02 0. -1.
</event>
<event>
 5   0  0.8802655E-05  0.1799588E+04  0.7818609E-02  0.8706518E-01
        2   -1    0    0  501    0  0.00000000000E+00  0.00000000000E+00  0.17912772668E+04  0.17912772668E+04  0.25500000920E-02 0. -1.
       -2   -1    0    0    0  501  0.00000000000E+00  0.00000000000E+00 -0.45198455507E+03  0.45198455508E+03  0.25500000920E-02 0.  1.
    10030    2    1    2    0    0  0.00000000000E+00  0.00000000000E+00  0.13392927117E+04  0.22432618219E+04  0.17995884623E+04 0.  0.
        2    1    3    3  502    0 -0.81557077369E+03  0.28718818098E+03  0.98002499386E+03  0.13069360072E+04  0.25500000920E-02 0.  1.
       -2    1    3    3    0  502  0.81557077369E+03 -0.28718818098E+03  0.35926771784E+03  0.93632581470E+03  0.25500000920E-02 0. -1.
</event>
<event>
 5   0  0.4623665E-05  0.1798484E+04  0.7818609E-02  0.8707106E-01
        1   -1    0    0  501    0  0.00000000000E+00  0.00000000000E+00  0.96730132972E+03  0.96730132974E+03  0.50400001928E-02 0.  1.
       -1   -1    0    0    0  501  0.00000000000E+00  0.00000000000E+00 -0.83597163591E+03  0.83597163593E+03  0.50400001928E-02 0. -1.
    10030    2    1    2    0    0  0.00000000000E+00  0.00000000000E+00  0.13132969381E+03  0.18032729657E+04  0.17984843342E+04 0.  0.
        5    1    3    3  502    0 -0.85462211947E+03  0.44725946729E+02 -0.21117719054E+03  0.88147448811E+03  0.46999998093E+01 0. -1.
       -5    1    3    3    0  502  0.85462211947E+03 -0.44725946729E+02  0.34250688435E+03  0.92179847755E+03  0.46999998093E+01 0.  1.
</event>
<event>
 5   0  0.8893075E-05  0.1799292E+04  0.7818609E-02  0.8706676E-01
        2   -1    0    0  501    0  0.00000000000E+00  0.00000000000E+00  0.59846079886E+03  0.59846079886E+03  0.25500000920E-02 0.  1.
       -2   -1    0    0    0  501  0.00000000000E+00  0.00000000000E+00 -0.13524076006E+04  0.13524076006E+04  0.25500000920E-02 0. -1.
    10030    2    1    2    0    0  0.00000000000E+00  0.00000000000E+00 -0.75394680179E+03  0.19508683995E+04  0.17992920086E+04 0.  0.
        1    1    3    3  502    0 -0.65810222930E+03 -0.22356589667E+03 -0.99630513350E+03  0.12147856492E+04  0.50400001928E-02 0. -1.
       -1    1    3    3    0  502  0.65810222930E+03  0.22356589667E+03  0.24235833172E+03  0.73608275034E+03  0.50400001928E-02 0.  1.
</event>
<event>
 5   0  0.4535100E-05  0.1795666E+04  0.7818609E-02  0.8708608E-01
       -1   -1    0    0    0  501  0.00000000000E+00  0.00000000000E+00  0.11476996253E+04  0.11476996253E+04  0.50400001928E-02 0.  1.
        1   -1    0    0  501    0  0.00000000000E+00  0.00000000000E+00 -0.70236485411E+03  0.70236485412E+03  0.50400001928E-02 0. -1.
    10030    2    1    2    0    0  0.00000000000E+00  0.00000000000E+00  0.44533477122E+03  0.18500644795E+04  0.17956657595E+04 0.  0.
        1    1    3    3  502    0 -0.77673557534E+02 -0.85581172250E+03 -0.45322073758E+02  0.86052366400E+03  0.50400001928E-02 0. -1.
       -1    1    3    3    0  502  0.77673557534E+02  0.85581172250E+03  0.49065684498E+03  0.98954081546E+03  0.50400001928E-02 0.  1.
</event>
<event>
 5   0  0.4578107E-05  0.1801614E+04  0.7818609E-02  0.8705442E-01
        1   -1    0    0  501    0  0.00000000000E+00  0.00000000000E+00  0.95061619718E+03  0.95061619719E+03  0.50400001928E-02 0.  1.
       -1   -1    0    0    0  501  0.00000000000E+00  0.00000000000E+00 -0.85360767155E+03  0.85360767156E+03  0.50400001928E-02 0. -1.
    10030    2    1    2    0    0  0.00000000000E+00  0.00000000000E+00  0.97008525632E+02  0.18042238688E+04  0.18016140304E+04 0.  0.
        2    1    3    3  502    0  0.29201724632E+03 -0.67306751326E+02  0.89923412582E+03  0.94785351398E+03  0.25500000920E-02 0.  1.
       -2    1    3    3    0  502 -0.29201724632E+03  0.67306751326E+02 -0.80222560019E+03  0.85637035477E+03  0.25500000920E-02 0. -1.
</event>
<event>
 5   0  0.8892280E-05  0.1786262E+04  0.7818609E-02  0.8713640E-01
        2   -1    0    0  501    0  0.00000000000E+00  0.00000000000E+00  0.14359068049E+04  0.14359068049E+04  0.25500000920E-02 0. -1.
       -2   -1    0    0    0  501  0.00000000000E+00  0.00000000000E+00 -0.55552551601E+03  0.55552551601E+03  0.25500000920E-02 0.  1.
    10030    2    1    2    0    0  0.00000000000E+00  0.00000000000E+00  0.88038128887E+03  0.19914323209E+04  0.17862618719E+04 0.  0.
        4    1    3    3  502    0  0.46537541528E+03  0.70461699489E+03  0.11587960639E+03  0.85234328923E+03  0.12699999809E+01 0. -1.
       -4    1    3    3    0  502 -0.46537541528E+03 -0.70461699489E+03  0.76450168248E+03  0.11390890317E+04  0.12699999809E+01 0.  1.
</event>
<event>
 5   0  0.8802655E-05  0.1785330E+04  0.7818609E-02  0.8714140E-01
        2   -1    0    0  501    0  0.00000000000E+00  0.00000000000E+00  0.18885979677E+04  0.18885979677E+04  0.25500000920E-02 0.  1.
       -2   -1    0    0    0  501  0.00000000000E+00  0.00000000000E+00 -0.42192735165E+03  0.42192735166E+03  0.25500000920E-02 0. -1.
    10030    2    1    2    0    0  0.00000000000E+00  0.00000000000E+00  0.14666706161E+04  0.23105253194E+04  0.17853303771E+04 0.  0.
        2    1    3    3  502    0 -0.32736522479E+03 -0.32634572626E+03  0.17216472653E+04  0.17826213365E+04  0.25500000920E-02 0.  1.
       -2    1    3    3    0  502  0.32736522479E+03  0.32634572626E+03 -0.25497664921E+03  0.52790398284E+03  0.25500000920E-02 0. -1.
</event>
<event>
 5   0  0.8892280E-05  0.1804875E+04  0.7818609E-02  0.8703711E-01
       -2   -1    0    0    0  501  0.00000000000E+00  0.00000000000E+00  0.79752235434E+03  0.79752235434E+03  0.25500000920E-02 0. -1.
        2   -1    0    0  501    0  0.00000000000E+00  0.00000000000E+00 -0.10211540452E+04  0.10211540452E+04  0.25500000920E-02 0.  1.
    10030    2    1    2    0    0  0.00000000000E+00  0.00000000000E+00 -0.22363169084E+03  0.18186763995E+04  0.18048747084E+04 0.  0.
        4    1    3    3  502    0  0.78763266576E+03 -0.43951616939E+03 -0.82405568028E+02  0.90572179496E+03  0.12699999809E+01 0.  1.
       -4    1    3    3    0  502 -0.78763266576E+03  0.43951616939E+03 -0.14122612281E+03  0.91295460456E+03  0.12699999809E+01 0. -1.
</event>
<event>
 5   0  0.4578107E-05  0.1800895E+04  0.7818609E-02  0.8705824E-01
        1   -1    0    0  501    0  0.00000000000E+00  0.00000000000E+00  0.12158824783E+04  0.12158824783E+04  0.50400001928E-02 0. -1.
       -1   -1    0    0    0  501  0.00000000000E+00  0.00000000000E+00 -0.66684520527E+03  0.66684520529E+03  0.50400001928E-02 0.  1.
    10030    2    1    2    0    0  0.00000000000E+00  0.00000000000E+00  0.54903727304E+03  0.18827276836E+04  0.18008946675E+04 0.  0.
        2    1    3    3  502    0  0.64349553327E+03 -0.44957365634E+03 -0.18666439802E+03  0.80687456975E+03  0.25500000920E-02 0.  1.
       -2    1    3    3    0  502 -0.64349553327E+03  0.44957365634E+03  0.73570167107E+03  0.10758531139E+04  0.25500000920E-02 0. -1.
</event>
<event>
 5   0  0.8893075E-05  0.1787855E+04  0.7818609E-02  0.8712785E-01
       -2   -1    0    0    0  501  0.00000000000E+00  0.00000000000E+00  0.72089488634E+03  0.72089488635E+03  0.25500000920E-02 0.  1.
        2   -1    0    0  501    0  0.00000000000E+00  0.00000000000E+00 -0.11084917909E+04  0.11084917909E+04  0.25500000920E-02 0. -1.
    10030    2    1    2    0    0  0.00000000000E+00  0.00000000000E+00 -0.38759690459E+03  0.18293866773E+04  0.17878546514E+04 0.  0.
        1    1    3    3  502    0  0.32976684924E+03  0.76157172184E+03  0.14613638868E+03  0.84267046138E+03  0.50400001928E-02 0.  1.
       -1    1    3    3    0  502 -0.32976684924E+03 -0.76157172184E+03 -0.53373329327E+03  0.98671621590E+03  0.50400001928E-02 0. -1.
</event>
<event>
 5   0  0.4494757E-05  0.1807964E+04  0.7818609E-02  0.8702076E-01
        1   -1    0    0  501    0  0.00000000000E+00  0.00000000000E+00  0.10690734165E+04  0.10690734165E+04  0.50400001928E-02 0. -1.
       -1   -1    0    0    0  501  0.00000000000E+00  0.00000000000E+00 -0.76438466898E+03  0.76438466899E+03  0.50400001928E-02 0.  1.
    10030    2    1    2    0    0  0.00000000000E+00  0.00000000000E+00  0.30468874750E+03  0.18334580855E+04  0.18079638598E+04 0.  0.
        4    1    3    3  502    0  0.52680257865E+03 -0.13965734965E+03  0.88373314983E+03  0.10382730976E+04  0.12699999809E+01 0. -1.
       -4    1    3    3    0  502 -0.52680257865E+03  0.13965734965E+03 -0.57904440233E+03  0.79518498788E+03  0.12699999809E+01 0.  1.
</event>
<event>
 5   0  0.4578107E-05  0.1700957E+04  0.7818609E-02  0.8760819E-01
       -1   -1    0    0    0  501  0.00000000000E+00  0.00000000000E+00  0.79285671763E+03  0.79285671764E+03  0.50400001928E-02 0.  1.
        1   -1    0    0  501    0  0.00000000000E+00  0.00000000000E+00 -0.91228794990E+03  0.91228794991E+03  0.50400001928E-02 0. -1.
    10030    2    1    2    0    0  0.00000000000E+00  0.00000000000E+00 -0.11943123227E+03  0.17051446676E+04  0.17009569419E+04 0.  0.
        2    1    3    3  502    0 -0.14719664797E+03 -0.53268902442E+03  0.58831940144E+03  0.80718285910E+03  0.25500000920E-02 0.  1.
       -2    1    3    3    0  502  0.14719664797E+03  0.53268902442E+03 -0.70775063371E+03  0.89796180845E+03  0.25500000920E-02 0. -1.
</event>
<event>
 5   0  0.4535100E-05  0.1807983E+04  0.7818609E-02  0.8702066E-01
        1   -1    0    0  501    0  0.00000000000E+00  0.00000000000E+00  0.14781980380E+04  0.14781980380E+04  0.50400001928E-02 0.  1.
       -1   -1    0    0    0  501  0.00000000000E+00  0.00000000000E+00 -0.55283556300E+03  0.55283556302E+03  0.50400001928E-02 0. -1.
    10030    2    1    2    0    0  0.00000000000E+00  0.00000000000E+00  0.92536247500E+03  0.20310336010E+04  0.18079827926E+04 0.  0.
        1    1    3    3  502    0 -0.39665275470E+03  0.56995606361E+03  0.11128952394E+04  0.13117618443E+04  0.50400001928E-02 0.  1.
       -1    1    3    3    0  502  0.39665275470E+03 -0.56995606361E+03 -0.18753276442E+03  0.71927175672E+03  0.50400001928E-02 0. -1.
</event>
<event>
 5   0  0.8893075E-05  0.1795934E+04  0.7818609E-02  0.8708465E-01
       -2   -1    0    0    0  501  0.00000000000E+00  0.00000000000E+00  0.37997712013E+03  0.37997712014E+03  0.25500000920E-02 0.  1.
        2   -1    0    0  501    0  0.00000000000E+00  0.00000000000E+00 -0.21220883966E+04  0.21220883966E+04  0.25500000920E-02 0. -1.
    10030    2    1    2    0    0  0.00000000000E+00  0.00000000000E+00 -0.17421112765E+04  0.25020655167E+04  0.17959343391E+04 0.  0.
        1    1    3    3  502    0  0.29774597913E+03  0.84520192842E+03 -0.79070785587E+03  0.11950890683E+04  0.50400001928E-02 0.  1.
       -1    1    3    3    0  502 -0.29774597913E+03 -0.84520192842E+03 -0.95140342058E+03  0.13069764484E+04  0.50400001928E-02 0. -1.
</event>
<event>
 5   0  0.4335117E-05  0.1795106E+04  0.7818609E-02  0.8708906E-01
       -1   -1    0    0    0  501  0.00000000000E+00  0.00000000000E+00  0.63901195066E+03  0.63901195068E+03  0.50400001928E-02 0.  1.
        1   -1    0    0  501    0  0.00000000000E+00  0.00000000000E+00 -0.12606985222E+04  0.12606985222E+04  0.50400001928E-02 0. -1.
    10030    2    1    2    0    0  0.00000000000E+00  0.00000000000E+00 -0.62168657151E+03  0.18997104729E+04  0.17951060380E+04 0.  0.
        3    1    3    3  502    0 -0.10435437757E+03  0.89144890497E+03 -0.30500594087E+03  0.94794494590E+03  0.10100000352E+00 0. -1.
       -3    1    3    3    0  502  0.10435437757E+03 -0.89144890497E+03 -0.31668063064E+03  0.95176552696E+03  0.10100000352E+00 0.  1.
</event>
<event>
 5   0  0.4623665E-05  0.1809123E+04  0.7818609E-02  0.8701463E-01
        1   -1    0    0  501    0  0.00000000000E+00  0.00000000000E+00  0.53174623831E+03  0.53174623833E+03  0.50400001928E-02 0. -1.
       -1   -1    0    0    0  501  0.00000000000E+00  0.00000000000E+00 -0.15387637536E+04  0.15387637536E+04  0.50400001928E-02 0.  1.
    10030    2    1    2    0    0  0.00000000000E+00  0.00000000000E+00 -0.10070175153E+04  0.20705099919E+04  0.18091233652E+04 0.  0.
        5    1    3    3  502    0  0.56478752335E+03  0.46290579678E+03  0.10741661559E+03  0.73812406988E+03  0.46999998093E+01 0. -1.
       -5    1    3    3    0  502 -0.56478752335E+03 -0.46290579678E+03 -0.11144341308E+04  0.13323859220E+04  0.46999998093E+01 0.  1.
</event>
<event>
 5   0  0.4335117E-05  0.1786086E+04  0.7818609E-02  0.8713734E-01
        1   -1    0    0  501    0  0.00000000000E+00  0.00000000000E+00  0.14699473305E+04  0.14699473305E+04  0.50400001928E-02 0. -1.
       -1   -1    0    0    0  501  0.00000000000E+00  0.00000000000E+00 -0.54255401334E+03  0.54255401336E+03  0.50400001928E-02 0.  1.
    10030    2    1    2    0    0  0.00000000000E+00  0.00000000000E+00  0.92739331715E+03  0.20125013439E+04  0.17860860266E+04 0.  0.
        3    1    3    3  502    0  0.38705103906E+02  0.84370394875E+03  0.79063631956E+03  0.11569097796E+04  0.10100000352E+00 0. -1.
       -3    1    3    3    0  502 -0.38705103906E+02 -0.84370394875E+03  0.13675699760E+03  0.85559156424E+03  0.10100000352E+00 0.  1.
</event>
<event>
 5   0  0.8802655E-05  0.1783896E+04  0.7818609E-02  0.8714911E-01
        2   -1    0    0  501    0  0.00000000000E+00  0.00000000000E+00  0.13833717501E+04  0.13833717501E+04  0.25500000920E-02 0. -1.
       -2   -1    0    0    0  501  0.00000000000E+00  0.00000000000E+00 -0.57509551806E+03  0.57509551807E+03  0.25500000920E-02 0.  1.
    10030    2    1    2    0    0  0.00000000000E+00  0.00000000000E+00  0.80827623208E+03  0.19584672682E+04  0.17838956173E+04 0.  0.
        2    1    3    3  502    0 -0.63679544855E+03  0.12595084208E+03 -0.26744241084E+03  0.70206659302E+03  0.25500000920E-02 0.  1.
       -2    1    3    3    0  502  0.63679544855E+03 -0.12595084208E+03  0.10757186429E+04  0.12564006752E+04  0.25500000920E-02 0. -1.
</event>
<event>
 5   0  0.8802655E-05  0.1811426E+04  0.7818609E-02  0.8700247E-01
        2   -1    0    0  501    0  0.00000000000E+00  0.00000000000E+00  0.71204829003E+03  0.71204829004E+03  0.25500000920E-02 0.  1.
       -2   -1    0    0    0  501  0.00000000000E+00  0.00000000000E+00 -0.11520506412E+04  0.11520506412E+04  0.25500000920E-02 0. -1.
    10030    2    1    2    0    0  0.00000000000E+00  0.00000000000E+00 -0.44000235116E+03  0.18640989312E+04  0.18114256144E+04 0.  0.
        2    1    3    3  502    0  0.89695791469E+03  0.12461734194E+03 -0.23636017089E+03  0.93591084673E+03  0.25500000920E-02 0.  1.
       -2    1    3    3    0  502 -0.89695791469E+03 -0.12461734194E+03 -0.20364218027E+03  0.92818808451E+03  0.25500000920E-02 0. -1.
</event>
<event>
 5   0  0.8892280E-05  0.1795002E+04  0.7818609E-02  0.8708962E-01
        2   -1    0    0  501    0  0.00000000000E+00  0.00000000000E+00  0.15799056917E+04  0.15799056917E+04  0.25500000920E-02 0. -1.
       -2   -1    0    0    0  501  0.00000000000E+00  0.00000000000E+00 -0.50984590799E+03  0.50984590800E+03  0.25500000920E-02 0.  1.
    10030    2    1    2    0    0  0.00000000000E+00  0.00000000000E+00  0.10700597837E+04  0.20897515997E+04  0.17950024534E+04 0.  0.
        4    1    3    3  502    0  0.15422384883E+02 -0.23326075213E+03  0.15438381872E+04  0.15614372833E+04  0.12699999809E+01 0. -1.
       -4    1    3    3    0  502 -0.15422384883E+02  0.23326075213E+03 -0.47377840349E+03  0.52831431644E+03  0.12699999809E+01 0.  1.
</event>
<event>
 5   0  0.3270375E-05  0.1803628E+04  0.7818609E-02  0.8704373E-01
        3   -1    0    0  501    0  0.00000000000E+00  0.00000000000E+00  0.61684037036E+03  0.61684037863E+03  0.10100000352E+00 0.  1.
       -3   -1    0    0    0  501  0.00000000000E+00  0.00000000000E+00 -0.13184416827E+04  0.13184416865E+04  0.10100000352E+00 0. -1.
    10030    2    1    2    0    0  0.00000000000E+00  0.00000000000E+00 -0.70160131230E+03  0.19352820652E+04  0.18036275309E+04 0.  0.
        4    1    3    3  502    0 -0.87001904803E+03 -0.19832212171E+03 -0.49070877286E+03  0.10183621755E+04  0.12699999809E+01 0. -1.
       -4    1    3    3    0  502  0.87001904803E+03  0.19832212171E+03 -0.21089253944E+03  0.91691988963E+03  0.12699999809E+01 0.  1.
</event>
<event>
 5   0  0.4335117E-05  0.1801197E+04  0.7818609E-02  0.8705663E-01
        1   -1    0    0  501    0  0.00000000000E+00  0.00000000000E+00  0.12358319672E+04  0.12358319672E+04  0.50400001928E-02 0. -1.
       -1   -1    0    0    0  501  0.00000000000E+00  0.00000000000E+00 -0.65630083211E+03  0.65630083213E+03  0.50400001928E-02 0.  1.
    10030    2    1    2    0    0  0.00000000000E+00  0.00000000000E+00  0.57953113511E+03  0.18921327994E+04  0.18011968781E+04 0.  0.
        3    1    3    3  502    0  0.80305535139E+03  0.16318806468E+01 -0.13846321753E+03  0.81490651809E+03  0.10100000352E+00 0. -1.
       -3    1    3    3    0  502 -0.80305535139E+03 -0.16318806468E+01  0.71799435263E+03  0.10772262813E+04  0.10100000352E+00 0.  1.
</event>
<event>
 5   0  0.4494757E-05  0.1798960E+04  0.7818609E-02  0.8706853E-01
       -1   -1    0    0    0  501  0.00000000000E+00  0.00000000000E+00  0.88976527580E+03  0.88976527582E+03  0.50400001928E-02 0.  1.
        1   -1    0    0  501    0  0.00000000000E+00  0.00000000000E+00 -0.90930066959E+03  0.90930066960E+03  0.50400001928E-02 0. -1.
    10030    2    1    2    0    0  0.00000000000E+00  0.00000000000E+00 -0.19535393789E+02  0.17990659454E+04  0.17989598785E+04 0.  0.
        4    1    3    3  502    0 -0.31592546406E+03  0.45084146381E+03  0.70160793719E+03  0.89180840698E+03  0.12699999809E+01 0.  1.
       -4    1    3    3    0  502  0.31592546406E+03 -0.45084146381E+03 -0.72114333098E+03  0.90725753844E+03  0.12699999809E+01 0. -1.
</event>
<event>
 5   0  0.9184414E-05  0.1799360E+04  0.7818609E-02  0.8706640E-01
       -2   -1    0    0    0  501  0.00000000000E+00  0.00000000000E+00  0.49904543080E+03  0.49904543081E+03  0.25500000920E-02 0. -1.
        2   -1    0    0  501    0  0.00000000000E+00  0.00000000000E+00 -0.16219447915E+04  0.16219447915E+04  0.25500000920E-02 0.  1.
    10030    2    1    2    0    0  0.00000000000E+00  0.00000000000E+00 -0.11228993607E+04  0.21209902223E+04  0.17993600387E+04 0.  0.
        5    1    3    3  502    0  0.83522680375E+03  0.20507629834E+03 -0.25015792103E+03  0.89569033561E+03  0.46999998093E+01 0.  1.
       -5    1    3    3    0  502 -0.83522680375E+03 -0.20507629834E+03 -0.87274143966E+03  0.12252998867E+04  0.46999998093E+01 0. -1.
</event>
<event>
 5   0  0.4335117E-05  0.1802469E+04  0.7818609E-02  0.8704987E-01
       -1   -1    0    0    0  501  0.00000000000E+00  0.00000000000E+00  0.85859848483E+03  0.85859848485E+03  0.50400001928E-02 0. -1.
        1   -1    0    0  501    0  0.00000000000E+00  0.00000000000E+00 -0.94598813016E+03  0.94598813017E+03  0.50400001928E-02 0.  1.
    10030    2    1    2    0    0  0.00000000000E+00  0.00000000000E+00 -0.87389645324E+02  0.18045866150E+04  0.18024693898E+04 0.  0.
        3    1    3    3  502    0  0.60468914424E+03  0.12708363705E+03  0.61314345434E+03  0.87048498998E+03  0.10100000352E+00 0. -1.
       -3    1    3    3    0  502 -0.60468914424E+03 -0.12708363705E+03 -0.70053309967E+03  0.93410162504E+03  0.10100000352E+00 0.  1.
</event>
<event>
 5   0  0.4578107E-05  0.1797257E+04  0.7818609E-02  0.8707760E-01
       -1   -1    0    0    0  501  0.00000000000E+00  0.00000000000E+00  0.88508480958E+03  0.88508480959E+03  0.50400001928E-02 0.  1.
        1   -1    0    0  501    0  0.00000000000E+00  0.00000000000E+00 -0.91237911427E+03  0.91237911428E+03  0.50400001928E-02 0. -1.
    10030    2    1    2    0    0  0.00000000000E+00  0.00000000000E+00 -0.27294304691E+02  0.17974639239E+04  0.17972566813E+04 0.  0.
        2    1    3    3  502    0  0.15834806871E+03  0.50658565676E+03 -0.73887196611E+03  0.90974442610E+03  0.25500000920E-02 0. -1.
       -2    1    3    3    0  502 -0.15834806871E+03 -0.50658565676E+03  0.71157766142E+03  0.88771949778E+03  0.25500000920E-02 0.  1.
</event>
<event>
 5   0  0.9147432E-05  0.1734223E+04  0.7818609E-02  0.8742083E-01
       -2   -1    0    0    0  501  0.00000000000E+00  0.00000000000E+00  0.14336336843E+04  0.14336336843E+04  0.25500000920E-02 0.  1.
        2   -1    0    0  501    0  0.00000000000E+00  0.00000000000E+00 -0.52445890049E+03  0.52445890049E+03  0.25500000920E-02 0. -1.
    10030    2    1    2    0    0  0.00000000000E+00  0.00000000000E+00  0.90917478382E+03  0.19580925848E+04  0.17342225299E+04 0.  0.
        3    1    3    3  502    0  0.20970746241E+03 -0.18366991681E+03 -0.47248390518E+03  0.54859175074E+03  0.10100000352E+00 0. -1.
       -3    1    3    3    0  502 -0.20970746241E+03  0.18366991681E+03  0.13816586890E+04  0.14095008341E+04  0.10100000352E+00 0.  1.
</event>
<event>
 5   0  0.4335117E-05  0.1800506E+04  0.7818609E-02  0.8706031E-01
       -1   -1    0    0    0  501  0.00000000000E+00  0.00000000000E+00  0.55619718287E+03  0.55619718290E+03  0.50400001928E-02 0. -1.
        1   -1    0    0  501    0  0.00000000000E+00  0.00000000000E+00 -0.14571362624E+04  0.14571362624E+04  0.50400001928E-02 0.  1.
    10030    2    1    2    0    0  0.00000000000E+00  0.00000000000E+00 -0.90093907953E+03  0.20133334453E+04  0.18005055782E+04 0.  0.
        3    1    3    3  502    0  0.19774251719E+03 -0.62721033991E+03  0.23698541935E+03  0.69904006522E+03  0.10100000352E+00 0. -1.
       -3    1    3    3    0  502 -0.19774251719E+03  0.62721033991E+03 -0.11379244989E+04  0.13142933801E+04  0.10100000352E+00 0.  1.
</event>
<event>
 5   0  0.4335117E-05  0.1710074E+04  0.7818609E-02  0.8755640E-01
       -1   -1    0    0    0  501  0.00000000000E+00  0.00000000000E+00  0.91764194103E+03  0.91764194104E+03  0.50400001928E-02 0.  1.
        1   -1    0    0  501    0  0.00000000000E+00  0.00000000000E+00 -0.79670299331E+03  0.79670299333E+03  0.50400001928E-02 0. -1.
    10030    2    1    2    0    0  0.00000000000E+00  0.00000000000E+00  0.12093894772E+03  0.17143449344E+04  0.17100737776E+04 0.  0.
        3    1    3    3  502    0 -0.45587059526E+03 -0.45047243543E+02 -0.66330384537E+03  0.80611367391E+03  0.10100000352E+00 0. -1.
       -3    1    3    3    0  502  0.45587059526E+03  0.45047243543E+02  0.78424279309E+03  0.90823126047E+03  0.10100000352E+00 0.  1.
</event>
<event>
 5   0  0.4335117E-05  0.1815723E+04  0.7818609E-02  0.8697982E-01
       -1   -1    0    0    0  501  0.00000000000E+00  0.00000000000E+00  0.55552289967E+03  0.55552289969E+03  0.50400001928E-02 0.  1.
        1   -1    0    0  501    0  0.00000000000E+00  0.00000000000E+00 -0.14836700995E+04  0.14836700995E+04  0.50400001928E-02 0. -1.
    10030    2    1    2    0    0  0.00000000000E+00  0.00000000000E+00 -0.92814719982E+03  0.20391929992E+04  0.18157232343E+04 0.  0.
        3    1    3    3  502    0  0.26006418372E+03 -0.31714181381E+03 -0.13736951302E+04  0.14336145335E+04  0.10100000352E+00 0. -1.
       -3    1    3    3    0  502 -0.26006418372E+03  0.31714181381E+03  0.44554793034E+03  0.60557846573E+03  0.10100000352E+00 0.  1.
</event>
<event>
 5   0  0.3270375E-05  0.1802888E+04  0.7818609E-02  0.8704765E-01
        4   -1    0    0  501    0  0.00000000000E+00  0.00000000000E+00  0.66781777664E+03  0.66781898423E+03  0.12699999809E+01 0. -1.
       -4   -1    0    0    0  501  0.00000000000E+00  0.00000000000E+00 -0.12167982899E+04  0.12167989527E+04  0.12699999809E+01 0.  1.
    10030    2    1    2    0    0  0.00000000000E+00  0.00000000000E+00 -0.54898051326E+03  0.18846179369E+04  0.18028880065E+04 0.  0.
        1    1    3    3  502    0 -0.45722858790E+02  0.24755766351E+03 -0.11793077027E+04  0.12058781175E+04  0.50400001928E-02 0.  1.
       -1    1    3    3    0  502  0.45722858790E+02 -0.24755766351E+03  0.63032718947E+03  0.67873981936E+03  0.50400001928E-02 0. -1.
</event>
<event>
 5   0  0.4494757E-05  0.1781254E+04  0.7818609E-02  0.8716332E-01
       -1   -1    0    0    0  501  0.00000000000E+00  0.00000000000E+00  0.48932574227E+03  0.48932574230E+03  0.50400001928E-02 0. -1.
        1   -1    0    0  501    0  0.00000000000E+00  0.00000000000E+00 -0.16210397151E+04  0.16210397151E+04  0.50400001928E-02 0.  1.
    10030    2    1    2    0    0  0.00000000000E+00  0.00000000000E+00 -0.11317139728E+04  0.21103654574E+04  0.17812540098E+04 0.  0.
        4    1    3    3  502    0 -0.37959253616E+03 -0.22705342276E+03  0.34999777395E+03  0.56404237870E+03  0.12699999809E+01 0. -1.
       -4    1    3    3    0  502  0.37959253616E+03  0.22705342276E+03 -0.14817117468E+04  0.15463230787E+04  0.12699999809E+01 0.  1.
</event>
<event>
 5   0  0.4494757E-05  0.1789138E+04  0.7818609E-02  0.8712097E-01
       -1   -1    0    0    0  501  0.00000000000E+00  0.00000000000E+00  0.61907724456E+03  0.61907724458E+03  0.50400001928E-02 0. -1.
        1   -1    0    0  501    0  0.00000000000E+00  0.00000000000E+00 -0.12926551629E+04  0.12926551629E+04  0.50400001928E-02 0.  1.
    10030    2    1    2    0    0  0.00000000000E+00  0.00000000000E+00 -0.67357791834E+03  0.19117324075E+04  0.17891376654E+04 0.  0.
        4    1    3    3  502    0 -0.36643773163E+02 -0.76042633987E+03 -0.83872217557E+03  0.11327168601E+04  0.12699999809E+01 0.  1.
       -4    1    3    3    0  502  0.36643773163E+02  0.76042633987E+03  0.16514425722E+03  0.77901554739E+03  0.12699999809E+01 0. -1.
</event>
<event>
 5   0  0.9147432E-05  0.1794002E+04  0.7818609E-02  0.8709496E-01
       -2   -1    0    0    0  501  0.00000000000E+00  0.00000000000E+00  0.57595401386E+03  0.57595401386E+03  0.25500000920E-02 0.  1.
        2   -1    0    0  501    0  0.00000000000E+00  0.00000000000E+00 -0.13970056074E+04  0.13970056074E+04  0.25500000920E-02 0. -1.
    10030    2    1    2    0    0  0.00000000000E+00  0.00000000000E+00 -0.82105159355E+03  0.19729596213E+04  0.17940022151E+04 0.  0.
        3    1    3    3  502    0  0.78730561430E+03 -0.39273852612E+03 -0.60264388273E+03  0.10664301851E+04  0.10100000352E+00 0.  1.
       -3    1    3    3    0  502 -0.78730561430E+03  0.39273852612E+03 -0.21840771082E+03  0.90652943612E+03  0.10100000352E+00 0. -1.
</event>
<event>
 5   0  0.8892280E-05  0.1794011E+04  0.7818609E-02  0.8709491E-01
        2   -1    0    0  501    0  0.00000000000E+00  0.00000000000E+00  0.20778440253E+04  0.20778440253E+04  0.25500000920E-02 0. -1.
       -2   -1    0    0    0  501  0.00000000000E+00  0.00000000000E+00 -0.38723742059E+03  0.38723742060E+03  0.25500000920E-02 0.  1.
    10030    2    1    2    0    0  0.00000000000E+00  0.00000000000E+00  0.16906066047E+04  0.24650814459E+04  0.17940111045E+04 0.  0.
        4    1    3    3  502    0  0.22623560537E+03  0.11279350512E+03  0.20278844751E+04  0.20435806765E+04  0.12699999809E+01 0. -1.
       -4    1    3    3    0  502 -0.22623560537E+03 -0.11279350512E+03 -0.33727787036E+03  0.42150076948E+03  0.12699999809E+01 0.  1.
</event>
<event>
 5   0  0.8892280E-05  0.1783171E+04  0.7818609E-02  0.8715301E-01
        2   -1    0    0  501    0  0.00000000000E+00  0.00000000000E+00  0.10318856978E+04  0.10318856978E+04  0.25500000920E-02 0. -1.
       -2   -1    0    0    0  501  0.00000000000E+00  0.00000000000E+00 -0.77036103369E+03  0.77036103369E+03  0.25500000920E-02 0.  1.
    10030    2    1    2    0    0  0.00000000000E+00  0.00000000000E+00  0.26152466415E+03  0.18022467315E+04  0.17831708082E+04 0.  0.
        4    1    3    3  502    0  0.59996083371E+03  0.10253223909E+03 -0.52771098422E+03  0.80557206866E+03  0.12699999809E+01 0.  1.
       -4    1    3    3    0  502 -0.59996083371E+03 -0.10253223909E+03  0.78923564838E+03  0.99667466287E+03  0.12699999809E+01 0. -1.
</event>
<event>
 5   0  0.4623665E-05  0.1800088E+04  0.7818609E-02  0.8706253E-01
        1   -1    0    0  501    0  0.00000000000E+00  0.00000000000E+00  0.11941603888E+04  0.11941603888E+04  0.50400001928E-02 0.  1.
       -1   -1    0    0    0  501  0.00000000000E+00  0.00000000000E+00 -0.67836735646E+03  0.67836735648E+03  0.50400001928E-02 0. -1.
    10030    2    1    2    0    0  0.00000000000E+00  0.00000000000E+00  0.51579303232E+03  0.18725277453E+04  0.18000882491E+04 0.  0.
        5    1    3    3  502    0 -0.41275505130E+03 -0.31864512497E+03 -0.50521588757E+03  0.72606241542E+03  0.46999998093E+01 0. -1.
       -5    1    3    3    0  502  0.41275505130E+03  0.31864512497E+03  0.10210089199E+04  0.11464653298E+04  0.46999998093E+01 0.  1.
</event>
<event>
 5   0  0.4335117E-05  0.1800457E+04  0.7818609E-02  0.8706056E-01
        1   -1    0    0  501    0  0.00000000000E+00  0.00000000000E+00  0.10145196839E+04  0.10145196839E+04  0.50400001928E-02 0. -1.
       -1   -1    0    0    0  501  0.00000000000E+00  0.00000000000E+00 -0.79881309825E+03  0.79881309827E+03  0.50400001928E-02 0.  1.
    10030    2    1    2    0    0  0.00000000000E+00  0.00000000000E+00  0.21570658567E+03  0.18133327822E+04  0.18004572886E+04 0.  0.
        3    1    3    3  502    0  0.22277252743E+03 -0.18798161293E+03  0.96567594270E+03  0.10087094340E+04  0.10100000352E+00 0. -1.
       -3    1    3    3    0  502 -0.22277252743E+03  0.18798161293E+03 -0.74996935702E+03  0.80462334819E+03  0.10100000352E+00 0.  1.
</event>
<event>
 5   0  0.8892280E-05  0.1799078E+04  0.7818609E-02  0.8706790E-01
        2   -1    0    0  501    0  0.00000000000E+00  0.00000000000E+00  0.15892647506E+04  0.15892647506E+04  0.25500000920E-02 0.  1.
       -2   -1    0    0    0  501  0.00000000000E+00  0.00000000000E+00 -0.50914763612E+03  0.50914763613E+03  0.25500000920E-02 0. -1.
    10030    2    1    2    0    0  0.00000000000E+00  0.00000000000E+00  0.10801171145E+04  0.20984123867E+04  0.17990779760E+04 0.  0.
        4    1    3    3  502    0 -0.32156216699E+03 -0.10039292244E+03  0.15129134144E+04  0.15499643798E+04  0.12699999809E+01 0.  1.
       -4    1    3    3    0  502  0.32156216699E+03  0.10039292244E+03 -0.43279629999E+03  0.54844800692E+03  0.12699999809E+01 0. -1.
</event>
<event>
 5   0  0.9184414E-05  0.1799799E+04  0.7818609E-02  0.8706407E-01
       -2   -1    0    0    0  501  0.00000000000E+00  0.00000000000E+00  0.14152228514E+04  0.14152228514E+04  0.25500000920E-02 0. -1.
        2   -1    0    0  501    0  0.00000000000E+00  0.00000000000E+00 -0.57222001107E+03  0.57222001107E+03  0.25500000920E-02 0.  1.
    10030    2    1    2    0    0  0.00000000000E+00  0.00000000000E+00  0.84300284031E+03  0.19874428624E+04  0.17997986951E+04 0.  0.
        5    1    3    3  502    0  0.40007791409E+03  0.78917507101E+03  0.60273816971E+03  0.10705956385E+04  0.46999998093E+01 0.  1.
       -5    1    3    3    0  502 -0.40007791409E+03 -0.78917507101E+03  0.24026467059E+03  0.91684722390E+03  0.46999998093E+01 0. -1.
</event>
<event>
 5   0  0.4623665E-05  0.1821767E+04  0.7818609E-02  0.8694809E-01
       -1   -1    0    0    0  501  0.00000000000E+00  0.00000000000E+00  0.56884238727E+03  0.56884238729E+03  0.50400001928E-02 0. -1.
        1   -1    0    0  501    0  0.00000000000E+00  0.00000000000E+00 -0.14585919735E+04  0.14585919735E+04  0.50400001928E-02 0.  1.
    10030    2    1    2    0    0  0.00000000000E+00  0.00000000000E+00 -0.88974958621E+03  0.20274343608E+04  0.18217672083E+04 0.  0.
        5    1    3    3  502    0 -0.86829960321E+03 -0.13190893977E+03 -0.17606374573E+03  0.89574812413E+03  0.46999998093E+01 0. -1.
       -5    1    3    3    0  502  0.86829960321E+03  0.13190893977E+03 -0.71368584048E+03  0.11316862366E+04  0.46999998093E+01 0.  1.
</event>
<event>
 5   0  0.4335117E-05  0.1798154E+04  0.7818609E-02  0.8707282E-01
       -1   -1    0    0    0  501  0.00000000000E+00  0.00000000000E+00  0.58686763480E+03  0.58686763482E+03  0.50400001928E-02 0.  1.
        1   -1    0    0  501    0  0.00000000000E+00  0.00000000000E+00 -0.13773801409E+04  0.13773801409E+04  0.50400001928E-02 0. -1.
    10030    2    1    2    0    0  0.00000000000E+00  0.00000000000E+00 -0.79051250613E+03  0.19642477758E+04  0.17981544156E+04 0.  0.
        3    1    3    3  502    0  0.12278675094E+03  0.10763882117E+03 -0.13610468761E+04  0.13708068103E+04  0.10100000352E+00 0. -1.
       -3    1    3    3    0  502 -0.12278675094E+03 -0.10763882117E+03  0.57053436994E+03  0.59344096548E+03  0.10100000352E+00 0.  1.
</event>
<event>
 5   0  0.8802655E-05  0.1747549E+04  0.7818609E-02  0.8734701E-01
       -2   -1    0    0    0  501  0.00000000000E+00  0.00000000000E+00  0.61516211387E+03  0.61516211388E+03  0.25500000920E-02 0.  1.
        2   -1    0    0  501    0  0.00000000000E+00  0.00000000000E+00 -0.12411067315E+04  0.12411067315E+04  0.25500000920E-02 0. -1.
    10030    2    1    2    0    0  0.00000000000E+00  0.00000000000E+00 -0.62594461765E+03  0.18562688454E+04  0.17475489584E+04 0.  0.
        2    1    3    3  502    0 -0.52518681166E+03 -0.38584363666E+03 -0.93123612430E+03  0.11366165661E+04  0.25500000920E-02 0. -1.
       -2    1    3    3    0  502  0.52518681166E+03  0.38584363666E+03  0.30529150664E+03  0.71965227932E+03  0.25500000920E-02 0.  1.
</event>
<event>
 5   0  0.9184414E-05  0.1797367E+04  0.7818609E-02  0.8707701E-01
       -2   -1    0    0    0  501  0.00000000000E+00  0.00000000000E+00  0.13261722687E+04  0.13261722687E+04  0.25500000920E-02 0. -1.
        2   -1    0    0  501    0  0.00000000000E+00  0.00000000000E+00 -0.60899469079E+03  0.60899469079E+03  0.25500000920E-02 0.  1.
    10030    2    1    2    0    0  0.00000000000E+00  0.00000000000E+00  0.71717757794E+03  0.19351669595E+04  0.17973668193E+04 0.  0.
        5    1    3    3  502    0  0.72209839585E+03 -0.21992869521E+03  0.88363967285E+03  0.11621686133E+04  0.46999998093E+01 0. -1.
       -5    1    3    3    0  502 -0.72209839585E+03  0.21992869521E+03 -0.16646209491E+03  0.77299834625E+03  0.46999998093E+01 0.  1.
</event>
<event>
 5   0  0.8893075E-05  0.1794436E+04  0.7818609E-02  0.8709264E-01
       -2   -1    0    0    0  501  0.00000000000E+00  0.00000000000E+00  0.11890318161E+04  0.11890318161E+04  0.25500000920E-02 0.  1.
        2   -1    0    0  501    0  0.00000000000E+00  0.00000000000E+00 -0.67702185152E+03  0.67702185152E+03  0.25500000920E-02 0. -1.
    10030    2    1    2    0    0  0.00000000000E+00  0.00000000000E+00  0.51200996461E+03  0.18660536677E+04  0.17944364259E+04 0.  0.
        1    1    3    3  502    0 -0.78635921682E+03 -0.43116201055E+03  0.28427495908E+03  0.94078358277E+03  0.50400001928E-02 0.  1.
       -1    1    3    3    0  502  0.78635921682E+03  0.43116201055E+03  0.22773500553E+03  0.92527008489E+03  0.50400001928E-02 0. -1.
</event>
<event>
 5   0  0.8892280E-05  0.1836763E+04  0.7818609E-02  0.8686990E-01
        2   -1    0    0  501    0  0.00000000000E+00  0.00000000000E+00  0.15769674754E+04  0.15769674754E+04  0.25500000920E-02 0.  1.
       -2   -1    0    0    0  501  0.00000000000E+00  0.00000000000E+00 -0.53483932238E+03  0.53483932238E+03  0.25500000920E-02 0. -1.
    10030    2    1    2    0    0  0.00000000000E+00  0.00000000000E+00  0.10421281531E+04  0.21118067978E+04  0.18367626041E+04 0.  0.
        4    1    3    3  502    0  0.25885593159E+03  0.79810610963E+03  0.91726128582E+02  0.84403498216E+03  0.12699999809E+01 0.  1.
       -4    1    3    3    0  502 -0.25885593159E+03 -0.79810610963E+03  0.95040202448E+03  0.12677718157E+04  0.12699999809E+01 0. -1.
</event>
<event>
 5   0  0.9184414E-05  0.1799613E+04  0.7818609E-02  0.8706505E-01
        2   -1    0    0  501    0  0.00000000000E+00  0.00000000000E+00  0.18643917000E+04  0.18643917000E+04  0.25500000920E-02 0.  1.
       -2   -1    0    0    0  501  0.00000000000E+00  0.00000000000E+00 -0.43427138378E+03  0.43427138379E+03  0.25500000920E-02 0. -1.
    10030    2    1    2    0    0  0.00000000000E+00  0.00000000000E+00  0.14301203162E+04  0.22986630838E+04  0.17996132512E+04 0.  0.
        5    1    3    3  502    0  0.14232669060E+02 -0.83459615668E+03  0.28592112212E+03  0.88234136914E+03  0.46999998093E+01 0.  1.
       -5    1    3    3    0  502 -0.14232669060E+02  0.83459615668E+03  0.11441991941E+04  0.14163217146E+04  0.46999998093E+01 0. -1.
</event>
<event>
 5   0  0.9147432E-05  0.1862714E+04  0.7818609E-02  0.8673642E-01
       -2   -1    0    0    0  501  0.00000000000E+00  0.00000000000E+00  0.87372398597E+03  0.87372398597E+03  0.25500000920E-02 0. -1.
        2   -1    0    0  501    0  0.00000000000E+00  0.00000000000E+00 -0.99279158705E+03  0.99279158705E+03  0.25500000920E-02 0.  1.
    10030    2    1    2    0    0  0.00000000000E+00  0.00000000000E+00 -0.11906760108E+03  0.18665155730E+04  0.18627139584E+04 0.  0.
        3    1    3    3  502    0  0.63055084849E+03 -0.42425282581E+03  0.47993377073E+03  0.89884440658E+03  0.10100000352E+00 0. -1.
       -3    1    3    3    0  502 -0.63055084849E+03  0.42425282581E+03 -0.59900137182E+03  0.96767116645E+03  0.10100000352E+00 0.  1.
</event>
<event>
 5   0  0.4494757E-05  0.1798969E+04  0.7818609E-02  0.8706848E-01
       -1   -1    0    0    0  501  0.00000000000E+00  0.00000000000E+00  0.10055435301E+04  0.10055435301E+04  0.50400001928E-02 0. -1.
        1   -1    0    0  501    0  0.00000000000E+00  0.00000000000E+00 -0.80461161978E+03  0.80461161980E+03  0.50400001928E-02 0.  1.
    10030    2    1    2    0    0  0.00000000000E+00  0.00000000000E+00  0.20093191029E+03  0.18101551499E+04  0.17989686029E+04 0.  0.
        4    1    3    3  502    0 -0.57859578918E+03 -0.42695941615E+03  0.64419914990E+03  0.96543336794E+03  0.12699999809E+01 0. -1.
       -4    1    3    3    0  502  0.57859578918E+03  0.42695941615E+03 -0.44326723961E+03  0.84472178195E+03  0.12699999809E+01 0.  1.
</event>
<event>
 5   0  0.9184414E-05  0.1802697E+04  0.7818609E-02  0.8704867E-01
        2   -1    0    0  501    0  0.00000000000E+00  0.00000000000E+00  0.70427688599E+03  0.70427688600E+03  0.25500000920E-02 0. -1.
       -2   -1    0    0    0  501  0.00000000000E+00  0.00000000000E+00 -0.11535644809E+04  0.11535644809E+04  0.25500000920E-02 0.  1.
    10030    2    1    2    0    0  0.00000000000E+00  0.00000000000E+00 -0.44928759489E+03  0.18578413669E+04  0.18026966471E+04 0.  0.
        5    1    3    3  502    0  0.15784577595E+03 -0.84362647701E+03 -0.50835720838E+03  0.99753198595E+03  0.46999998093E+01 0. -1.
       -5    1    3    3    0  502 -0.15784577595E+03  0.84362647701E+03  0.59069613486E+02  0.86030938094E+03  0.46999998093E+01 0.  1.
</event>
<event>
 5   0  0.4623665E-05  0.1804196E+04  0.7818609E-02  0.8704071E-01
       -1   -1    0    0    0  501  0.00000000000E+00  0.00000000000E+00  0.74413505707E+03  0.74413505708E+03  0.50400001928E-02 0.  1.
        1   -1    0    0  501    0  0.00000000000E+00  0.00000000000E+00 -0.10935931915E+04  0.10935931915E+04  0.50400001928E-02 0. -1.
    10030    2    1    2    0    0  0.00000000000E+00  0.00000000000E+00 -0.34945813438E+03  0.18377282485E+04  0.18041962554E+04 0.  0.
        5    1    3    3  502    0 -0.72647822555E+03 -0.82372565906E+02 -0.71294633137E+03  0.10212102689E+04  0.46999998093E+01 0. -1.
       -5    1    3    3    0  502  0.72647822555E+03  0.82372565906E+02  0.36348819698E+03  0.81651797969E+03  0.46999998093E+01 0.  1.
</event>
<event>
 5   0  0.4623665E-05  0.1804387E+04  0.7818609E-02  0.8703970E-01
        1   -1    0    0  501    0  0.00000000000E+00  0.00000000000E+00  0.12926093151E+04  0.12926093151E+04  0.50400001928E-02 0.  1.
       -1   -1    0    0    0  501  0.00000000000E+00  0.00000000000E+00 -0.62969800758E+03  0.62969800760E+03  0.50400001928E-02 0. -1.
    10030    2    1    2    0    0  0.00000000000E+00  0.00000000000E+00  0.66291130755E+03  0.19223073227E+04  0.18043874421E+04 0.  0.
        5    1    3    3  502    0 -0.46739193746E+03 -0.64133269136E+03 -0.12573862767E+03  0.80348935071E+03  0.46999998093E+01 0. -1.
       -5    1    3    3    0  502  0.46739193746E+03  0.64133269136E+03  0.78864993522E+03  0.11188179720E+04  0.46999998093E+01 0.  1.
</event>
<event>
 5   0  0.4623665E-05  0.1793585E+04  0.7818609E-02  0.8709718E-01
       -1   -1    0    0    0  501  0.00000000000E+00  0.00000000000E+00  0.60870908395E+03  0.60870908397E+03  0.50400001928E-02 0. -1.
        1   -1    0    0  501    0  0.00000000000E+00  0.00000000000E+00 -0.13212176650E+04  0.13212176650E+04  0.50400001928E-02 0.  1.
    10030    2    1    2    0    0  0.00000000000E+00  0.00000000000E+00 -0.71250858102E+03  0.19299267490E+04  0.17935854533E+04 0.  0.
        5    1    3    3  502    0  0.86300713141E+03 -0.16574964896E+03 -0.16388846964E+03  0.89394394426E+03  0.46999998093E+01 0.  1.
       -5    1    3    3    0  502 -0.86300713141E+03  0.16574964896E+03 -0.54862011138E+03  0.10359828047E+04  0.46999998093E+01 0. -1.
</event>
<event>
 5   0  0.4535100E-05  0.1803759E+04  0.7818609E-02  0.8704303E-01
        1   -1    0    0  501    0  0.00000000000E+00  0.00000000000E+00  0.16352206776E+04  0.16352206776E+04  0.50400001928E-02 0. -1.
       -1   -1    0    0    0  501  0.00000000000E+00  0.00000000000E+00 -0.49741718113E+03  0.49741718115E+03  0.50400001928E-02 0.  1.
    10030    2    1    2    0    0  0.00000000000E+00  0.00000000000E+00  0.11378034965E+04  0.21326378588E+04  0.18037592522E+04 0.  0.
        1    1    3    3  502    0  0.36834594820E+03 -0.38445814651E+03  0.14295694896E+04  0.15255017960E+04  0.50400001928E-02 0. -1.
       -1    1    3    3    0  502 -0.36834594820E+03  0.38445814651E+03 -0.29176599311E+03  0.60713606278E+03  0.50400001928E-02 0.  1.
</event>
<event>
 5   0  0.9147432E-05  0.1805033E+04  0.7818609E-02  0.8703628E-01
        2   -1    0    0  501    0  0.00000000000E+00  0.00000000000E+00  0.87379209479E+03  0.87379209479E+03  0.25500000920E-02 0.  1.
       -2   -1    0    0    0  501  0.00000000000E+00  0.00000000000E+00 -0.93218480408E+03  0.93218480409E+03  0.25500000920E-02 0. -1.
    10030    2    1    2    0    0  0.00000000000E+00  0.00000000000E+00 -0.58392709294E+02  0.18059768989E+04  0.18050326453E+04 0.  0.
        3    1    3    3  502    0 -0.50214190545E+03  0.41561177295E+03  0.59535456078E+03  0.88279482456E+03  0.10100000352E+00 0.  1.
       -3    1    3    3    0  502  0.50214190545E+03 -0.41561177295E+03 -0.65374727007E+03  0.92318207432E+03  0.10100000352E+00 0. -1.
</event>
<event>
 5   0  0.3270375E-05  0.1796395E+04  0.7818609E-02  0.8708219E-01
       -4   -1    0    0    0  501  0.00000000000E+00  0.00000000000E+00  0.14939811415E+04  0.14939816813E+04  0.12699999809E+01 0. -1.
        4   -1    0    0  501    0  0.00000000000E+00  0.00000000000E+00 -0.54000475724E+03  0.54000625065E+03  0.12699999809E+01 0.  1.
    10030    2    1    2    0    0  0.00000000000E+00  0.00000000000E+00  0.95397638425E+03  0.20339879319E+04  0.17963952699E+04 0.  0.
        4    1    3    3  502    0 -0.38781831024E+03  0.60846882522E+03 -0.12866023893E+03  0.73293411914E+03  0.12699999809E+01 0.  1.
       -4    1    3    3    0  502  0.38781831024E+03 -0.60846882522E+03  0.10826366232E+04  0.13010538128E+04  0.12699999809E+01 0. -1.
</event>
<event>
 5   0  0.4494757E-05  0.1794676E+04  0.7818609E-02  0.8709136E-01
       -1   -1    0    0    0  501  0.00000000000E+00  0.00000000000E+00  0.62625009400E+03  0.62625009402E+03  0.50400001928E-02 0.  1.
        1   -1    0    0  501    0  0.00000000000E+00  0.00000000000E+00 -0.12857735571E+04  0.12857735571E+04  0.50400001928E-02 0. -1.
    10030    2    1    2    0    0  0.00000000000E+00  0.00000000000E+00 -0.65952346308E+03  0.19120236511E+04  0.17946763619E+04 0.  0.
        4    1    3    3  502    0  0.74958238131E+03  0.12163115057E+03 -0.83908583452E+03  0.11316954245E+04  0.12699999809E+01 0. -1.
       -4    1    3    3    0  502 -0.74958238131E+03 -0.12163115057E+03  0.17956237143E+03  0.78032822665E+03  0.12699999809E+01 0.  1.
</event>
<event>
 5   0  0.8802655E-05  0.1797725E+04  0.7818609E-02  0.8707510E-01
        2   -1    0    0  501    0  0.00000000000E+00  0.00000000000E+00  0.72493918518E+03  0.72493918518E+03  0.25500000920E-02 0. -1.
       -2   -1    0    0    0  501  0.00000000000E+00  0.00000000000E+00 -0.11145128170E+04  0.11145128170E+04  0.25500000920E-02 0.  1.
    10030    2    1    2    0    0  0.00000000000E+00  0.00000000000E+00 -0.38957363186E+03  0.18394520022E+04  0.17977252443E+04 0.  0.
        2    1    3    3  502    0 -0.30611076173E+02  0.10169841608E+03 -0.11080702416E+04  0.11131483577E+04  0.25500000920E-02 0.  1.
       -2    1    3    3    0  502  0.30611076173E+02 -0.10169841608E+03  0.71849660977E+03  0.72630364454E+03  0.25500000920E-02 0. -1.
</event>
<event>
 5   0  0.8802655E-05  0.1803625E+04  0.7818609E-02  0.8704374E-01
        2   -1    0    0  501    0  0.00000000000E+00  0.00000000000E+00  0.19045715246E+04  0.19045715246E+04  0.25500000920E-02 0. -1.
       -2   -1    0    0    0  501  0.00000000000E+00  0.00000000000E+00 -0.42700729083E+03  0.42700729084E+03  0.25500000920E-02 0.  1.
    10030    2    1    2    0    0  0.00000000000E+00  0.00000000000E+00  0.14775642338E+04  0.23315788155E+04  0.18036251572E+04 0.  0.
        2    1    3    3  502    0 -0.27868880239E+03 -0.69682349784E+02  0.18438427386E+04  0.18660865798E+04  0.25500000920E-02 0. -1.
       -2    1    3    3    0  502  0.27868880239E+03  0.69682349784E+02 -0.36627850478E+03  0.46549223573E+03  0.25500000920E-02 0.  1.
</event>
<event>
 5   0  0.4535100E-05  0.1745546E+04  0.7818609E-02  0.8735806E-01
        1   -1    0    0  501    0  0.00000000000E+00  0.00000000000E+00  0.16932665641E+04  0.16932665642E+04  0.50400001928E-02 0.  1.
       -1   -1    0    0    0  501  0.00000000000E+00  0.00000000000E+00 -0.44986010687E+03  0.44986010690E+03  0.50400001928E-02 0. -1.
    10030    2    1    2    0    0  0.00000000000E+00  0.00000000000E+00  0.12434064573E+04  0.21431266711E+04  0.17455464217E+04 0.  0.
        1    1    3    3  502    0 -0.26364748211E+03 -0.82842839694E+03  0.52716128712E+03  0.10167116732E+04  0.50400001928E-02 0. -1.
       -1    1    3    3    0  502  0.26364748211E+03  0.82842839694E+03  0.71624517015E+03  0.11264149979E+04  0.50400001928E-02 0.  1.
</event>
<event>
 5   0  0.9184414E-05  0.1801957E+04  0.7818609E-02  0.8705259E-01
       -2   -1    0    0    0  501  0.00000000000E+00  0.00000000000E+00  0.10455395445E+04  0.10455395445E+04  0.25500000920E-02 0.  1.
        2   -1    0    0  501    0  0.00000000000E+00  0.00000000000E+00 -0.77640542976E+03  0.77640542977E+03  0.25500000920E-02 0. -1.
    10030    2    1    2    0    0  0.00000000000E+00  0.00000000000E+00  0.26913411471E+03  0.18219449742E+04  0.18019573573E+04 0.  0.
        5    1    3    3  502    0  0.14907832011E+03  0.59526522439E+03 -0.53242850405E+03  0.81244521958E+03  0.46999998093E+01 0.  1.
       -5    1    3    3    0  502 -0.14907832011E+03 -0.59526522439E+03  0.80156261876E+03  0.10094997547E+04  0.46999998093E+01 0. -1.
</event>
<event>
 5   0  0.4335117E-05  0.1806178E+04  0.7818609E-02  0.8703021E-01
       -1   -1    0    0    0  501  0.00000000000E+00  0.00000000000E+00  0.70769520174E+03  0.70769520175E+03  0.50400001928E-02 0. -1.
        1   -1    0    0  501    0  0.00000000000E+00  0.00000000000E+00 -0.11524312168E+04  0.11524312168E+04  0.50400001928E-02 0.  1.
    10030    2    1    2    0    0  0.00000000000E+00  0.00000000000E+00 -0.44473601510E+03  0.18601264186E+04  0.18061783328E+04 0.  0.
        3    1    3    3  502    0 -0.64885177953E+03  0.59472333354E+03 -0.14177681956E+02  0.88028716459E+03  0.10100000352E+00 0. -1.
       -3    1    3    3    0  502  0.64885177953E+03 -0.59472333354E+03 -0.43055833314E+03  0.97983925401E+03  0.10100000352E+00 0.  1.
</event>
<event>
 5   0  0.8892280E-05  0.1804123E+04  0.7818609E-02  0.8704110E-01
       -2   -1    0    0    0  501  0.00000000000E+00  0.00000000000E+00  0.79821281856E+03  0.79821281856E+03  0.25500000920E-02 0. -1.
        2   -1    0    0  501    0  0.00000000000E+00  0.00000000000E+00 -0.10194211107E+04  0.10194211107E+04  0.25500000920E-02 0.  1.
    10030    2    1    2    0    0  0.00000000000E+00  0.00000000000E+00 -0.22120829216E+03  0.18176339293E+04  0.18041230536E+04 0.  0.
        4    1    3    3  502    0  0.33533613003E+03 -0.61904709671E+03  0.45757292347E+03  0.83966911414E+03  0.12699999809E+01 0. -1.
       -4    1    3    3    0  502 -0.33533613003E+03  0.61904709671E+03 -0.67878121564E+03  0.97796481514E+03  0.12699999809E+01 0.  1.
</event>
<event>
 5   0  0.3270375E-05  0.1798818E+04  0.7818609E-02  0.8706928E-01
       -3   -1    0    0    0  501  0.00000000000E+00  0.00000000000E+00  0.78909574539E+03  0.78909575185E+03  0.10100000352E+00 0. -1.
        3   -1    0    0  501    0  0.00000000000E+00  0.00000000000E+00 -0.10251438868E+04  0.10251438918E+04  0.10100000352E+00 0.  1.
    10030    2    1    2    0    0  0.00000000000E+00  0.00000000000E+00 -0.23604814146E+03  0.18142396437E+04  0.17988181563E+04 0.  0.
        5    1    3    3  502    0 -0.74857097961E+03 -0.29560864388E+03  0.28687956195E+03  0.85443838568E+03  0.46999998093E+01 0. -1.
       -5    1    3    3    0  502  0.74857097961E+03  0.29560864388E+03 -0.52292770341E+03  0.95980125800E+03  0.46999998093E+01 0.  1.
</event>
<event>
 5   0  0.3270375E-05  0.1800813E+04  0.7818609E-02  0.8705867E-01
        4   -1    0    0  501    0  0.00000000000E+00  0.00000000000E+00  0.88803689955E+03  0.88803780768E+03  0.12699999809E+01 0.  1.
       -4   -1    0    0    0  501  0.00000000000E+00  0.00000000000E+00 -0.91294665071E+03  0.91294753406E+03  0.12699999809E+01 0. -1.
    10030    2    1    2    0    0  0.00000000000E+00  0.00000000000E+00 -0.24909751158E+02  0.18009853417E+04  0.18008130679E+04 0.  0.
        4    1    3    3  502    0 -0.61600378839E+03  0.26153485217E+03 -0.61489873019E+03  0.90882517983E+03  0.12699999809E+01 0. -1.
       -4    1    3    3    0  502  0.61600378839E+03 -0.26153485217E+03  0.58998897903E+03  0.89216016190E+03  0.12699999809E+01 0.  1.
</event>
<event>
 5   0  0.4535100E-05  0.1798436E+04  0.7818609E-02  0.8707132E-01
       -1   -1    0    0    0  501  0.00000000000E+00  0.00000000000E+00  0.98709743394E+03  0.98709743395E+03  0.50400001928E-02 0.  1.
        1   -1    0    0  501    0  0.00000000000E+00  0.00000000000E+00 -0.81916205511E+03  0.81916205512E+03  0.50400001928E-02 0. -1.
    10030    2    1    2    0    0  0.00000000000E+00  0.00000000000E+00  0.16793537883E+03  0.18062594891E+04  0.17984357232E+04 0.  0.
        1    1    3    3  502    0 -0.25781501951E+03  0.15244680698E+03 -0.76759117678E+03  0.82395681194E+03  0.50400001928E-02 0. -1.
       -1    1    3    3    0  502  0.25781501951E+03 -0.15244680698E+03  0.93552655561E+03  0.98230267714E+03  0.50400001928E-02 0.  1.
</event>
<event>
 5   0  0.4535100E-05  0.1794675E+04  0.7818609E-02  0.8709136E-01
        1   -1    0    0  501    0  0.00000000000E+00  0.00000000000E+00  0.10746516428E+04  0.10746516428E+04  0.50400001928E-02 0.  1.
       -1   -1    0    0    0  501  0.00000000000E+00  0.00000000000E+00 -0.74927974383E+03  0.74927974385E+03  0.50400001928E-02 0. -1.
    10030    2    1    2    0    0  0.00000000000E+00  0.00000000000E+00  0.32537189900E+03  0.18239313867E+04  0.17946751324E+04 0.  0.
        1    1    3    3  502    0 -0.16400220779E+03 -0.42657045321E+03  0.94751544122E+03  0.10519717615E+04  0.50400001928E-02 0.  1.
       -1    1    3    3    0  502  0.16400220779E+03  0.42657045321E+03 -0.62214354222E+03  0.77195962515E+03  0.50400001928E-02 0. -1.
</event>
<event>
 5   0  0.4335117E-05  0.1800635E+04  0.7818609E-02  0.8705962E-01
       -1   -1    0    0    0  501  0.00000000000E+00  0.00000000000E+00  0.12846642251E+04  0.12846642251E+04  0.50400001928E-02 0.  1.
        1   -1    0    0  501    0  0.00000000000E+00  0.00000000000E+00 -0.63095958079E+03  0.63095958081E+03  0.50400001928E-02 0. -1.
    10030    2    1    2    0    0  0.00000000000E+00  0.00000000000E+00  0.65370464433E+03  0.19156238059E+04  0.18006345559E+04 0.  0.
        3    1    3    3  502    0  0.50943264122E+03 -0.36923173868E+03 -0.35825849550E+03  0.72401854437E+03  0.10100000352E+00 0. -1.
       -3    1    3    3    0  502 -0.50943264122E+03  0.36923173868E+03  0.10119631398E+04  0.11916052616E+04  0.10100000352E+00 0.  1.
</event>
<event>
 5   0  0.8892280E-05  0.1797755E+04  0.7818609E-02  0.8707494E-01
        2   -1    0    0  501    0  0.00000000000E+00  0.00000000000E+00  0.19213103947E+04  0.19213103947E+04  0.25500000920E-02 0. -1.
       -2   -1    0    0    0  501  0.00000000000E+00  0.00000000000E+00 -0.42053612681E+03  0.42053612681E+03  0.25500000920E-02 0.  1.
    10030    2    1    2    0    0  0.00000000000E+00  0.00000000000E+00  0.15007742679E+04  0.23418465215E+04  0.17977546348E+04 0.  0.
        4    1    3    3  502    0 -0.77987741737E+03 -0.26157907101E+03  0.27828372542E+03  0.86837540341E+03  0.12699999809E+01 0.  1.
       -4    1    3    3    0  502  0.77987741737E+03  0.26157907101E+03  0.12224905424E+04  0.14734711181E+04  0.12699999809E+01 0. -1.
</event>
<event>
 5   0  0.8893075E-05  0.1796319E+04  0.7818609E-02  0.8708260E-01
        2   -1    0    0  501    0  0.00000000000E+00  0.00000000000E+00  0.63405766486E+03  0.63405766486E+03  0.25500000920E-02 0. -1.
       -2   -1    0    0    0  501  0.00000000000E+00  0.00000000000E+00 -0.12722662432E+04  0.12722662432E+04  0.25500000920E-02 0.  1.
    10030    2    1    2    0    0  0.00000000000E+00  0.00000000000E+00 -0.63820857830E+03  0.19063239080E+04  0.17963186390E+04 0.  0.
        1    1    3    3  502    0  0.10565937412E+03 -0.86506494143E+03 -0.54963738223E+03  0.10303409670E+04  0.50400001928E-02 0.  1.
       -1    1    3    3    0  502 -0.10565937412E+03  0.86506494143E+03 -0.88571196076E+02  0.87598294106E+03  0.50400001928E-02 0. -1.
</event>
<event>
 5   0  0.3270375E-05  0.1823570E+04  0.7818609E-02  0.8693865E-01
       -4   -1    0    0    0  501  0.00000000000E+00  0.00000000000E+00  0.12013787565E+04  0.12013794277E+04  0.12699999809E+01 0. -1.
        4   -1    0    0  501    0  0.00000000000E+00  0.00000000000E+00 -0.69199689331E+03  0.69199805871E+03  0.12699999809E+01 0.  1.
    10030    2    1    2    0    0  0.00000000000E+00  0.00000000000E+00  0.50938186316E+03  0.18933774864E+04  0.18235702409E+04 0.  0.
        4    1    3    3  502    0 -0.70752255640E+03  0.55770575060E+03  0.10886288368E+03  0.90745612148E+03  0.12699999809E+01 0.  1.
       -4    1    3    3    0  502  0.70752255640E+03 -0.55770575060E+03  0.40051897948E+03  0.98592136497E+03  0.12699999809E+01 0. -1.
</event>
<event>
 5   0  0.4578107E-05  0.1806884E+04  0.7818609E-02  0.8702647E-01
        1   -1    0    0  501    0  0.00000000000E+00  0.00000000000E+00  0.99337346111E+03  0.99337346113E+03  0.50400001928E-02 0.  1.
       -1   -1    0    0    0  501  0.00000000000E+00  0.00000000000E+00 -0.82165211498E+03  0.82165211500E+03  0.50400001928E-02 0. -1.
    10030    2    1    2    0    0  0.00000000000E+00  0.00000000000E+00  0.17172134613E+03  0.18150255761E+04  0.18068839535E+04 0.  0.
        2    1    3    3  502    0 -0.24065918959E+03 -0.12392224828E+03 -0.77995921478E+03  0.82559672109E+03  0.25500000920E-02 0. -1.
       -2    1    3    3    0  502  0.24065918959E+03  0.12392224828E+03  0.95168056091E+03  0.98942885503E+03  0.25500000920E-02 0.  1.
</event>
<event>
 5   0  0.4623665E-05  0.1792286E+04  0.7818609E-02  0.8710412E-01
        1   -1    0    0  501    0  0.00000000000E+00  0.00000000000E+00  0.20068774944E+04  0.20068774944E+04  0.50400001928E-02 0. -1.
       -1   -1    0    0    0  501  0.00000000000E+00  0.00000000000E+00 -0.40016020950E+03  0.40016020953E+03  0.50400001928E-02 0.  1.
    10030    2    1    2    0    0  0.00000000000E+00  0.00000000000E+00  0.16067172849E+04  0.24070377039E+04  0.17922862703E+04 0.  0.
        5    1    3    3  502    0  0.24082343161E+03  0.44554930410E+03 -0.18949816763E+03  0.54077883939E+03  0.46999998093E+01 0.  1.
       -5    1    3    3    0  502 -0.24082343161E+03 -0.44554930410E+03  0.17962154525E+04  0.18662588645E+04  0.46999998093E+01 0. -1.
</event>
<event>
 5   0  0.8892280E-05  0.1786572E+04  0.7818609E-02  0.8713473E-01
        2   -1    0    0  501    0  0.00000000000E+00  0.00000000000E+00  0.11671260925E+04  0.11671260925E+04  0.25500000920E-02 0.  1.
       -2   -1    0    0    0  501  0.00000000000E+00  0.00000000000E+00 -0.68369666200E+03  0.68369666200E+03  0.25500000920E-02 0. -1.
    10030    2    1    2    0    0  0.00000000000E+00  0.00000000000E+00  0.48342943049E+03  0.18508227545E+04  0.17865723759E+04 0.  0.
        4    1    3    3  502    0 -0.39124586492E+00  0.82823092904E+03 -0.10497237416E+03  0.83485773466E+03  0.12699999809E+01 0. -1.
       -4    1    3    3    0  502  0.39124586492E+00 -0.82823092904E+03  0.58840180465E+03  0.10159650198E+04  0.12699999809E+01 0.  1.
</event>
<event>
 5   0  0.4335117E-05  0.1785605E+04  0.7818609E-02  0.8713992E-01
       -1   -1    0    0    0  501  0.00000000000E+00  0.00000000000E+00  0.93722810914E+03  0.93722810915E+03  0.50400001928E-02 0. -1.
        1   -1    0    0  501    0  0.00000000000E+00  0.00000000000E+00 -0.85048236164E+03  0.85048236166E+03  0.50400001928E-02 0.  1.
    10030    2    1    2    0    0  0.00000000000E+00  0.00000000000E+00  0.86745747494E+02  0.17877104708E+04  0.17856046323E+04 0.  0.
        3    1    3    3  502    0  0.53778008727E+03  0.41668390377E+03 -0.53546385058E+03  0.86576812334E+03  0.10100000352E+00 0.  1.
       -3    1    3    3    0  502 -0.53778008727E+03 -0.41668390377E+03  0.62220959807E+03  0.92194234747E+03  0.10100000352E+00 0. -1.
</event>
<event>
 5   0  0.8892280E-05  0.1801518E+04  0.7818609E-02  0.8705493E-01
       -2   -1    0    0    0  501  0.00000000000E+00  0.00000000000E+00  0.97070328307E+03  0.97070328308E+03  0.25500000920E-02 0. -1.
        2   -1    0    0  501    0  0.00000000000E+00  0.00000000000E+00 -0.83585452542E+03  0.83585452542E+03  0.25500000920E-02 0.  1.
    10030    2    1    2    0    0  0.00000000000E+00  0.00000000000E+00  0.13484875766E+03  0.18065578085E+04  0.18015179511E+04 0.  0.
        4    1    3    3  502    0 -0.74464657588E+03 -0.50369622697E+03  0.12376613899E+03  0.90748448036E+03  0.12699999809E+01 0. -1.
       -4    1    3    3    0  502  0.74464657588E+03  0.50369622697E+03  0.11082618667E+02  0.89907332814E+03  0.12699999809E+01 0.  1.
</event>
<event>
 5   0  0.4335117E-05  0.1827226E+04  0.7818609E-02  0.8691954E-01
       -1   -1    0    0    0  501  0.00000000000E+00  0.00000000000E+00  0.60976798208E+03  0.60976798210E+03  0.50400001928E-02 0.  1.
        1   -1    0    0  501    0  0.00000000000E+00  0.00000000000E+00 -0.13688628405E+04  0.13688628405E+04  0.50400001928E-02 0. -1.
    10030    2    1    2    0    0  0.00000000000E+00  0.00000000000E+00 -0.75909485843E+03  0.19786308226E+04  0.18272260200E+04 0.  0.
        3    1    3    3  502    0 -0.40393145400E+03  0.57545921547E+03  0.25221121735E+03  0.74694339582E+03  0.10100000352E+00 0.  1.
       -3    1    3    3    0  502  0.40393145400E+03 -0.57545921547E+03 -0.10113060758E+04  0.12316874268E+04  0.10100000352E+00 0. -1.
</event>
<event>
 5   0  0.4335117E-05  0.1804552E+04  0.7818609E-02  0.8703883E-01
        1   -1    0    0  501    0  0.00000000000E+00  0.00000000000E+00  0.71293202703E+03  0.71293202705E+03  0.50400001928E-02 0.  1.
       -1   -1    0    0    0  501  0.00000000000E+00  0.00000000000E+00 -0.11419065334E+04  0.11419065334E+04  0.50400001928E-02 0. -1.
    10030    2    1    2    0    0  0.00000000000E+00  0.00000000000E+00 -0.42897450636E+03  0.18548385605E+04  0.18045517333E+04 0.  0.
        3    1    3    3  502    0  0.12843664945E+03 -0.16498472153E+03 -0.11166625121E+04  0.11360682670E+04  0.10100000352E+00 0. -1.
       -3    1    3    3    0  502 -0.12843664945E+03  0.16498472153E+03  0.68768800573E+03  0.71877029341E+03  0.10100000352E+00 0.  1.
</event>
<event>
 5   0  0.8892280E-05  0.1811686E+04  0.7818609E-02  0.8700109E-01
       -2   -1    0    0    0  501  0.00000000000E+00  0.00000000000E+00  0.96523316228E+03  0.96523316228E+03  0.25500000920E-02 0.  1.
        2   -1    0    0  501    0  0.00000000000E+00  0.00000000000E+00 -0.85010738844E+03  0.85010738844E+03  0.25500000920E-02 0. -1.
    10030    2    1    2    0    0  0.00000000000E+00  0.00000000000E+00  0.11512577384E+03  0.18153405507E+04  0.18116863336E+04 0.  0.
        4    1    3    3  502    0 -0.34530631799E+03 -0.56995021120E+03  0.67237242347E+03  0.94666043819E+03  0.12699999809E+01 0.  1.
       -4    1    3    3    0  502  0.34530631799E+03  0.56995021120E+03 -0.55724664963E+03  0.86868011253E+03  0.12699999809E+01 0. -1.
</event>
<event>
 5   0  0.8893075E-05  0.1803366E+04  0.7818609E-02  0.8704512E-01
       -2   -1    0    0    0  501  0.00000000000E+00  0.00000000000E+00  0.56401447596E+03  0.56401447597E+03  0.25500000920E-02 0.  1.
        2   -1    0    0  501    0  0.00000000000E+00  0.00000000000E+00 -0.14415091709E+04  0.14415091709E+04  0.25500000920E-02 0. -1.
    10030    2    1    2    0    0  0.00000000000E+00  0.00000000000E+00 -0.87749469495E+03  0.20055236469E+04  0.18033657861E+04 0.  0.
        1    1    3    3  502    0 -0.35849942458E+03  0.24289870221E+03 -0.13182987723E+04  0.13875998234E+04  0.50400001928E-02 0. -1.
       -1    1    3    3    0  502  0.35849942458E+03 -0.24289870221E+03  0.44080407734E+03  0.61792382345E+03  0.50400001928E-02 0.  1.
</event>
<event>
 5   0  0.8802655E-05  0.1798437E+04  0.7818609E-02  0.8707131E-01
        2   -1    0    0  501    0  0.00000000000E+00  0.00000000000E+00  0.86469849461E+03  0.86469849461E+03  0.25500000920E-02 0.  1.
       -2   -1    0    0    0  501  0.00000000000E+00  0.00000000000E+00 -0.93511616017E+03  0.93511616017E+03  0.25500000920E-02 0. -1.
    10030    2    1    2    0    0  0.00000000000E+00  0.00000000000E+00 -0.70417665564E+02  0.17998146548E+04  0.17984365832E+04 0.  0.
        2    1    3    3  502    0 -0.28048159339E+03 -0.13308941992E+03 -0.87978133693E+03  0.93295118776E+03  0.25500000920E-02 0. -1.
       -2    1    3    3    0  502  0.28048159339E+03  0.13308941992E+03  0.80936367137E+03  0.86686346702E+03  0.25500000920E-02 0.  1.
</event>
<event>
 5   0  0.8892280E-05  0.1769750E+04  0.7818609E-02  0.8722554E-01
        2   -1    0    0  501    0  0.00000000000E+00  0.00000000000E+00  0.21961622106E+04  0.21961622106E+04  0.25500000920E-02 0. -1.
       -2   -1    0    0    0  501  0.00000000000E+00  0.00000000000E+00 -0.35653267846E+03  0.35653267847E+03  0.25500000920E-02 0.  1.
    10030    2    1    2    0    0  0.00000000000E+00  0.00000000000E+00  0.18396295322E+04  0.25526948891E+04  0.17697498075E+04 0.  0.
        4    1    3    3  502    0  0.22178818624E+03  0.79969042208E+03  0.13627696428E+04  0.15955680753E+04  0.12699999809E+01 0. -1.
       -4    1    3    3    0  502 -0.22178818624E+03 -0.79969042208E+03  0.47685988940E+03  0.95712681382E+03  0.12699999809E+01 0.  1.
</event>
<event>
 5   0  0.4535100E-05  0.1808653E+04  0.7818609E-02  0.8701711E-01
       -1   -1    0    0    0  501  0.00000000000E+00  0.00000000000E+00  0.70365195682E+03  0.70365195684E+03  0.50400001928E-02 0. -1.
        1   -1    0    0  501    0  0.00000000000E+00  0.00000000000E+00 -0.11622313752E+04  0.11622313752E+04  0.50400001928E-02 0.  1.
    10030    2    1    2    0    0  0.00000000000E+00  0.00000000000E+00 -0.45857941839E+03  0.18658833321E+04  0.18086529589E+04 0.  0.
        1    1    3    3  502    0 -0.12372951693E+03  0.66729098833E+03  0.38730131875E+03  0.78140166880E+03  0.50400001928E-02 0. -1.
       -1    1    3    3    0  502  0.12372951693E+03 -0.66729098833E+03 -0.84588073714E+03  0.10844816633E+04  0.50400001928E-02 0.  1.
</event>
<event>
 5   0  0.4335117E-05  0.1828098E+04  0.7818609E-02  0.8691498E-01
       -1   -1    0    0    0  501  0.00000000000E+00  0.00000000000E+00  0.50779118020E+03  0.50779118023E+03  0.50400001928E-02 0.  1.
        1   -1    0    0  501    0  0.00000000000E+00  0.00000000000E+00 -0.16453337175E+04  0.16453337175E+04  0.50400001928E-02 0. -1.
    10030    2    1    2    0    0  0.00000000000E+00  0.00000000000E+00 -0.11375425373E+04  0.21531248977E+04  0.18280984112E+04 0.  0.
        3    1    3    3  502    0 -0.73554519952E+03 -0.26194551829E+03 -0.11284949542E+04  0.13722766000E+04  0.10100000352E+00 0. -1.
       -3    1    3    3    0  502  0.73554519952E+03  0.26194551829E+03 -0.90475830879E+01  0.78084829772E+03  0.10100000352E+00 0.  1.
</event>
<event>
 5   0  0.8802655E-05  0.1803112E+04  0.7818609E-02  0.8704646E-01
       -2   -1    0    0    0  501  0.00000000000E+00  0.00000000000E+00  0.10196815599E+04  0.10196815599E+04  0.25500000920E-02 0. -1.
        2   -1    0    0  501    0  0.00000000000E+00  0.00000000000E+00 -0.79711459360E+03  0.79711459361E+03  0.25500000920E-02 0.  1.
    10030    2    1    2    0    0  0.00000000000E+00  0.00000000000E+00  0.22256696630E+03  0.18167961535E+04  0.18031118127E+04 0.  0.
        2    1    3    3  502    0  0.55578279217E+02 -0.89396554944E+03  0.78412851225E+01  0.89572587016E+03  0.25500000920E-02 0.  1.
       -2    1    3    3    0  502 -0.55578279217E+02  0.89396554944E+03  0.21472568118E+03  0.92107028335E+03  0.25500000920E-02 0. -1.
</event>
<event>
 5   0  0.4578107E-05  0.1802828E+04  0.7818609E-02  0.8704797E-01
        1   -1    0    0  501    0  0.00000000000E+00  0.00000000000E+00  0.12762825862E+04  0.12762825862E+04  0.50400001928E-02 0.  1.
       -1   -1    0    0    0  501  0.00000000000E+00  0.00000000000E+00 -0.63665138170E+03  0.63665138172E+03  0.50400001928E-02 0. -1.
    10030    2    1    2    0    0  0.00000000000E+00  0.00000000000E+00  0.63963120451E+03  0.19129339679E+04  0.18028278587E+04 0.  0.
        2    1    3    3  502    0 -0.19463726893E+03 -0.85572471992E+03  0.10133065357E+03  0.88341177494E+03  0.25500000920E-02 0. -1.
       -2    1    3    3    0  502  0.19463726893E+03  0.85572471992E+03  0.53830055094E+03  0.10295221930E+04  0.25500000920E-02 0.  1.
</event>
<event>
 5   0  0.4494757E-05  0.1794038E+04  0.7818609E-02  0.8709476E-01
        1   -1    0    0  501    0  0.00000000000E+00  0.00000000000E+00  0.10324386922E+04  0.10324386922E+04  0.50400001928E-02 0. -1.
       -1   -1    0    0    0  501  0.00000000000E+00  0.00000000000E+00 -0.77936163059E+03  0.77936163060E+03  0.50400001928E-02 0.  1.
    10030    2    1    2    0    0  0.00000000000E+00  0.00000000000E+00  0.25307706164E+03  0.18118003228E+04  0.17940380182E+04 0.  0.
        4    1    3    3  502    0 -0.18029250147E+03 -0.25099722632E+03 -0.72390133279E+03  0.78710847170E+03  0.12699999809E+01 0.  1.
       -4    1    3    3    0  502  0.18029250147E+03  0.25099722632E+03  0.97697839443E+03  0.10246918511E+04  0.12699999809E+01 0. -1.
</event>
<event>
 5   0  0.4494757E-05  0.1799393E+04  0.7818609E-02  0.8706622E-01
        1   -1    0    0  501    0  0.00000000000E+00  0.00000000000E+00  0.11493092557E+04  0.11493092557E+04  0.50400001928E-02 0.  1.
       -1   -1    0    0    0  501  0.00000000000E+00  0.00000000000E+00 -0.70429608979E+03  0.70429608981E+03  0.50400001928E-02 0. -1.
    10030    2    1    2    0    0  0.00000000000E+00  0.00000000000E+00  0.44501316587E+03  0.18536053455E+04  0.17993932474E+04 0.  0.
        4    1    3    3  502    0  0.26746581458E+03  0.66942881268E+03 -0.33202338294E+03  0.79367123983E+03  0.12699999809E+01 0. -1.
       -4    1    3    3    0  502 -0.26746581458E+03 -0.66942881268E+03  0.77703654881E+03  0.10599341056E+04  0.12699999809E+01 0.  1.
</event>
<event>
 5   0  0.8802655E-05  0.1796719E+04  0.7818609E-02  0.8708046E-01
        2   -1    0    0  501    0  0.00000000000E+00  0.00000000000E+00  0.16670494254E+04  0.16670494254E+04  0.25500000920E-02 0. -1.
       -2   -1    0    0    0  501  0.00000000000E+00  0.00000000000E+00 -0.48411861449E+03  0.48411861450E+03  0.25500000920E-02 0.  1.
    10030    2    1    2    0    0  0.00000000000E+00  0.00000000000E+00  0.11829308109E+04  0.21511680399E+04  0.17967188518E+04 0.  0.
        2    1    3    3  502    0  0.84940622675E+03 -0.10637472852E+03  0.91769425898E+03  0.12549777982E+04  0.25500000920E-02 0. -1.
       -2    1    3    3    0  502 -0.84940622675E+03  0.10637472852E+03  0.26523655192E+03  0.89619024174E+03  0.25500000920E-02 0.  1.
</event>
<event>
 5   0  0.4535100E-05  0.1805395E+04  0.7818609E-02  0.8703436E-01
       -1   -1    0    0    0  501  0.00000000000E+00  0.00000000000E+00  0.78657381662E+03  0.78657381664E+03  0.50400001928E-02 0.  1.
        1   -1    0    0  501    0  0.00000000000E+00  0.00000000000E+00 -0.10359651317E+04  0.10359651317E+04  0.50400001928E-02 0. -1.
    10030    2    1    2    0    0  0.00000000000E+00  0.00000000000E+00 -0.24939131503E+03  0.18225389483E+04  0.18053953002E+04 0.  0.
        1    1    3    3  502    0 -0.54152056157E+03 -0.65350218446E+03  0.18571965767E+03  0.86879307949E+03  0.50400001928E-02 0. -1.
       -1    1    3    3    0  502  0.54152056157E+03  0.65350218446E+03 -0.43511097270E+03  0.95374586882E+03  0.50400001928E-02 0.  1.
</event>
<event>
 5   0  0.8802655E-05  0.1795891E+04  0.7818609E-02  0.8708488E-01
       -2   -1    0    0    0  501  0.00000000000E+00  0.00000000000E+00  0.35608343939E+03  0.35608343940E+03  0.25500000920E-02 0. -1.
        2   -1    0    0  501    0  0.00000000000E+00  0.00000000000E+00 -0.22643747528E+04  0.22643747528E+04  0.25500000920E-02 0.  1.
    10030    2    1    2    0    0  0.00000000000E+00  0.00000000000E+00 -0.19082913134E+04  0.26204581922E+04  0.17958912551E+04 0.  0.
        2    1    3    3  502    0 -0.41204272934E+03 -0.23970459567E+03  0.15621048655E+03  0.50163654183E+03  0.25500000920E-02 0. -1.
       -2    1    3    3    0  502  0.41204272934E+03  0.23970459567E+03 -0.20645018000E+04  0.21188216504E+04  0.25500000920E-02 0.  1.
</event>
<event>
 5   0  0.8802655E-05  0.1799608E+04  0.7818609E-02  0.8706508E-01
        2   -1    0    0  501    0  0.00000000000E+00  0.00000000000E+00  0.17720309327E+04  0.17720309327E+04  0.25500000920E-02 0.  1.
       -2   -1    0    0    0  501  0.00000000000E+00  0.00000000000E+00 -0.45690338382E+03  0.45690338383E+03  0.25500000920E-02 0. -1.
    10030    2    1    2    0    0  0.00000000000E+00  0.00000000000E+00  0.13151275489E+04  0.22289343165E+04  0.17996076566E+04 0.  0.
        2    1    3    3  502    0 -0.77735296729E+03 -0.36592360144E+03  0.98867883424E+03  0.13098334074E+04  0.25500000920E-02 0.  1.
       -2    1    3    3    0  502  0.77735296729E+03  0.36592360144E+03  0.32644871462E+03  0.91910090911E+03  0.25500000920E-02 0. -1.
</event>
<event>
 5   0  0.8802655E-05  0.1802635E+04  0.7818609E-02  0.8704900E-01
        2   -1    0    0  501    0  0.00000000000E+00  0.00000000000E+00  0.14518197170E+04  0.14518197170E+04  0.25500000920E-02 0.  1.
       -2   -1    0    0    0  501  0.00000000000E+00  0.00000000000E+00 -0.55955496528E+03  0.55955496528E+03  0.25500000920E-02 0. -1.
    10030    2    1    2    0    0  0.00000000000E+00  0.00000000000E+00  0.89226475169E+03  0.20113746823E+04  0.18026346622E+04 0.  0.
        2    1    3    3  502    0 -0.62870719327E+03 -0.60083115408E+03  0.18184592376E+03  0.88844738200E+03  0.25500000920E-02 0. -1.
       -2    1    3    3    0  502  0.62870719327E+03  0.60083115408E+03  0.71041882793E+03  0.11229273003E+04  0.25500000920E-02 0.  1.
</event>
<event>
 5   0  0.8893075E-05  0.1812338E+04  0.7818609E-02  0.8699766E-01
       -2   -1    0    0    0  501  0.00000000000E+00  0.00000000000E+00  0.41675467884E+03  0.41675467885E+03  0.25500000920E-02 0. -1.
        2   -1    0    0  501    0  0.00000000000E+00  0.00000000000E+00 -0.19703246404E+04  0.19703246404E+04  0.25500000920E-02 0.  1.
    10030    2    1    2    0    0  0.00000000000E+00  0.00000000000E+00 -0.15535699616E+04  0.23870793193E+04  0.18123377309E+04 0.  0.
        1    1    3    3  502    0 -0.74513523475E+03  0.17804256662E+03 -0.13934938404E+03  0.77868088743E+03  0.50400001928E-02 0. -1.
       -1    1    3    3    0  502  0.74513523475E+03 -0.17804256662E+03 -0.14142205775E+04  0.16083984318E+04  0.50400001928E-02 0.  1.
</event>
<event>
 5   0  0.4578107E-05  0.1793730E+04  0.7818609E-02  0.8709641E-01
        1   -1    0    0  501    0  0.00000000000E+00  0.00000000000E+00  0.74540500687E+03  0.74540500688E+03  0.50400001928E-02 0. -1.
       -1   -1    0    0    0  501  0.00000000000E+00  0.00000000000E+00 -0.10791006694E+04  0.10791006694E+04  0.50400001928E-02 0.  1.
    10030    2    1    2    0    0  0.00000000000E+00  0.00000000000E+00 -0.33369566249E+03  0.18245056762E+04  0.17937302382E+04 0.  0.
        2    1    3    3  502    0 -0.61198748461E+03  0.35697924657E+03  0.39250003151E+03  0.80995008398E+03  0.25500000920E-02 0. -1.
       -2    1    3    3    0  502  0.61198748461E+03 -0.35697924657E+03 -0.72619569400E+03  0.10145555923E+04  0.25500000920E-02 0.  1.
</event>
<event>
 5   0  0.8892280E-05  0.1800652E+04  0.7818609E-02  0.8705953E-01
        2   -1    0    0  501    0  0.00000000000E+00  0.00000000000E+00  0.18822024590E+04  0.18822024590E+04  0.25500000920E-02 0. -1.
       -2   -1    0    0    0  501  0.00000000000E+00  0.00000000000E+00 -0.43065887109E+03  0.43065887110E+03  0.25500000920E-02 0.  1.
    10030    2    1    2    0    0  0.00000000000E+00  0.00000000000E+00  0.14515435879E+04  0.23128613301E+04  0.18006523109E+04 0.  0.
        4    1    3    3  502    0  0.53825283806E+03 -0.91109927642E+02 -0.19382121711E+03  0.57929734481E+03  0.12699999809E+01 0.  1.
       -4    1    3    3    0  502 -0.53825283806E+03  0.91109927642E+02  0.16453648050E+04  0.17335639853E+04  0.12699999809E+01 0. -1.
</event>
<event>
 5   0  0.9184414E-05  0.1800318E+04  0.7818609E-02  0.8706130E-01
       -2   -1    0    0    0  501  0.00000000000E+00  0.00000000000E+00  0.86269398321E+03  0.86269398321E+03  0.25500000920E-02 0.  1.
        2   -1    0    0  501    0  0.00000000000E+00  0.00000000000E+00 -0.93925132765E+03  0.93925132765E+03  0.25500000920E-02 0. -1.
    10030    2    1    2    0    0  0.00000000000E+00  0.00000000000E+00 -0.76557344437E+02  0.18019453109E+04  0.18003182708E+04 0.  0.
        5    1    3    3  502    0  0.31537534617E+02 -0.66037012299E+03 -0.64971623586E+03  0.92695015646E+03  0.46999998093E+01 0. -1.
       -5    1    3    3    0  502 -0.31537534617E+02  0.66037012299E+03  0.57315889142E+03  0.87499515440E+03  0.46999998093E+01 0.  1.
</event>
<event>
 5   0  0.4335117E-05  0.1803550E+04  0.7818609E-02  0.8704414E-01
        1   -1    0    0  501    0  0.00000000000E+00  0.00000000000E+00  0.19922607194E+04  0.19922607194E+04  0.50400001928E-02 0. -1.
       -1   -1    0    0    0  501  0.00000000000E+00  0.00000000000E+00 -0.40817848146E+03  0.40817848149E+03  0.50400001928E-02 0.  1.
    10030    2    1    2    0    0  0.00000000000E+00  0.00000000000E+00  0.15840822379E+04  0.24004392009E+04  0.18035497832E+04 0.  0.
        3    1    3    3  502    0 -0.80521602677E+03 -0.22525391781E+03  0.12415914382E+04  0.14968839257E+04  0.10100000352E+00 0. -1.
       -3    1    3    3    0  502  0.80521602677E+03  0.22525391781E+03  0.34249079969E+03  0.90355527520E+03  0.10100000352E+00 0.  1.
</event>
<event>
 5   0  0.9184414E-05  0.1818947E+04  0.7818609E-02  0.8696288E-01
        2   -1    0    0  501    0  0.00000000000E+00  0.00000000000E+00  0.13666814553E+04  0.13666814553E+04  0.25500000920E-02 0. -1.
       -2   -1    0    0    0  501  0.00000000000E+00  0.00000000000E+00 -0.60521935860E+03  0.60521935860E+03  0.25500000920E-02 0.  1.
    10030    2    1    2    0    0  0.00000000000E+00  0.00000000000E+00  0.76146209670E+03  0.19719008139E+04  0.18189470292E+04 0.  0.
        5    1    3    3  502    0  0.55976453819E+03  0.18717367948E+03  0.11308312001E+04  0.12756063725E+04  0.46999998093E+01 0. -1.
       -5    1    3    3    0  502 -0.55976453819E+03 -0.18717367948E+03 -0.36936910342E+03  0.69629444136E+03  0.46999998093E+01 0.  1.
</event>
<event>
 5   0  0.4623665E-05  0.1834016E+04  0.7818609E-02  0.8688417E-01
        1   -1    0    0  501    0  0.00000000000E+00  0.00000000000E+00  0.14691979262E+04  0.14691979262E+04  0.50400001928E-02 0.  1.
       -1   -1    0    0    0  501  0.00000000000E+00  0.00000000000E+00 -0.57235535364E+03  0.57235535367E+03  0.50400001928E-02 0. -1.
    10030    2    1    2    0    0  0.00000000000E+00  0.00000000000E+00  0.89684257259E+03  0.20415532799E+04  0.18340155928E+04 0.  0.
        5    1    3    3  502    0 -0.35647755507E+03  0.83111801209E+03  0.61741577456E+03  0.10950149433E+04  0.46999998093E+01 0.  1.
       -5    1    3    3    0  502  0.35647755507E+03 -0.83111801209E+03  0.27942679804E+03  0.94653833665E+03  0.46999998093E+01 0. -1.
</event>
<event>
 5   0  0.9184414E-05  0.1775506E+04  0.7818609E-02  0.8719435E-01
       -2   -1    0    0    0  501  0.00000000000E+00  0.00000000000E+00  0.60006663800E+03  0.60006663800E+03  0.25500000920E-02 0.  1.
        2   -1    0    0  501    0  0.00000000000E+00  0.00000000000E+00 -0.13133631420E+04  0.13133631420E+04  0.25500000920E-02 0. -1.
    10030    2    1    2    0    0  0.00000000000E+00  0.00000000000E+00 -0.71329650396E+03  0.19134297800E+04  0.17755060181E+04 0.  0.
        5    1    3    3  502    0 -0.83360630796E+03  0.29878316454E+03 -0.42405684763E+03  0.98184375341E+03  0.46999998093E+01 0. -1.
       -5    1    3    3    0  502  0.83360630796E+03 -0.29878316454E+03 -0.28923965634E+03  0.93158602656E+03  0.46999998093E+01 0.  1.
</event>
<event>
 5   0  0.8802655E-05  0.1800525E+04  0.7818609E-02  0.8706020E-01
       -2   -1    0    0    0  501  0.00000000000E+00  0.00000000000E+00  0.36705756808E+03  0.36705756809E+03  0.25500000920E-02 0. -1.
        2   -1    0    0  501    0  0.00000000000E+00  0.00000000000E+00 -0.22080262955E+04  0.22080262955E+04  0.25500000920E-02 0.  1.
    10030    2    1    2    0    0  0.00000000000E+00  0.00000000000E+00 -0.18409687275E+04  0.25750838636E+04  0.18005252148E+04 0.  0.
        2    1    3    3  502    0  0.26758328494E+03  0.28533405373E+03 -0.20801309581E+04  0.21165918689E+04  0.25500000920E-02 0.  1.
       -2    1    3    3    0  502 -0.26758328494E+03 -0.28533405373E+03  0.23916223069E+03  0.45849199469E+03  0.25500000920E-02 0. -1.
</event>
<event>
 5   0  0.4535100E-05  0.1802083E+04  0.7818609E-02  0.8705192E-01
        1   -1    0    0  501    0  0.00000000000E+00  0.00000000000E+00  0.10176897408E+04  0.10176897408E+04  0.50400001928E-02 0. -1.
       -1   -1    0    0    0  501  0.00000000000E+00  0.00000000000E+00 -0.79776366867E+03  0.79776366869E+03  0.50400001928E-02 0.  1.
    10030    2    1    2    0    0  0.00000000000E+00  0.00000000000E+00  0.21992607211E+03  0.18154534095E+04  0.18020831293E+04 0.  0.
        1    1    3    3  502    0  0.76206706708E+03  0.85678348804E+01 -0.37428645646E+03  0.84906417545E+03  0.50400001928E-02 0.  1.
       -1    1    3    3    0  502 -0.76206706708E+03 -0.85678348804E+01  0.59421252857E+03  0.96638923403E+03  0.50400001928E-02 0. -1.
</event>
<event>
 5   0  0.4335117E-05  0.1801663E+04  0.7818609E-02  0.8705416E-01
       -1   -1    0    0    0  501  0.00000000000E+00  0.00000000000E+00  0.11195825431E+04  0.11195825431E+04  0.50400001928E-02 0.  1.
        1   -1    0    0  501    0  0.00000000000E+00  0.00000000000E+00 -0.72482154019E+03  0.72482154020E+03  0.50400001928E-02 0. -1.
    10030    2    1    2    0    0  0.00000000000E+00  0.00000000000E+00  0.39476100294E+03  0.18444040833E+04  0.18016631686E+04 0.  0.
        3    1    3    3  502    0  0.25932505449E+03  0.23137475985E+03 -0.65342743351E+03  0.74010214461E+03  0.10100000352E+00 0. -1.
       -3    1    3    3    0  502 -0.25932505449E+03 -0.23137475985E+03  0.10481884365E+04  0.11043019387E+04  0.10100000352E+00 0.  1.
</event>
<event>
 5   0  0.8892280E-05  0.1792862E+04  0.7818609E-02  0.8710105E-01
        2   -1    0    0  501    0  0.00000000000E+00  0.00000000000E+00  0.10821892788E+04  0.10821892788E+04  0.25500000920E-02 0. -1.
       -2   -1    0    0    0  501  0.00000000000E+00  0.00000000000E+00 -0.74255812077E+03  0.74255812077E+03  0.25500000920E-02 0.  1.
    10030    2    1    2    0    0  0.00000000000E+00  0.00000000000E+00  0.33963115804E+03  0.18247473996E+04  0.17928618878E+04 0.  0.
        4    1    3    3  502    0  0.22740036999E+03  0.85470152136E+03  0.21061529901E+02  0.88468684846E+03  0.12699999809E+01 0.  1.
       -4    1    3    3    0  502 -0.22740036999E+03 -0.85470152136E+03  0.31856962814E+03  0.94006055112E+03  0.12699999809E+01 0. -1.
</event>
<event>
 5   0  0.8892280E-05  0.1791722E+04  0.7818609E-02  0.8710714E-01
       -2   -1    0    0    0  501  0.00000000000E+00  0.00000000000E+00  0.16641035842E+04  0.16641035842E+04  0.25500000920E-02 0.  1.
        2   -1    0    0  501    0  0.00000000000E+00  0.00000000000E+00 -0.48228176759E+03  0.48228176760E+03  0.25500000920E-02 0. -1.
    10030    2    1    2    0    0  0.00000000000E+00  0.00000000000E+00  0.11818218166E+04  0.21463853518E+04  0.17917218736E+04 0.  0.
        4    1    3    3  502    0  0.13462357127E+03  0.75082715532E+03  0.28131052009E+02  0.76332030766E+03  0.12699999809E+01 0. -1.
       -4    1    3    3    0  502 -0.13462357127E+03 -0.75082715532E+03  0.11536907646E+04  0.13830650441E+04  0.12699999809E+01 0.  1.
</event>
<event>
 5   0  0.8893075E-05  0.1808442E+04  0.7818609E-02  0.8701823E-01
       -2   -1    0    0    0  501  0.00000000000E+00  0.00000000000E+00  0.98454973562E+03  0.98454973562E+03  0.25500000920E-02 0.  1.
        2   -1    0    0  501    0  0.00000000000E+00  0.00000000000E+00 -0.83044616913E+03  0.83044616913E+03  0.25500000920E-02 0. -1.
    10030    2    1    2    0    0  0.00000000000E+00  0.00000000000E+00  0.15410356649E+03  0.18149959048E+04  0.18084419330E+04 0.  0.
        1    1    3    3  502    0 -0.48232327018E+03 -0.71066016343E+03 -0.20671297210E+03  0.88340469645E+03  0.50400001928E-02 0. -1.
       -1    1    3    3    0  502  0.48232327018E+03  0.71066016343E+03  0.36081653860E+03  0.93159120831E+03  0.50400001928E-02 0.  1.
</event>
<event>
 5   0  0.9184414E-05  0.1789724E+04  0.7818609E-02  0.8711783E-01
        2   -1    0    0  501    0  0.00000000000E+00  0.00000000000E+00  0.99822239535E+03  0.99822239535E+03  0.25500000920E-02 0.  1.
       -2   -1    0    0    0  501  0.00000000000E+00  0.00000000000E+00 -0.80220407894E+03  0.80220407894E+03  0.25500000920E-02 0. -1.
    10030    2    1    2    0    0  0.00000000000E+00  0.00000000000E+00  0.19601831641E+03  0.18004264743E+04  0.17897240874E+04 0.  0.
        5    1    3    3  502    0  0.73320548118E+03  0.35192227291E+03  0.47349231937E+03  0.94109331647E+03  0.46999998093E+01 0.  1.
       -5    1    3    3    0  502 -0.73320548118E+03 -0.35192227291E+03 -0.27747400296E+03  0.85933315782E+03  0.46999998093E+01 0. -1.
</event>
<event>
 5   0  0.4335117E-05  0.1800173E+04  0.7818609E-02  0.8706207E-01
       -1   -1    0    0    0  501  0.00000000000E+00  0.00000000000E+00  0.69188081770E+03  0.69188081772E+03  0.50400001928E-02 0. -1.
        1   -1    0    0  501    0  0.00000000000E+00  0.00000000000E+00 -0.11709472182E+04  0.11709472182E+04  0.50400001928E-02 0.  1.
    10030    2    1    2    0    0  0.00000000000E+00  0.00000000000E+00 -0.47906640051E+03  0.18628280359E+04  0.18001732348E+04 0.  0.
        3    1    3    3  502    0  0.43506007871E+03  0.12261671978E+03 -0.10449835803E+04  0.11385529524E+04  0.10100000352E+00 0.  1.
       -3    1    3    3    0  502 -0.43506007871E+03 -0.12261671978E+03  0.56591717981E+03  0.72427508355E+03  0.10100000352E+00 0. -1.
</event>
<event>
 5   0  0.4535100E-05  0.1800680E+04  0.7818609E-02  0.8705938E-01
       -1   -1    0    0    0  501  0.00000000000E+00  0.00000000000E+00  0.39129900386E+03  0.39129900389E+03  0.50400001928E-02 0.  1.
        1   -1    0    0  501    0  0.00000000000E+00  0.00000000000E+00 -0.20715915424E+04  0.20715915424E+04  0.50400001928E-02 0. -1.
    10030    2    1    2    0    0  0.00000000000E+00  0.00000000000E+00 -0.16802925385E+04  0.24628905463E+04  0.18006795462E+04 0.  0.
        1    1    3    3  502    0 -0.35689274055E+03 -0.33053943417E+03  0.19608854819E+03  0.52448018509E+03  0.50400001928E-02 0.  1.
       -1    1    3    3    0  502  0.35689274055E+03  0.33053943417E+03 -0.18763810867E+04  0.19384103612E+04  0.50400001928E-02 0. -1.
</event>
<event>
 5   0  0.8802655E-05  0.1781679E+04  0.7818609E-02  0.8716104E-01
        2   -1    0    0  501    0  0.00000000000E+00  0.00000000000E+00  0.83470838299E+03  0.83470838299E+03  0.25500000920E-02 0.  1.
       -2   -1    0    0    0  501  0.00000000000E+00  0.00000000000E+00 -0.95074512059E+03  0.95074512059E+03  0.25500000920E-02 0. -1.
    10030    2    1    2    0    0  0.00000000000E+00  0.00000000000E+00 -0.11603673760E+03  0.17854535036E+04  0.17816788962E+04 0.  0.
        2    1    3    3  502    0  0.46219323227E+03  0.74045987787E+03  0.12037986828E+03  0.88113263893E+03  0.25500000920E-02 0.  1.
       -2    1    3    3    0  502 -0.46219323227E+03 -0.74045987787E+03 -0.23641660589E+03  0.90432086465E+03  0.25500000920E-02 0. -1.
</event>
<event>
 5   0  0.4623665E-05  0.1790611E+04  0.7818609E-02  0.8711308E-01
        1   -1    0    0  501    0  0.00000000000E+00  0.00000000000E+00  0.16097698510E+04  0.16097698510E+04  0.50400001928E-02 0.  1.
       -1   -1    0    0    0  501  0.00000000000E+00  0.00000000000E+00 -0.49794207495E+03  0.49794207497E+03  0.50400001928E-02 0. -1.
    10030    2    1    2    0    0  0.00000000000E+00  0.00000000000E+00  0.11118277761E+04  0.21077119260E+04  0.17906112251E+04 0.  0.
        5    1    3    3  502    0 -0.18095683689E+03 -0.83116687150E+03  0.22724134450E+03  0.88047967821E+03  0.46999998093E+01 0. -1.
       -5    1    3    3    0  502  0.18095683689E+03  0.83116687150E+03  0.88458643159E+03  0.12272322478E+04  0.46999998093E+01 0.  1.
</event>
<event>
 5   0  0.4335117E-05  0.1799695E+04  0.7818609E-02  0.8706462E-01
       -1   -1    0    0    0  501  0.00000000000E+00  0.00000000000E+00  0.43921920318E+03  0.43921920321E+03  0.50400001928E-02 0. -1.
        1   -1    0    0  501    0  0.00000000000E+00  0.00000000000E+00 -0.18435557736E+04  0.18435557736E+04  0.50400001928E-02 0.  1.
    10030    2    1    2    0    0  0.00000000000E+00  0.00000000000E+00 -0.14043365704E+04  0.22827749768E+04  0.17996945273E+04 0.  0.
        3    1    3    3  502    0  0.33272483346E+03 -0.50987282865E+03 -0.15426355239E+04  0.16584331418E+04  0.10100000352E+00 0.  1.
       -3    1    3    3    0  502 -0.33272483346E+03  0.50987282865E+03  0.13829895345E+03  0.62434183499E+03  0.10100000352E+00 0. -1.
</event>
<event>
 5   0  0.4578107E-05  0.1799806E+04  0.7818609E-02  0.8706403E-01
       -1   -1    0    0    0  501  0.00000000000E+00  0.00000000000E+00  0.66345294575E+03  0.66345294576E+03  0.50400001928E-02 0.  1.
        1   -1    0    0  501    0  0.00000000000E+00  0.00000000000E+00 -0.12206224043E+04  0.12206224043E+04  0.50400001928E-02 0. -1.
    10030    2    1    2    0    0  0.00000000000E+00  0.00000000000E+00 -0.55716945858E+03  0.18840753501E+04  0.17998061338E+04 0.  0.
        2    1    3    3  502    0 -0.40768578228E+03 -0.45537884015E+03  0.41283097088E+03  0.73756829897E+03  0.25500000920E-02 0.  1.
       -2    1    3    3    0  502  0.40768578228E+03  0.45537884015E+03 -0.97000042946E+03  0.11465070511E+04  0.25500000920E-02 0. -1.
</event>
<event>
 5   0  0.8802655E-05  0.1800999E+04  0.7818609E-02  0.8705769E-01
       -2   -1    0    0    0  501  0.00000000000E+00  0.00000000000E+00  0.40648198358E+03  0.40648198359E+03  0.25500000920E-02 0. -1.
        2   -1    0    0  501    0  0.00000000000E+00  0.00000000000E+00 -0.19949200490E+04  0.19949200490E+04  0.25500000920E-02 0.  1.
    10030    2    1    2    0    0  0.00000000000E+00  0.00000000000E+00 -0.15884380654E+04  0.24014020326E+04  0.18009986770E+04 0.  0.
        2    1    3    3  502    0 -0.45917603081E+03 -0.38663966614E+03  0.10079693746E+03  0.60868126414E+03  0.25500000920E-02 0. -1.
       -2    1    3    3    0  502  0.45917603081E+03  0.38663966614E+03 -0.16892350029E+04  0.17927207684E+04  0.25500000920E-02 0.  1.
</event>
<event>
 5   0  0.9147432E-05  0.1802440E+04  0.7818609E-02  0.8705003E-01
       -2   -1    0    0    0  501  0.00000000000E+00  0.00000000000E+00  0.86777868277E+03  0.86777868278E+03  0.25500000920E-02 0.  1.
        2   -1    0    0  501    0  0.00000000000E+00  0.00000000000E+00 -0.93594996869E+03  0.93594996870E+03  0.25500000920E-02 0. -1.
    10030    2    1    2    0    0  0.00000000000E+00  0.00000000000E+00 -0.68171285920E+02  0.18037286515E+04  0.18024399363E+04 0.  0.
        3    1    3    3  502    0  0.18215514274E+03 -0.32987904485E+03 -0.85332641503E+03  0.93282724073E+03  0.10100000352E+00 0. -1.
       -3    1    3    3    0  502 -0.18215514274E+03  0.32987904485E+03  0.78515512911E+03  0.87090141074E+03  0.10100000352E+00 0.  1.
</event>
<event>
 5   0  0.4623665E-05  0.1786087E+04  0.7818609E-02  0.8713733E-01
        1   -1    0    0  501    0  0.00000000000E+00  0.00000000000E+00  0.54196335893E+03  0.54196335895E+03  0.50400001928E-02 0. -1.
       -1   -1    0    0    0  501  0.00000000000E+00  0.00000000000E+00 -0.14715515755E+04  0.14715515756E+04  0.50400001928E-02 0.  1.
    10030    2    1    2    0    0  0.00000000000E+00  0.00000000000E+00 -0.92958821662E+03  0.20135149345E+04  0.17860873828E+04 0.  0.
        5    1    3    3  502    0 -0.38215626278E+03 -0.80706435421E+03 -0.47654564012E+03  0.10121828482E+04  0.46999998093E+01 0.  1.
       -5    1    3    3    0  502  0.38215626278E+03  0.80706435421E+03 -0.45304257650E+03  0.10013320863E+04  0.46999998093E+01 0. -1.
</event>
<event>
 5   0  0.4535100E-05  0.1800981E+04  0.7818609E-02  0.8705778E-01
       -1   -1    0    0    0  501  0.00000000000E+00  0.00000000000E+00  0.59140519594E+03  0.59140519596E+03  0.50400001928E-02 0.  1.
        1   -1    0    0  501    0  0.00000000000E+00  0.00000000000E+00 -0.13711121080E+04  0.13711121080E+04  0.50400001928E-02 0. -1.
    10030    2    1    2    0    0  0.00000000000E+00  0.00000000000E+00 -0.77970691208E+03  0.19625173040E+04  0.18009806495E+04 0.  0.
        1    1    3    3  502    0  0.17104657640E+03  0.85826566067E+03 -0.62102768166E+03  0.10731040290E+04  0.50400001928E-02 0. -1.
       -1    1    3    3    0  502 -0.17104657640E+03 -0.85826566067E+03 -0.15867923042E+03  0.88941327501E+03  0.50400001928E-02 0.  1.
</event>
<event>
 5   0  0.4335117E-05  0.1802822E+04  0.7818609E-02  0.8704800E-01
        1   -1    0    0  501    0  0.00000000000E+00  0.00000000000E+00  0.17358205105E+04  0.17358205105E+04  0.50400001928E-02 0. -1.
       -1   -1    0    0    0  501  0.00000000000E+00  0.00000000000E+00 -0.46810257146E+03  0.46810257149E+03  0.50400001928E-02 0.  1.
    10030    2    1    2    0    0  0.00000000000E+00  0.00000000000E+00  0.12677179391E+04  0.22039230820E+04  0.18028222814E+04 0.  0.
        3    1    3    3  502    0 -0.36787043994E+02 -0.41306006139E+03 -0.34456449485E+03  0.53916287171E+03  0.10100000352E+00 0.  1.
       -3    1    3    3    0  502  0.36787043994E+02  0.41306006139E+03  0.16122824339E+04  0.16647602103E+04  0.10100000352E+00 0. -1.
</event>
<event>
 5   0  0.9184414E-05  0.1801686E+04  0.7818609E-02  0.8705403E-01
        2   -1    0    0  501    0  0.00000000000E+00  0.00000000000E+00  0.93597676583E+03  0.93597676584E+03  0.25500000920E-02 0. -1.
       -2   -1    0    0    0  501  0.00000000000E+00  0.00000000000E+00 -0.86702842561E+03  0.86702842561E+03  0.25500000920E-02 0.  1.
    10030    2    1    2    0    0  0.00000000000E+00  0.00000000000E+00  0.68948340225E+02  0.18030051914E+04  0.18016863897E+04 0.  0.
        5    1    3    3  502    0 -0.66436515698E+03 -0.39394095252E+03 -0.42946612196E+03  0.88376115313E+03  0.46999998093E+01 0.  1.
       -5    1    3    3    0  502  0.66436515698E+03  0.39394095252E+03  0.49841446218E+03  0.91924403832E+03  0.46999998093E+01 0. -1.
</event>
<event>
 5   0  0.3270375E-05  0.1790661E+04  0.7818609E-02  0.8711281E-01
       -3   -1    0    0    0  501  0.00000000000E+00  0.00000000000E+00  0.17812740769E+04  0.17812740798E+04  0.10100000352E+00 0.  1.
        3   -1    0    0  501    0  0.00000000000E+00  0.00000000000E+00 -0.45002451001E+03  0.45002452134E+03  0.10100000352E+00 0. -1.
    10030    2    1    2    0    0  0.00000000000E+00  0.00000000000E+00  0.13312495669E+04  0.22312986011E+04  0.17906613409E+04 0.  0.
        1    1    3    3  502    0  0.47689041690E+03  0.75352918092E+03  0.56604542050E+03  0.10562377168E+04  0.50400001928E-02 0. -1.
       -1    1    3    3    0  502 -0.47689041690E+03 -0.75352918092E+03  0.76520414640E+03  0.11750608843E+04  0.50400001928E-02 0.  1.
</event>
<event>
 5   0  0.8802655E-05  0.1801246E+04  0.7818609E-02  0.8705637E-01
        2   -1    0    0  501    0  0.00000000000E+00  0.00000000000E+00  0.11648023279E+04  0.11648023279E+04  0.25500000920E-02 0.  1.
       -2   -1    0    0    0  501  0.00000000000E+00  0.00000000000E+00 -0.69635980664E+03  0.69635980664E+03  0.25500000920E-02 0. -1.
    10030    2    1    2    0    0  0.00000000000E+00  0.00000000000E+00  0.46844252131E+03  0.18611621346E+04  0.18012457066E+04 0.  0.
        2    1    3    3  502    0 -0.17629195644E+03 -0.64696505205E+03 -0.38700916876E+03  0.77422136963E+03  0.25500000920E-02 0. -1.
       -2    1    3    3    0  502  0.17629195644E+03  0.64696505205E+03  0.85545169007E+03  0.10869407650E+04  0.25500000920E-02 0.  1.
</event>
<event>
 5   0  0.8802655E-05  0.1791194E+04  0.7818609E-02  0.8710996E-01
        2   -1    0    0  501    0  0.00000000000E+00  0.00000000000E+00  0.70165226775E+03  0.70165226775E+03  0.25500000920E-02 0.  1.
       -2   -1    0    0    0  501  0.00000000000E+00  0.00000000000E+00 -0.11431506370E+04  0.11431506370E+04  0.25500000920E-02 0. -1.
    10030    2    1    2    0    0  0.00000000000E+00  0.00000000000E+00 -0.44149836920E+03  0.18448029047E+04  0.17911942796E+04 0.  0.
        2    1    3    3  502    0 -0.36342128529E+03 -0.43253749224E+03  0.49498145336E+03  0.75111274252E+03  0.25500000920E-02 0.  1.
       -2    1    3    3    0  502  0.36342128529E+03  0.43253749224E+03 -0.93647982256E+03  0.10936901622E+04  0.25500000920E-02 0. -1.
</event>
<event>
 5   0  0.9184414E-05  0.1791922E+04  0.7818609E-02  0.8710607E-01
        2   -1    0    0  501    0  0.00000000000E+00  0.00000000000E+00  0.12217899160E+04  0.12217899160E+04  0.25500000920E-02 0.  1.
       -2   -1    0    0    0  501  0.00000000000E+00  0.00000000000E+00 -0.65702464811E+03  0.65702464811E+03  0.25500000920E-02 0. -1.
    10030    2    1    2    0    0  0.00000000000E+00  0.00000000000E+00  0.56476526793E+03  0.18788145642E+04  0.17919219734E+04 0.  0.
        5    1    3    3  502    0  0.74055789370E+03 -0.44544111008E+03  0.53023546795E+03  0.10139110010E+04  0.46999998093E+01 0.  1.
       -5    1    3    3    0  502 -0.74055789370E+03  0.44544111008E+03  0.34529799980E+02  0.86490356316E+03  0.46999998093E+01 0. -1.
</event>
<event>
 5   0  0.8893075E-05  0.1799165E+04  0.7818609E-02  0.8706744E-01
       -2   -1    0    0    0  501  0.00000000000E+00  0.00000000000E+00  0.54766971859E+03  0.54766971860E+03  0.25500000920E-02 0. -1.
        2   -1    0    0  501    0  0.00000000000E+00  0.00000000000E+00 -0.14776216603E+04  0.14776216603E+04  0.25500000920E-02 0.  1.
    10030    2    1    2    0    0  0.00000000000E+00  0.00000000000E+00 -0.92995194171E+03  0.20252913789E+04  0.17991649606E+04 0.  0.
        1    1    3    3  502    0 -0.56524747952E+03  0.40397312978E+03 -0.11082427624E+04  0.13080141525E+04  0.50400001928E-02 0.  1.
       -1    1    3    3    0  502  0.56524747952E+03 -0.40397312978E+03  0.17829082074E+03  0.71727722637E+03  0.50400001928E-02 0. -1.
</event>
<event>
 5   0  0.8802655E-05  0.1795765E+04  0.7818609E-02  0.8708555E-01
        2   -1    0    0  501    0  0.00000000000E+00  0.00000000000E+00  0.10888273569E+04  0.10888273569E+04  0.25500000920E-02 0. -1.
       -2   -1    0    0    0  501  0.00000000000E+00  0.00000000000E+00 -0.74042313808E+03  0.74042313808E+03  0.25500000920E-02 0.  1.
    10030    2    1    2    0    0  0.00000000000E+00  0.00000000000E+00  0.34840421879E+03  0.18292504950E+04  0.17957649828E+04 0.  0.
        2    1    3    3  502    0 -0.60024902043E+03  0.63080009055E+03 -0.48938140326E+02  0.87212532491E+03  0.25500000920E-02 0.  1.
       -2    1    3    3    0  502  0.60024902043E+03 -0.63080009055E+03  0.39734235912E+03  0.95712517004E+03  0.25500000920E-02 0. -1.
</event>
<event>
 5   0  0.8893075E-05  0.1797303E+04  0.7818609E-02  0.8707735E-01
       -2   -1    0    0    0  501  0.00000000000E+00  0.00000000000E+00  0.56529813999E+03  0.56529814000E+03  0.25500000920E-02 0. -1.
        2   -1    0    0  501    0  0.00000000000E+00  0.00000000000E+00 -0.14285813363E+04  0.14285813363E+04  0.25500000920E-02 0.  1.
    10030    2    1    2    0    0  0.00000000000E+00  0.00000000000E+00 -0.86328319632E+03  0.19938794763E+04  0.17973028373E+04 0.  0.
        1    1    3    3  502    0  0.16326697792E+03  0.55489033878E+03 -0.11946249988E+04  0.13272860588E+04  0.50400001928E-02 0.  1.
       -1    1    3    3    0  502 -0.16326697792E+03 -0.55489033878E+03  0.33134180248E+03  0.66659341749E+03  0.50400001928E-02 0. -1.
</event>
<event>
 5   0  0.4494757E-05  0.1798632E+04  0.7818609E-02  0.8707027E-01
        1   -1    0    0  501    0  0.00000000000E+00  0.00000000000E+00  0.51744050202E+03  0.51744050205E+03  0.50400001928E-02 0. -1.
       -1   -1    0    0    0  501  0.00000000000E+00  0.00000000000E+00 -0.15630188379E+04  0.15630188379E+04  0.50400001928E-02 0.  1.
    10030    2    1    2    0    0  0.00000000000E+00  0.00000000000E+00 -0.10455783358E+04  0.20804593399E+04  0.17986319826E+04 0.  0.
        4    1    3    3  502    0 -0.72489929387E+03  0.34629364438E+03 -0.55266975136E+02  0.80526661785E+03  0.12699999809E+01 0. -1.
       -4    1    3    3    0  502  0.72489929387E+03 -0.34629364438E+03 -0.99031136071E+03  0.12751927221E+04  0.12699999809E+01 0.  1.
</event>
<event>
 5   0  0.4494757E-05  0.1901127E+04  0.7818609E-02  0.8654295E-01
       -1   -1    0    0    0  501  0.00000000000E+00  0.00000000000E+00  0.40486620135E+03  0.40486620138E+03  0.50400001928E-02 0.  1.
        1   -1    0    0  501    0  0.00000000000E+00  0.00000000000E+00 -0.22317777010E+04  0.22317777010E+04  0.50400001928E-02 0. -1.
    10030    2    1    2    0    0  0.00000000000E+00  0.00000000000E+00 -0.18269114996E+04  0.26366439024E+04  0.19011274130E+04 0.  0.
        4    1    3    3  502    0  0.40702174586E+03 -0.21891545491E+02  0.27750879273E+03  0.49311122914E+03  0.12699999809E+01 0.  1.
       -4    1    3    3    0  502 -0.40702174586E+03  0.21891545491E+02 -0.21044202924E+04  0.21435326732E+04  0.12699999809E+01 0. -1.
</event>
<event>
 5   0  0.4494757E-05  0.1792499E+04  0.7818609E-02  0.8710299E-01
       -1   -1    0    0    0  501  0.00000000000E+00  0.00000000000E+00  0.56552093138E+03  0.56552093141E+03  0.50400001928E-02 0. -1.
        1   -1    0    0  501    0  0.00000000000E+00  0.00000000000E+00 -0.14203944742E+04  0.14203944742E+04  0.50400001928E-02 0.  1.
    10030    2    1    2    0    0  0.00000000000E+00  0.00000000000E+00 -0.85487354286E+03  0.19859154057E+04  0.17924985981E+04 0.  0.
        4    1    3    3  502    0  0.28480146141E+03  0.32103807769E+03  0.44428253721E+03  0.61771021160E+03  0.12699999809E+01 0. -1.
       -4    1    3    3    0  502 -0.28480146141E+03 -0.32103807769E+03 -0.12991560801E+04  0.13682051941E+04  0.12699999809E+01 0.  1.
</event>
<event>
 5   0  0.8892280E-05  0.1791010E+04  0.7818609E-02  0.8711095E-01
       -2   -1    0    0    0  501  0.00000000000E+00  0.00000000000E+00  0.91881249403E+03  0.91881249404E+03  0.25500000920E-02 0.  1.
        2   -1    0    0  501    0  0.00000000000E+00  0.00000000000E+00 -0.87278861019E+03  0.87278861019E+03  0.25500000920E-02 0. -1.
    10030    2    1    2    0    0  0.00000000000E+00  0.00000000000E+00  0.46023883848E+02  0.17916011042E+04  0.17910098600E+04 0.  0.
        4    1    3    3  502    0 -0.60891114960E+03  0.14519408607E+03  0.66359304198E+03  0.91225624087E+03  0.12699999809E+01 0.  1.
       -4    1    3    3    0  502  0.60891114960E+03 -0.14519408607E+03 -0.61756915813E+03  0.87934486336E+03  0.12699999809E+01 0. -1.
</event>
<event>
 5   0  0.4623665E-05  0.1799915E+04  0.7818609E-02  0.8706345E-01
        1   -1    0    0  501    0  0.00000000000E+00  0.00000000000E+00  0.82441786644E+03  0.82441786645E+03  0.50400001928E-02 0.  1.
       -1   -1    0    0    0  501  0.00000000000E+00  0.00000000000E+00 -0.98241826687E+03  0.98241826688E+03  0.50400001928E-02 0. -1.
    10030    2    1    2    0    0  0.00000000000E+00  0.00000000000E+00 -0.15800040043E+03  0.18068361333E+04  0.17999146330E+04 0.  0.
        5    1    3    3  502    0 -0.50188057804E+03  0.45886919678E+03 -0.67072092990E+03  0.95516161469E+03  0.46999998093E+01 0.  1.
       -5    1    3    3    0  502  0.50188057804E+03 -0.45886919678E+03  0.51272052947E+03  0.85167451864E+03  0.46999998093E+01 0. -1.
</event>
<event>
 5   0  0.4578107E-05  0.1788286E+04  0.7818609E-02  0.8712554E-01
        1   -1    0    0  501    0  0.00000000000E+00  0.00000000000E+00  0.67185569792E+03  0.67185569794E+03  0.50400001928E-02 0. -1.
       -1   -1    0    0    0  501  0.00000000000E+00  0.00000000000E+00 -0.11899752587E+04  0.11899752587E+04  0.50400001928E-02 0.  1.
    10030    2    1    2    0    0  0.00000000000E+00  0.00000000000E+00 -0.51811956075E+03  0.18618309566E+04  0.17882859480E+04 0.  0.
        2    1    3    3  502    0 -0.19052933905E+03  0.56238620481E+01  0.65045693422E+03  0.67781065213E+03  0.25500000920E-02 0. -1.
       -2    1    3    3    0  502  0.19052933905E+03 -0.56238620481E+01 -0.11685764950E+04  0.11840203045E+04  0.25500000920E-02 0.  1.
</event>
<event>
 5   0  0.4494757E-05  0.1801942E+04  0.7818609E-02  0.8705267E-01
       -1   -1    0    0    0  501  0.00000000000E+00  0.00000000000E+00  0.59147819212E+03  0.59147819214E+03  0.50400001928E-02 0. -1.
        1   -1    0    0  501    0  0.00000000000E+00  0.00000000000E+00 -0.13724071154E+04  0.13724071154E+04  0.50400001928E-02 0.  1.
    10030    2    1    2    0    0  0.00000000000E+00  0.00000000000E+00 -0.78092892327E+03  0.19638853075E+04  0.18019421517E+04 0.  0.
        4    1    3    3  502    0  0.83612727250E+02  0.70518394917E+03  0.21387075791E+03  0.74163185228E+03  0.12699999809E+01 0.  1.
       -4    1    3    3    0  502 -0.83612727250E+02 -0.70518394917E+03 -0.99479968118E+03  0.12222534553E+04  0.12699999809E+01 0. -1.
</event>
<event>
 5   0  0.4494757E-05  0.1807332E+04  0.7818609E-02  0.8702410E-01
        1   -1    0    0  501    0  0.00000000000E+00  0.00000000000E+00  0.88644250440E+03  0.88644250441E+03  0.50400001928E-02 0. -1.
       -1   -1    0    0    0  501  0.00000000000E+00  0.00000000000E+00 -0.92122406297E+03  0.92122406298E+03  0.50400001928E-02 0.  1.
    10030    2    1    2    0    0  0.00000000000E+00  0.00000000000E+00 -0.34781558571E+02  0.18076665674E+04  0.18073319181E+04 0.  0.
        4    1    3    3  502    0 -0.74788443757E+03  0.39517237049E+03 -0.33544056822E+03  0.90995292299E+03  0.12699999809E+01 0.  1.
       -4    1    3    3    0  502  0.74788443757E+03 -0.39517237049E+03  0.30065900964E+03  0.89771364440E+03  0.12699999809E+01 0. -1.
</event>
<event>
 5   0  0.9147432E-05  0.1795575E+04  0.7818609E-02  0.8708656E-01
       -2   -1    0    0    0  501  0.00000000000E+00  0.00000000000E+00  0.56177647279E+03  0.56177647279E+03  0.25500000920E-02 0.  1.
        2   -1    0    0  501    0  0.00000000000E+00  0.00000000000E+00 -0.14347749440E+04  0.14347749440E+04  0.25500000920E-02 0. -1.
    10030    2    1    2    0    0  0.00000000000E+00  0.00000000000E+00 -0.87299847120E+03  0.19965514168E+04  0.17955754590E+04 0.  0.
        3    1    3    3  502    0 -0.34177980020E+03 -0.74509857163E+03 -0.84358880153E+03  0.11762769187E+04  0.10100000352E+00 0. -1.
       -3    1    3    3    0  502  0.34177980020E+03  0.74509857163E+03 -0.29409669670E+02  0.82027449805E+03  0.10100000352E+00 0.  1.
</event>
<event>
 5   0  0.4578107E-05  0.1801453E+04  0.7818609E-02  0.8705527E-01
       -1   -1    0    0    0  501  0.00000000000E+00  0.00000000000E+00  0.78081224788E+03  0.78081224790E+03  0.50400001928E-02 0. -1.
        1   -1    0    0  501    0  0.00000000000E+00  0.00000000000E+00 -0.10390564865E+04  0.10390564865E+04  0.50400001928E-02 0.  1.
    10030    2    1    2    0    0  0.00000000000E+00  0.00000000000E+00 -0.25824423864E+03  0.18198687344E+04  0.18014527814E+04 0.  0.
        2    1    3    3  502    0  0.57176208509E+03  0.65523425024E+03  0.10793442618E+03  0.87629540967E+03  0.25500000920E-02 0. -1.
       -2    1    3    3    0  502 -0.57176208509E+03 -0.65523425024E+03 -0.36617866483E+03  0.94357332477E+03  0.25500000920E-02 0.  1.
</event>
<event>
 5   0  0.9147432E-05  0.1803442E+04  0.7818609E-02  0.8704471E-01
       -2   -1    0    0    0  501  0.00000000000E+00  0.00000000000E+00  0.11804176300E+04  0.11804176300E+04  0.25500000920E-02 0. -1.
        2   -1    0    0  501    0  0.00000000000E+00  0.00000000000E+00 -0.68882445032E+03  0.68882445033E+03  0.25500000920E-02 0.  1.
    10030    2    1    2    0    0  0.00000000000E+00  0.00000000000E+00  0.49159317967E+03  0.18692420803E+04  0.18034417375E+04 0.  0.
        3    1    3    3  502    0 -0.12333225825E+03  0.53110121667E+03 -0.49861480537E+03  0.73884780747E+03  0.10100000352E+00 0.  1.
       -3    1    3    3    0  502  0.12333225825E+03 -0.53110121667E+03  0.99020798503E+03  0.11303942728E+04  0.10100000352E+00 0. -1.
</event>
<event>
 5   0  0.4623665E-05  0.1804634E+04  0.7818609E-02  0.8703839E-01
       -1   -1    0    0    0  501  0.00000000000E+00  0.00000000000E+00  0.79471059896E+03  0.79471059898E+03  0.50400001928E-02 0. -1.
        1   -1    0    0  501    0  0.00000000000E+00  0.00000000000E+00 -0.10244935731E+04  0.10244935731E+04  0.50400001928E-02 0.  1.
    10030    2    1    2    0    0  0.00000000000E+00  0.00000000000E+00 -0.22978297415E+03  0.18192041721E+04  0.18046339254E+04 0.  0.
        5    1    3    3  502    0  0.50215882735E+03 -0.63903991507E+02 -0.86785351765E+03  0.10047084284E+04  0.46999998093E+01 0.  1.
       -5    1    3    3    0  502 -0.50215882735E+03  0.63903991507E+02  0.63807054350E+03  0.81449574370E+03  0.46999998093E+01 0. -1.
</event>
<event>
 5   0  0.9147432E-05  0.1763810E+04  0.7818609E-02  0.8725785E-01
       -2   -1    0    0    0  501  0.00000000000E+00  0.00000000000E+00  0.15431868614E+04  0.15431868614E+04  0.25500000920E-02 0. -1.
        2   -1    0    0  501    0  0.00000000000E+00  0.00000000000E+00 -0.50399388566E+03  0.50399388566E+03  0.25500000920E-02 0.  1.
    10030    2    1    2    0    0  0.00000000000E+00  0.00000000000E+00  0.10391929758E+04  0.20471807471E+04  0.17638103555E+04 0.  0.
        3    1    3    3  502    0  0.14186249739E+02 -0.71816996712E+03 -0.74256101740E+02  0.72213802711E+03  0.10100000352E+00 0.  1.
       -3    1    3    3    0  502 -0.14186249739E+02  0.71816996712E+03  0.11134490775E+04  0.13250427200E+04  0.10100000352E+00 0. -1.
</event>
<event>
 5   0  0.4335117E-05  0.1712438E+04  0.7818609E-02  0.8754302E-01
        1   -1    0    0  501    0  0.00000000000E+00  0.00000000000E+00  0.72415463279E+03  0.72415463281E+03  0.50400001928E-02 0. -1.
       -1   -1    0    0    0  501  0.00000000000E+00  0.00000000000E+00 -0.10123675280E+04  0.10123675280E+04  0.50400001928E-02 0.  1.
    10030    2    1    2    0    0  0.00000000000E+00  0.00000000000E+00 -0.28821289519E+03  0.17365221608E+04  0.17124376024E+04 0.  0.
        3    1    3    3  502    0  0.37010251438E+03 -0.35531901533E+03  0.55101471527E+03  0.75289089546E+03  0.10100000352E+00 0. -1.
       -3    1    3    3    0  502 -0.37010251438E+03  0.35531901533E+03 -0.83922761046E+03  0.98363126535E+03  0.10100000352E+00 0.  1.
</event>
<event>
 5   0  0.4623665E-05  0.1917974E+04  0.7818609E-02  0.8645961E-01
       -1   -1    0    0    0  501  0.00000000000E+00  0.00000000000E+00  0.40847679040E+03  0.40847679044E+03  0.50400001928E-02 0. -1.
        1   -1    0    0  501    0  0.00000000000E+00  0.00000000000E+00 -0.22514284708E+04  0.22514284708E+04  0.50400001928E-02 0.  1.
    10030    2    1    2    0    0  0.00000000000E+00  0.00000000000E+00 -0.18429516804E+04  0.26599052612E+04  0.19179742184E+04 0.  0.
        5    1    3    3  502    0 -0.24049704103E+03 -0.92405043073E+03 -0.79800772153E+03  0.12444060587E+04  0.46999998093E+01 0. -1.
       -5    1    3    3    0  502  0.24049704103E+03  0.92405043073E+03 -0.10449439589E+04  0.14154992026E+04  0.46999998093E+01 0.  1.
</event>
<event>
 5   0  0.9184414E-05  0.1801306E+04  0.7818609E-02  0.8705605E-01
        2   -1    0    0  501    0  0.00000000000E+00  0.00000000000E+00  0.85387564314E+03  0.85387564315E+03  0.25500000920E-02 0.  1.
       -2   -1    0    0    0  501  0.00000000000E+00  0.00000000000E+00 -0.94999332416E+03  0.94999332417E+03  0.25500000920E-02 0. -1.
    10030    2    1    2    0    0  0.00000000000E+00  0.00000000000E+00 -0.96117681020E+02  0.18038689673E+04  0.18013063711E+04 0.  0.
        5    1    3    3  502    0 -0.72665250725E+03  0.33864882309E+02  0.48371767458E+03  0.87359920744E+03  0.46999998093E+01 0.  1.
       -5    1    3    3    0  502  0.72665250725E+03 -0.33864882309E+02 -0.57983535560E+03  0.93026975988E+03  0.46999998093E+01 0. -1.
</event>
<event>
 5   0  0.4335117E-05  0.1794662E+04  0.7818609E-02  0.8709143E-01
       -1   -1    0    0    0  501  0.00000000000E+00  0.00000000000E+00  0.43430722401E+03  0.43430722404E+03  0.50400001928E-02 0.  1.
        1   -1    0    0  501    0  0.00000000000E+00  0.00000000000E+00 -0.18539943155E+04  0.18539943155E+04  0.50400001928E-02 0. -1.
    10030    2    1    2    0    0  0.00000000000E+00  0.00000000000E+00 -0.14196870915E+04  0.22883015395E+04  0.17946622240E+04 0.  0.
        3    1    3    3  502    0  0.53132414164E+03  0.92928005410E+02  0.20452823571E+03  0.57686460030E+03  0.10100000352E+00 0.  1.
       -3    1    3    3    0  502 -0.53132414164E+03 -0.92928005410E+02 -0.16242153272E+04  0.17114369392E+04  0.10100000352E+00 0. -1.
</event>
<event>
 5   0  0.4578107E-05  0.1802741E+04  0.7818609E-02  0.8704843E-01
       -1   -1    0    0    0  501  0.00000000000E+00  0.00000000000E+00  0.54756587770E+03  0.54756587772E+03  0.50400001928E-02 0. -1.
        1   -1    0    0  501    0  0.00000000000E+00  0.00000000000E+00 -0.14837831595E+04  0.14837831595E+04  0.50400001928E-02 0.  1.
    10030    2    1    2    0    0  0.00000000000E+00  0.00000000000E+00 -0.93621728176E+03  0.20313490372E+04  0.18027412771E+04 0.  0.
        2    1    3    3  502    0  0.30175662997E+03 -0.67913410164E+03  0.10666319474E+03  0.75077108952E+03  0.25500000920E-02 0. -1.
       -2    1    3    3    0  502 -0.30175662997E+03  0.67913410164E+03 -0.10428804765E+04  0.12805779477E+04  0.25500000920E-02 0.  1.
</event>
<event>
 5   0  0.8802655E-05  0.1792638E+04  0.7818609E-02  0.8710224E-01
        2   -1    0    0  501    0  0.00000000000E+00  0.00000000000E+00  0.15263606643E+04  0.15263606643E+04  0.25500000920E-02 0. -1.
       -2   -1    0    0    0  501  0.00000000000E+00  0.00000000000E+00 -0.52634218847E+03  0.52634218847E+03  0.25500000920E-02 0.  1.
    10030    2    1    2    0    0  0.00000000000E+00  0.00000000000E+00  0.10000184758E+04  0.20527028527E+04  0.17926382931E+04 0.  0.
        2    1    3    3  502    0  0.24665603528E+03 -0.51114797272E+03  0.12943937587E+04  0.14133529822E+04  0.25500000920E-02 0. -1.
       -2    1    3    3    0  502 -0.24665603528E+03  0.51114797272E+03 -0.29437528290E+03  0.63934987053E+03  0.25500000920E-02 0.  1.
</event>
<event>
 5   0  0.8802655E-05  0.1750697E+04  0.7818609E-02  0.8732967E-01
       -2   -1    0    0    0  501  0.00000000000E+00  0.00000000000E+00  0.48285789804E+03  0.48285789805E+03  0.25500000920E-02 0.  1.
        2   -1    0    0  501    0  0.00000000000E+00  0.00000000000E+00 -0.15868747933E+04  0.15868747933E+04  0.25500000920E-02 0. -1.
    10030    2    1    2    0    0  0.00000000000E+00  0.00000000000E+00 -0.11040168953E+04  0.20697326914E+04  0.17506970351E+04 0.  0.
        2    1    3    3  502    0  0.71039597377E+03 -0.40832814945E+03 -0.91609166586E+03  0.12290721124E+04  0.25500000920E-02 0. -1.
       -2    1    3    3    0  502 -0.71039597377E+03  0.40832814945E+03 -0.18792522942E+03  0.84066057898E+03  0.25500000920E-02 0.  1.
</event>
<event>
 5   0  0.8892280E-05  0.1791991E+04  0.7818609E-02  0.8710570E-01
        2   -1    0    0  501    0  0.00000000000E+00  0.00000000000E+00  0.66315445593E+03  0.66315445594E+03  0.25500000920E-02 0.  1.
       -2   -1    0    0    0  501  0.00000000000E+00  0.00000000000E+00 -0.12105890900E+04  0.12105890900E+04  0.25500000920E-02 0. -1.
    10030    2    1    2    0    0  0.00000000000E+00  0.00000000000E+00 -0.54743463410E+03  0.18737435460E+04  0.17919905685E+04 0.  0.
        4    1    3    3  502    0 -0.89281873040E+02 -0.49577662146E+03  0.50105931297E+03  0.71051232168E+03  0.12699999809E+01 0.  1.
       -4    1    3    3    0  502  0.89281873040E+02  0.49577662146E+03 -0.10484939471E+04  0.11632312243E+04  0.12699999809E+01 0. -1.
</event>
<event>
 5   0  0.8893075E-05  0.1818877E+04  0.7818609E-02  0.8696325E-01
       -2   -1    0    0    0  501  0.00000000000E+00  0.00000000000E+00  0.67817557634E+03  0.67817557635E+03  0.25500000920E-02 0.  1.
        2   -1    0    0  501    0  0.00000000000E+00  0.00000000000E+00 -0.12195632042E+04  0.12195632042E+04  0.25500000920E-02 0. -1.
    10030    2    1    2    0    0  0.00000000000E+00  0.00000000000E+00 -0.54138762790E+03  0.18977387806E+04  0.18188765532E+04 0.  0.
        1    1    3    3  502    0  0.88566444045E+03 -0.16730941002E+03 -0.39712551311E+03  0.98493787264E+03  0.50400001928E-02 0. -1.
       -1    1    3    3    0  502 -0.88566444045E+03  0.16730941002E+03 -0.14426211479E+03  0.91280090795E+03  0.50400001928E-02 0.  1.
</event>
<event>
 5   0  0.3270375E-05  0.1797980E+04  0.7818609E-02  0.8707374E-01
        4   -1    0    0  501    0  0.00000000000E+00  0.00000000000E+00  0.12211472617E+04  0.12211479221E+04  0.12699999809E+01 0. -1.
       -4   -1    0    0    0  501  0.00000000000E+00  0.00000000000E+00 -0.66182148119E+03  0.66182269972E+03  0.12699999809E+01 0.  1.
    10030    2    1    2    0    0  0.00000000000E+00  0.00000000000E+00  0.55932578052E+03  0.18829706218E+04  0.17979802652E+04 0.  0.
        4    1    3    3  502    0 -0.30983507154E+03 -0.17090682229E+03  0.11451506733E+04  0.11985735651E+04  0.12699999809E+01 0. -1.
       -4    1    3    3    0  502  0.30983507154E+03  0.17090682229E+03 -0.58582489275E+03  0.68439705678E+03  0.12699999809E+01 0.  1.
</event>
<event>
 5   0  0.8802655E-05  0.1795403E+04  0.7818609E-02  0.8708748E-01
       -2   -1    0    0    0  501  0.00000000000E+00  0.00000000000E+00  0.48497197173E+03  0.48497197173E+03  0.25500000920E-02 0.  1.
        2   -1    0    0  501    0  0.00000000000E+00  0.00000000000E+00 -0.16616802772E+04  0.16616802772E+04  0.25500000920E-02 0. -1.
    10030    2    1    2    0    0  0.00000000000E+00  0.00000000000E+00 -0.11767083054E+04  0.21466522489E+04  0.17954034203E+04 0.  0.
        2    1    3    3  502    0 -0.35860302783E+03  0.47193708570E+03 -0.13944549296E+04  0.15151981043E+04  0.25500000920E-02 0. -1.
       -2    1    3    3    0  502  0.35860302783E+03 -0.47193708570E+03  0.21774662418E+03  0.63145414463E+03  0.25500000920E-02 0.  1.
</event>
<event>
 5   0  0.8893075E-05  0.1812058E+04  0.7818609E-02  0.8699913E-01
       -2   -1    0    0    0  501  0.00000000000E+00  0.00000000000E+00  0.13705128383E+04  0.13705128383E+04  0.25500000920E-02 0.  1.
        2   -1    0    0  501    0  0.00000000000E+00  0.00000000000E+00 -0.59896450713E+03  0.59896450714E+03  0.25500000920E-02 0. -1.
    10030    2    1    2    0    0  0.00000000000E+00  0.00000000000E+00  0.77154833113E+03  0.19694773454E+04  0.18120579976E+04 0.  0.
        1    1    3    3  502    0 -0.61475706427E+03 -0.65647488981E+03  0.50485013285E+03  0.10313870203E+04  0.50400001928E-02 0. -1.
       -1    1    3    3    0  502  0.61475706427E+03  0.65647488981E+03  0.26669819828E+03  0.93809032508E+03  0.50400001928E-02 0.  1.
</event>
<event>
 5   0  0.3270375E-05  0.1798757E+04  0.7818609E-02  0.8706961E-01
        3   -1    0    0  501    0  0.00000000000E+00  0.00000000000E+00  0.50997812109E+03  0.50997813109E+03  0.10100000352E+00 0. -1.
       -3   -1    0    0    0  501  0.00000000000E+00  0.00000000000E+00 -0.15861103262E+04  0.15861103294E+04  0.10100000352E+00 0.  1.
    10030    2    1    2    0    0  0.00000000000E+00  0.00000000000E+00 -0.10761322051E+04  0.20960884605E+04  0.17987568794E+04 0.  0.
        3    1    3    3  502    0  0.24846990464E+03  0.32702730753E+03  0.39431636181E+03  0.56935889979E+03  0.10100000352E+00 0. -1.
       -3    1    3    3    0  502 -0.24846990464E+03 -0.32702730753E+03 -0.14704485669E+04  0.15267295607E+04  0.10100000352E+00 0.  1.
</event>
<event>
 5   0  0.3270375E-05  0.1800615E+04  0.7818609E-02  0.8705972E-01
       -3   -1    0    0    0  501  0.00000000000E+00  0.00000000000E+00  0.15381528048E+04  0.15381528081E+04  0.10100000352E+00 0. -1.
        3   -1    0    0  501    0  0.00000000000E+00  0.00000000000E+00 -0.52696571646E+03  0.52696572614E+03  0.10100000352E+00 0.  1.
    10030    2    1    2    0    0  0.00000000000E+00  0.00000000000E+00  0.10111870883E+04  0.20651185342E+04  0.18006152373E+04 0.  0.
        3    1    3    3  502    0 -0.23445706278E+03  0.85721440330E+03  0.67087058121E+03  0.11134873122E+04  0.10100000352E+00 0. -1.
       -3    1    3    3    0  502  0.23445706278E+03 -0.85721440330E+03  0.34031650710E+03  0.95163122202E+03  0.10100000352E+00 0.  1.
</event>
<event>
 5   0  0.4335117E-05  0.1790146E+04  0.7818609E-02  0.8711557E-01
        1   -1    0    0  501    0  0.00000000000E+00  0.00000000000E+00  0.16014611077E+04  0.16014611078E+04  0.50400001928E-02 0.  1.
       -1   -1    0    0    0  501  0.00000000000E+00  0.00000000000E+00 -0.50026557319E+03  0.50026557321E+03  0.50400001928E-02 0. -1.
    10030    2    1    2    0    0  0.00000000000E+00  0.00000000000E+00  0.11011955346E+04  0.21017266810E+04  0.17901462052E+04 0.  0.
        3    1    3    3  502    0  0.75671660626E+03 -0.33478083960E+02  0.11104808321E+04  0.13442129641E+04  0.10100000352E+00 0.  1.
       -3    1    3    3    0  502 -0.75671660626E+03  0.33478083960E+02 -0.92852974939E+01  0.75751371687E+03  0.10100000352E+00 0. -1.
</event>
<event>
 5   0  0.9184414E-05  0.1802680E+04  0.7818609E-02  0.8704876E-01
        2   -1    0    0  501    0  0.00000000000E+00  0.00000000000E+00  0.67255237081E+03  0.67255237082E+03  0.25500000920E-02 0.  1.
       -2   -1    0    0    0  501  0.00000000000E+00  0.00000000000E+00 -0.12079563010E+04  0.12079563010E+04  0.25500000920E-02 0. -1.
    10030    2    1    2    0    0  0.00000000000E+00  0.00000000000E+00 -0.53540393017E+03  0.18805086718E+04  0.18026800871E+04 0.  0.
        5    1    3    3  502    0 -0.68602194204E+03  0.56661832634E+03 -0.11758149094E+03  0.89751319194E+03  0.46999998093E+01 0.  1.
       -5    1    3    3    0  502  0.68602194204E+03 -0.56661832634E+03 -0.41782243923E+03  0.98299547986E+03  0.46999998093E+01 0. -1.
</event>
<event>
 5   0  0.4494757E-05  0.1799106E+04  0.7818609E-02  0.8706775E-01
        1   -1    0    0  501    0  0.00000000000E+00  0.00000000000E+00  0.16610537363E+04  0.16610537363E+04  0.50400001928E-02 0.  1.
       -1   -1    0    0    0  501  0.00000000000E+00  0.00000000000E+00 -0.48715774060E+03  0.48715774063E+03  0.50400001928E-02 0. -1.
    10030    2    1    2    0    0  0.00000000000E+00  0.00000000000E+00  0.11738959957E+04  0.21482114769E+04  0.17991055391E+04 0.  0.
        4    1    3    3  502    0 -0.77277207980E+03 -0.40511466244E+03  0.84827458324E+03  0.12169083608E+04  0.12699999809E+01 0.  1.
       -4    1    3    3    0  502  0.77277207980E+03  0.40511466244E+03  0.32562141247E+03  0.93130311618E+03  0.12699999809E+01 0. -1.
</event>
<event>
 5   0  0.8893075E-05  0.1801605E+04  0.7818609E-02  0.8705446E-01
        2   -1    0    0  501    0  0.00000000000E+00  0.00000000000E+00  0.12038102263E+04  0.12038102263E+04  0.25500000920E-02 0.  1.
       -2   -1    0    0    0  501  0.00000000000E+00  0.00000000000E+00 -0.67406401958E+03  0.67406401959E+03  0.25500000920E-02 0. -1.
    10030    2    1    2    0    0  0.00000000000E+00  0.00000000000E+00  0.52974620671E+03  0.18778742459E+04  0.18016050177E+04 0.  0.
        1    1    3    3  502    0  0.55723629232E+03 -0.68968493516E+03  0.99186034122E+02  0.89219698759E+03  0.50400001928E-02 0. -1.
       -1    1    3    3    0  502 -0.55723629232E+03  0.68968493516E+03  0.43056017259E+03  0.98567725829E+03  0.50400001928E-02 0.  1.
</event>
<event>
 5   0  0.8802655E-05  0.1803671E+04  0.7818609E-02  0.8704350E-01
        2   -1    0    0  501    0  0.00000000000E+00  0.00000000000E+00  0.80396031555E+03  0.80396031556E+03  0.25500000920E-02 0. -1.
       -2   -1    0    0    0  501  0.00000000000E+00  0.00000000000E+00 -0.10116258219E+04  0.10116258219E+04  0.25500000920E-02 0.  1.
    10030    2    1    2    0    0  0.00000000000E+00  0.00000000000E+00 -0.20766550636E+03  0.18155861375E+04  0.18036707183E+04 0.  0.
        2    1    3    3  502    0 -0.87577996649E+03 -0.97940768707E+02 -0.29673399049E+03  0.92985698093E+03  0.25500000920E-02 0. -1.
       -2    1    3    3    0  502  0.87577996649E+03  0.97940768707E+02  0.89068484136E+02  0.88572915654E+03  0.25500000920E-02 0.  1.
</event>
<event>
 5   0  0.4623665E-05  0.1786837E+04  0.7818609E-02  0.8713331E-01
       -1   -1    0    0    0  501  0.00000000000E+00  0.00000000000E+00  0.64104408391E+03  0.64104408393E+03  0.50400001928E-02 0.  1.
        1   -1    0    0  501    0  0.00000000000E+00  0.00000000000E+00 -0.12451509666E+04  0.12451509666E+04  0.50400001928E-02 0. -1.
    10030    2    1    2    0    0  0.00000000000E+00  0.00000000000E+00 -0.60410688271E+03  0.18861950506E+04  0.17868370499E+04 0.  0.
        5    1    3    3  502    0 -0.11256725441E+03 -0.41831223447E+03 -0.11268577276E+04  0.12072642381E+04  0.46999998093E+01 0. -1.
       -5    1    3    3    0  502  0.11256725441E+03  0.41831223447E+03  0.52275084491E+03  0.67893081247E+03  0.46999998093E+01 0.  1.
</event>
<event>
 5   0  0.8892280E-05  0.1801631E+04  0.7818609E-02  0.8705433E-01
       -2   -1    0    0    0  501  0.00000000000E+00  0.00000000000E+00  0.78228465914E+03  0.78228465914E+03  0.25500000920E-02 0.  1.
        2   -1    0    0  501    0  0.00000000000E+00  0.00000000000E+00 -0.10373059720E+04  0.10373059720E+04  0.25500000920E-02 0. -1.
    10030    2    1    2    0    0  0.00000000000E+00  0.00000000000E+00 -0.25502131284E+03  0.18195906311E+04  0.18016309819E+04 0.  0.
        4    1    3    3  502    0  0.20170461785E+03  0.80432082368E+03  0.22792107629E+03  0.85998044756E+03  0.12699999809E+01 0.  1.
       -4    1    3    3    0  502 -0.20170461785E+03 -0.80432082368E+03 -0.48294238913E+03  0.95961018356E+03  0.12699999809E+01 0. -1.
</event>
<event>
 5   0  0.9184414E-05  0.1804998E+04  0.7818609E-02  0.8703646E-01
       -2   -1    0    0    0  501  0.00000000000E+00  0.00000000000E+00  0.14585873354E+04  0.14585873354E+04  0.25500000920E-02 0.  1.
        2   -1    0    0  501    0  0.00000000000E+00  0.00000000000E+00 -0.55841990516E+03  0.55841990517E+03  0.25500000920E-02 0. -1.
    10030    2    1    2    0    0  0.00000000000E+00  0.00000000000E+00  0.90016743023E+03  0.20170072406E+04  0.18049977302E+04 0.  0.
        5    1    3    3  502    0  0.21866254112E+03 -0.64868928053E+03 -0.20710165321E+03  0.71520925212E+03  0.46999998093E+01 0. -1.
       -5    1    3    3    0  502 -0.21866254112E+03  0.64868928053E+03  0.11072690834E+04  0.13017979884E+04  0.46999998093E+01 0.  1.
</event>
<event>
 5   0  0.4494757E-05  0.1791659E+04  0.7818609E-02  0.8710748E-01
       -1   -1    0    0    0  501  0.00000000000E+00  0.00000000000E+00  0.62007035480E+03  0.62007035483E+03  0.50400001928E-02 0. -1.
        1   -1    0    0  501    0  0.00000000000E+00  0.00000000000E+00 -0.12942251403E+04  0.12942251403E+04  0.50400001928E-02 0.  1.
    10030    2    1    2    0    0  0.00000000000E+00  0.00000000000E+00 -0.67415478546E+03  0.19142954951E+04  0.17916591662E+04 0.  0.
        4    1    3    3  502    0 -0.66141769084E+03 -0.54181187186E+03 -0.62272617264E+03  0.10577442816E+04  0.12699999809E+01 0.  1.
       -4    1    3    3    0  502  0.66141769084E+03  0.54181187186E+03 -0.51428612823E+02  0.85655121351E+03  0.12699999809E+01 0. -1.
</event>
<event>
 5   0  0.8893075E-05  0.1793915E+04  0.7818609E-02  0.8709542E-01
       -2   -1    0    0    0  501  0.00000000000E+00  0.00000000000E+00  0.69370635747E+03  0.69370635747E+03  0.25500000920E-02 0. -1.
        2   -1    0    0  501    0  0.00000000000E+00  0.00000000000E+00 -0.11597593607E+04  0.11597593607E+04  0.25500000920E-02 0.  1.
    10030    2    1    2    0    0  0.00000000000E+00  0.00000000000E+00 -0.46605300326E+03  0.18534657182E+04  0.17939146487E+04 0.  0.
        1    1    3    3  502    0  0.60680981529E+03 -0.18571868679E+03 -0.88796436887E+03  0.10914166496E+04  0.50400001928E-02 0.  1.
       -1    1    3    3    0  502 -0.60680981529E+03  0.18571868679E+03  0.42191136561E+03  0.76204906864E+03  0.50400001928E-02 0. -1.
</event>
<event>
 5   0  0.4623665E-05  0.1796695E+04  0.7818609E-02  0.8708059E-01
        1   -1    0    0  501    0  0.00000000000E+00  0.00000000000E+00  0.87691595576E+03  0.87691595578E+03  0.50400001928E-02 0.  1.
       -1   -1    0    0    0  501  0.00000000000E+00  0.00000000000E+00 -0.92030232961E+03  0.92030232962E+03  0.50400001928E-02 0. -1.
    10030    2    1    2    0    0  0.00000000000E+00  0.00000000000E+00 -0.43386373844E+02  0.17972182854E+04  0.17966945171E+04 0.  0.
        5    1    3    3  502    0 -0.11317858619E+03 -0.30011305867E+03  0.81767506259E+03  0.87834608119E+03  0.46999998093E+01 0.  1.
       -5    1    3    3    0  502  0.11317858619E+03  0.30011305867E+03 -0.86106143643E+03  0.91887220421E+03  0.46999998093E+01 0. -1.
</event>
<event>
 5   0  0.4335117E-05  0.1803665E+04  0.7818609E-02  0.8704353E-01
       -1   -1    0    0    0  501  0.00000000000E+00  0.00000000000E+00  0.22533959155E+04  0.22533959155E+04  0.50400001928E-02 0. -1.
        1   -1    0    0  501    0  0.00000000000E+00  0.00000000000E+00 -0.36092271882E+03  0.36092271886E+03  0.50400001928E-02 0.  1.
    10030    2    1    2    0    0  0.00000000000E+00  0.00000000000E+00  0.18924731966E+04  0.26143186343E+04  0.18036649139E+04 0.  0.
        3    1    3    3  502    0 -0.43219920928E+02  0.31711531513E+03 -0.27583955443E+03  0.42251337807E+03  0.10100000352E+00 0.  1.
       -3    1    3    3    0  502  0.43219920928E+02 -0.31711531513E+03  0.21683127511E+04  0.21918052563E+04  0.10100000352E+00 0. -1.
</event>
<event>
 5   0  0.4335117E-05  0.1803376E+04  0.7818609E-02  0.8704506E-01
       -1   -1    0    0    0  501  0.00000000000E+00  0.00000000000E+00  0.84429883654E+03  0.84429883656E+03  0.50400001928E-02 0.  1.
        1   -1    0    0  501    0  0.00000000000E+00  0.00000000000E+00 -0.96297808234E+03  0.96297808235E+03  0.50400001928E-02 0. -1.
    10030    2    1    2    0    0  0.00000000000E+00  0.00000000000E+00 -0.11867924580E+03  0.18072769189E+04  0.18033760280E+04 0.  0.
        3    1    3    3  502    0 -0.51713227518E+03 -0.31115724433E+03 -0.73071160005E+03  0.94772573743E+03  0.10100000352E+00 0. -1.
       -3    1    3    3    0  502  0.51713227518E+03  0.31115724433E+03  0.61203235425E+03  0.85955118148E+03  0.10100000352E+00 0.  1.
</event>
<event>
 5   0  0.4535100E-05  0.1744306E+04  0.7818609E-02  0.8736491E-01
        1   -1    0    0  501    0  0.00000000000E+00  0.00000000000E+00  0.17952975260E+04  0.17952975260E+04  0.50400001928E-02 0. -1.
       -1   -1    0    0    0  501  0.00000000000E+00  0.00000000000E+00 -0.42369082302E+03  0.42369082305E+03  0.50400001928E-02 0.  1.
    10030    2    1    2    0    0  0.00000000000E+00  0.00000000000E+00  0.13716067029E+04  0.22189883490E+04  0.17443062648E+04 0.  0.
        1    1    3    3  502    0 -0.16242314501E+03 -0.29552821204E+03 -0.33739986099E+03  0.47702921123E+03  0.50400001928E-02 0.  1.
       -1    1    3    3    0  502  0.16242314501E+03  0.29552821204E+03  0.17090065639E+04  0.17419591378E+04  0.50400001928E-02 0. -1.
</event>
<event>
 5   0  0.9147432E-05  0.1795278E+04  0.7818609E-02  0.8708815E-01
        2   -1    0    0  501    0  0.00000000000E+00  0.00000000000E+00  0.11089283142E+04  0.11089283142E+04  0.25500000920E-02 0.  1.
       -2   -1    0    0    0  501  0.00000000000E+00  0.00000000000E+00 -0.72660735614E+03  0.72660735615E+03  0.25500000920E-02 0. -1.
    10030    2    1    2    0    0  0.00000000000E+00  0.00000000000E+00  0.38232095808E+03  0.18355356704E+04  0.17952776616E+04 0.  0.
        3    1    3    3  502    0 -0.77536931093E+03 -0.27895961726E+03  0.55514847909E+03  0.99358234708E+03  0.10100000352E+00 0.  1.
       -3    1    3    3    0  502  0.77536931093E+03  0.27895961726E+03 -0.17282752101E+03  0.84195332329E+03  0.10100000352E+00 0. -1.
</event>
<event>
 5   0  0.3270375E-05  0.1799754E+04  0.7818609E-02  0.8706430E-01
        3   -1    0    0  501    0  0.00000000000E+00  0.00000000000E+00  0.20768273345E+04  0.20768273370E+04  0.10100000352E+00 0.  1.
       -3   -1    0    0    0  501  0.00000000000E+00  0.00000000000E+00 -0.38991144248E+03  0.38991145556E+03  0.10100000352E+00 0. -1.
    10030    2    1    2    0    0  0.00000000000E+00  0.00000000000E+00  0.16869158920E+04  0.24667387925E+04  0.17997541620E+04 0.  0.
        4    1    3    3  502    0 -0.59480692457E+03  0.26385218162E+03  0.16953964480E+04  0.18159801706E+04  0.12699999809E+01 0.  1.
       -4    1    3    3    0  502  0.59480692457E+03 -0.26385218162E+03 -0.84805559772E+01  0.65075862191E+03  0.12699999809E+01 0. -1.
</event>
<event>
 5   0  0.9147432E-05  0.1795382E+04  0.7818609E-02  0.8708759E-01
        2   -1    0    0  501    0  0.00000000000E+00  0.00000000000E+00  0.83140785296E+03  0.83140785296E+03  0.25500000920E-02 0. -1.
       -2   -1    0    0    0  501  0.00000000000E+00  0.00000000000E+00 -0.96925801888E+03  0.96925801888E+03  0.25500000920E-02 0.  1.
    10030    2    1    2    0    0  0.00000000000E+00  0.00000000000E+00 -0.13785016592E+03  0.18006658718E+04  0.17953815510E+04 0.  0.
        3    1    3    3  502    0 -0.54662866297E+03 -0.28111301005E+03  0.58723387986E+03  0.85010061725E+03  0.10100000352E+00 0. -1.
       -3    1    3    3    0  502  0.54662866297E+03  0.28111301005E+03 -0.72508404578E+03  0.95056525459E+03  0.10100000352E+00 0.  1.
</event>
<event>
 5   0  0.9184414E-05  0.1791626E+04  0.7818609E-02  0.8710765E-01
       -2   -1    0    0    0  501  0.00000000000E+00  0.00000000000E+00  0.12317799132E+04  0.12317799132E+04  0.25500000920E-02 0.  1.
        2   -1    0    0  501    0  0.00000000000E+00  0.00000000000E+00 -0.65148066341E+03  0.65148066341E+03  0.25500000920E-02 0. -1.
    10030    2    1    2    0    0  0.00000000000E+00  0.00000000000E+00  0.58029924978E+03  0.18832605766E+04  0.17916258482E+04 0.  0.
        5    1    3    3  502    0  0.23110063354E+03  0.39174868075E+02 -0.61866121108E+03  0.66159349846E+03  0.46999998093E+01 0. -1.
       -5    1    3    3    0  502 -0.23110063354E+03 -0.39174868075E+02  0.11989604609E+04  0.12216670781E+04  0.46999998093E+01 0.  1.
</event>
<event>
 5   0  0.4578107E-05  0.1804364E+04  0.7818609E-02  0.8703982E-01
        1   -1    0    0  501    0  0.00000000000E+00  0.00000000000E+00  0.18367474428E+04  0.18367474428E+04  0.50400001928E-02 0. -1.
       -1   -1    0    0    0  501  0.00000000000E+00  0.00000000000E+00 -0.44313784262E+03  0.44313784264E+03  0.50400001928E-02 0.  1.
    10030    2    1    2    0    0  0.00000000000E+00  0.00000000000E+00  0.13936096002E+04  0.22798852855E+04  0.18043639315E+04 0.  0.
        2    1    3    3  502    0  0.49152481577E+03 -0.15774352439E+03  0.16316982862E+04  0.17114084729E+04  0.25500000920E-02 0. -1.
       -2    1    3    3    0  502 -0.49152481577E+03  0.15774352439E+03 -0.23808868599E+03  0.56847681255E+03  0.25500000920E-02 0.  1.
</event>
<event>
 5   0  0.4494757E-05  0.1797030E+04  0.7818609E-02  0.8707881E-01
       -1   -1    0    0    0  501  0.00000000000E+00  0.00000000000E+00  0.11289916843E+04  0.11289916843E+04  0.50400001928E-02 0. -1.
        1   -1    0    0  501    0  0.00000000000E+00  0.00000000000E+00 -0.71508843814E+03  0.71508843816E+03  0.50400001928E-02 0.  1.
    10030    2    1    2    0    0  0.00000000000E+00  0.00000000000E+00  0.41390324613E+03  0.18440801224E+04  0.17970296605E+04 0.  0.
        4    1    3    3  502    0  0.53655494226E+03  0.64414834985E+03 -0.12479106197E+03  0.84758051224E+03  0.12699999809E+01 0. -1.
       -4    1    3    3    0  502 -0.53655494226E+03 -0.64414834985E+03  0.53869430810E+03  0.99649961021E+03  0.12699999809E+01 0.  1.
</event>
<event>
 5   0  0.8802655E-05  0.1797826E+04  0.7818609E-02  0.8707456E-01
       -2   -1    0    0    0  501  0.00000000000E+00  0.00000000000E+00  0.15419805923E+04  0.15419805923E+04  0.25500000920E-02 0. -1.
        2   -1    0    0  501    0  0.00000000000E+00  0.00000000000E+00 -0.52403039025E+03  0.52403039026E+03  0.25500000920E-02 0.  1.
    10030    2    1    2    0    0  0.00000000000E+00  0.00000000000E+00  0.10179502020E+04  0.20660109825E+04  0.17978261223E+04 0.  0.
        2    1    3    3  502    0 -0.43517421300E+02 -0.28391837272E+03 -0.46987458036E+03  0.55071365482E+03  0.25500000920E-02 0.  1.
       -2    1    3    3    0  502  0.43517421300E+02  0.28391837272E+03  0.14878247824E+04  0.15152973277E+04  0.25500000920E-02 0. -1.
</event>
<event>
 5   0  0.9147432E-05  0.1804465E+04  0.7818609E-02  0.8703929E-01
        2   -1    0    0  501    0  0.00000000000E+00  0.00000000000E+00  0.68871766202E+03  0.68871766202E+03  0.25500000920E-02 0. -1.
       -2   -1    0    0    0  501  0.00000000000E+00  0.00000000000E+00 -0.11819408191E+04  0.11819408191E+04  0.25500000920E-02 0.  1.
    10030    2    1    2    0    0  0.00000000000E+00  0.00000000000E+00 -0.49322315713E+03  0.18706584812E+04  0.18044650372E+04 0.  0.
        3    1    3    3  502    0 -0.63589639766E+03  0.28624629598E+03  0.34685881349E+03  0.77885314226E+03  0.10100000352E+00 0. -1.
       -3    1    3    3    0  502  0.63589639766E+03 -0.28624629598E+03 -0.84008197062E+03  0.10918053389E+04  0.10100000352E+00 0.  1.
</event>
<event>
 5   0  0.4535100E-05  0.1799626E+04  0.7818609E-02  0.8706499E-01
        1   -1    0    0  501    0  0.00000000000E+00  0.00000000000E+00  0.32057436494E+04  0.32057436494E+04  0.50400001928E-02 0. -1.
       -1   -1    0    0    0  501  0.00000000000E+00  0.00000000000E+00 -0.25256642446E+03  0.25256642451E+03  0.50400001928E-02 0.  1.
    10030    2    1    2    0    0  0.00000000000E+00  0.00000000000E+00  0.29531772250E+04  0.34583100740E+04  0.17996257515E+04 0.  0.
        1    1    3    3  502    0  0.31364882664E+02  0.33507910889E+03 -0.12706867782E+03  0.35973353192E+03  0.50400001928E-02 0.  1.
       -1    1    3    3    0  502 -0.31364882664E+02 -0.33507910889E+03  0.30802459028E+04  0.30985765420E+04  0.50400001928E-02 0. -1.
</event>
<event>
 5   0  0.9184414E-05  0.1829468E+04  0.7818609E-02  0.8690784E-01
       -2   -1    0    0    0  501  0.00000000000E+00  0.00000000000E+00  0.10965929146E+04  0.10965929146E+04  0.25500000920E-02 0.  1.
        2   -1    0    0  501    0  0.00000000000E+00  0.00000000000E+00 -0.76303440052E+03  0.76303440052E+03  0.25500000920E-02 0. -1.
    10030    2    1    2    0    0  0.00000000000E+00  0.00000000000E+00  0.33355851410E+03  0.18596273151E+04  0.18294678103E+04 0.  0.
        5    1    3    3  502    0 -0.40659693248E+02 -0.33018241853E+03 -0.69934884994E+03  0.77445758055E+03  0.46999998093E+01 0. -1.
       -5    1    3    3    0  502  0.40659693248E+02  0.33018241853E+03  0.10329073640E+04  0.10851697346E+04  0.46999998093E+01 0.  1.
</event>
<event>
 5   0  0.4494757E-05  0.1820215E+04  0.7818609E-02  0.8695623E-01
        1   -1    0    0  501    0  0.00000000000E+00  0.00000000000E+00  0.27407051057E+04  0.27407051057E+04  0.50400001928E-02 0. -1.
       -1   -1    0    0    0  501  0.00000000000E+00  0.00000000000E+00 -0.30221984838E+03  0.30221984842E+03  0.50400001928E-02 0.  1.
    10030    2    1    2    0    0  0.00000000000E+00  0.00000000000E+00  0.24384852573E+04  0.30429249541E+04  0.18202148022E+04 0.  0.
        4    1    3    3  502    0 -0.61606883350E+03  0.16267952696E+03  0.13288406405E+03  0.65089570860E+03  0.12699999809E+01 0.  1.
       -4    1    3    3    0  502  0.61606883350E+03 -0.16267952696E+03  0.23056011933E+04  0.23920292455E+04  0.12699999809E+01 0. -1.
</event>
<event>
 5   0  0.4623665E-05  0.1808067E+04  0.7818609E-02  0.8702021E-01
        1   -1    0    0  501    0  0.00000000000E+00  0.00000000000E+00  0.10558878272E+04  0.10558878272E+04  0.50400001928E-02 0.  1.
       -1   -1    0    0    0  501  0.00000000000E+00  0.00000000000E+00 -0.77401824436E+03  0.77401824438E+03  0.50400001928E-02 0. -1.
    10030    2    1    2    0    0  0.00000000000E+00  0.00000000000E+00  0.28186958284E+03  0.18299060716E+04  0.18080668597E+04 0.  0.
        5    1    3    3  502    0  0.19440992951E+03 -0.17687781573E+03  0.10163527168E+04  0.10497980365E+04  0.46999998093E+01 0.  1.
       -5    1    3    3    0  502 -0.19440992951E+03  0.17687781573E+03 -0.73448313397E+03  0.78010803513E+03  0.46999998093E+01 0. -1.
</event>
<event>
 5   0  0.8802655E-05  0.1803272E+04  0.7818609E-02  0.8704561E-01
        2   -1    0    0  501    0  0.00000000000E+00  0.00000000000E+00  0.15439864136E+04  0.15439864136E+04  0.25500000920E-02 0. -1.
       -2   -1    0    0    0  501  0.00000000000E+00  0.00000000000E+00 -0.52652503946E+03  0.52652503946E+03  0.25500000920E-02 0.  1.
    10030    2    1    2    0    0  0.00000000000E+00  0.00000000000E+00  0.10174613741E+04  0.20705114530E+04  0.18032720342E+04 0.  0.
        2    1    3    3  502    0 -0.11561708556E+03  0.89398031489E+03  0.53109529570E+03  0.10462458253E+04  0.25500000920E-02 0.  1.
       -2    1    3    3    0  502  0.11561708556E+03 -0.89398031489E+03  0.48636607842E+03  0.10242656277E+04  0.25500000920E-02 0. -1.
</event>
<event>
 5   0  0.4535100E-05  0.1800185E+04  0.7818609E-02  0.8706201E-01
        1   -1    0    0  501    0  0.00000000000E+00  0.00000000000E+00  0.10965178018E+04  0.10965178018E+04  0.50400001928E-02 0.  1.
       -1   -1    0    0    0  501  0.00000000000E+00  0.00000000000E+00 -0.73885402585E+03  0.73885402586E+03  0.50400001928E-02 0. -1.
    10030    2    1    2    0    0  0.00000000000E+00  0.00000000000E+00  0.35766377597E+03  0.18353718277E+04  0.18001850931E+04 0.  0.
        1    1    3    3  502    0  0.15690633825E+03 -0.43195952112E+03  0.96788288425E+03  0.10714503743E+04  0.50400001928E-02 0.  1.
       -1    1    3    3    0  502 -0.15690633825E+03  0.43195952112E+03 -0.61021910828E+03  0.76392145343E+03  0.50400001928E-02 0. -1.
</event>
<event>
 5   0  0.4578107E-05  0.1802398E+04  0.7818609E-02  0.8705025E-01
       -1   -1    0    0    0  501  0.00000000000E+00  0.00000000000E+00  0.84543221614E+03  0.84543221615E+03  0.50400001928E-02 0. -1.
        1   -1    0    0  501    0  0.00000000000E+00  0.00000000000E+00 -0.96064390584E+03  0.96064390585E+03  0.50400001928E-02 0.  1.
    10030    2    1    2    0    0  0.00000000000E+00  0.00000000000E+00 -0.11521168970E+03  0.18060761220E+04  0.18023976323E+04 0.  0.
        2    1    3    3  502    0  0.25537864719E+03 -0.84892350245E+03  0.10480498351E+03  0.89267768597E+03  0.25500000920E-02 0. -1.
       -2    1    3    3    0  502 -0.25537864719E+03  0.84892350245E+03 -0.22001667321E+03  0.91339843603E+03  0.25500000920E-02 0.  1.
</event>
<event>
 5   0  0.9184414E-05  0.1796823E+04  0.7818609E-02  0.8707991E-01
        2   -1    0    0  501    0  0.00000000000E+00  0.00000000000E+00  0.13675874872E+04  0.13675874872E+04  0.25500000920E-02 0. -1.
       -2   -1    0    0    0  501  0.00000000000E+00  0.00000000000E+00 -0.59019516077E+03  0.59019516078E+03  0.25500000920E-02 0.  1.
    10030    2    1    2    0    0  0.00000000000E+00  0.00000000000E+00  0.77739232646E+03  0.19577826480E+04  0.17968233268E+04 0.  0.
        5    1    3    3  502    0 -0.26935207290E+02 -0.92620243582E+02  0.13619157775E+04  0.13653353763E+04  0.46999998093E+01 0. -1.
       -5    1    3    3    0  502  0.26935207290E+02  0.92620243582E+02 -0.58452345103E+03  0.59244727168E+03  0.46999998093E+01 0.  1.
</event>
<event>
 5   0  0.8892280E-05  0.1800379E+04  0.7818609E-02  0.8706098E-01
        2   -1    0    0  501    0  0.00000000000E+00  0.00000000000E+00  0.38375633868E+03  0.38375633869E+03  0.25500000920E-02 0. -1.
       -2   -1    0    0    0  501  0.00000000000E+00  0.00000000000E+00 -0.21116035877E+04  0.21116035877E+04  0.25500000920E-02 0.  1.
    10030    2    1    2    0    0  0.00000000000E+00  0.00000000000E+00 -0.17278472490E+04  0.24953599264E+04  0.18003791396E+04 0.  0.
        4    1    3    3  502    0 -0.47107616986E+03  0.58555421739E+03 -0.17710513453E+03  0.77211031653E+03  0.12699999809E+01 0. -1.
       -4    1    3    3    0  502  0.47107616986E+03 -0.58555421739E+03 -0.15507421145E+04  0.17232496099E+04  0.12699999809E+01 0.  1.
</event>
<event>
 5   0  0.4578107E-05  0.1798703E+04  0.7818609E-02  0.8706990E-01
       -1   -1    0    0    0  501  0.00000000000E+00  0.00000000000E+00  0.49426644513E+03  0.49426644516E+03  0.50400001928E-02 0.  1.
        1   -1    0    0  501    0  0.00000000000E+00  0.00000000000E+00 -0.16364307877E+04  0.16364307877E+04  0.50400001928E-02 0. -1.
    10030    2    1    2    0    0  0.00000000000E+00  0.00000000000E+00 -0.11421643425E+04  0.21306972328E+04  0.17987026749E+04 0.  0.
        2    1    3    3  502    0 -0.26806517302E+03 -0.35085466379E+03  0.35703391104E+03  0.56783020854E+03  0.25500000920E-02 0.  1.
       -2    1    3    3    0  502  0.26806517302E+03  0.35085466379E+03 -0.14991982536E+04  0.15628670243E+04  0.25500000920E-02 0. -1.
</event>
<event>
 5   0  0.4335117E-05  0.1796115E+04  0.7818609E-02  0.8708368E-01
        1   -1    0    0  501    0  0.00000000000E+00  0.00000000000E+00  0.12342911663E+04  0.12342911663E+04  0.50400001928E-02 0. -1.
       -1   -1    0    0    0  501  0.00000000000E+00  0.00000000000E+00 -0.65341767866E+03  0.65341767868E+03  0.50400001928E-02 0.  1.
    10030    2    1    2    0    0  0.00000000000E+00  0.00000000000E+00  0.58087348760E+03  0.18877088450E+04  0.17961154403E+04 0.  0.
        3    1    3    3  502    0  0.58894382933E+03 -0.52263991473E+03  0.74431625967E+03  0.10835192749E+04  0.10100000352E+00 0. -1.
       -3    1    3    3    0  502 -0.58894382933E+03  0.52263991473E+03 -0.16344277207E+03  0.80418957001E+03  0.10100000352E+00 0.  1.
</event>
<event>
 5   0  0.4578107E-05  0.1800296E+04  0.7818609E-02  0.8706142E-01
       -1   -1    0    0    0  501  0.00000000000E+00  0.00000000000E+00  0.59151633488E+03  0.59151633490E+03  0.50400001928E-02 0. -1.
        1   -1    0    0  501    0  0.00000000000E+00  0.00000000000E+00 -0.13698130271E+04  0.13698130271E+04  0.50400001928E-02 0.  1.
    10030    2    1    2    0    0  0.00000000000E+00  0.00000000000E+00 -0.77829669225E+03  0.19613293620E+04  0.18002963993E+04 0.  0.
        2    1    3    3  502    0  0.87600238359E+03  0.13006084637E+03 -0.56471782745E+03  0.10503343394E+04  0.25500000920E-02 0.  1.
       -2    1    3    3    0  502 -0.87600238359E+03 -0.13006084637E+03 -0.21357886480E+03  0.91099502266E+03  0.25500000920E-02 0. -1.
</event>
<event>
 5   0  0.9147432E-05  0.1794946E+04  0.7818609E-02  0.8708992E-01
        2   -1    0    0  501    0  0.00000000000E+00  0.00000000000E+00  0.11334231770E+04  0.11334231771E+04  0.25500000920E-02 0.  1.
       -2   -1    0    0    0  501  0.00000000000E+00  0.00000000000E+00 -0.71064142085E+03  0.71064142086E+03  0.25500000920E-02 0. -1.
    10030    2    1    2    0    0  0.00000000000E+00  0.00000000000E+00  0.42278175619E+03  0.18440645979E+04  0.17949456337E+04 0.  0.
        3    1    3    3  502    0  0.16673440731E+03 -0.86477153711E+03  0.38882273781E+03  0.96271143424E+03  0.10100000352E+00 0.  1.
       -3    1    3    3    0  502 -0.16673440731E+03  0.86477153711E+03  0.33959018380E+02  0.88135316367E+03  0.10100000352E+00 0. -1.
</event>
<event>
 5   0  0.4623665E-05  0.1803172E+04  0.7818609E-02  0.8704615E-01
        1   -1    0    0  501    0  0.00000000000E+00  0.00000000000E+00  0.75205052056E+03  0.75205052058E+03  0.50400001928E-02 0.  1.
       -1   -1    0    0    0  501  0.00000000000E+00  0.00000000000E+00 -0.10808542636E+04  0.10808542636E+04  0.50400001928E-02 0. -1.
    10030    2    1    2    0    0  0.00000000000E+00  0.00000000000E+00 -0.32880374307E+03  0.18329047842E+04  0.18031716631E+04 0.  0.
        5    1    3    3  502    0  0.13296717245E+03  0.88024380514E+03 -0.30932023116E+03  0.94244921393E+03  0.46999998093E+01 0.  1.
       -5    1    3    3    0  502 -0.13296717245E+03 -0.88024380514E+03 -0.19483511908E+02  0.89045557029E+03  0.46999998093E+01 0. -1.
</event>
<event>
 5   0  0.4494757E-05  0.1805074E+04  0.7818609E-02  0.8703606E-01
        1   -1    0    0  501    0  0.00000000000E+00  0.00000000000E+00  0.13045475729E+04  0.13045475729E+04  0.50400001928E-02 0. -1.
       -1   -1    0    0    0  501  0.00000000000E+00  0.00000000000E+00 -0.62441039346E+03  0.62441039348E+03  0.50400001928E-02 0.  1.
    10030    2    1    2    0    0  0.00000000000E+00  0.00000000000E+00  0.68013717945E+03  0.19289579664E+04  0.18050740299E+04 0.  0.
        4    1    3    3  502    0  0.48341654680E+03 -0.10242702795E+03 -0.46700505105E+03  0.67991042379E+03  0.12699999809E+01 0.  1.
       -4    1    3    3    0  502 -0.48341654680E+03  0.10242702795E+03  0.11471422305E+04  0.12490475426E+04  0.12699999809E+01 0. -1.
</event>
<event>
 5   0  0.4335117E-05  0.1808269E+04  0.7818609E-02  0.8701914E-01
       -1   -1    0    0    0  501  0.00000000000E+00  0.00000000000E+00  0.10248273922E+04  0.10248273922E+04  0.50400001928E-02 0.  1.
        1   -1    0    0  501    0  0.00000000000E+00  0.00000000000E+00 -0.79765578846E+03  0.79765578847E+03  0.50400001928E-02 0. -1.
    10030    2    1    2    0    0  0.00000000000E+00  0.00000000000E+00  0.22717160376E+03  0.18224831807E+04  0.18082693401E+04 0.  0.
        3    1    3    3  502    0  0.83669741615E+03  0.27967386425E+02 -0.23058748070E+03  0.86834056531E+03  0.10100000352E+00 0. -1.
       -3    1    3    3    0  502 -0.83669741615E+03 -0.27967386425E+02  0.45775908446E+03  0.95414261539E+03  0.10100000352E+00 0.  1.
</event>
<event>
 5   0  0.8893075E-05  0.1799160E+04  0.7818609E-02  0.8706746E-01
        2   -1    0    0  501    0  0.00000000000E+00  0.00000000000E+00  0.75510702008E+03  0.75510702008E+03  0.25500000920E-02 0. -1.
       -2   -1    0    0    0  501  0.00000000000E+00  0.00000000000E+00 -0.10716949913E+04  0.10716949913E+04  0.25500000920E-02 0.  1.
    10030    2    1    2    0    0  0.00000000000E+00  0.00000000000E+00 -0.31658797120E+03  0.18268020114E+04  0.17991602611E+04 0.  0.
        1    1    3    3  502    0 -0.49100454257E+03  0.20845531960E+03 -0.89378838328E+03  0.10408634662E+04  0.50400001928E-02 0.  1.
       -1    1    3    3    0  502  0.49100454257E+03 -0.20845531960E+03  0.57720041208E+03  0.78593854520E+03  0.50400001928E-02 0. -1.
</event>
<event>
 5   0  0.4535100E-05  0.1796456E+04  0.7818609E-02  0.8708186E-01
       -1   -1    0    0    0  501  0.00000000000E+00  0.00000000000E+00  0.84199525492E+03  0.84199525493E+03  0.50400001928E-02 0. -1.
        1   -1    0    0  501    0  0.00000000000E+00  0.00000000000E+00 -0.95821614648E+03  0.95821614650E+03  0.50400001928E-02 0.  1.
    10030    2    1    2    0    0  0.00000000000E+00  0.00000000000E+00 -0.11622089156E+03  0.18002114014E+04  0.17964558982E+04 0.  0.
        1    1    3    3  502    0 -0.69997738154E+03 -0.42583631724E+03  0.31077395351E+03  0.87629067892E+03  0.50400001928E-02 0. -1.
       -1    1    3    3    0  502  0.69997738154E+03  0.42583631724E+03 -0.42699484507E+03  0.92392072252E+03  0.50400001928E-02 0.  1.
</event>
<event>
 5   0  0.9147432E-05  0.1795257E+04  0.7818609E-02  0.8708826E-01
        2   -1    0    0  501    0  0.00000000000E+00  0.00000000000E+00  0.12245192829E+04  0.12245192829E+04  0.25500000920E-02 0. -1.
       -2   -1    0    0    0  501  0.00000000000E+00  0.00000000000E+00 -0.65800250020E+03  0.65800250021E+03  0.25500000920E-02 0.  1.
    10030    2    1    2    0    0  0.00000000000E+00  0.00000000000E+00  0.56651678272E+03  0.18825217831E+04  0.17952568058E+04 0.  0.
        3    1    3    3  502    0  0.32714407681E+03 -0.41049866433E+03  0.10468041468E+04  0.11710385699E+04  0.10100000352E+00 0. -1.
       -3    1    3    3    0  502 -0.32714407681E+03  0.41049866433E+03 -0.48028736403E+03  0.71148321320E+03  0.10100000352E+00 0.  1.
</event>
<event>
 5   0  0.9147432E-05  0.1772082E+04  0.7818609E-02  0.8721288E-01
        2   -1    0    0  501    0  0.00000000000E+00  0.00000000000E+00  0.10116849357E+04  0.10116849357E+04  0.25500000920E-02 0. -1.
       -2   -1    0    0    0  501  0.00000000000E+00  0.00000000000E+00 -0.77600154959E+03  0.77600154960E+03  0.25500000920E-02 0.  1.
    10030    2    1    2    0    0  0.00000000000E+00  0.00000000000E+00  0.23568338615E+03  0.17876864853E+04  0.17720824787E+04 0.  0.
        3    1    3    3  502    0  0.57470896258E+03 -0.57861777367E+03  0.46727324899E+03  0.93991128257E+03  0.10100000352E+00 0. -1.
       -3    1    3    3    0  502 -0.57470896258E+03  0.57861777367E+03 -0.23158986284E+03  0.84777520278E+03  0.10100000352E+00 0.  1.
</event>
<event>
 5   0  0.8892280E-05  0.1774345E+04  0.7818609E-02  0.8720063E-01
        2   -1    0    0  501    0  0.00000000000E+00  0.00000000000E+00  0.12632908171E+04  0.12632908171E+04  0.25500000920E-02 0.  1.
       -2   -1    0    0    0  501  0.00000000000E+00  0.00000000000E+00 -0.62303570074E+03  0.62303570075E+03  0.25500000920E-02 0. -1.
    10030    2    1    2    0    0  0.00000000000E+00  0.00000000000E+00  0.64025511637E+03  0.18863265179E+04  0.17743452646E+04 0.  0.
        4    1    3    3  502    0  0.13293436552E+03  0.57838317733E+03  0.10211968906E+04  0.11811195315E+04  0.12699999809E+01 0.  1.
       -4    1    3    3    0  502 -0.13293436552E+03 -0.57838317733E+03 -0.38094177425E+03  0.70520698637E+03  0.12699999809E+01 0. -1.
</event>
<event>
 5   0  0.4335117E-05  0.1793779E+04  0.7818609E-02  0.8709615E-01
        1   -1    0    0  501    0  0.00000000000E+00  0.00000000000E+00  0.20700124960E+04  0.20700124960E+04  0.50400001928E-02 0.  1.
       -1   -1    0    0    0  501  0.00000000000E+00  0.00000000000E+00 -0.38860191417E+03  0.38860191420E+03  0.50400001928E-02 0. -1.
    10030    2    1    2    0    0  0.00000000000E+00  0.00000000000E+00  0.16814105818E+04  0.24586144102E+04  0.17937790481E+04 0.  0.
        3    1    3    3  502    0 -0.64768416559E+03 -0.61535216529E+03  0.73228006941E+03  0.11551567755E+04  0.10100000352E+00 0. -1.
       -3    1    3    3    0  502  0.64768416559E+03  0.61535216529E+03  0.94913051240E+03  0.13034576347E+04  0.10100000352E+00 0.  1.
</event>
<event>
 5   0  0.8892280E-05  0.1792316E+04  0.7818609E-02  0.8710397E-01
       -2   -1    0    0    0  501  0.00000000000E+00  0.00000000000E+00  0.67510959710E+03  0.67510959711E+03  0.25500000920E-02 0.  1.
        2   -1    0    0  501    0  0.00000000000E+00  0.00000000000E+00 -0.11895831226E+04  0.11895831226E+04  0.25500000920E-02 0. -1.
    10030    2    1    2    0    0  0.00000000000E+00  0.00000000000E+00 -0.51447352551E+03  0.18646927197E+04  0.17923158010E+04 0.  0.
        4    1    3    3  502    0  0.34037638654E+03 -0.32383120744E+03 -0.10511882509E+04  0.11513996210E+04  0.12699999809E+01 0. -1.
       -4    1    3    3    0  502 -0.34037638654E+03  0.32383120744E+03  0.53671472537E+03  0.71329309877E+03  0.12699999809E+01 0.  1.
</event>
<event>
 5   0  0.4623665E-05  0.1803155E+04  0.7818609E-02  0.8704623E-01
       -1   -1    0    0    0  501  0.00000000000E+00  0.00000000000E+00  0.47751315377E+03  0.47751315380E+03  0.50400001928E-02 0.  1.
        1   -1    0    0  501    0  0.00000000000E+00  0.00000000000E+00 -0.17022408465E+04  0.17022408465E+04  0.50400001928E-02 0. -1.
    10030    2    1    2    0    0  0.00000000000E+00  0.00000000000E+00 -0.12247276927E+04  0.21797540003E+04  0.18031554510E+04 0.  0.
        5    1    3    3  502    0  0.64142342186E+03  0.24321133157E+03 -0.13195643854E+04  0.14872282996E+04  0.46999998093E+01 0. -1.
       -5    1    3    3    0  502 -0.64142342186E+03 -0.24321133157E+03  0.94836692630E+02  0.69252570074E+03  0.46999998093E+01 0.  1.
</event>
<event>
 5   0  0.8893075E-05  0.1801194E+04  0.7818609E-02  0.8705665E-01
       -2   -1    0    0    0  501  0.00000000000E+00  0.00000000000E+00  0.13203031092E+04  0.13203031092E+04  0.25500000920E-02 0.  1.
        2   -1    0    0  501    0  0.00000000000E+00  0.00000000000E+00 -0.61430957053E+03  0.61430957054E+03  0.25500000920E-02 0. -1.
    10030    2    1    2    0    0  0.00000000000E+00  0.00000000000E+00  0.70599353869E+03  0.19346126798E+04  0.18011938663E+04 0.  0.
        1    1    3    3  502    0 -0.51006342736E+03  0.67254917341E+03  0.15752143321E+02  0.84423647199E+03  0.50400001928E-02 0. -1.
       -1    1    3    3    0  502  0.51006342736E+03 -0.67254917341E+03  0.69024139537E+03  0.10903762078E+04  0.50400001928E-02 0.  1.
</event>
<event>
 5   0  0.4578107E-05  0.1798897E+04  0.7818609E-02  0.8706886E-01
       -1   -1    0    0    0  501  0.00000000000E+00  0.00000000000E+00  0.66339234859E+03  0.66339234861E+03  0.50400001928E-02 0.  1.
        1   -1    0    0  501    0  0.00000000000E+00  0.00000000000E+00 -0.12195015508E+04  0.12195015508E+04  0.50400001928E-02 0. -1.
    10030    2    1    2    0    0  0.00000000000E+00  0.00000000000E+00 -0.55610920220E+03  0.18828938994E+04  0.17988974378E+04 0.  0.
        2    1    3    3  502    0 -0.49758968514E+03 -0.49428608125E+03  0.31134970161E+03  0.76736748795E+03  0.25500000920E-02 0.  1.
       -2    1    3    3    0  502  0.49758968514E+03  0.49428608125E+03 -0.86745890380E+03  0.11155264115E+04  0.25500000920E-02 0. -1.
</event>
<event>
 5   0  0.9184414E-05  0.1792821E+04  0.7818609E-02  0.8710127E-01
       -2   -1    0    0    0  501  0.00000000000E+00  0.00000000000E+00  0.13820857960E+04  0.13820857960E+04  0.25500000920E-02 0.  1.
        2   -1    0    0  501    0  0.00000000000E+00  0.00000000000E+00 -0.58140487986E+03  0.58140487986E+03  0.25500000920E-02 0. -1.
    10030    2    1    2    0    0  0.00000000000E+00  0.00000000000E+00  0.80068091610E+03  0.19634906758E+04  0.17928206002E+04 0.  0.
        5    1    3    3  502    0  0.86066289812E+03  0.19593818798E+03  0.22927604377E+03  0.91198793410E+03  0.46999998093E+01 0.  1.
       -5    1    3    3    0  502 -0.86066289812E+03 -0.19593818798E+03  0.57140487233E+03  0.10515027417E+04  0.46999998093E+01 0. -1.
</event>
<event>
 5   0  0.4335117E-05  0.1787613E+04  0.7818609E-02  0.8712914E-01
       -1   -1    0    0    0  501  0.00000000000E+00  0.00000000000E+00  0.15125588410E+04  0.15125588410E+04  0.50400001928E-02 0.  1.
        1   -1    0    0  501    0  0.00000000000E+00  0.00000000000E+00 -0.52817136927E+03  0.52817136929E+03  0.50400001928E-02 0. -1.
    10030    2    1    2    0    0  0.00000000000E+00  0.00000000000E+00  0.98438747169E+03  0.20407302103E+04  0.17876132402E+04 0.  0.
        3    1    3    3  502    0  0.67539879156E+03 -0.58542858182E+03  0.49181183057E+03  0.10201808854E+04  0.10100000352E+00 0. -1.
       -3    1    3    3    0  502 -0.67539879156E+03  0.58542858182E+03  0.49257564112E+03  0.10205493249E+04  0.10100000352E+00 0.  1.
</event>
<event>
 5   0  0.4335117E-05  0.1800234E+04  0.7818609E-02  0.8706175E-01
        1   -1    0    0  501    0  0.00000000000E+00  0.00000000000E+00  0.62096559661E+03  0.62096559663E+03  0.50400001928E-02 0.  1.
       -1   -1    0    0    0  501  0.00000000000E+00  0.00000000000E+00 -0.13047591742E+04  0.13047591742E+04  0.50400001928E-02 0. -1.
    10030    2    1    2    0    0  0.00000000000E+00  0.00000000000E+00 -0.68379357758E+03  0.19257247708E+04  0.18002339393E+04 0.  0.
        3    1    3    3  502    0 -0.29087971814E+03 -0.32001353731E+03  0.50255685564E+03  0.66301061668E+03  0.10100000352E+00 0.  1.
       -3    1    3    3    0  502  0.29087971814E+03  0.32001353731E+03 -0.11863504332E+04  0.12627141541E+04  0.10100000352E+00 0. -1.
</event>
<event>
 5   0  0.3270375E-05  0.1797114E+04  0.7818609E-02  0.8707835E-01
       -3   -1    0    0    0  501  0.00000000000E+00  0.00000000000E+00  0.84075869325E+03  0.84075869932E+03  0.10100000352E+00 0.  1.
        3   -1    0    0  501    0  0.00000000000E+00  0.00000000000E+00 -0.96032915554E+03  0.96032916085E+03  0.10100000352E+00 0. -1.
    10030    2    1    2    0    0  0.00000000000E+00  0.00000000000E+00 -0.11957046229E+03  0.18010878602E+04  0.17971144606E+04 0.  0.
        1    1    3    3  502    0 -0.12231989599E+03 -0.31932348239E+02 -0.95137190037E+03  0.95973450738E+03  0.50400001928E-02 0. -1.
       -1    1    3    3    0  502  0.12231989599E+03  0.31932348239E+02  0.83180143808E+03  0.84135335279E+03  0.50400001928E-02 0.  1.
</event>
<event>
 5   0  0.4335117E-05  0.1800308E+04  0.7818609E-02  0.8706136E-01
       -1   -1    0    0    0  501  0.00000000000E+00  0.00000000000E+00  0.44382573650E+03  0.44382573653E+03  0.50400001928E-02 0. -1.
        1   -1    0    0  501    0  0.00000000000E+00  0.00000000000E+00 -0.18256655279E+04  0.18256655279E+04  0.50400001928E-02 0.  1.
    10030    2    1    2    0    0  0.00000000000E+00  0.00000000000E+00 -0.13818397914E+04  0.22694912644E+04  0.18003081376E+04 0.  0.
        3    1    3    3  502    0  0.14369459359E+03 -0.18231515258E+01  0.42927182136E+03  0.45268727276E+03  0.10100000352E+00 0. -1.
       -3    1    3    3    0  502 -0.14369459359E+03  0.18231515258E+01 -0.18111116127E+04  0.18168039916E+04  0.10100000352E+00 0.  1.
</event>
<event>
 5   0  0.4578107E-05  0.1799210E+04  0.7818609E-02  0.8706719E-01
       -1   -1    0    0    0  501  0.00000000000E+00  0.00000000000E+00  0.60914212343E+03  0.60914212345E+03  0.50400001928E-02 0. -1.
        1   -1    0    0  501    0  0.00000000000E+00  0.00000000000E+00 -0.13285725977E+04  0.13285725977E+04  0.50400001928E-02 0.  1.
    10030    2    1    2    0    0  0.00000000000E+00  0.00000000000E+00 -0.71943047423E+03  0.19377147211E+04  0.17992104194E+04 0.  0.
        2    1    3    3  502    0  0.31847548121E+02  0.60297829754E+03  0.35847211768E+03  0.70221033372E+03  0.25500000920E-02 0. -1.
       -2    1    3    3    0  502 -0.31847548121E+02 -0.60297829754E+03 -0.10779025919E+04  0.12355043874E+04  0.25500000920E-02 0.  1.
</event>
<event>
 5   0  0.4623665E-05  0.1802541E+04  0.7818609E-02  0.8704949E-01
       -1   -1    0    0    0  501  0.00000000000E+00  0.00000000000E+00  0.74316635693E+03  0.74316635695E+03  0.50400001928E-02 0.  1.
        1   -1    0    0  501    0  0.00000000000E+00  0.00000000000E+00 -0.10930106160E+04  0.10930106160E+04  0.50400001928E-02 0. -1.
    10030    2    1    2    0    0  0.00000000000E+00  0.00000000000E+00 -0.34984425905E+03  0.18361769729E+04  0.18025412257E+04 0.  0.
        5    1    3    3  502    0 -0.55657609679E+03 -0.37589602969E+03  0.43728488622E+03  0.80144553050E+03  0.46999998093E+01 0.  1.
       -5    1    3    3    0  502  0.55657609679E+03  0.37589602969E+03 -0.78712914527E+03  0.10347314424E+04  0.46999998093E+01 0. -1.
</event>
<event>
 5   0  0.9184414E-05  0.1771807E+04  0.7818609E-02  0.8721438E-01
       -2   -1    0    0    0  501  0.00000000000E+00  0.00000000000E+00  0.69919519428E+03  0.69919519429E+03  0.25500000920E-02 0.  1.
        2   -1    0    0  501    0  0.00000000000E+00  0.00000000000E+00 -0.11224690791E+04  0.11224690791E+04  0.25500000920E-02 0. -1.
    10030    2    1    2    0    0  0.00000000000E+00  0.00000000000E+00 -0.42327388482E+03  0.18216642734E+04  0.17718069713E+04 0.  0.
        5    1    3    3  502    0 -0.40241146736E+03 -0.39816323251E+03  0.48895824994E+03  0.74804492443E+03  0.46999998093E+01 0.  1.
       -5    1    3    3    0  502  0.40241146736E+03  0.39816323251E+03 -0.91223213476E+03  0.10736193490E+04  0.46999998093E+01 0. -1.
</event>
<event>
 5   0  0.4623665E-05  0.1799689E+04  0.7818609E-02  0.8706465E-01
       -1   -1    0    0    0  501  0.00000000000E+00  0.00000000000E+00  0.77467621648E+03  0.77467621649E+03  0.50400001928E-02 0. -1.
        1   -1    0    0  501    0  0.00000000000E+00  0.00000000000E+00 -0.10452362654E+04  0.10452362655E+04  0.50400001928E-02 0.  1.
    10030    2    1    2    0    0  0.00000000000E+00  0.00000000000E+00 -0.27056004896E+03  0.18199124819E+04  0.17996885013E+04 0.  0.
        5    1    3    3  502    0  0.58814125386E+02  0.25268944229E+03 -0.10065810063E+04  0.10394895227E+04  0.46999998093E+01 0.  1.
       -5    1    3    3    0  502 -0.58814125386E+02 -0.25268944229E+03  0.73602095736E+03  0.78042295921E+03  0.46999998093E+01 0. -1.
</event>
<event>
 5   0  0.8893075E-05  0.1795595E+04  0.7818609E-02  0.8708645E-01
       -2   -1    0    0    0  501  0.00000000000E+00  0.00000000000E+00  0.53564884049E+03  0.53564884050E+03  0.25500000920E-02 0.  1.
        2   -1    0    0  501    0  0.00000000000E+00  0.00000000000E+00 -0.15047929920E+04  0.15047929920E+04  0.25500000920E-02 0. -1.
    10030    2    1    2    0    0  0.00000000000E+00  0.00000000000E+00 -0.96914415152E+03  0.20404418325E+04  0.17955953011E+04 0.  0.
        1    1    3    3  502    0 -0.51459879152E+03  0.55835966282E+02  0.34901642242E+03  0.62429322799E+03  0.50400001928E-02 0.  1.
       -1    1    3    3    0  502  0.51459879152E+03 -0.55835966282E+02 -0.13181605739E+04  0.14161486045E+04  0.50400001928E-02 0. -1.
</event>
<event>
 5   0  0.4535100E-05  0.1805964E+04  0.7818609E-02  0.8703134E-01
       -1   -1    0    0    0  501  0.00000000000E+00  0.00000000000E+00  0.86422932737E+03  0.86422932738E+03  0.50400001928E-02 0. -1.
        1   -1    0    0  501    0  0.00000000000E+00  0.00000000000E+00 -0.94347226647E+03  0.94347226648E+03  0.50400001928E-02 0.  1.
    10030    2    1    2    0    0  0.00000000000E+00  0.00000000000E+00 -0.79242939097E+02  0.18077015939E+04  0.18059639003E+04 0.  0.
        1    1    3    3  502    0  0.83485561650E+03  0.30072788405E+03 -0.20698055770E+03  0.91118719918E+03  0.50400001928E-02 0.  1.
       -1    1    3    3    0  502 -0.83485561650E+03 -0.30072788405E+03  0.12773761860E+03  0.89651439469E+03  0.50400001928E-02 0. -1.
</event>
<event>
 5   0  0.8892280E-05  0.1787533E+04  0.7818609E-02  0.8712958E-01
       -2   -1    0    0    0  501  0.00000000000E+00  0.00000000000E+00  0.71877898991E+03  0.71877898992E+03  0.25500000920E-02 0. -1.
        2   -1    0    0  501    0  0.00000000000E+00  0.00000000000E+00 -0.11113544795E+04  0.11113544795E+04  0.25500000920E-02 0.  1.
    10030    2    1    2    0    0  0.00000000000E+00  0.00000000000E+00 -0.39257548961E+03  0.18301334694E+04  0.17875326573E+04 0.  0.
        4    1    3    3  502    0 -0.21491445062E+03  0.34517862994E+03 -0.10111707811E+04  0.10898644270E+04  0.12699999809E+01 0.  1.
       -4    1    3    3    0  502  0.21491445062E+03 -0.34517862994E+03  0.61859529152E+03  0.74026904247E+03  0.12699999809E+01 0. -1.
</event>
<event>
 5   0  0.9147432E-05  0.1797960E+04  0.7818609E-02  0.8707385E-01
       -2   -1    0    0    0  501  0.00000000000E+00  0.00000000000E+00  0.74359889879E+03  0.74359889880E+03  0.25500000920E-02 0.  1.
        2   -1    0    0  501    0  0.00000000000E+00  0.00000000000E+00 -0.10868290227E+04  0.10868290227E+04  0.25500000920E-02 0. -1.
    10030    2    1    2    0    0  0.00000000000E+00  0.00000000000E+00 -0.34323012394E+03  0.18304279215E+04  0.17979598043E+04 0.  0.
        3    1    3    3  502    0 -0.83903859842E+03  0.15648721254E+03 -0.45900849994E+03  0.96910413813E+03  0.10100000352E+00 0. -1.
       -3    1    3    3    0  502  0.83903859842E+03 -0.15648721254E+03  0.11577837599E+03  0.86132378341E+03  0.10100000352E+00 0.  1.
</event>
<event>
 5   0  0.4335117E-05  0.1797581E+04  0.7818609E-02  0.8707587E-01
       -1   -1    0    0    0  501  0.00000000000E+00  0.00000000000E+00  0.65038185512E+03  0.65038185514E+03  0.50400001928E-02 0. -1.
        1   -1    0    0  501    0  0.00000000000E+00  0.00000000000E+00 -0.12420771770E+04  0.12420771770E+04  0.50400001928E-02 0.  1.
    10030    2    1    2    0    0  0.00000000000E+00  0.00000000000E+00 -0.59169532184E+03  0.18924590321E+04  0.17975811065E+04 0.  0.
        3    1    3    3  502    0 -0.61233818099E+03 -0.28807427183E+03 -0.91857410942E+03  0.11409308650E+04  0.10100000352E+00 0.  1.
       -3    1    3    3    0  502  0.61233818099E+03  0.28807427183E+03  0.32687878759E+03  0.75152816711E+03  0.10100000352E+00 0. -1.
</event>
<event>
 5   0  0.4623665E-05  0.1798688E+04  0.7818609E-02  0.8706997E-01
       -1   -1    0    0    0  501  0.00000000000E+00  0.00000000000E+00  0.85406893878E+03  0.85406893879E+03  0.50400001928E-02 0. -1.
        1   -1    0    0  501    0  0.00000000000E+00  0.00000000000E+00 -0.94701921127E+03  0.94701921128E+03  0.50400001928E-02 0.  1.
    10030    2    1    2    0    0  0.00000000000E+00  0.00000000000E+00 -0.92950272485E+02  0.18010881501E+04  0.17986880694E+04 0.  0.
        5    1    3    3  502    0 -0.76401570109E+03  0.31027677503E+03 -0.40584946486E+03  0.91909060857E+03  0.46999998093E+01 0.  1.
       -5    1    3    3    0  502  0.76401570109E+03 -0.31027677503E+03  0.31289919238E+03  0.88199754150E+03  0.46999998093E+01 0. -1.
</event>
<event>
 5   0  0.3270375E-05  0.1804162E+04  0.7818609E-02  0.8704089E-01
        3   -1    0    0  501    0  0.00000000000E+00  0.00000000000E+00  0.98502379448E+03  0.98502379966E+03  0.10100000352E+00 0. -1.
       -3   -1    0    0    0  501  0.00000000000E+00  0.00000000000E+00 -0.82612242900E+03  0.82612243518E+03  0.10100000352E+00 0.  1.
    10030    2    1    2    0    0  0.00000000000E+00  0.00000000000E+00  0.15890136548E+03  0.18111462348E+04  0.18041621435E+04 0.  0.
        5    1    3    3  502    0 -0.40264593291E+03  0.55357116698E+03 -0.51032968478E+03  0.85382859015E+03  0.46999998093E+01 0.  1.
       -5    1    3    3    0  502  0.40264593291E+03 -0.55357116698E+03  0.66923105025E+03  0.95731764468E+03  0.46999998093E+01 0. -1.
</event>
<event>
 5   0  0.4494757E-05  0.1800150E+04  0.7818609E-02  0.8706220E-01
       -1   -1    0    0    0  501  0.00000000000E+00  0.00000000000E+00  0.80378530282E+03  0.80378530284E+03  0.50400001928E-02 0. -1.
        1   -1    0    0  501    0  0.00000000000E+00  0.00000000000E+00 -0.10079000011E+04  0.10079000011E+04  0.50400001928E-02 0.  1.
    10030    2    1    2    0    0  0.00000000000E+00  0.00000000000E+00 -0.20411469831E+03  0.18116853040E+04  0.18001502245E+04 0.  0.
        4    1    3    3  502    0  0.79162708795E+03  0.42790970047E+03 -0.12097772606E+03  0.90797432851E+03  0.12699999809E+01 0.  1.
       -4    1    3    3    0  502 -0.79162708795E+03 -0.42790970047E+03 -0.83136972241E+02  0.90371097547E+03  0.12699999809E+01 0. -1.
</event>
<event>
 5   0  0.9147432E-05  0.1807231E+04  0.7818609E-02  0.8702464E-01
        2   -1    0    0  501    0  0.00000000000E+00  0.00000000000E+00  0.17303350504E+04  0.17303350504E+04  0.25500000920E-02 0. -1.
       -2   -1    0    0    0  501  0.00000000000E+00  0.00000000000E+00 -0.47188603347E+03  0.47188603348E+03  0.25500000920E-02 0.  1.
    10030    2    1    2    0    0  0.00000000000E+00  0.00000000000E+00  0.12584490170E+04  0.22022210839E+04  0.18072309687E+04 0.  0.
        3    1    3    3  502    0  0.18022365832E+03  0.76480329397E+03  0.11729762360E+04  0.14118349429E+04  0.10100000352E+00 0. -1.
       -3    1    3    3    0  502 -0.18022365832E+03 -0.76480329397E+03  0.85472780966E+02  0.79038614105E+03  0.10100000352E+00 0.  1.
</event>
<event>
 5   0  0.8802655E-05  0.1815000E+04  0.7818609E-02  0.8698363E-01
        2   -1    0    0  501    0  0.00000000000E+00  0.00000000000E+00  0.14024482355E+04  0.14024482355E+04  0.25500000920E-02 0.  1.
       -2   -1    0    0    0  501  0.00000000000E+00  0.00000000000E+00 -0.58722726337E+03  0.58722726338E+03  0.25500000920E-02 0. -1.
    10030    2    1    2    0    0  0.00000000000E+00  0.00000000000E+00  0.81522097217E+03  0.19896754989E+04  0.18149995475E+04 0.  0.
        2    1    3    3  502    0  0.15510298601E+03  0.47906023985E+03 -0.42003286605E+03  0.65573108684E+03  0.25500000920E-02 0. -1.
       -2    1    3    3    0  502 -0.15510298601E+03 -0.47906023985E+03  0.12352538382E+04  0.13339444121E+04  0.25500000920E-02 0.  1.
</event>
<event>
 5   0  0.9147432E-05  0.1798824E+04  0.7818609E-02  0.8706925E-01
        2   -1    0    0  501    0  0.00000000000E+00  0.00000000000E+00  0.61451892160E+03  0.61451892161E+03  0.25500000920E-02 0.  1.
       -2   -1    0    0    0  501  0.00000000000E+00  0.00000000000E+00 -0.13163820763E+04  0.13163820763E+04  0.25500000920E-02 0. -1.
    10030    2    1    2    0    0  0.00000000000E+00  0.00000000000E+00 -0.70186315472E+03  0.19309009979E+04  0.17988237201E+04 0.  0.
        3    1    3    3  502    0 -0.33286410356E+03  0.96005962566E+02 -0.12418905330E+04  0.12893051471E+04  0.10100000352E+00 0. -1.
       -3    1    3    3    0  502  0.33286410356E+03 -0.96005962566E+02  0.54002737827E+03  0.64159585080E+03  0.10100000352E+00 0.  1.
</event>
<event>
 5   0  0.8802655E-05  0.1826617E+04  0.7818609E-02  0.8692271E-01
        2   -1    0    0  501    0  0.00000000000E+00  0.00000000000E+00  0.84003579762E+03  0.84003579762E+03  0.25500000920E-02 0.  1.
       -2   -1    0    0    0  501  0.00000000000E+00  0.00000000000E+00 -0.99297286571E+03  0.99297286571E+03  0.25500000920E-02 0. -1.
    10030    2    1    2    0    0  0.00000000000E+00  0.00000000000E+00 -0.15293706809E+03  0.18330086633E+04  0.18266173691E+04 0.  0.
        2    1    3    3  502    0  0.72800798731E+03  0.37310117639E+03  0.33107145965E+03  0.88250123446E+03  0.25500000920E-02 0.  1.
       -2    1    3    3    0  502 -0.72800798731E+03 -0.37310117639E+03 -0.48400852774E+03  0.95050742888E+03  0.25500000920E-02 0. -1.
</event>
<event>
 5   0  0.9147432E-05  0.1799619E+04  0.7818609E-02  0.8706502E-01
       -2   -1    0    0    0  501  0.00000000000E+00  0.00000000000E+00  0.75728395833E+03  0.75728395834E+03  0.25500000920E-02 0. -1.
        2   -1    0    0  501    0  0.00000000000E+00  0.00000000000E+00 -0.10691592685E+04  0.10691592685E+04  0.25500000920E-02 0.  1.
    10030    2    1    2    0    0  0.00000000000E+00  0.00000000000E+00 -0.31187531012E+03  0.18264432268E+04  0.17996190296E+04 0.  0.
        3    1    3    3  502    0  0.40823104269E+03  0.27350222797E+03 -0.92096443023E+03  0.10438541780E+04  0.10100000352E+00 0.  1.
       -3    1    3    3    0  502 -0.40823104269E+03 -0.27350222797E+03  0.60908912010E+03  0.78258904883E+03  0.10100000352E+00 0. -1.
</event>
<event>
 5   0  0.9184414E-05  0.1798613E+04  0.7818609E-02  0.8707037E-01
        2   -1    0    0  501    0  0.00000000000E+00  0.00000000000E+00  0.17297528492E+04  0.17297528492E+04  0.25500000920E-02 0.  1.
       -2   -1    0    0    0  501  0.00000000000E+00  0.00000000000E+00 -0.46755358073E+03  0.46755358074E+03  0.25500000920E-02 0. -1.
    10030    2    1    2    0    0  0.00000000000E+00  0.00000000000E+00  0.12621992684E+04  0.21973064299E+04  0.17986129527E+04 0.  0.
        5    1    3    3  502    0  0.15681456852E+02 -0.14828305868E+03 -0.45233133358E+03  0.47629769989E+03  0.46999998093E+01 0. -1.
       -5    1    3    3    0  502 -0.15681456852E+02  0.14828305868E+03  0.17145306020E+04  0.17210087300E+04  0.46999998093E+01 0.  1.
</event>
<event>
 5   0  0.8892280E-05  0.1808865E+04  0.7818609E-02  0.8701599E-01
        2   -1    0    0  501    0  0.00000000000E+00  0.00000000000E+00  0.73487071346E+03  0.73487071346E+03  0.25500000920E-02 0.  1.
       -2   -1    0    0    0  501  0.00000000000E+00  0.00000000000E+00 -0.11131184048E+04  0.11131184048E+04  0.25500000920E-02 0. -1.
    10030    2    1    2    0    0  0.00000000000E+00  0.00000000000E+00 -0.37824769138E+03  0.18479891183E+04  0.18088649660E+04 0.  0.
        4    1    3    3  502    0 -0.44846190884E+03  0.60208906503E+03 -0.70438072358E+03  0.10294576934E+04  0.12699999809E+01 0. -1.
       -4    1    3    3    0  502  0.44846190884E+03 -0.60208906503E+03  0.32613303220E+03  0.81853142487E+03  0.12699999809E+01 0.  1.
</event>
<event>
 5   0  0.8892280E-05  0.1799690E+04  0.7818609E-02  0.8706464E-01
       -2   -1    0    0    0  501  0.00000000000E+00  0.00000000000E+00  0.39396665167E+03  0.39396665168E+03  0.25500000920E-02 0.  1.
        2   -1    0    0  501    0  0.00000000000E+00  0.00000000000E+00 -0.20553029268E+04  0.20553029268E+04  0.25500000920E-02 0. -1.
    10030    2    1    2    0    0  0.00000000000E+00  0.00000000000E+00 -0.16613362751E+04  0.24492695785E+04  0.17996897647E+04 0.  0.
        4    1    3    3  502    0  0.75674274228E+03 -0.30330564009E+03 -0.31232097341E+03  0.87304060194E+03  0.12699999809E+01 0. -1.
       -4    1    3    3    0  502 -0.75674274228E+03  0.30330564009E+03 -0.13490153017E+04  0.15762289765E+04  0.12699999809E+01 0.  1.
</event>
<event>
 5   0  0.4535100E-05  0.1795637E+04  0.7818609E-02  0.8708623E-01
       -1   -1    0    0    0  501  0.00000000000E+00  0.00000000000E+00  0.10165296903E+04  0.10165296904E+04  0.50400001928E-02 0. -1.
        1   -1    0    0  501    0  0.00000000000E+00  0.00000000000E+00 -0.79297021987E+03  0.79297021989E+03  0.50400001928E-02 0.  1.
    10030    2    1    2    0    0  0.00000000000E+00  0.00000000000E+00  0.22355947047E+03  0.18094999102E+04  0.17956366805E+04 0.  0.
        1    1    3    3  502    0 -0.86731590589E+03  0.42036915122E+02  0.34173835215E+03  0.93316080297E+03  0.50400001928E-02 0. -1.
       -1    1    3    3    0  502  0.86731590589E+03 -0.42036915122E+02 -0.11817888168E+03  0.87633910728E+03  0.50400001928E-02 0.  1.
</event>
<event>
 5   0  0.8802655E-05  0.1767096E+04  0.7818609E-02  0.8723996E-01
        2   -1    0    0  501    0  0.00000000000E+00  0.00000000000E+00  0.15872436634E+04  0.15872436634E+04  0.25500000920E-02 0.  1.
       -2   -1    0    0    0  501  0.00000000000E+00  0.00000000000E+00 -0.49183177445E+03  0.49183177446E+03  0.25500000920E-02 0. -1.
    10030    2    1    2    0    0  0.00000000000E+00  0.00000000000E+00  0.10954118890E+04  0.20790754379E+04  0.17670957727E+04 0.  0.
        2    1    3    3  502    0  0.74474673048E+03  0.38497626106E+03  0.21952995329E+03  0.86663014864E+03  0.25500000920E-02 0. -1.
       -2    1    3    3    0  502 -0.74474673048E+03 -0.38497626106E+03  0.87588193568E+03  0.12124452892E+04  0.25500000920E-02 0.  1.
</event>
<event>
 5   0  0.4623665E-05  0.1795357E+04  0.7818609E-02  0.8708772E-01
       -1   -1    0    0    0  501  0.00000000000E+00  0.00000000000E+00  0.44919222861E+03  0.44919222864E+03  0.50400001928E-02 0. -1.
        1   -1    0    0  501    0  0.00000000000E+00  0.00000000000E+00 -0.17939465419E+04  0.17939465419E+04  0.50400001928E-02 0.  1.
    10030    2    1    2    0    0  0.00000000000E+00  0.00000000000E+00 -0.13447543132E+04  0.22431387705E+04  0.17953571736E+04 0.  0.
        5    1    3    3  502    0  0.34930470792E+03 -0.80212110384E+03 -0.92348297824E+03  0.12721064992E+04  0.46999998093E+01 0.  1.
       -5    1    3    3    0  502 -0.34930470792E+03  0.80212110384E+03 -0.42127133501E+03  0.97103227130E+03  0.46999998093E+01 0. -1.
</event>
<event>
 5   0  0.4494757E-05  0.1800874E+04  0.7818609E-02  0.8705835E-01
        1   -1    0    0  501    0  0.00000000000E+00  0.00000000000E+00  0.78083457066E+03  0.78083457067E+03  0.50400001928E-02 0. -1.
       -1   -1    0    0    0  501  0.00000000000E+00  0.00000000000E+00 -0.10383587620E+04  0.10383587620E+04  0.50400001928E-02 0.  1.
    10030    2    1    2    0    0  0.00000000000E+00  0.00000000000E+00 -0.25752419136E+03  0.18191933327E+04  0.18008735860E+04 0.  0.
        4    1    3    3  502    0  0.73772550682E+03 -0.51153772156E+03 -0.58230326937E+02  0.89961222084E+03  0.12699999809E+01 0. -1.
       -4    1    3    3    0  502 -0.73772550682E+03  0.51153772156E+03 -0.19929386442E+03  0.91958111186E+03  0.12699999809E+01 0.  1.
</event>
<event>
 5   0  0.4623665E-05  0.1799678E+04  0.7818609E-02  0.8706471E-01
       -1   -1    0    0    0  501  0.00000000000E+00  0.00000000000E+00  0.54891337032E+03  0.54891337034E+03  0.50400001928E-02 0.  1.
        1   -1    0    0  501    0  0.00000000000E+00  0.00000000000E+00 -0.14751143056E+04  0.14751143056E+04  0.50400001928E-02 0. -1.
    10030    2    1    2    0    0  0.00000000000E+00  0.00000000000E+00 -0.92620093530E+03  0.20240276760E+04  0.17996777102E+04 0.  0.
        5    1    3    3  502    0  0.25963417721E+03  0.30677864210E+03 -0.13685504013E+04  0.14263503539E+04  0.46999998093E+01 0. -1.
       -5    1    3    3    0  502 -0.25963417721E+03 -0.30677864210E+03  0.44234946600E+03  0.59767732205E+03  0.46999998093E+01 0.  1.
</event>
<event>
 5   0  0.8893075E-05  0.1801454E+04  0.7818609E-02  0.8705527E-01
        2   -1    0    0  501    0  0.00000000000E+00  0.00000000000E+00  0.79238963637E+03  0.79238963637E+03  0.25500000920E-02 0. -1.
       -2   -1    0    0    0  501  0.00000000000E+00  0.00000000000E+00 -0.10238767478E+04  0.10238767478E+04  0.25500000920E-02 0.  1.
    10030    2    1    2    0    0  0.00000000000E+00  0.00000000000E+00 -0.23148711139E+03  0.18162663841E+04  0.18014542168E+04 0.  0.
        1    1    3    3  502    0 -0.82144887977E+03 -0.33173780900E+03 -0.27981168511E+03  0.92904403294E+03  0.50400001928E-02 0. -1.
       -1    1    3    3    0  502  0.82144887977E+03  0.33173780900E+03  0.48324573721E+02  0.88722235119E+03  0.50400001928E-02 0.  1.
</event>
<event>
 5   0  0.9147432E-05  0.1823179E+04  0.7818609E-02  0.8694070E-01
        2   -1    0    0  501    0  0.00000000000E+00  0.00000000000E+00  0.12010052073E+04  0.12010052074E+04  0.25500000920E-02 0. -1.
       -2   -1    0    0    0  501  0.00000000000E+00  0.00000000000E+00 -0.69191638103E+03  0.69191638104E+03  0.25500000920E-02 0.  1.
    10030    2    1    2    0    0  0.00000000000E+00  0.00000000000E+00  0.50908882631E+03  0.18929215884E+04  0.18231787369E+04 0.  0.
        3    1    3    3  502    0 -0.86906462416E+03 -0.26965274954E+03  0.19758942016E+03  0.93114312297E+03  0.10100000352E+00 0.  1.
       -3    1    3    3    0  502  0.86906462416E+03  0.26965274954E+03  0.31149940616E+03  0.96177846542E+03  0.10100000352E+00 0. -1.
</event>
<event>
 5   0  0.9184414E-05  0.1830442E+04  0.7818609E-02  0.8690276E-01
       -2   -1    0    0    0  501  0.00000000000E+00  0.00000000000E+00  0.78967859407E+03  0.78967859407E+03  0.25500000920E-02 0. -1.
        2   -1    0    0  501    0  0.00000000000E+00  0.00000000000E+00 -0.10607217864E+04  0.10607217864E+04  0.25500000920E-02 0.  1.
    10030    2    1    2    0    0  0.00000000000E+00  0.00000000000E+00 -0.27104319236E+03  0.18504003805E+04  0.18304417926E+04 0.  0.
        5    1    3    3  502    0 -0.67948838398E+03 -0.25150301495E+03  0.42972542999E+03  0.84240386138E+03  0.46999998093E+01 0. -1.
       -5    1    3    3    0  502  0.67948838398E+03  0.25150301495E+03 -0.70076862235E+03  0.10079965191E+04  0.46999998093E+01 0.  1.
</event>
<event>
 5   0  0.4623665E-05  0.1797426E+04  0.7818609E-02  0.8707669E-01
       -1   -1    0    0    0  501  0.00000000000E+00  0.00000000000E+00  0.49765935041E+03  0.49765935043E+03  0.50400001928E-02 0.  1.
        1   -1    0    0  501    0  0.00000000000E+00  0.00000000000E+00 -0.16229679803E+04  0.16229679803E+04  0.50400001928E-02 0. -1.
    10030    2    1    2    0    0  0.00000000000E+00  0.00000000000E+00 -0.11253086299E+04  0.21206273307E+04  0.17974261496E+04 0.  0.
        5    1    3    3  502    0 -0.76965650939E+03 -0.40840723854E+02 -0.11079578506E+04  0.13496784046E+04  0.46999998093E+01 0. -1.
       -5    1    3    3    0  502  0.76965650939E+03  0.40840723854E+02 -0.17350779297E+02  0.77094892613E+03  0.46999998093E+01 0.  1.
</event>
<event>
 5   0  0.9147432E-05  0.1809616E+04  0.7818609E-02  0.8701203E-01
        2   -1    0    0  501    0  0.00000000000E+00  0.00000000000E+00  0.17693024924E+04  0.17693024924E+04  0.25500000920E-02 0.  1.
       -2   -1    0    0    0  501  0.00000000000E+00  0.00000000000E+00 -0.46271179600E+03  0.46271179601E+03  0.25500000920E-02 0. -1.
    10030    2    1    2    0    0  0.00000000000E+00  0.00000000000E+00  0.13065906964E+04  0.22320142885E+04  0.18096155768E+04 0.  0.
        3    1    3    3  502    0  0.25757343489E+03  0.86693697074E+03  0.61944168816E+03  0.10961896737E+04  0.10100000352E+00 0.  1.
       -3    1    3    3    0  502 -0.25757343489E+03 -0.86693697074E+03  0.68714900829E+03  0.11358246147E+04  0.10100000352E+00 0. -1.
</event>
<event>
 5   0  0.8892280E-05  0.1770933E+04  0.7818609E-02  0.8721911E-01
        2   -1    0    0  501    0  0.00000000000E+00  0.00000000000E+00  0.68410604730E+03  0.68410604731E+03  0.25500000920E-02 0. -1.
       -2   -1    0    0    0  501  0.00000000000E+00  0.00000000000E+00 -0.11460960470E+04  0.11460960470E+04  0.25500000920E-02 0.  1.
    10030    2    1    2    0    0  0.00000000000E+00  0.00000000000E+00 -0.46198999968E+03  0.18302020943E+04  0.17709333545E+04 0.  0.
        4    1    3    3  502    0  0.34532771750E+03  0.14737454579E+03 -0.10597554918E+04  0.11243014740E+04  0.12699999809E+01 0.  1.
       -4    1    3    3    0  502 -0.34532771750E+03 -0.14737454579E+03  0.59776549212E+03  0.70590062026E+03  0.12699999809E+01 0. -1.
</event>
<event>
 5   0  0.9184414E-05  0.1780969E+04  0.7818609E-02  0.8716486E-01
       -2   -1    0    0    0  501  0.00000000000E+00  0.00000000000E+00  0.51036905844E+03  0.51036905844E+03  0.25500000920E-02 0. -1.
        2   -1    0    0  501    0  0.00000000000E+00  0.00000000000E+00 -0.15537047786E+04  0.15537047786E+04  0.25500000920E-02 0.  1.
    10030    2    1    2    0    0  0.00000000000E+00  0.00000000000E+00 -0.10433357201E+04  0.20640738370E+04  0.17809692248E+04 0.  0.
        5    1    3    3  502    0 -0.48154692420E+03 -0.56159109163E+03 -0.10961066801E+04  0.13224008237E+04  0.46999998093E+01 0.  1.
       -5    1    3    3    0  502  0.48154692420E+03  0.56159109163E+03  0.52770959988E+02  0.74167301328E+03  0.46999998093E+01 0. -1.
</event>
<event>
 5   0  0.4623665E-05  0.1788051E+04  0.7818609E-02  0.8712680E-01
        1   -1    0    0  501    0  0.00000000000E+00  0.00000000000E+00  0.57238931095E+03  0.57238931097E+03  0.50400001928E-02 0.  1.
       -1   -1    0    0    0  501  0.00000000000E+00  0.00000000000E+00 -0.13963949046E+04  0.13963949047E+04  0.50400001928E-02 0. -1.
    10030    2    1    2    0    0  0.00000000000E+00  0.00000000000E+00 -0.82400559369E+03  0.19687842156E+04  0.17880509135E+04 0.  0.
        5    1    3    3  502    0  0.50472329800E+02 -0.86206898181E+03 -0.66679966769E+03  0.10910335798E+04  0.46999998093E+01 0. -1.
       -5    1    3    3    0  502 -0.50472329800E+02  0.86206898181E+03 -0.15720592600E+03  0.87775063580E+03  0.46999998093E+01 0.  1.
</event>
<event>
 5   0  0.9147432E-05  0.1816584E+04  0.7818609E-02  0.8697530E-01
        2   -1    0    0  501    0  0.00000000000E+00  0.00000000000E+00  0.71143912581E+03  0.71143912581E+03  0.25500000920E-02 0. -1.
       -2   -1    0    0    0  501  0.00000000000E+00  0.00000000000E+00 -0.11596134379E+04  0.11596134379E+04  0.25500000920E-02 0.  1.
    10030    2    1    2    0    0  0.00000000000E+00  0.00000000000E+00 -0.44817431210E+03  0.18710525637E+04  0.18165840146E+04 0.  0.
        3    1    3    3  502    0  0.31490825574E+03 -0.62730425013E+02 -0.10992051788E+04  0.11451438124E+04  0.10100000352E+00 0.  1.
       -3    1    3    3    0  502 -0.31490825574E+03  0.62730425013E+02  0.65103086667E+03  0.72590875136E+03  0.10100000352E+00 0. -1.
</event>
<event>
 5   0  0.8893075E-05  0.1767490E+04  0.7818609E-02  0.8723782E-01
        2   -1    0    0  501    0  0.00000000000E+00  0.00000000000E+00  0.12545907597E+04  0.12545907597E+04  0.25500000920E-02 0.  1.
       -2   -1    0    0    0  501  0.00000000000E+00  0.00000000000E+00 -0.62251792403E+03  0.62251792404E+03  0.25500000920E-02 0. -1.
    10030    2    1    2    0    0  0.00000000000E+00  0.00000000000E+00  0.63207283567E+03  0.18771086837E+04  0.17674900116E+04 0.  0.
        1    1    3    3  502    0  0.14593933201E+03  0.20325290718E+03 -0.58411208247E+03  0.63545020089E+03  0.50400001928E-02 0. -1.
       -1    1    3    3    0  502 -0.14593933201E+03 -0.20325290718E+03  0.12161849181E+04  0.12416584829E+04  0.50400001928E-02 0.  1.
</event>
<event>
 5   0  0.8892280E-05  0.1788447E+04  0.7818609E-02  0.8712468E-01
        2   -1    0    0  501    0  0.00000000000E+00  0.00000000000E+00  0.15755915967E+04  0.15755915967E+04  0.25500000920E-02 0.  1.
       -2   -1    0    0    0  501  0.00000000000E+00  0.00000000000E+00 -0.50751442335E+03  0.50751442336E+03  0.25500000920E-02 0. -1.
    10030    2    1    2    0    0  0.00000000000E+00  0.00000000000E+00  0.10680771733E+04  0.20831060200E+04  0.17884467682E+04 0.  0.
        4    1    3    3  502    0  0.64810406444E+03 -0.48071978957E+03  0.85186103421E+02  0.81141153525E+03  0.12699999809E+01 0. -1.
       -4    1    3    3    0  502 -0.64810406444E+03  0.48071978957E+03  0.98289106992E+03  0.12716944848E+04  0.12699999809E+01 0.  1.
</event>
<event>
 5   0  0.8893075E-05  0.1799197E+04  0.7818609E-02  0.8706727E-01
       -2   -1    0    0    0  501  0.00000000000E+00  0.00000000000E+00  0.60616977776E+03  0.60616977777E+03  0.25500000920E-02 0. -1.
        2   -1    0    0  501    0  0.00000000000E+00  0.00000000000E+00 -0.13350674782E+04  0.13350674782E+04  0.25500000920E-02 0.  1.
    10030    2    1    2    0    0  0.00000000000E+00  0.00000000000E+00 -0.72889770044E+03  0.19412372560E+04  0.17991971060E+04 0.  0.
        1    1    3    3  502    0 -0.25312819631E+03 -0.27047893316E+03  0.52005350283E+03  0.63850480255E+03  0.50400001928E-02 0. -1.
       -1    1    3    3    0  502  0.25312819631E+03  0.27047893316E+03 -0.12489512033E+04  0.13027324534E+04  0.50400001928E-02 0.  1.
</event>
<event>
 5   0  0.9147432E-05  0.1796480E+04  0.7818609E-02  0.8708174E-01
       -2   -1    0    0    0  501  0.00000000000E+00  0.00000000000E+00  0.47609141792E+03  0.47609141793E+03  0.25500000920E-02 0.  1.
        2   -1    0    0  501    0  0.00000000000E+00  0.00000000000E+00 -0.16947058801E+04  0.16947058801E+04  0.25500000920E-02 0. -1.
    10030    2    1    2    0    0  0.00000000000E+00  0.00000000000E+00 -0.12186144622E+04  0.21707972980E+04  0.17964798083E+04 0.  0.
        3    1    3    3  502    0 -0.63387966590E+03  0.90121386793E+02 -0.13705842937E+04  0.15127546436E+04  0.10100000352E+00 0. -1.
       -3    1    3    3    0  502  0.63387966590E+03 -0.90121386793E+02  0.15196983155E+03  0.65804265447E+03  0.10100000352E+00 0.  1.
</event>
<event>
 5   0  0.8802655E-05  0.1796816E+04  0.7818609E-02  0.8707995E-01
        2   -1    0    0  501    0  0.00000000000E+00  0.00000000000E+00  0.23198730106E+04  0.23198730106E+04  0.25500000920E-02 0.  1.
       -2   -1    0    0    0  501  0.00000000000E+00  0.00000000000E+00 -0.34792277630E+03  0.34792277631E+03  0.25500000920E-02 0. -1.
    10030    2    1    2    0    0  0.00000000000E+00  0.00000000000E+00  0.19719502343E+04  0.26677957869E+04  0.17968156928E+04 0.  0.
        2    1    3    3  502    0 -0.63051691050E+03 -0.28757366471E+03  0.18348575067E+04  0.19613648964E+04  0.25500000920E-02 0.  1.
       -2    1    3    3    0  502  0.63051691050E+03  0.28757366471E+03  0.13709272762E+03  0.70643089049E+03  0.25500000920E-02 0. -1.
</event>
<event>
 5   0  0.8893075E-05  0.1799779E+04  0.7818609E-02  0.8706417E-01
       -2   -1    0    0    0  501  0.00000000000E+00  0.00000000000E+00  0.41680963699E+03  0.41680963700E+03  0.25500000920E-02 0.  1.
        2   -1    0    0  501    0  0.00000000000E+00  0.00000000000E+00 -0.19428560462E+04  0.19428560462E+04  0.25500000920E-02 0. -1.
    10030    2    1    2    0    0  0.00000000000E+00  0.00000000000E+00 -0.15260464092E+04  0.23596656832E+04  0.17997790124E+04 0.  0.
        1    1    3    3  502    0  0.53926103593E+03 -0.25657604253E+03 -0.16456164920E+04  0.17506248511E+04  0.50400001928E-02 0. -1.
       -1    1    3    3    0  502 -0.53926103593E+03  0.25657604253E+03  0.11957008278E+03  0.60904083213E+03  0.50400001928E-02 0.  1.
</event>
<event>
 5   0  0.8802655E-05  0.1785994E+04  0.7818609E-02  0.8713783E-01
       -2   -1    0    0    0  501  0.00000000000E+00  0.00000000000E+00  0.13870814686E+04  0.13870814686E+04  0.25500000920E-02 0.  1.
        2   -1    0    0  501    0  0.00000000000E+00  0.00000000000E+00 -0.57490779866E+03  0.57490779866E+03  0.25500000920E-02 0. -1.
    10030    2    1    2    0    0  0.00000000000E+00  0.00000000000E+00  0.81217366999E+03  0.19619892673E+04  0.17859943490E+04 0.  0.
        2    1    3    3  502    0 -0.56056121718E+03 -0.30854677519E+03  0.10903768833E+04  0.12642593636E+04  0.25500000920E-02 0.  1.
       -2    1    3    3    0  502  0.56056121718E+03  0.30854677519E+03 -0.27820321332E+03  0.69772990376E+03  0.25500000920E-02 0. -1.
</event>
<event>
 5   0  0.4535100E-05  0.1798279E+04  0.7818609E-02  0.8707215E-01
        1   -1    0    0  501    0  0.00000000000E+00  0.00000000000E+00  0.80384121402E+03  0.80384121404E+03  0.50400001928E-02 0. -1.
       -1   -1    0    0    0  501  0.00000000000E+00  0.00000000000E+00 -0.10057359819E+04  0.10057359819E+04  0.50400001928E-02 0.  1.
    10030    2    1    2    0    0  0.00000000000E+00  0.00000000000E+00 -0.20189476790E+03  0.18095771960E+04  0.17982792138E+04 0.  0.
        1    1    3    3  502    0 -0.18888390996E+03  0.41918510666E+03  0.67660296962E+03  0.81803720185E+03  0.50400001928E-02 0. -1.
       -1    1    3    3    0  502  0.18888390996E+03 -0.41918510666E+03 -0.87849773752E+03  0.99153999412E+03  0.50400001928E-02 0.  1.
</event>
<event>
 5   0  0.4578107E-05  0.1799865E+04  0.7818609E-02  0.8706371E-01
        1   -1    0    0  501    0  0.00000000000E+00  0.00000000000E+00  0.11391482741E+04  0.11391482742E+04  0.50400001928E-02 0. -1.
       -1   -1    0    0    0  501  0.00000000000E+00  0.00000000000E+00 -0.71095107993E+03  0.71095107995E+03  0.50400001928E-02 0.  1.
    10030    2    1    2    0    0  0.00000000000E+00  0.00000000000E+00  0.42819719421E+03  0.18500993541E+04  0.17998652124E+04 0.  0.
        2    1    3    3  502    0  0.26657634090E+03 -0.47179260779E+03 -0.52444413800E+03  0.75411727482E+03  0.25500000920E-02 0.  1.
       -2    1    3    3    0  502 -0.26657634090E+03  0.47179260779E+03  0.95264133221E+03  0.10959820793E+04  0.25500000920E-02 0. -1.
</event>
<event>
 5   0  0.4494757E-05  0.1809618E+04  0.7818609E-02  0.8701202E-01
       -1   -1    0    0    0  501  0.00000000000E+00  0.00000000000E+00  0.69296970638E+03  0.69296970640E+03  0.50400001928E-02 0. -1.
        1   -1    0    0  501    0  0.00000000000E+00  0.00000000000E+00 -0.11814065018E+04  0.11814065019E+04  0.50400001928E-02 0.  1.
    10030    2    1    2    0    0  0.00000000000E+00  0.00000000000E+00 -0.48843679547E+03  0.18743762083E+04  0.18096175471E+04 0.  0.
        4    1    3    3  502    0 -0.33771360166E+03 -0.80988605405E+03 -0.47282317364E+03  0.99675938106E+03  0.12699999809E+01 0. -1.
       -4    1    3    3    0  502  0.33771360166E+03  0.80988605405E+03 -0.15613621825E+02  0.87761682720E+03  0.12699999809E+01 0.  1.
</event>
<event>
 5   0  0.4623665E-05  0.1764566E+04  0.7818609E-02  0.8725373E-01
       -1   -1    0    0    0  501  0.00000000000E+00  0.00000000000E+00  0.78504056988E+03  0.78504056989E+03  0.50400001928E-02 0. -1.
        1   -1    0    0  501    0  0.00000000000E+00  0.00000000000E+00 -0.99157114664E+03  0.99157114666E+03  0.50400001928E-02 0.  1.
    10030    2    1    2    0    0  0.00000000000E+00  0.00000000000E+00 -0.20653057677E+03  0.17766117166E+04  0.17645663241E+04 0.  0.
        5    1    3    3  502    0 -0.10719128954E+03  0.67431059884E+03  0.45931255244E+03  0.82290635378E+03  0.46999998093E+01 0. -1.
       -5    1    3    3    0  502  0.10719128954E+03 -0.67431059884E+03 -0.66584312921E+03  0.95370536277E+03  0.46999998093E+01 0.  1.
</event>
<event>
 5   0  0.9147432E-05  0.1798434E+04  0.7818609E-02  0.8707133E-01
       -2   -1    0    0    0  501  0.00000000000E+00  0.00000000000E+00  0.36375159306E+03  0.36375159307E+03  0.25500000920E-02 0. -1.
        2   -1    0    0  501    0  0.00000000000E+00  0.00000000000E+00 -0.22229214153E+04  0.22229214153E+04  0.25500000920E-02 0.  1.
    10030    2    1    2    0    0  0.00000000000E+00  0.00000000000E+00 -0.18591698222E+04  0.25866730083E+04  0.17984339922E+04 0.  0.
        3    1    3    3  502    0  0.44645053717E+03  0.77446614481E+03 -0.78957989015E+03  0.11927079713E+04  0.10100000352E+00 0.  1.
       -3    1    3    3    0  502 -0.44645053717E+03 -0.77446614481E+03 -0.10695899320E+04  0.13939650371E+04  0.10100000352E+00 0. -1.
</event>
<event>
 5   0  0.9147432E-05  0.1807813E+04  0.7818609E-02  0.8702156E-01
       -2   -1    0    0    0  501  0.00000000000E+00  0.00000000000E+00  0.52535952982E+03  0.52535952983E+03  0.25500000920E-02 0.  1.
        2   -1    0    0  501    0  0.00000000000E+00  0.00000000000E+00 -0.15552142201E+04  0.15552142201E+04  0.25500000920E-02 0. -1.
    10030    2    1    2    0    0  0.00000000000E+00  0.00000000000E+00 -0.10298546903E+04  0.20805737499E+04  0.18078126136E+04 0.  0.
        3    1    3    3  502    0  0.52724504967E+03  0.10794946005E+03  0.32087253948E+03  0.62657770876E+03  0.10100000352E+00 0.  1.
       -3    1    3    3    0  502 -0.52724504967E+03 -0.10794946005E+03 -0.13507272297E+04  0.14539960412E+04  0.10100000352E+00 0. -1.
</event>
<event>
 5   0  0.4335117E-05  0.1764260E+04  0.7818609E-02  0.8725540E-01
       -1   -1    0    0    0  501  0.00000000000E+00  0.00000000000E+00  0.78683616295E+03  0.78683616297E+03  0.50400001928E-02 0. -1.
        1   -1    0    0  501    0  0.00000000000E+00  0.00000000000E+00 -0.98896435725E+03  0.98896435726E+03  0.50400001928E-02 0.  1.
    10030    2    1    2    0    0  0.00000000000E+00  0.00000000000E+00 -0.20212819430E+03  0.17758005202E+04  0.17642595276E+04 0.  0.
        3    1    3    3  502    0 -0.87759357365E+03  0.51356224203E+02 -0.27476563016E+02  0.87952425435E+03  0.10100000352E+00 0. -1.
       -3    1    3    3    0  502  0.87759357365E+03 -0.51356224203E+02 -0.17465163128E+03  0.89627626588E+03  0.10100000352E+00 0.  1.
</event>
<event>
 5   0  0.4494757E-05  0.1792576E+04  0.7818609E-02  0.8710258E-01
       -1   -1    0    0    0  501  0.00000000000E+00  0.00000000000E+00  0.86450791153E+03  0.86450791154E+03  0.50400001928E-02 0. -1.
        1   -1    0    0  501    0  0.00000000000E+00  0.00000000000E+00 -0.92923616716E+03  0.92923616717E+03  0.50400001928E-02 0.  1.
    10030    2    1    2    0    0  0.00000000000E+00  0.00000000000E+00 -0.64728255630E+02  0.17937440787E+04  0.17925758207E+04 0.  0.
        4    1    3    3  502    0  0.36924246605E+02  0.16567115280E+03 -0.91300590762E+03  0.92865048920E+03  0.12699999809E+01 0.  1.
       -4    1    3    3    0  502 -0.36924246605E+02 -0.16567115280E+03  0.84827765199E+03  0.86509358951E+03  0.12699999809E+01 0. -1.
</event>
<event>
 5   0  0.4623665E-05  0.1804109E+04  0.7818609E-02  0.8704118E-01
       -1   -1    0    0    0  501  0.00000000000E+00  0.00000000000E+00  0.83991971083E+03  0.83991971084E+03  0.50400001928E-02 0.  1.
        1   -1    0    0  501    0  0.00000000000E+00  0.00000000000E+00 -0.96878556597E+03  0.96878556598E+03  0.50400001928E-02 0. -1.
    10030    2    1    2    0    0  0.00000000000E+00  0.00000000000E+00 -0.12886585514E+03  0.18087052768E+04  0.18041087467E+04 0.  0.
        5    1    3    3  502    0  0.36374290833E+02  0.40004863257E+03 -0.87415275991E+03  0.96204320855E+03  0.46999998093E+01 0. -1.
       -5    1    3    3    0  502 -0.36374290833E+02 -0.40004863257E+03  0.74528690477E+03  0.84666206828E+03  0.46999998093E+01 0.  1.
</event>
<event>
 5   0  0.8892280E-05  0.1852895E+04  0.7818609E-02  0.8678665E-01
       -2   -1    0    0    0  501  0.00000000000E+00  0.00000000000E+00  0.43444006195E+03  0.43444006196E+03  0.25500000920E-02 0.  1.
        2   -1    0    0  501    0  0.00000000000E+00  0.00000000000E+00 -0.19756586899E+04  0.19756586899E+04  0.25500000920E-02 0. -1.
    10030    2    1    2    0    0  0.00000000000E+00  0.00000000000E+00 -0.15412186279E+04  0.24100987518E+04  0.18528953383E+04 0.  0.
        4    1    3    3  502    0 -0.26968347763E+03  0.82997329463E+03 -0.11751288032E+04  0.14637329554E+04  0.12699999809E+01 0. -1.
       -4    1    3    3    0  502  0.26968347763E+03 -0.82997329463E+03 -0.36608982475E+03  0.94636579640E+03  0.12699999809E+01 0.  1.
</event>
<event>
 5   0  0.8892280E-05  0.1799250E+04  0.7818609E-02  0.8706698E-01
        2   -1    0    0  501    0  0.00000000000E+00  0.00000000000E+00  0.87108723740E+03  0.87108723740E+03  0.25500000920E-02 0.  1.
       -2   -1    0    0    0  501  0.00000000000E+00  0.00000000000E+00 -0.92909773691E+03  0.92909773691E+03  0.25500000920E-02 0. -1.
    10030    2    1    2    0    0  0.00000000000E+00  0.00000000000E+00 -0.58010499510E+02  0.18001849743E+04  0.17992500448E+04 0.  0.
        4    1    3    3  502    0  0.77318556441E+02 -0.17983961007E+03  0.84951884879E+03  0.87178227320E+03  0.12699999809E+01 0.  1.
       -4    1    3    3    0  502 -0.77318556441E+02  0.17983961007E+03 -0.90752934830E+03  0.92840270112E+03  0.12699999809E+01 0. -1.
</event>
<event>
 5   0  0.9147432E-05  0.1793169E+04  0.7818609E-02  0.8709941E-01
        2   -1    0    0  501    0  0.00000000000E+00  0.00000000000E+00  0.10119947624E+04  0.10119947624E+04  0.25500000920E-02 0.  1.
       -2   -1    0    0    0  501  0.00000000000E+00  0.00000000000E+00 -0.79433549073E+03  0.79433549074E+03  0.25500000920E-02 0. -1.
    10030    2    1    2    0    0  0.00000000000E+00  0.00000000000E+00  0.21765927165E+03  0.18063302531E+04  0.17931685433E+04 0.  0.
        3    1    3    3  502    0  0.23202688704E+03  0.55005834539E+03 -0.56500674777E+03  0.82196915688E+03  0.10100000352E+00 0. -1.
       -3    1    3    3    0  502 -0.23202688704E+03 -0.55005834539E+03  0.78266601942E+03  0.98436109625E+03  0.10100000352E+00 0.  1.
</event>
<event>
 5   0  0.4535100E-05  0.1799832E+04  0.7818609E-02  0.8706389E-01
       -1   -1    0    0    0  501  0.00000000000E+00  0.00000000000E+00  0.89920768837E+03  0.89920768839E+03  0.50400001928E-02 0. -1.
        1   -1    0    0  501    0  0.00000000000E+00  0.00000000000E+00 -0.90062462428E+03  0.90062462429E+03  0.50400001928E-02 0.  1.
    10030    2    1    2    0    0  0.00000000000E+00  0.00000000000E+00 -0.14169359044E+01  0.17998323127E+04  0.17998317549E+04 0.  0.
        1    1    3    3  502    0 -0.57573828434E+03  0.17126375411E+03 -0.67081519025E+03  0.90044370453E+03  0.50400001928E-02 0.  1.
       -1    1    3    3    0  502  0.57573828434E+03 -0.17126375411E+03  0.66939825435E+03  0.89938860815E+03  0.50400001928E-02 0. -1.
</event>
<event>
 5   0  0.8892280E-05  0.1795351E+04  0.7818609E-02  0.8708776E-01
       -2   -1    0    0    0  501  0.00000000000E+00  0.00000000000E+00  0.75716674159E+03  0.75716674160E+03  0.25500000920E-02 0. -1.
        2   -1    0    0  501    0  0.00000000000E+00  0.00000000000E+00 -0.10642582120E+04  0.10642582120E+04  0.25500000920E-02 0.  1.
    10030    2    1    2    0    0  0.00000000000E+00  0.00000000000E+00 -0.30709147038E+03  0.18214249536E+04  0.17953505759E+04 0.  0.
        4    1    3    3  502    0 -0.16432858533E+03  0.80852194097E+03  0.20529689486E+03  0.85021176240E+03  0.12699999809E+01 0. -1.
       -4    1    3    3    0  502  0.16432858533E+03 -0.80852194097E+03 -0.51238836523E+03  0.97121319117E+03  0.12699999809E+01 0.  1.
</event>
<event>
 5   0  0.4494757E-05  0.1774559E+04  0.7818609E-02  0.8719947E-01
       -1   -1    0    0    0  501  0.00000000000E+00  0.00000000000E+00  0.12555420998E+04  0.12555420998E+04  0.50400001928E-02 0.  1.
        1   -1    0    0  501    0  0.00000000000E+00  0.00000000000E+00 -0.62703193244E+03  0.62703193246E+03  0.50400001928E-02 0. -1.
    10030    2    1    2    0    0  0.00000000000E+00  0.00000000000E+00  0.62851016732E+03  0.18825740322E+04  0.17745590879E+04 0.  0.
        4    1    3    3  502    0 -0.33453005274E+03  0.69389400612E+03  0.78135557859E+03  0.10972316989E+04  0.12699999809E+01 0.  1.
       -4    1    3    3    0  502  0.33453005274E+03 -0.69389400612E+03 -0.15284541128E+03  0.78534233336E+03  0.12699999809E+01 0. -1.
</event>
<event>
 5   0  0.8893075E-05  0.1801024E+04  0.7818609E-02  0.8705755E-01
       -2   -1    0    0    0  501  0.00000000000E+00  0.00000000000E+00  0.39335213636E+03  0.39335213637E+03  0.25500000920E-02 0. -1.
        2   -1    0    0  501    0  0.00000000000E+00  0.00000000000E+00 -0.20615672900E+04  0.20615672900E+04  0.25500000920E-02 0.  1.
    10030    2    1    2    0    0  0.00000000000E+00  0.00000000000E+00 -0.16682151537E+04  0.24549194264E+04  0.18010240396E+04 0.  0.
        1    1    3    3  502    0 -0.83584347782E+03 -0.33506511285E+03 -0.82817415447E+03  0.12234277173E+04  0.50400001928E-02 0.  1.
       -1    1    3    3    0  502  0.83584347782E+03  0.33506511285E+03 -0.84004099919E+03  0.12314917091E+04  0.50400001928E-02 0. -1.
</event>
<event>
 5   0  0.9184414E-05  0.1810829E+04  0.7818609E-02  0.8700562E-01
        2   -1    0    0  501    0  0.00000000000E+00  0.00000000000E+00  0.21704971891E+04  0.21704971891E+04  0.25500000920E-02 0. -1.
       -2   -1    0    0    0  501  0.00000000000E+00  0.00000000000E+00 -0.37768998440E+03  0.37768998441E+03  0.25500000920E-02 0.  1.
    10030    2    1    2    0    0  0.00000000000E+00  0.00000000000E+00  0.17928072047E+04  0.25481871735E+04  0.18108285943E+04 0.  0.
        5    1    3    3  502    0 -0.82950878085E+03  0.26229074400E+03  0.54356051810E+03  0.10258466643E+04  0.46999998093E+01 0.  1.
       -5    1    3    3    0  502  0.82950878085E+03 -0.26229074400E+03  0.12492466866E+04  0.15223405092E+04  0.46999998093E+01 0. -1.
</event>
<event>
 5   0  0.4535100E-05  0.1799460E+04  0.7818609E-02  0.8706587E-01
       -1   -1    0    0    0  501  0.00000000000E+00  0.00000000000E+00  0.51396972092E+03  0.51396972094E+03  0.50400001928E-02 0.  1.
        1   -1    0    0  501    0  0.00000000000E+00  0.00000000000E+00 -0.15750220112E+04  0.15750220112E+04  0.50400001928E-02 0. -1.
    10030    2    1    2    0    0  0.00000000000E+00  0.00000000000E+00 -0.10610522903E+04  0.20889917322E+04  0.17994595006E+04 0.  0.
        1    1    3    3  502    0  0.17841197501E+03 -0.26562326904E+03  0.44568413304E+03  0.54865371624E+03  0.50400001928E-02 0.  1.
       -1    1    3    3    0  502 -0.17841197501E+03  0.26562326904E+03 -0.15067364233E+04  0.15403380159E+04  0.50400001928E-02 0. -1.
</event>
<event>
 5   0  0.4535100E-05  0.1838559E+04  0.7818609E-02  0.8686059E-01
        1   -1    0    0  501    0  0.00000000000E+00  0.00000000000E+00  0.12826182213E+04  0.12826182213E+04  0.50400001928E-02 0. -1.
       -1   -1    0    0    0  501  0.00000000000E+00  0.00000000000E+00 -0.65886726154E+03  0.65886726156E+03  0.50400001928E-02 0.  1.
    10030    2    1    2    0    0  0.00000000000E+00  0.00000000000E+00  0.62375095976E+03  0.19414854829E+04  0.18385593872E+04 0.  0.
        1    1    3    3  502    0 -0.15381418325E+03 -0.24660844923E+03 -0.60907191539E+03  0.67486526681E+03  0.50400001928E-02 0.  1.
       -1    1    3    3    0  502  0.15381418325E+03  0.24660844923E+03  0.12328228752E+04  0.12666202161E+04  0.50400001928E-02 0. -1.
</event>
<event>
 5   0  0.4494757E-05  0.1792137E+04  0.7818609E-02  0.8710492E-01
       -1   -1    0    0    0  501  0.00000000000E+00  0.00000000000E+00  0.66350956862E+03  0.66350956864E+03  0.50400001928E-02 0.  1.
        1   -1    0    0  501    0  0.00000000000E+00  0.00000000000E+00 -0.12101390563E+04  0.12101390563E+04  0.50400001928E-02 0. -1.
    10030    2    1    2    0    0  0.00000000000E+00  0.00000000000E+00 -0.54662948768E+03  0.18736486250E+04  0.17921370966E+04 0.  0.
        4    1    3    3  502    0  0.22599924403E+03 -0.29347951996E+03 -0.11263489005E+04  0.11856936137E+04  0.12699999809E+01 0. -1.
       -4    1    3    3    0  502 -0.22599924403E+03  0.29347951996E+03  0.57971941287E+03  0.68795501124E+03  0.12699999809E+01 0.  1.
</event>
<event>
 5   0  0.8892280E-05  0.1803722E+04  0.7818609E-02  0.8704323E-01
       -2   -1    0    0    0  501  0.00000000000E+00  0.00000000000E+00  0.95813820809E+03  0.95813820809E+03  0.25500000920E-02 0.  1.
        2   -1    0    0  501    0  0.00000000000E+00  0.00000000000E+00 -0.84888886431E+03  0.84888886431E+03  0.25500000920E-02 0. -1.
    10030    2    1    2    0    0  0.00000000000E+00  0.00000000000E+00  0.10924934378E+03  0.18070270724E+04  0.18037215476E+04 0.  0.
        4    1    3    3  502    0  0.49322997606E+03  0.75503311836E+03  0.55276484243E+02  0.90355294351E+03  0.12699999809E+01 0. -1.
       -4    1    3    3    0  502 -0.49322997606E+03 -0.75503311836E+03  0.53972859542E+02  0.90347412889E+03  0.12699999809E+01 0.  1.
</event>
<event>
 5   0  0.4535100E-05  0.1849439E+04  0.7818609E-02  0.8680441E-01
        1   -1    0    0  501    0  0.00000000000E+00  0.00000000000E+00  0.13589232820E+04  0.13589232820E+04  0.50400001928E-02 0. -1.
       -1   -1    0    0    0  501  0.00000000000E+00  0.00000000000E+00 -0.62925277829E+03  0.62925277831E+03  0.50400001928E-02 0.  1.
    10030    2    1    2    0    0  0.00000000000E+00  0.00000000000E+00  0.72967050371E+03  0.19881760603E+04  0.18494391049E+04 0.  0.
        1    1    3    3  502    0  0.76862286057E+03  0.36222881533E+03 -0.27384093567E+02  0.85014157941E+03  0.50400001928E-02 0. -1.
       -1    1    3    3    0  502 -0.76862286057E+03 -0.36222881533E+03  0.75705459728E+03  0.11380344809E+04  0.50400001928E-02 0.  1.
</event>
<event>
 5   0  0.8893075E-05  0.1805889E+04  0.7818609E-02  0.8703174E-01
       -2   -1    0    0    0  501  0.00000000000E+00  0.00000000000E+00  0.15717004131E+04  0.15717004132E+04  0.25500000920E-02 0.  1.
        2   -1    0    0  501    0  0.00000000000E+00  0.00000000000E+00 -0.51874327647E+03  0.51874327648E+03  0.25500000920E-02 0. -1.
    10030    2    1    2    0    0  0.00000000000E+00  0.00000000000E+00  0.10529571367E+04  0.20904436896E+04  0.18058892790E+04 0.  0.
        1    1    3    3  502    0 -0.46685846529E+03 -0.76192619097E+03  0.37634802324E+03  0.96960104255E+03  0.50400001928E-02 0. -1.
       -1    1    3    3    0  502  0.46685846529E+03  0.76192619097E+03  0.67660911344E+03  0.11208426471E+04  0.50400001928E-02 0.  1.
</event>
<event>
 5   0  0.3270375E-05  0.1800529E+04  0.7818609E-02  0.8706018E-01
       -3   -1    0    0    0  501  0.00000000000E+00  0.00000000000E+00  0.15886333190E+04  0.15886333223E+04  0.10100000352E+00 0. -1.
        3   -1    0    0  501    0  0.00000000000E+00  0.00000000000E+00 -0.51017182556E+03  0.51017183555E+03  0.10100000352E+00 0.  1.
    10030    2    1    2    0    0  0.00000000000E+00  0.00000000000E+00  0.10784614935E+04  0.20988051578E+04  0.18005287827E+04 0.  0.
        3    1    3    3  502    0 -0.22455573606E+03 -0.83347142926E+03  0.24118602601E+03  0.89625365345E+03  0.10100000352E+00 0.  1.
       -3    1    3    3    0  502  0.22455573606E+03  0.83347142926E+03  0.83727546748E+03  0.12025515044E+04  0.10100000352E+00 0. -1.
</event>
<event>
 5   0  0.4623665E-05  0.1813750E+04  0.7818609E-02  0.8699022E-01
        1   -1    0    0  501    0  0.00000000000E+00  0.00000000000E+00  0.91713260254E+03  0.91713260255E+03  0.50400001928E-02 0. -1.
       -1   -1    0    0    0  501  0.00000000000E+00  0.00000000000E+00 -0.89673162982E+03  0.89673162984E+03  0.50400001928E-02 0.  1.
    10030    2    1    2    0    0  0.00000000000E+00  0.00000000000E+00  0.20400972718E+02  0.18138642324E+04  0.18137495014E+04 0.  0.
        5    1    3    3  502    0  0.53810145684E+03  0.32034993877E+03  0.66615543343E+03  0.91430980122E+03  0.46999998093E+01 0. -1.
       -5    1    3    3    0  502 -0.53810145684E+03 -0.32034993877E+03 -0.64575446071E+03  0.89955443117E+03  0.46999998093E+01 0.  1.
</event>
<event>
 5   0  0.9147432E-05  0.1792324E+04  0.7818609E-02  0.8710392E-01
       -2   -1    0    0    0  501  0.00000000000E+00  0.00000000000E+00  0.84636801790E+03  0.84636801790E+03  0.25500000920E-02 0. -1.
        2   -1    0    0  501    0  0.00000000000E+00  0.00000000000E+00 -0.94888516286E+03  0.94888516286E+03  0.25500000920E-02 0.  1.
    10030    2    1    2    0    0  0.00000000000E+00  0.00000000000E+00 -0.10251714496E+03  0.17952531808E+04  0.17923236923E+04 0.  0.
        3    1    3    3  502    0  0.40145228814E+03  0.78125278218E+03  0.12675696718E+03  0.88746109112E+03  0.10100000352E+00 0. -1.
       -3    1    3    3    0  502 -0.40145228814E+03 -0.78125278218E+03 -0.22927411213E+03  0.90779208964E+03  0.10100000352E+00 0.  1.
</event>
<event>
 5   0  0.4535100E-05  0.1797574E+04  0.7818609E-02  0.8707591E-01
       -1   -1    0    0    0  501  0.00000000000E+00  0.00000000000E+00  0.87009430118E+03  0.87009430119E+03  0.50400001928E-02 0.  1.
        1   -1    0    0  501    0  0.00000000000E+00  0.00000000000E+00 -0.92842555103E+03  0.92842555104E+03  0.50400001928E-02 0. -1.
    10030    2    1    2    0    0  0.00000000000E+00  0.00000000000E+00 -0.58331249846E+02  0.17985198522E+04  0.17975736770E+04 0.  0.
        1    1    3    3  502    0  0.48245691021E+03 -0.69542270133E+03  0.27338464226E+03  0.88944733761E+03  0.50400001928E-02 0. -1.
       -1    1    3    3    0  502 -0.48245691021E+03  0.69542270133E+03 -0.33171589211E+03  0.90907251462E+03  0.50400001928E-02 0.  1.
</event>
<event>
 5   0  0.4623665E-05  0.1804703E+04  0.7818609E-02  0.8703802E-01
        1   -1    0    0  501    0  0.00000000000E+00  0.00000000000E+00  0.13167434200E+04  0.13167434200E+04  0.50400001928E-02 0.  1.
       -1   -1    0    0    0  501  0.00000000000E+00  0.00000000000E+00 -0.61837298886E+03  0.61837298888E+03  0.50400001928E-02 0. -1.
    10030    2    1    2    0    0  0.00000000000E+00  0.00000000000E+00  0.69837043116E+03  0.19351164089E+04  0.18047033709E+04 0.  0.
        5    1    3    3  502    0  0.61955035540E+02  0.17175113423E+03  0.12967159450E+04  0.13095156397E+04  0.46999998093E+01 0.  1.
       -5    1    3    3    0  502 -0.61955035540E+02 -0.17175113423E+03 -0.59834551384E+03  0.62560076924E+03  0.46999998093E+01 0. -1.
</event>
<event>
 5   0  0.9184414E-05  0.1800463E+04  0.7818609E-02  0.8706053E-01
        2   -1    0    0  501    0  0.00000000000E+00  0.00000000000E+00  0.15345289352E+04  0.15345289352E+04  0.25500000920E-02 0.  1.
       -2   -1    0    0    0  501  0.00000000000E+00  0.00000000000E+00 -0.52812105777E+03  0.52812105778E+03  0.25500000920E-02 0. -1.
    10030    2    1    2    0    0  0.00000000000E+00  0.00000000000E+00  0.10064078775E+04  0.20626499930E+04  0.18004633231E+04 0.  0.
        5    1    3    3  502    0  0.78177174314E+03 -0.20538275223E+03  0.95720247556E+03  0.12528398950E+04  0.46999998093E+01 0. -1.
       -5    1    3    3    0  502 -0.78177174314E+03  0.20538275223E+03  0.49205401909E+02  0.80981009802E+03  0.46999998093E+01 0.  1.
</event>
<event>
 5   0  0.4535100E-05  0.1800186E+04  0.7818609E-02  0.8706200E-01
        1   -1    0    0  501    0  0.00000000000E+00  0.00000000000E+00  0.47567880641E+03  0.47567880644E+03  0.50400001928E-02 0.  1.
       -1   -1    0    0    0  501  0.00000000000E+00  0.00000000000E+00 -0.17031822534E+04  0.17031822534E+04  0.50400001928E-02 0. -1.
    10030    2    1    2    0    0  0.00000000000E+00  0.00000000000E+00 -0.12275034470E+04  0.21788610598E+04  0.18001863253E+04 0.  0.
        1    1    3    3  502    0 -0.57609220742E+03 -0.30237292306E+03  0.13906073093E+03  0.66531909860E+03  0.50400001928E-02 0.  1.
       -1    1    3    3    0  502  0.57609220742E+03  0.30237292306E+03 -0.13665641779E+04  0.15135419612E+04  0.50400001928E-02 0. -1.
</event>
<event>
 5   0  0.4623665E-05  0.1808547E+04  0.7818609E-02  0.8701767E-01
        1   -1    0    0  501    0  0.00000000000E+00  0.00000000000E+00  0.21925346464E+04  0.21925346465E+04  0.50400001928E-02 0.  1.
       -1   -1    0    0    0  501  0.00000000000E+00  0.00000000000E+00 -0.37295215979E+03  0.37295215983E+03  0.50400001928E-02 0. -1.
    10030    2    1    2    0    0  0.00000000000E+00  0.00000000000E+00  0.18195824867E+04  0.25654868063E+04  0.18085469658E+04 0.  0.
        5    1    3    3  502    0  0.64568706166E+02 -0.38819900158E+03 -0.24509199421E+03  0.46363752896E+03  0.46999998093E+01 0. -1.
       -5    1    3    3    0  502 -0.64568706166E+02  0.38819900158E+03  0.20646744809E+04  0.21018492773E+04  0.46999998093E+01 0.  1.
</event>
<event>
 5   0  0.4335117E-05  0.1772018E+04  0.7818609E-02  0.8721323E-01
        1   -1    0    0  501    0  0.00000000000E+00  0.00000000000E+00  0.16373504170E+04  0.16373504170E+04  0.50400001928E-02 0. -1.
       -1   -1    0    0    0  501  0.00000000000E+00  0.00000000000E+00 -0.47944034242E+03  0.47944034244E+03  0.50400001928E-02 0.  1.
    10030    2    1    2    0    0  0.00000000000E+00  0.00000000000E+00  0.11579100746E+04  0.21167907595E+04  0.17720178832E+04 0.  0.
        3    1    3    3  502    0  0.70261633192E+03 -0.52568937458E+03  0.72522370022E+03  0.11384061024E+04  0.10100000352E+00 0.  1.
       -3    1    3    3    0  502 -0.70261633192E+03  0.52568937458E+03  0.43268637440E+03  0.97838465708E+03  0.10100000352E+00 0. -1.
</event>
<event>
 5   0  0.8892280E-05  0.1798171E+04  0.7818609E-02  0.8707273E-01
       -2   -1    0    0    0  501  0.00000000000E+00  0.00000000000E+00  0.10635357884E+04  0.10635357884E+04  0.25500000920E-02 0. -1.
        2   -1    0    0  501    0  0.00000000000E+00  0.00000000000E+00 -0.76006372067E+03  0.76006372067E+03  0.25500000920E-02 0.  1.
    10030    2    1    2    0    0  0.00000000000E+00  0.00000000000E+00  0.30347206776E+03  0.18235995091E+04  0.17981712582E+04 0.  0.
        4    1    3    3  502    0  0.87336448667E+03 -0.78701048262E+02  0.35302191436E+03  0.94529649660E+03  0.12699999809E+01 0. -1.
       -4    1    3    3    0  502 -0.87336448667E+03  0.78701048262E+02 -0.49549846600E+02  0.87830301250E+03  0.12699999809E+01 0.  1.
</event>
<event>
 5   0  0.4578107E-05  0.1793957E+04  0.7818609E-02  0.8709520E-01
        1   -1    0    0  501    0  0.00000000000E+00  0.00000000000E+00  0.13357782050E+04  0.13357782050E+04  0.50400001928E-02 0. -1.
       -1   -1    0    0    0  501  0.00000000000E+00  0.00000000000E+00 -0.60232315178E+03  0.60232315180E+03  0.50400001928E-02 0.  1.
    10030    2    1    2    0    0  0.00000000000E+00  0.00000000000E+00  0.73345505325E+03  0.19381013568E+04  0.17939566757E+04 0.  0.
        2    1    3    3  502    0 -0.36384120389E+02  0.39106926352E+03 -0.50448706446E+03  0.63934823946E+03  0.25500000920E-02 0.  1.
       -2    1    3    3    0  502  0.36384120389E+02 -0.39106926352E+03  0.12379421177E+04  0.12987531174E+04  0.25500000920E-02 0. -1.
</event>
<event>
 5   0  0.3270375E-05  0.1794795E+04  0.7818609E-02  0.8709072E-01
        3   -1    0    0  501    0  0.00000000000E+00  0.00000000000E+00  0.65965130227E+03  0.65965131000E+03  0.10100000352E+00 0.  1.
       -3   -1    0    0    0  501  0.00000000000E+00  0.00000000000E+00 -0.12208299255E+04  0.12208299297E+04  0.10100000352E+00 0. -1.
    10030    2    1    2    0    0  0.00000000000E+00  0.00000000000E+00 -0.56117862324E+03  0.18804812397E+04  0.17947947642E+04 0.  0.
        1    1    3    3  502    0 -0.45138558123E+03  0.34220369020E+03 -0.10098579627E+04  0.11578710694E+04  0.50400001928E-02 0. -1.
       -1    1    3    3    0  502  0.45138558123E+03 -0.34220369020E+03  0.44867933945E+03  0.72261017028E+03  0.50400001928E-02 0.  1.
</event>
<event>
 5   0  0.8893075E-05  0.1799648E+04  0.7818609E-02  0.8706486E-01
        2   -1    0    0  501    0  0.00000000000E+00  0.00000000000E+00  0.21676294170E+04  0.21676294170E+04  0.25500000920E-02 0. -1.
       -2   -1    0    0    0  501  0.00000000000E+00  0.00000000000E+00 -0.37353414381E+03  0.37353414382E+03  0.25500000920E-02 0.  1.
    10030    2    1    2    0    0  0.00000000000E+00  0.00000000000E+00  0.17940952731E+04  0.25411635608E+04  0.17996484083E+04 0.  0.
        1    1    3    3  502    0  0.47834256904E+03  0.26064292366E+02 -0.17850348935E+03  0.51122837991E+03  0.50400001928E-02 0.  1.
       -1    1    3    3    0  502 -0.47834256904E+03 -0.26064292366E+02  0.19725987625E+04  0.20299351809E+04  0.50400001928E-02 0. -1.
</event>
<event>
 5   0  0.8892280E-05  0.1808287E+04  0.7818609E-02  0.8701905E-01
       -2   -1    0    0    0  501  0.00000000000E+00  0.00000000000E+00  0.66604624022E+03  0.66604624023E+03  0.25500000920E-02 0.  1.
        2   -1    0    0  501    0  0.00000000000E+00  0.00000000000E+00 -0.12273550934E+04  0.12273550934E+04  0.25500000920E-02 0. -1.
    10030    2    1    2    0    0  0.00000000000E+00  0.00000000000E+00 -0.56130885316E+03  0.18934013336E+04  0.18082867531E+04 0.  0.
        4    1    3    3  502    0 -0.77722762990E+03 -0.41873848817E+03 -0.48489713365E+03  0.10072494990E+04  0.12699999809E+01 0. -1.
       -4    1    3    3    0  502  0.77722762990E+03  0.41873848817E+03 -0.76411719513E+02  0.88615183459E+03  0.12699999809E+01 0.  1.
</event>
<event>
 5   0  0.8892280E-05  0.1800094E+04  0.7818609E-02  0.8706249E-01
        2   -1    0    0  501    0  0.00000000000E+00  0.00000000000E+00  0.19084958884E+04  0.19084958884E+04  0.25500000920E-02 0.  1.
       -2   -1    0    0    0  501  0.00000000000E+00  0.00000000000E+00 -0.42446243124E+03  0.42446243124E+03  0.25500000920E-02 0. -1.
    10030    2    1    2    0    0  0.00000000000E+00  0.00000000000E+00  0.14840334572E+04  0.23329583197E+04  0.18000942251E+04 0.  0.
        4    1    3    3  502    0 -0.16435290883E+03 -0.88354700440E+03  0.80571983212E+03  0.12070017599E+04  0.12699999809E+01 0. -1.
       -4    1    3    3    0  502  0.16435290883E+03  0.88354700440E+03  0.67831362506E+03  0.11259565598E+04  0.12699999809E+01 0.  1.
</event>
<event>
 5   0  0.8802655E-05  0.1798656E+04  0.7818609E-02  0.8707015E-01
        2   -1    0    0  501    0  0.00000000000E+00  0.00000000000E+00  0.12648471671E+04  0.12648471671E+04  0.25500000920E-02 0.  1.
       -2   -1    0    0    0  501  0.00000000000E+00  0.00000000000E+00 -0.63943726144E+03  0.63943726144E+03  0.25500000920E-02 0. -1.
    10030    2    1    2    0    0  0.00000000000E+00  0.00000000000E+00  0.62540990567E+03  0.19042844286E+04  0.17986555075E+04 0.  0.
        2    1    3    3  502    0  0.37038522146E+03  0.78618277678E+03  0.55763909862E+03  0.10325841056E+04  0.25500000920E-02 0.  1.
       -2    1    3    3    0  502 -0.37038522146E+03 -0.78618277678E+03  0.67770807048E+02  0.87170032297E+03  0.25500000920E-02 0. -1.
</event>
<event>
 5   0  0.9147432E-05  0.1787480E+04  0.7818609E-02  0.8712986E-01
        2   -1    0    0  501    0  0.00000000000E+00  0.00000000000E+00  0.19296416983E+04  0.19296416983E+04  0.25500000920E-02 0. -1.
       -2   -1    0    0    0  501  0.00000000000E+00  0.00000000000E+00 -0.41394777610E+03  0.41394777611E+03  0.25500000920E-02 0.  1.
    10030    2    1    2    0    0  0.00000000000E+00  0.00000000000E+00  0.15156939222E+04  0.23435894744E+04  0.17874796667E+04 0.  0.
        3    1    3    3  502    0 -0.30941947810E+03  0.83508072726E+03  0.85657867142E+03  0.12356485200E+04  0.10100000352E+00 0. -1.
       -3    1    3    3    0  502  0.30941947810E+03 -0.83508072726E+03  0.65911525080E+03  0.11079409544E+04  0.10100000352E+00 0.  1.
</event>
<event>
 5   0  0.4335117E-05  0.1826854E+04  0.7818609E-02  0.8692148E-01
        1   -1    0    0  501    0  0.00000000000E+00  0.00000000000E+00  0.13682024878E+04  0.13682024879E+04  0.50400001928E-02 0.  1.
       -1   -1    0    0    0  501  0.00000000000E+00  0.00000000000E+00 -0.60981400797E+03  0.60981400799E+03  0.50400001928E-02 0. -1.
    10030    2    1    2    0    0  0.00000000000E+00  0.00000000000E+00  0.75838847988E+03  0.19780164958E+04  0.18268541735E+04 0.  0.
        3    1    3    3  502    0  0.63466636896E+03 -0.45447539488E+03 -0.13439633288E+03  0.79209321985E+03  0.10100000352E+00 0.  1.
       -3    1    3    3    0  502 -0.63466636896E+03  0.45447539488E+03  0.89278481276E+03  0.11859232760E+04  0.10100000352E+00 0. -1.
</event>
<event>
 5   0  0.4494757E-05  0.1802299E+04  0.7818609E-02  0.8705078E-01
        1   -1    0    0  501    0  0.00000000000E+00  0.00000000000E+00  0.13187101218E+04  0.13187101218E+04  0.50400001928E-02 0.  1.
       -1   -1    0    0    0  501  0.00000000000E+00  0.00000000000E+00 -0.61580644885E+03  0.61580644887E+03  0.50400001928E-02 0. -1.
    10030    2    1    2    0    0  0.00000000000E+00  0.00000000000E+00  0.70290367298E+03  0.19345165707E+04  0.18022987513E+04 0.  0.
        4    1    3    3  502    0  0.21977436763E+02 -0.71828716480E+03 -0.23217327742E+03  0.75519898205E+03  0.12699999809E+01 0. -1.
       -4    1    3    3    0  502 -0.21977436763E+02  0.71828716480E+03  0.93507695040E+03  0.11793175887E+04  0.12699999809E+01 0.  1.
</event>
<event>
 5   0  0.9147432E-05  0.1795982E+04  0.7818609E-02  0.8708439E-01
        2   -1    0    0  501    0  0.00000000000E+00  0.00000000000E+00  0.16567381846E+04  0.16567381846E+04  0.25500000920E-02 0. -1.
       -2   -1    0    0    0  501  0.00000000000E+00  0.00000000000E+00 -0.48673222687E+03  0.48673222688E+03  0.25500000920E-02 0.  1.
    10030    2    1    2    0    0  0.00000000000E+00  0.00000000000E+00  0.11700059577E+04  0.21434704115E+04  0.17959820333E+04 0.  0.
        3    1    3    3  502    0 -0.15013024275E+03 -0.49751672299E+03  0.14590401055E+04  0.15488253676E+04  0.10100000352E+00 0. -1.
       -3    1    3    3    0  502  0.15013024275E+03  0.49751672299E+03 -0.28903414782E+03  0.59464504391E+03  0.10100000352E+00 0.  1.
</event>
<event>
 5   0  0.8802655E-05  0.1790592E+04  0.7818609E-02  0.8711318E-01
       -2   -1    0    0    0  501  0.00000000000E+00  0.00000000000E+00  0.96634460517E+03  0.96634460517E+03  0.25500000920E-02 0. -1.
        2   -1    0    0  501    0  0.00000000000E+00  0.00000000000E+00 -0.82947128615E+03  0.82947128616E+03  0.25500000920E-02 0.  1.
    10030    2    1    2    0    0  0.00000000000E+00  0.00000000000E+00  0.13687331901E+03  0.17958158913E+04  0.17905921954E+04 0.  0.
        2    1    3    3  502    0 -0.36762410421E+02 -0.72228417024E+03 -0.46084262938E+03  0.85756738887E+03  0.25500000920E-02 0.  1.
       -2    1    3    3    0  502  0.36762410421E+02  0.72228417024E+03  0.59771594839E+03  0.93824850246E+03  0.25500000920E-02 0. -1.
</event>
<event>
 5   0  0.4535100E-05  0.1799320E+04  0.7818609E-02  0.8706661E-01
        1   -1    0    0  501    0  0.00000000000E+00  0.00000000000E+00  0.19676179389E+04  0.19676179389E+04  0.50400001928E-02 0. -1.
       -1   -1    0    0    0  501  0.00000000000E+00  0.00000000000E+00 -0.41135429742E+03  0.41135429745E+03  0.50400001928E-02 0.  1.
    10030    2    1    2    0    0  0.00000000000E+00  0.00000000000E+00  0.15562636414E+04  0.23789722363E+04  0.17993199770E+04 0.  0.
        1    1    3    3  502    0  0.12170741727E+03 -0.70492870694E+03  0.56800840845E+02  0.71760958245E+03  0.50400001928E-02 0.  1.
       -1    1    3    3    0  502 -0.12170741727E+03  0.70492870694E+03  0.14994628006E+04  0.16613626539E+04  0.50400001928E-02 0. -1.
</event>
<event>
 5   0  0.8893075E-05  0.1793327E+04  0.7818609E-02  0.8709856E-01
        2   -1    0    0  501    0  0.00000000000E+00  0.00000000000E+00  0.68071805817E+03  0.68071805817E+03  0.25500000920E-02 0.  1.
       -2   -1    0    0    0  501  0.00000000000E+00  0.00000000000E+00 -0.11811132721E+04  0.11811132721E+04  0.25500000920E-02 0. -1.
    10030    2    1    2    0    0  0.00000000000E+00  0.00000000000E+00 -0.50039521398E+03  0.18618313303E+04  0.17933266664E+04 0.  0.
        1    1    3    3  502    0  0.47371442219E+03 -0.75981482403E+03 -0.29978414579E+03  0.94424279436E+03  0.50400001928E-02 0.  1.
       -1    1    3    3    0  502 -0.47371442219E+03  0.75981482403E+03 -0.20061106819E+03  0.91758853596E+03  0.50400001928E-02 0. -1.
</event>
<event>
 5   0  0.4578107E-05  0.1812747E+04  0.7818609E-02  0.8699550E-01
       -1   -1    0    0    0  501  0.00000000000E+00  0.00000000000E+00  0.51553973583E+03  0.51553973585E+03  0.50400001928E-02 0.  1.
        1   -1    0    0  501    0  0.00000000000E+00  0.00000000000E+00 -0.15935004880E+04  0.15935004880E+04  0.50400001928E-02 0. -1.
    10030    2    1    2    0    0  0.00000000000E+00  0.00000000000E+00 -0.10779607522E+04  0.21090402239E+04  0.18127468888E+04 0.  0.
        2    1    3    3  502    0 -0.90466006435E+03  0.54882179644E+02 -0.52788573583E+03  0.10488494819E+04  0.25500000920E-02 0.  1.
       -2    1    3    3    0  502  0.90466006435E+03 -0.54882179644E+02 -0.55007501638E+03  0.10601907420E+04  0.25500000920E-02 0. -1.
</event>
<event>
 5   0  0.9184414E-05  0.1796766E+04  0.7818609E-02  0.8708021E-01
        2   -1    0    0  501    0  0.00000000000E+00  0.00000000000E+00  0.35114941600E+03  0.35114941601E+03  0.25500000920E-02 0.  1.
       -2   -1    0    0    0  501  0.00000000000E+00  0.00000000000E+00 -0.22984294874E+04  0.22984294874E+04  0.25500000920E-02 0. -1.
    10030    2    1    2    0    0  0.00000000000E+00  0.00000000000E+00 -0.19472800714E+04  0.26495789034E+04  0.17967661754E+04 0.  0.
        5    1    3    3  502    0  0.51222025057E+03 -0.22142176309E+03  0.64564403509E+02  0.56177204849E+03  0.46999998093E+01 0.  1.
       -5    1    3    3    0  502 -0.51222025057E+03  0.22142176309E+03 -0.20118444749E+04  0.20878068549E+04  0.46999998093E+01 0. -1.
</event>
<event>
 5   0  0.4578107E-05  0.1792570E+04  0.7818609E-02  0.8710261E-01
        1   -1    0    0  501    0  0.00000000000E+00  0.00000000000E+00  0.11293481626E+04  0.11293481626E+04  0.50400001928E-02 0. -1.
       -1   -1    0    0    0  501  0.00000000000E+00  0.00000000000E+00 -0.71131917422E+03  0.71131917424E+03  0.50400001928E-02 0.  1.
    10030    2    1    2    0    0  0.00000000000E+00  0.00000000000E+00  0.41802898841E+03  0.18406673369E+04  0.17925702245E+04 0.  0.
        2    1    3    3  502    0 -0.94767652854E+02 -0.80611297734E+03  0.59938326493E+03  0.10089892658E+04  0.25500000920E-02 0. -1.
       -2    1    3    3    0  502  0.94767652854E+02  0.80611297734E+03 -0.18135427652E+03  0.83167807106E+03  0.25500000920E-02 0.  1.
</event>
<event>
 5   0  0.4335117E-05  0.1801638E+04  0.7818609E-02  0.8705429E-01
       -1   -1    0    0    0  501  0.00000000000E+00  0.00000000000E+00  0.44356779144E+03  0.44356779147E+03  0.50400001928E-02 0. -1.
        1   -1    0    0  501    0  0.00000000000E+00  0.00000000000E+00 -0.18294275205E+04  0.18294275205E+04  0.50400001928E-02 0.  1.
    10030    2    1    2    0    0  0.00000000000E+00  0.00000000000E+00 -0.13858597291E+04  0.22729953120E+04  0.18016382821E+04 0.  0.
        3    1    3    3  502    0  0.25189160235E+03 -0.68985140075E+02 -0.17806152710E+04  0.17996663809E+04  0.10100000352E+00 0.  1.
       -3    1    3    3    0  502 -0.25189160235E+03  0.68985140075E+02  0.39475554197E+03  0.47332893109E+03  0.10100000352E+00 0. -1.
</event>
<event>
 5   0  0.4623665E-05  0.1756387E+04  0.7818609E-02  0.8729842E-01
        1   -1    0    0  501    0  0.00000000000E+00  0.00000000000E+00  0.14273590328E+04  0.14273590328E+04  0.50400001928E-02 0. -1.
       -1   -1    0    0    0  501  0.00000000000E+00  0.00000000000E+00 -0.54031540356E+03  0.54031540358E+03  0.50400001928E-02 0.  1.
    10030    2    1    2    0    0  0.00000000000E+00  0.00000000000E+00  0.88704362920E+03  0.19676744363E+04  0.17563872829E+04 0.  0.
        5    1    3    3  502    0 -0.23859882130E+03 -0.84308700172E+03  0.37746333855E+03  0.95405752025E+03  0.46999998093E+01 0.  1.
       -5    1    3    3    0  502  0.23859882130E+03  0.84308700172E+03  0.50958029065E+03  0.10136169161E+04  0.46999998093E+01 0. -1.
</event>
<event>
 5   0  0.8893075E-05  0.1810989E+04  0.7818609E-02  0.8700477E-01
       -2   -1    0    0    0  501  0.00000000000E+00  0.00000000000E+00  0.45882329211E+03  0.45882329212E+03  0.25500000920E-02 0. -1.
        2   -1    0    0  501    0  0.00000000000E+00  0.00000000000E+00 -0.17870076614E+04  0.17870076614E+04  0.25500000920E-02 0.  1.
    10030    2    1    2    0    0  0.00000000000E+00  0.00000000000E+00 -0.13281843693E+04  0.22458309535E+04  0.18109894955E+04 0.  0.
        1    1    3    3  502    0 -0.34977116073E+03  0.79247628620E+03 -0.99116753471E+03  0.13163478305E+04  0.50400001928E-02 0.  1.
       -1    1    3    3    0  502  0.34977116073E+03 -0.79247628620E+03 -0.33701683455E+03  0.92948312296E+03  0.50400001928E-02 0. -1.
</event>
<event>
 5   0  0.4335117E-05  0.1799057E+04  0.7818609E-02  0.8706801E-01
       -1   -1    0    0    0  501  0.00000000000E+00  0.00000000000E+00  0.78180395252E+03  0.78180395253E+03  0.50400001928E-02 0. -1.
        1   -1    0    0  501    0  0.00000000000E+00  0.00000000000E+00 -0.10349803331E+04  0.10349803331E+04  0.50400001928E-02 0.  1.
    10030    2    1    2    0    0  0.00000000000E+00  0.00000000000E+00 -0.25317638062E+03  0.18167842857E+04  0.17990572145E+04 0.  0.
        3    1    3    3  502    0 -0.87249883835E+03 -0.95326437312E+02 -0.32553280294E+03  0.93611589484E+03  0.10100000352E+00 0.  1.
       -3    1    3    3    0  502  0.87249883835E+03  0.95326437312E+02  0.72356422320E+02  0.88066839084E+03  0.10100000352E+00 0. -1.
</event>
<event>
 5   0  0.8802655E-05  0.1808842E+04  0.7818609E-02  0.8701612E-01
       -2   -1    0    0    0  501  0.00000000000E+00  0.00000000000E+00  0.96100918530E+03  0.96100918530E+03  0.25500000920E-02 0. -1.
        2   -1    0    0  501    0  0.00000000000E+00  0.00000000000E+00 -0.85116493989E+03  0.85116493990E+03  0.25500000920E-02 0.  1.
    10030    2    1    2    0    0  0.00000000000E+00  0.00000000000E+00  0.10984424541E+03  0.18121741252E+04  0.18088419781E+04 0.  0.
        2    1    3    3  502    0  0.52975691572E+03  0.47979868105E+03 -0.50029022593E+03  0.87243307724E+03  0.25500000920E-02 0.  1.
       -2    1    3    3    0  502 -0.52975691572E+03 -0.47979868105E+03  0.61013447134E+03  0.93974104796E+03  0.25500000920E-02 0. -1.
</event>
<event>
 5   0  0.4494757E-05  0.1797250E+04  0.7818609E-02  0.8707763E-01
       -1   -1    0    0    0  501  0.00000000000E+00  0.00000000000E+00  0.12385048050E+04  0.12385048050E+04  0.50400001928E-02 0. -1.
        1   -1    0    0  501    0  0.00000000000E+00  0.00000000000E+00 -0.65201785086E+03  0.65201785088E+03  0.50400001928E-02 0.  1.
    10030    2    1    2    0    0  0.00000000000E+00  0.00000000000E+00  0.58648695418E+03  0.18905226559E+04  0.17972503902E+04 0.  0.
        4    1    3    3  502    0 -0.61129322013E+03 -0.24745388811E+02 -0.39912057727E+03  0.73047284915E+03  0.12699999809E+01 0.  1.
       -4    1    3    3    0  502  0.61129322013E+03  0.24745388811E+02  0.98560753144E+03  0.11600498068E+04  0.12699999809E+01 0. -1.
</event>
<event>
 5   0  0.4623665E-05  0.1796415E+04  0.7818609E-02  0.8708208E-01
        1   -1    0    0  501    0  0.00000000000E+00  0.00000000000E+00  0.13926594689E+04  0.13926594689E+04  0.50400001928E-02 0.  1.
       -1   -1    0    0    0  501  0.00000000000E+00  0.00000000000E+00 -0.57930645908E+03  0.57930645910E+03  0.50400001928E-02 0. -1.
    10030    2    1    2    0    0  0.00000000000E+00  0.00000000000E+00  0.81335300983E+03  0.19719659280E+04  0.17964149027E+04 0.  0.
        5    1    3    3  502    0 -0.76564358676E+03 -0.33997626365E+03  0.51040391072E+02  0.83929802413E+03  0.46999998093E+01 0. -1.
       -5    1    3    3    0  502  0.76564358676E+03  0.33997626365E+03  0.76231261876E+03  0.11326679039E+04  0.46999998093E+01 0.  1.
</event>
<event>
 5   0  0.9184414E-05  0.1807183E+04  0.7818609E-02  0.8702489E-01
        2   -1    0    0  501    0  0.00000000000E+00  0.00000000000E+00  0.95227542534E+03  0.95227542534E+03  0.25500000920E-02 0.  1.
       -2   -1    0    0    0  501  0.00000000000E+00  0.00000000000E+00 -0.85739651041E+03  0.85739651042E+03  0.25500000920E-02 0. -1.
    10030    2    1    2    0    0  0.00000000000E+00  0.00000000000E+00  0.94878914928E+02  0.18096719358E+04  0.18071830307E+04 0.  0.
        5    1    3    3  502    0 -0.67200889609E+03  0.11658993585E+03 -0.54605408241E+03  0.87371981806E+03  0.46999998093E+01 0. -1.
       -5    1    3    3    0  502  0.67200889609E+03 -0.11658993585E+03  0.64093299733E+03  0.93595211770E+03  0.46999998093E+01 0.  1.
</event>
<event>
 5   0  0.4623665E-05  0.1783914E+04  0.7818609E-02  0.8714901E-01
        1   -1    0    0  501    0  0.00000000000E+00  0.00000000000E+00  0.32630145801E+04  0.32630145801E+04  0.50400001928E-02 0. -1.
       -1   -1    0    0    0  501  0.00000000000E+00  0.00000000000E+00 -0.24381970378E+03  0.24381970383E+03  0.50400001928E-02 0.  1.
    10030    2    1    2    0    0  0.00000000000E+00  0.00000000000E+00  0.30191948763E+04  0.35068342839E+04  0.17839139536E+04 0.  0.
        5    1    3    3  502    0  0.87565270279E+03 -0.16539920164E+03  0.15842103597E+04  0.18176548368E+04  0.46999998093E+01 0.  1.
       -5    1    3    3    0  502 -0.87565270279E+03  0.16539920164E+03  0.14349845166E+04  0.16891794471E+04  0.46999998093E+01 0. -1.
</event>
<event>
 5   0  0.4578107E-05  0.1817462E+04  0.7818609E-02  0.8697068E-01
       -1   -1    0    0    0  501  0.00000000000E+00  0.00000000000E+00  0.70279995017E+03  0.70279995019E+03  0.50400001928E-02 0. -1.
        1   -1    0    0  501    0  0.00000000000E+00  0.00000000000E+00 -0.11750028744E+04  0.11750028744E+04  0.50400001928E-02 0.  1.
    10030    2    1    2    0    0  0.00000000000E+00  0.00000000000E+00 -0.47220292422E+03  0.18778028246E+04  0.18174619243E+04 0.  0.
        2    1    3    3  502    0  0.40462676420E+03 -0.25068882102E+03 -0.10358977057E+04  0.11400227015E+04  0.25500000920E-02 0.  1.
       -2    1    3    3    0  502 -0.40462676420E+03  0.25068882102E+03  0.56369478150E+03  0.73778012306E+03  0.25500000920E-02 0. -1.
</event>
<event>
 5   0  0.8893075E-05  0.1772725E+04  0.7818609E-02  0.8720940E-01
       -2   -1    0    0    0  501  0.00000000000E+00  0.00000000000E+00  0.62725101102E+03  0.62725101102E+03  0.25500000920E-02 0.  1.
        2   -1    0    0  501    0  0.00000000000E+00  0.00000000000E+00 -0.12525108198E+04  0.12525108198E+04  0.25500000920E-02 0. -1.
    10030    2    1    2    0    0  0.00000000000E+00  0.00000000000E+00 -0.62525980878E+03  0.18797618308E+04  0.17727252218E+04 0.  0.
        1    1    3    3  502    0  0.10496925909E+03  0.37931905472E+03  0.52951266626E+03  0.65976143748E+03  0.50400001928E-02 0.  1.
       -1    1    3    3    0  502 -0.10496925909E+03 -0.37931905472E+03 -0.11547724750E+04  0.12200003933E+04  0.50400001928E-02 0. -1.
</event>
<event>
 5   0  0.4494757E-05  0.1821094E+04  0.7818609E-02  0.8695162E-01
       -1   -1    0    0    0  501  0.00000000000E+00  0.00000000000E+00  0.64347643493E+03  0.64347643495E+03  0.50400001928E-02 0.  1.
        1   -1    0    0  501    0  0.00000000000E+00  0.00000000000E+00 -0.12884629818E+04  0.12884629819E+04  0.50400001928E-02 0. -1.
    10030    2    1    2    0    0  0.00000000000E+00  0.00000000000E+00 -0.64498654691E+03  0.19319394168E+04  0.18210937001E+04 0.  0.
        4    1    3    3  502    0  0.13602576229E+03  0.36958223501E+03  0.54845253390E+03  0.67520058596E+03  0.12699999809E+01 0.  1.
       -4    1    3    3    0  502 -0.13602576229E+03 -0.36958223501E+03 -0.11934390808E+04  0.12567388308E+04  0.12699999809E+01 0. -1.
</event>
<event>
 5   0  0.8893075E-05  0.1801150E+04  0.7818609E-02  0.8705688E-01
        2   -1    0    0  501    0  0.00000000000E+00  0.00000000000E+00  0.10885619930E+04  0.10885619930E+04  0.25500000920E-02 0. -1.
       -2   -1    0    0    0  501  0.00000000000E+00  0.00000000000E+00 -0.74505175176E+03  0.74505175176E+03  0.25500000920E-02 0.  1.
    10030    2    1    2    0    0  0.00000000000E+00  0.00000000000E+00  0.34351024124E+03  0.18336137448E+04  0.18011496548E+04 0.  0.
        1    1    3    3  502    0 -0.63435851057E+03  0.67873097909E+02  0.81883540524E+03  0.10380312607E+04  0.50400001928E-02 0. -1.
       -1    1    3    3    0  502  0.63435851057E+03 -0.67873097909E+02 -0.47532516400E+03  0.79558248404E+03  0.50400001928E-02 0.  1.
</event>
<event>
 5   0  0.8893075E-05  0.1798869E+04  0.7818609E-02  0.8706901E-01
        2   -1    0    0  501    0  0.00000000000E+00  0.00000000000E+00  0.72094111740E+03  0.72094111740E+03  0.25500000920E-02 0.  1.
       -2   -1    0    0    0  501  0.00000000000E+00  0.00000000000E+00 -0.11221196931E+04  0.11221196931E+04  0.25500000920E-02 0. -1.
    10030    2    1    2    0    0  0.00000000000E+00  0.00000000000E+00 -0.40117857569E+03  0.18430608105E+04  0.17988687839E+04 0.  0.
        1    1    3    3  502    0 -0.49466834258E+03  0.32449456966E+02  0.56833579548E+03  0.75415867883E+03  0.50400001928E-02 0.  1.
       -1    1    3    3    0  502  0.49466834258E+03 -0.32449456966E+02 -0.96951437117E+03  0.10889021317E+04  0.50400001928E-02 0. -1.
</event>
<event>
 5   0  0.4494757E-05  0.1796846E+04  0.7818609E-02  0.8707979E-01
       -1   -1    0    0    0  501  0.00000000000E+00  0.00000000000E+00  0.50926772567E+03  0.50926772569E+03  0.50400001928E-02 0.  1.
        1   -1    0    0  501    0  0.00000000000E+00  0.00000000000E+00 -0.15849492196E+04  0.15849492197E+04  0.50400001928E-02 0. -1.
    10030    2    1    2    0    0  0.00000000000E+00  0.00000000000E+00 -0.10756814940E+04  0.20942169454E+04  0.17968455520E+04 0.  0.
        4    1    3    3  502    0  0.57189576458E+03  0.20098131166E+03  0.23500165247E+03  0.65014278643E+03  0.12699999809E+01 0.  1.
       -4    1    3    3    0  502 -0.57189576458E+03 -0.20098131166E+03 -0.13106831464E+04  0.14440741589E+04  0.12699999809E+01 0. -1.
</event>
<event>
 5   0  0.4335117E-05  0.1831171E+04  0.7818609E-02  0.8689896E-01
       -1   -1    0    0    0  501  0.00000000000E+00  0.00000000000E+00  0.82856658709E+03  0.82856658710E+03  0.50400001928E-02 0. -1.
        1   -1    0    0  501    0  0.00000000000E+00  0.00000000000E+00 -0.10117434851E+04  0.10117434852E+04  0.50400001928E-02 0.  1.
    10030    2    1    2    0    0  0.00000000000E+00  0.00000000000E+00 -0.18317689806E+03  0.18403100723E+04  0.18311710423E+04 0.  0.
        3    1    3    3  502    0 -0.38040550691E+03  0.22577613414E+03 -0.89722109330E+03  0.10003443971E+04  0.10100000352E+00 0.  1.
       -3    1    3    3    0  502  0.38040550691E+03 -0.22577613414E+03  0.71404419523E+03  0.83996567512E+03  0.10100000352E+00 0. -1.
</event>
<event>
 5   0  0.8892280E-05  0.1797404E+04  0.7818609E-02  0.8707681E-01
       -2   -1    0    0    0  501  0.00000000000E+00  0.00000000000E+00  0.28801860312E+04  0.28801860312E+04  0.25500000920E-02 0.  1.
        2   -1    0    0  501    0  0.00000000000E+00  0.00000000000E+00 -0.28042135611E+03  0.28042135612E+03  0.25500000920E-02 0. -1.
    10030    2    1    2    0    0  0.00000000000E+00  0.00000000000E+00  0.25997646751E+04  0.31606073873E+04  0.17974044316E+04 0.  0.
        4    1    3    3  502    0  0.11933159755E+03 -0.69742529891E+03  0.22742199730E+04  0.23817472948E+04  0.12699999809E+01 0.  1.
       -4    1    3    3    0  502 -0.11933159755E+03  0.69742529891E+03  0.32554470204E+03  0.77886009248E+03  0.12699999809E+01 0. -1.
</event>
<event>
 5   0  0.4494757E-05  0.1795913E+04  0.7818609E-02  0.8708476E-01
        1   -1    0    0  501    0  0.00000000000E+00  0.00000000000E+00  0.10880939691E+04  0.10880939691E+04  0.50400001928E-02 0.  1.
       -1   -1    0    0    0  501  0.00000000000E+00  0.00000000000E+00 -0.74104441566E+03  0.74104441567E+03  0.50400001928E-02 0. -1.
    10030    2    1    2    0    0  0.00000000000E+00  0.00000000000E+00  0.34704955346E+03  0.18291383848E+04  0.17959130932E+04 0.  0.
        4    1    3    3  502    0  0.50134770162E+03  0.43840087069E+03 -0.43993009397E+03  0.79817600930E+03  0.12699999809E+01 0. -1.
       -4    1    3    3    0  502 -0.50134770162E+03 -0.43840087069E+03  0.78697964743E+03  0.10309623755E+04  0.12699999809E+01 0.  1.
</event>
<event>
 5   0  0.4535100E-05  0.1804380E+04  0.7818609E-02  0.8703973E-01
        1   -1    0    0  501    0  0.00000000000E+00  0.00000000000E+00  0.18902022269E+04  0.18902022269E+04  0.50400001928E-02 0. -1.
       -1   -1    0    0    0  501  0.00000000000E+00  0.00000000000E+00 -0.43061384267E+03  0.43061384270E+03  0.50400001928E-02 0.  1.
    10030    2    1    2    0    0  0.00000000000E+00  0.00000000000E+00  0.14595883842E+04  0.23208160696E+04  0.18043804969E+04 0.  0.
        1    1    3    3  502    0  0.90050611998E+03 -0.30413278116E+02  0.67069831171E+03  0.11232419441E+04  0.50400001928E-02 0.  1.
       -1    1    3    3    0  502 -0.90050611998E+03  0.30413278116E+02  0.78889007254E+03  0.11975741255E+04  0.50400001928E-02 0. -1.
</event>
<event>
 5   0  0.4623665E-05  0.1797740E+04  0.7818609E-02  0.8707502E-01
       -1   -1    0    0    0  501  0.00000000000E+00  0.00000000000E+00  0.42241442539E+03  0.42241442542E+03  0.50400001928E-02 0.  1.
        1   -1    0    0  501    0  0.00000000000E+00  0.00000000000E+00 -0.19127361424E+04  0.19127361424E+04  0.50400001928E-02 0. -1.
    10030    2    1    2    0    0  0.00000000000E+00  0.00000000000E+00 -0.14903217170E+04  0.23351505678E+04  0.17977400686E+04 0.  0.
        5    1    3    3  502    0 -0.21499002952E+03  0.17401216978E+03  0.36574848755E+03  0.45857932157E+03  0.46999998093E+01 0.  1.
       -5    1    3    3    0  502  0.21499002952E+03 -0.17401216978E+03 -0.18560702045E+04  0.18765712462E+04  0.46999998093E+01 0. -1.
</event>
<event>
 5   0  0.8892280E-05  0.1809064E+04  0.7818609E-02  0.8701494E-01
        2   -1    0    0  501    0  0.00000000000E+00  0.00000000000E+00  0.65661961201E+03  0.65661961201E+03  0.25500000920E-02 0. -1.
       -2   -1    0    0    0  501  0.00000000000E+00  0.00000000000E+00 -0.12460463789E+04  0.12460463789E+04  0.25500000920E-02 0.  1.
    10030    2    1    2    0    0  0.00000000000E+00  0.00000000000E+00 -0.58942676691E+03  0.19026659909E+04  0.18090643879E+04 0.  0.
        4    1    3    3  502    0  0.33826604797E+03 -0.20800383331E+02 -0.11767469399E+04  0.12245781105E+04  0.12699999809E+01 0.  1.
       -4    1    3    3    0  502 -0.33826604797E+03  0.20800383331E+02  0.58732017298E+03  0.67808788048E+03  0.12699999809E+01 0. -1.
</event>
<event>
 5   0  0.8802655E-05  0.1807952E+04  0.7818609E-02  0.8702082E-01
        2   -1    0    0  501    0  0.00000000000E+00  0.00000000000E+00  0.11749139238E+04  0.11749139238E+04  0.25500000920E-02 0.  1.
       -2   -1    0    0    0  501  0.00000000000E+00  0.00000000000E+00 -0.69551689968E+03  0.69551689969E+03  0.25500000920E-02 0. -1.
    10030    2    1    2    0    0  0.00000000000E+00  0.00000000000E+00  0.47939702411E+03  0.18704308235E+04  0.18079518685E+04 0.  0.
        2    1    3    3  502    0 -0.59913575687E+02  0.64958628761E+03  0.88712058141E+03  0.11011516279E+04  0.25500000920E-02 0.  1.
       -2    1    3    3    0  502  0.59913575687E+02 -0.64958628761E+03 -0.40772355730E+03  0.76927919561E+03  0.25500000920E-02 0. -1.
</event>
<event>
 5   0  0.4623665E-05  0.1852241E+04  0.7818609E-02  0.8679001E-01
        1   -1    0    0  501    0  0.00000000000E+00  0.00000000000E+00  0.14960917932E+04  0.14960917932E+04  0.50400001928E-02 0.  1.
       -1   -1    0    0    0  501  0.00000000000E+00  0.00000000000E+00 -0.57329316367E+03  0.57329316369E+03  0.50400001928E-02 0. -1.
    10030    2    1    2    0    0  0.00000000000E+00  0.00000000000E+00  0.92279862956E+03  0.20693849569E+04  0.18522410181E+04 0.  0.
        5    1    3    3  502    0 -0.20777934756E+03  0.65345667509E+02 -0.54425618905E+03  0.58624159086E+03  0.46999998093E+01 0. -1.
       -5    1    3    3    0  502  0.20777934756E+03 -0.65345667509E+02  0.14670548186E+04  0.14831433661E+04  0.46999998093E+01 0.  1.
</event>
<event>
 5   0  0.4535100E-05  0.1833568E+04  0.7818609E-02  0.8688649E-01
        1   -1    0    0  501    0  0.00000000000E+00  0.00000000000E+00  0.24876264107E+04  0.24876264107E+04  0.50400001928E-02 0.  1.
       -1   -1    0    0    0  501  0.00000000000E+00  0.00000000000E+00 -0.33786934505E+03  0.33786934509E+03  0.50400001928E-02 0. -1.
    10030    2    1    2    0    0  0.00000000000E+00  0.00000000000E+00  0.21497570656E+04  0.28254957558E+04  0.18335677857E+04 0.  0.
        1    1    3    3  502    0 -0.88180062014E+03  0.21873341488E+03  0.88566957249E+03  0.12687896721E+04  0.50400001928E-02 0.  1.
       -1    1    3    3    0  502  0.88180062014E+03 -0.21873341488E+03  0.12640874931E+04  0.15567060836E+04  0.50400001928E-02 0. -1.
</event>
<event>
 5   0  0.9147432E-05  0.1773626E+04  0.7818609E-02  0.8720452E-01
        2   -1    0    0  501    0  0.00000000000E+00  0.00000000000E+00  0.15721953999E+04  0.15721953999E+04  0.25500000920E-02 0.  1.
       -2   -1    0    0    0  501  0.00000000000E+00  0.00000000000E+00 -0.50021606182E+03  0.50021606183E+03  0.25500000920E-02 0. -1.
    10030    2    1    2    0    0  0.00000000000E+00  0.00000000000E+00  0.10719793381E+04  0.20724114618E+04  0.17736261065E+04 0.  0.
        3    1    3    3  502    0 -0.13524136558E+03 -0.39442026271E+03  0.14505139750E+04  0.15092542438E+04  0.10100000352E+00 0.  1.
       -3    1    3    3    0  502  0.13524136558E+03  0.39442026271E+03 -0.37853463688E+03  0.56315721795E+03  0.10100000352E+00 0. -1.
</event>
<event>
 5   0  0.8892280E-05  0.1780523E+04  0.7818609E-02  0.8716726E-01
        2   -1    0    0  501    0  0.00000000000E+00  0.00000000000E+00  0.16413608500E+04  0.16413608500E+04  0.25500000920E-02 0. -1.
       -2   -1    0    0    0  501  0.00000000000E+00  0.00000000000E+00 -0.48287106407E+03  0.48287106408E+03  0.25500000920E-02 0.  1.
    10030    2    1    2    0    0  0.00000000000E+00  0.00000000000E+00  0.11584897859E+04  0.21242319141E+04  0.17805231368E+04 0.  0.
        4    1    3    3  502    0 -0.63979106284E+03  0.61455889668E+03  0.66811466509E+03  0.11105827570E+04  0.12699999809E+01 0. -1.
       -4    1    3    3    0  502  0.63979106284E+03 -0.61455889668E+03  0.49037512083E+03  0.10136491571E+04  0.12699999809E+01 0.  1.
</event>
<event>
 5   0  0.8892280E-05  0.1740490E+04  0.7818609E-02  0.8738602E-01
        2   -1    0    0  501    0  0.00000000000E+00  0.00000000000E+00  0.96206719201E+03  0.96206719202E+03  0.25500000920E-02 0. -1.
       -2   -1    0    0    0  501  0.00000000000E+00  0.00000000000E+00 -0.78718686492E+03  0.78718686493E+03  0.25500000920E-02 0.  1.
    10030    2    1    2    0    0  0.00000000000E+00  0.00000000000E+00  0.17488032709E+03  0.17492540569E+04  0.17404903410E+04 0.  0.
        4    1    3    3  502    0 -0.45545521087E+03  0.62166893713E+03 -0.31883942957E+03  0.83400953906E+03  0.12699999809E+01 0.  1.
       -4    1    3    3    0  502  0.45545521087E+03 -0.62166893713E+03  0.49371975666E+03  0.91524451788E+03  0.12699999809E+01 0. -1.
</event>
<event>
 5   0  0.4335117E-05  0.1788695E+04  0.7818609E-02  0.8712335E-01
       -1   -1    0    0    0  501  0.00000000000E+00  0.00000000000E+00  0.83320400336E+03  0.83320400338E+03  0.50400001928E-02 0.  1.
        1   -1    0    0  501    0  0.00000000000E+00  0.00000000000E+00 -0.95997765097E+03  0.95997765099E+03  0.50400001928E-02 0. -1.
    10030    2    1    2    0    0  0.00000000000E+00  0.00000000000E+00 -0.12677364761E+03  0.17931816544E+04  0.17886947442E+04 0.  0.
        3    1    3    3  502    0  0.30711389858E+03 -0.69880029246E+03  0.40384711169E+03  0.86355850715E+03  0.10100000352E+00 0. -1.
       -3    1    3    3    0  502 -0.30711389858E+03  0.69880029246E+03 -0.53062075930E+03  0.92962314722E+03  0.10100000352E+00 0.  1.
</event>
<event>
 5   0  0.4335117E-05  0.1733179E+04  0.7818609E-02  0.8742664E-01
        1   -1    0    0  501    0  0.00000000000E+00  0.00000000000E+00  0.46179487183E+03  0.46179487186E+03  0.50400001928E-02 0. -1.
       -1   -1    0    0    0  501  0.00000000000E+00  0.00000000000E+00 -0.16262140129E+04  0.16262140129E+04  0.50400001928E-02 0.  1.
    10030    2    1    2    0    0  0.00000000000E+00  0.00000000000E+00 -0.11644191410E+04  0.20880088847E+04  0.17331789194E+04 0.  0.
        3    1    3    3  502    0  0.29911145650E+03  0.35986186025E+03 -0.14609254166E+04  0.15340375826E+04  0.10100000352E+00 0.  1.
       -3    1    3    3    0  502 -0.29911145650E+03 -0.35986186025E+03  0.29650627557E+03  0.55397130209E+03  0.10100000352E+00 0. -1.
</event>
<event>
 5   0  0.4535100E-05  0.1792305E+04  0.7818609E-02  0.8710402E-01
       -1   -1    0    0    0  501  0.00000000000E+00  0.00000000000E+00  0.10718781405E+04  0.10718781405E+04  0.50400001928E-02 0. -1.
        1   -1    0    0  501    0  0.00000000000E+00  0.00000000000E+00 -0.74923538138E+03  0.74923538140E+03  0.50400001928E-02 0.  1.
    10030    2    1    2    0    0  0.00000000000E+00  0.00000000000E+00  0.32264275913E+03  0.18211135219E+04  0.17923046922E+04 0.  0.
        1    1    3    3  502    0 -0.69413270689E+03 -0.47466579033E+03  0.47607665128E+03  0.96632127432E+03  0.50400001928E-02 0. -1.
       -1    1    3    3    0  502  0.69413270689E+03  0.47466579033E+03 -0.15343389215E+03  0.85479224761E+03  0.50400001928E-02 0.  1.
</event>
<event>
 5   0  0.4578107E-05  0.1811612E+04  0.7818609E-02  0.8700149E-01
        1   -1    0    0  501    0  0.00000000000E+00  0.00000000000E+00  0.13866520150E+04  0.13866520150E+04  0.50400001928E-02 0. -1.
       -1   -1    0    0    0  501  0.00000000000E+00  0.00000000000E+00 -0.59170194050E+03  0.59170194052E+03  0.50400001928E-02 0.  1.
    10030    2    1    2    0    0  0.00000000000E+00  0.00000000000E+00  0.79495007453E+03  0.19783539556E+04  0.18116121970E+04 0.  0.
        2    1    3    3  502    0 -0.69193937752E+03  0.29759918423E+03  0.94691286560E+03  0.12099542767E+04  0.25500000920E-02 0. -1.
       -2    1    3    3    0  502  0.69193937752E+03 -0.29759918423E+03 -0.15196279107E+03  0.76839967888E+03  0.25500000920E-02 0.  1.
</event>
<event>
 5   0  0.9147432E-05  0.1803451E+04  0.7818609E-02  0.8704466E-01
       -2   -1    0    0    0  501  0.00000000000E+00  0.00000000000E+00  0.52383303791E+03  0.52383303792E+03  0.25500000920E-02 0.  1.
        2   -1    0    0  501    0  0.00000000000E+00  0.00000000000E+00 -0.15522296183E+04  0.15522296183E+04  0.25500000920E-02 0. -1.
    10030    2    1    2    0    0  0.00000000000E+00  0.00000000000E+00 -0.10283965804E+04  0.20760626562E+04  0.18034513096E+04 0.  0.
        3    1    3    3  502    0  0.69231081495E+03  0.27659904755E+02 -0.11785386403E+04  0.13671183825E+04  0.10100000352E+00 0. -1.
       -3    1    3    3    0  502 -0.69231081495E+03 -0.27659904755E+02  0.15014205997E+03  0.70894427369E+03  0.10100000352E+00 0.  1.
</event>
<event>
 5   0  0.9147432E-05  0.1801645E+04  0.7818609E-02  0.8705425E-01
       -2   -1    0    0    0  501  0.00000000000E+00  0.00000000000E+00  0.47464640739E+03  0.47464640739E+03  0.25500000920E-02 0.  1.
        2   -1    0    0  501    0  0.00000000000E+00  0.00000000000E+00 -0.17096546767E+04  0.17096546767E+04  0.25500000920E-02 0. -1.
    10030    2    1    2    0    0  0.00000000000E+00  0.00000000000E+00 -0.12350082693E+04  0.21843010841E+04  0.18016453038E+04 0.  0.
        3    1    3    3  502    0 -0.68571899186E+03  0.17006655697E+03  0.60079268895E+02  0.70904350949E+03  0.10100000352E+00 0.  1.
       -3    1    3    3    0  502  0.68571899186E+03 -0.17006655697E+03 -0.12950875382E+04  0.14752575746E+04  0.10100000352E+00 0. -1.
</event>
<event>
 5   0  0.4335117E-05  0.1775863E+04  0.7818609E-02  0.8719242E-01
       -1   -1    0    0    0  501  0.00000000000E+00  0.00000000000E+00  0.95395681020E+03  0.95395681022E+03  0.50400001928E-02 0. -1.
        1   -1    0    0  501    0  0.00000000000E+00  0.00000000000E+00 -0.82647551906E+03  0.82647551907E+03  0.50400001928E-02 0.  1.
    10030    2    1    2    0    0  0.00000000000E+00  0.00000000000E+00  0.12748129115E+03  0.17804323293E+04  0.17758625509E+04 0.  0.
        3    1    3    3  502    0  0.22333872956E+03  0.18252785417E+03  0.90567857551E+03  0.95050002526E+03  0.10100000352E+00 0. -1.
       -3    1    3    3    0  502 -0.22333872956E+03 -0.18252785417E+03 -0.77819728437E+03  0.82993230403E+03  0.10100000352E+00 0.  1.
</event>
<event>
 5   0  0.8802655E-05  0.1796662E+04  0.7818609E-02  0.8708076E-01
       -2   -1    0    0    0  501  0.00000000000E+00  0.00000000000E+00  0.63573414370E+03  0.63573414370E+03  0.25500000920E-02 0.  1.
        2   -1    0    0  501    0  0.00000000000E+00  0.00000000000E+00 -0.12693966053E+04  0.12693966053E+04  0.25500000920E-02 0. -1.
    10030    2    1    2    0    0  0.00000000000E+00  0.00000000000E+00 -0.63366246157E+03  0.19051307490E+04  0.17966621985E+04 0.  0.
        2    1    3    3  502    0  0.43615023072E+02 -0.75599377015E+02 -0.12648901511E+04  0.12678977208E+04  0.25500000920E-02 0. -1.
       -2    1    3    3    0  502 -0.43615023072E+02  0.75599377015E+02  0.63122768958E+03  0.63723302813E+03  0.25500000920E-02 0.  1.
</event>
<event>
 5   0  0.8893075E-05  0.1815927E+04  0.7818609E-02  0.8697875E-01
        2   -1    0    0  501    0  0.00000000000E+00  0.00000000000E+00  0.15061277076E+04  0.15061277076E+04  0.25500000920E-02 0.  1.
       -2   -1    0    0    0  501  0.00000000000E+00  0.00000000000E+00 -0.54736250894E+03  0.54736250895E+03  0.25500000920E-02 0. -1.
    10030    2    1    2    0    0  0.00000000000E+00  0.00000000000E+00  0.95876519868E+03  0.20534902166E+04  0.18159271360E+04 0.  0.
        1    1    3    3  502    0  0.51742871163E+03  0.73791076074E+03  0.60404554054E+03  0.10849496659E+04  0.50400001928E-02 0.  1.
       -1    1    3    3    0  502 -0.51742871163E+03 -0.73791076074E+03  0.35471965814E+03  0.96854055069E+03  0.50400001928E-02 0. -1.
</event>
<event>
 5   0  0.8892280E-05  0.1801415E+04  0.7818609E-02  0.8705547E-01
       -2   -1    0    0    0  501  0.00000000000E+00  0.00000000000E+00  0.62430290094E+03  0.62430290095E+03  0.25500000920E-02 0. -1.
        2   -1    0    0  501    0  0.00000000000E+00  0.00000000000E+00 -0.12994877489E+04  0.12994877489E+04  0.25500000920E-02 0.  1.
    10030    2    1    2    0    0  0.00000000000E+00  0.00000000000E+00 -0.67518484799E+03  0.19237906499E+04  0.18014149676E+04 0.  0.
        4    1    3    3  502    0 -0.51264661120E+03  0.21736461017E+03  0.41846983848E+03  0.69654327959E+03  0.12699999809E+01 0. -1.
       -4    1    3    3    0  502  0.51264661120E+03 -0.21736461017E+03 -0.10936546865E+04  0.12272473703E+04  0.12699999809E+01 0.  1.
</event>
<event>
 5   0  0.4623665E-05  0.1801528E+04  0.7818609E-02  0.8705487E-01
       -1   -1    0    0    0  501  0.00000000000E+00  0.00000000000E+00  0.59734419019E+03  0.59734419021E+03  0.50400001928E-02 0. -1.
        1   -1    0    0  501    0  0.00000000000E+00  0.00000000000E+00 -0.13583056756E+04  0.13583056756E+04  0.50400001928E-02 0.  1.
    10030    2    1    2    0    0  0.00000000000E+00  0.00000000000E+00 -0.76096148538E+03  0.19556498658E+04  0.18015282444E+04 0.  0.
        5    1    3    3  502    0  0.38549028466E+02 -0.33194630824E+03 -0.12885095206E+04  0.13311473449E+04  0.46999998093E+01 0.  1.
       -5    1    3    3    0  502 -0.38549028466E+02  0.33194630824E+03  0.52754803521E+03  0.62450252089E+03  0.46999998093E+01 0. -1.
</event>
<event>
 5   0  0.8893075E-05  0.1800805E+04  0.7818609E-02  0.8705871E-01
       -2   -1    0    0    0  501  0.00000000000E+00  0.00000000000E+00  0.85240341981E+03  0.85240341981E+03  0.25500000920E-02 0. -1.
        2   -1    0    0  501    0  0.00000000000E+00  0.00000000000E+00 -0.95110470734E+03  0.95110470734E+03  0.25500000920E-02 0.  1.
    10030    2    1    2    0    0  0.00000000000E+00  0.00000000000E+00 -0.98701287529E+02  0.18035081272E+04  0.18008052700E+04 0.  0.
        1    1    3    3  502    0 -0.58794628820E+03 -0.60208626991E+03 -0.37004398368E+03  0.91930477215E+03  0.50400001928E-02 0. -1.
       -1    1    3    3    0  502  0.58794628820E+03  0.60208626991E+03  0.27134269615E+03  0.88420335500E+03  0.50400001928E-02 0.  1.
</event>
<event>
 5   0  0.9147432E-05  0.1798239E+04  0.7818609E-02  0.8707236E-01
       -2   -1    0    0    0  501  0.00000000000E+00  0.00000000000E+00  0.70036403412E+03  0.70036403413E+03  0.25500000920E-02 0.  1.
        2   -1    0    0  501    0  0.00000000000E+00  0.00000000000E+00 -0.11542798205E+04  0.11542798205E+04  0.25500000920E-02 0. -1.
    10030    2    1    2    0    0  0.00000000000E+00  0.00000000000E+00 -0.45391578634E+03  0.18546438546E+04  0.17982392183E+04 0.  0.
        3    1    3    3  502    0 -0.33123761207E+03  0.57281439916E+03  0.40089059221E+03  0.77365881929E+03  0.10100000352E+00 0.  1.
       -3    1    3    3    0  502  0.33123761207E+03 -0.57281439916E+03 -0.85480637855E+03  0.10809850353E+04  0.10100000352E+00 0. -1.
</event>
<event>
 5   0  0.4494757E-05  0.1813529E+04  0.7818609E-02  0.8699138E-01
        1   -1    0    0  501    0  0.00000000000E+00  0.00000000000E+00  0.18145297605E+04  0.18145297605E+04  0.50400001928E-02 0. -1.
       -1   -1    0    0    0  501  0.00000000000E+00  0.00000000000E+00 -0.45313197333E+03  0.45313197335E+03  0.50400001928E-02 0.  1.
    10030    2    1    2    0    0  0.00000000000E+00  0.00000000000E+00  0.13613977871E+04  0.22676617338E+04  0.18135285507E+04 0.  0.
        4    1    3    3  502    0  0.25894707702E+03 -0.77099023313E+03  0.17937745757E+03  0.83286098087E+03  0.12699999809E+01 0.  1.
       -4    1    3    3    0  502 -0.25894707702E+03  0.77099023313E+03  0.11820203296E+04  0.14348007530E+04  0.12699999809E+01 0. -1.
</event>
<event>
 5   0  0.9184414E-05  0.1802823E+04  0.7818609E-02  0.8704800E-01
        2   -1    0    0  501    0  0.00000000000E+00  0.00000000000E+00  0.61839544572E+03  0.61839544573E+03  0.25500000920E-02 0. -1.
       -2   -1    0    0    0  501  0.00000000000E+00  0.00000000000E+00 -0.13139529330E+04  0.13139529330E+04  0.25500000920E-02 0.  1.
    10030    2    1    2    0    0  0.00000000000E+00  0.00000000000E+00 -0.69555748724E+03  0.19323483787E+04  0.18028227973E+04 0.  0.
        5    1    3    3  502    0  0.89965020431E+03 -0.55202010482E+02 -0.35863922389E+03  0.97008346805E+03  0.46999998093E+01 0. -1.
       -5    1    3    3    0  502 -0.89965020431E+03  0.55202010482E+02 -0.33691826335E+03  0.96226491064E+03  0.46999998093E+01 0.  1.
</event>
<event>
 5   0  0.8802655E-05  0.1795877E+04  0.7818609E-02  0.8708495E-01
        2   -1    0    0  501    0  0.00000000000E+00  0.00000000000E+00  0.10500262985E+04  0.10500262985E+04  0.25500000920E-02 0. -1.
       -2   -1    0    0    0  501  0.00000000000E+00  0.00000000000E+00 -0.76787904353E+03  0.76787904354E+03  0.25500000920E-02 0.  1.
    10030    2    1    2    0    0  0.00000000000E+00  0.00000000000E+00  0.28214725492E+03  0.18179053420E+04  0.17958765990E+04 0.  0.
        2    1    3    3  502    0 -0.19126030699E+03  0.61301205871E+03 -0.49426271185E+03  0.81034555436E+03  0.25500000920E-02 0.  1.
       -2    1    3    3    0  502  0.19126030699E+03 -0.61301205871E+03  0.77640996677E+03  0.10075597876E+04  0.25500000920E-02 0. -1.
</event>
<event>
 5   0  0.8802655E-05  0.1804805E+04  0.7818609E-02  0.8703749E-01
        2   -1    0    0  501    0  0.00000000000E+00  0.00000000000E+00  0.11357631440E+04  0.11357631440E+04  0.25500000920E-02 0. -1.
       -2   -1    0    0    0  501  0.00000000000E+00  0.00000000000E+00 -0.71698925046E+03  0.71698925047E+03  0.25500000920E-02 0.  1.
    10030    2    1    2    0    0  0.00000000000E+00  0.00000000000E+00  0.41877389352E+03  0.18527523945E+04  0.18048046601E+04 0.  0.
        2    1    3    3  502    0 -0.65335792339E+03 -0.44625850956E+03 -0.23608473610E+03  0.82568712963E+03  0.25500000920E-02 0.  1.
       -2    1    3    3    0  502  0.65335792339E+03  0.44625850956E+03  0.65485862963E+03  0.10270652648E+04  0.25500000920E-02 0. -1.
</event>
<event>
 5   0  0.4335117E-05  0.1801355E+04  0.7818609E-02  0.8705579E-01
       -1   -1    0    0    0  501  0.00000000000E+00  0.00000000000E+00  0.46634247247E+03  0.46634247250E+03  0.50400001928E-02 0.  1.
        1   -1    0    0  501    0  0.00000000000E+00  0.00000000000E+00 -0.17395363323E+04  0.17395363323E+04  0.50400001928E-02 0. -1.
    10030    2    1    2    0    0  0.00000000000E+00  0.00000000000E+00 -0.12731938599E+04  0.22058788048E+04  0.18013546838E+04 0.  0.
        3    1    3    3  502    0 -0.62063587421E+03 -0.51749716571E+03 -0.11237027759E+04  0.13840881993E+04  0.10100000352E+00 0. -1.
       -3    1    3    3    0  502  0.62063587421E+03  0.51749716571E+03 -0.14949108399E+03  0.82179060548E+03  0.10100000352E+00 0.  1.
</event>
<event>
 5   0  0.4578107E-05  0.1797385E+04  0.7818609E-02  0.8707692E-01
       -1   -1    0    0    0  501  0.00000000000E+00  0.00000000000E+00  0.89081848161E+03  0.89081848162E+03  0.50400001928E-02 0.  1.
        1   -1    0    0  501    0  0.00000000000E+00  0.00000000000E+00 -0.90663570524E+03  0.90663570525E+03  0.50400001928E-02 0. -1.
    10030    2    1    2    0    0  0.00000000000E+00  0.00000000000E+00 -0.15817223628E+02  0.17974541869E+04  0.17973845914E+04 0.  0.
        2    1    3    3  502    0 -0.51512173231E+03 -0.73071047629E+03 -0.99343235759E+02  0.89953169914E+03  0.25500000920E-02 0.  1.
       -2    1    3    3    0  502  0.51512173231E+03  0.73071047629E+03  0.83526012132E+02  0.89792248773E+03  0.25500000920E-02 0. -1.
</event>
<event>
 5   0  0.8893075E-05  0.1798285E+04  0.7818609E-02  0.8707212E-01
       -2   -1    0    0    0  501  0.00000000000E+00  0.00000000000E+00  0.38623917596E+03  0.38623917597E+03  0.25500000920E-02 0. -1.
        2   -1    0    0  501    0  0.00000000000E+00  0.00000000000E+00 -0.20931509770E+04  0.20931509770E+04  0.25500000920E-02 0.  1.
    10030    2    1    2    0    0  0.00000000000E+00  0.00000000000E+00 -0.17069118010E+04  0.24793901529E+04  0.17982846366E+04 0.  0.
        1    1    3    3  502    0 -0.83579588270E+03 -0.18627011207E+03 -0.47535168646E+03  0.97939294363E+03  0.50400001928E-02 0. -1.
       -1    1    3    3    0  502  0.83579588270E+03  0.18627011207E+03 -0.12315601145E+04  0.14999972093E+04  0.50400001928E-02 0.  1.
</event>
<event>
 5   0  0.4578107E-05  0.1800016E+04  0.7818609E-02  0.8706291E-01
        1   -1    0    0  501    0  0.00000000000E+00  0.00000000000E+00  0.79322639935E+03  0.79322639936E+03  0.50400001928E-02 0. -1.
       -1   -1    0    0    0  501  0.00000000000E+00  0.00000000000E+00 -0.10211643421E+04  0.10211643421E+04  0.50400001928E-02 0.  1.
    10030    2    1    2    0    0  0.00000000000E+00  0.00000000000E+00 -0.22793794272E+03  0.18143907414E+04  0.18000161268E+04 0.  0.
        2    1    3    3  502    0  0.88049957223E+03  0.61618983613E+02 -0.29126596577E+03  0.92946880457E+03  0.25500000920E-02 0. -1.
       -2    1    3    3    0  502 -0.88049957223E+03 -0.61618983613E+02  0.63328023051E+02  0.88492193687E+03  0.25500000920E-02 0.  1.
</event>
<event>
 5   0  0.4623665E-05  0.1797669E+04  0.7818609E-02  0.8707540E-01
       -1   -1    0    0    0  501  0.00000000000E+00  0.00000000000E+00  0.76138818195E+03  0.76138818197E+03  0.50400001928E-02 0.  1.
        1   -1    0    0  501    0  0.00000000000E+00  0.00000000000E+00 -0.10610925329E+04  0.10610925329E+04  0.50400001928E-02 0. -1.
    10030    2    1    2    0    0  0.00000000000E+00  0.00000000000E+00 -0.29970435091E+03  0.18224807148E+04  0.17976688399E+04 0.  0.
        5    1    3    3  502    0  0.53310505339E+03  0.33908489787E+03  0.49826935801E+03  0.80465769681E+03  0.46999998093E+01 0.  1.
       -5    1    3    3    0  502 -0.53310505339E+03 -0.33908489787E+03 -0.79797370892E+03  0.10178230180E+04  0.46999998093E+01 0. -1.
</event>
<event>
 5   0  0.9184414E-05  0.1803098E+04  0.7818609E-02  0.8704654E-01
       -2   -1    0    0    0  501  0.00000000000E+00  0.00000000000E+00  0.47972554455E+03  0.47972554456E+03  0.25500000920E-02 0. -1.
        2   -1    0    0  501    0  0.00000000000E+00  0.00000000000E+00 -0.16942833013E+04  0.16942833013E+04  0.25500000920E-02 0.  1.
    10030    2    1    2    0    0  0.00000000000E+00  0.00000000000E+00 -0.12145577567E+04  0.21740088459E+04  0.18030984214E+04 0.  0.
        5    1    3    3  502    0  0.62854368281E+03  0.27812502404E+03  0.96123127098E+02  0.69403345435E+03  0.46999998093E+01 0. -1.
       -5    1    3    3    0  502 -0.62854368281E+03 -0.27812502404E+03 -0.13106808838E+04  0.14799753915E+04  0.46999998093E+01 0.  1.
</event>
<event>
 5   0  0.4578107E-05  0.1793929E+04  0.7818609E-02  0.8709534E-01
       -1   -1    0    0    0  501  0.00000000000E+00  0.00000000000E+00  0.65480454409E+03  0.65480454411E+03  0.50400001928E-02 0.  1.
        1   -1    0    0  501    0  0.00000000000E+00  0.00000000000E+00 -0.12286804822E+04  0.12286804822E+04  0.50400001928E-02 0. -1.
    10030    2    1    2    0    0  0.00000000000E+00  0.00000000000E+00 -0.57387593815E+03  0.18834850264E+04  0.17939292773E+04 0.  0.
        2    1    3    3  502    0 -0.43370335843E+03 -0.47209733461E+01  0.53738397397E+03  0.69058122345E+03  0.25500000920E-02 0.  1.
       -2    1    3    3    0  502  0.43370335843E+03  0.47209733461E+01 -0.11112599121E+04  0.11929038029E+04  0.25500000920E-02 0. -1.
</event>
<event>
 5   0  0.4335117E-05  0.1794537E+04  0.7818609E-02  0.8709210E-01
       -1   -1    0    0    0  501  0.00000000000E+00  0.00000000000E+00  0.80703294899E+03  0.80703294900E+03  0.50400001928E-02 0. -1.
        1   -1    0    0  501    0  0.00000000000E+00  0.00000000000E+00 -0.99759375448E+03  0.99759375449E+03  0.50400001928E-02 0.  1.
    10030    2    1    2    0    0  0.00000000000E+00  0.00000000000E+00 -0.19056080549E+03  0.18046267035E+04  0.17945372992E+04 0.  0.
        3    1    3    3  502    0 -0.36925079241E+03  0.30321429251E+03 -0.85902783162E+03  0.98296178999E+03  0.10100000352E+00 0.  1.
       -3    1    3    3    0  502  0.36925079241E+03 -0.30321429251E+03  0.66846702612E+03  0.82166491351E+03  0.10100000352E+00 0. -1.
</event>
<event>
 5   0  0.4623665E-05  0.1800845E+04  0.7818609E-02  0.8705850E-01
        1   -1    0    0  501    0  0.00000000000E+00  0.00000000000E+00  0.21577361342E+04  0.21577361342E+04  0.50400001928E-02 0. -1.
       -1   -1    0    0    0  501  0.00000000000E+00  0.00000000000E+00 -0.37574592213E+03  0.37574592217E+03  0.50400001928E-02 0.  1.
    10030    2    1    2    0    0  0.00000000000E+00  0.00000000000E+00  0.17819902121E+04  0.25334820564E+04  0.18008448612E+04 0.  0.
        5    1    3    3  502    0 -0.74581398348E+03  0.46666657142E+03  0.62140352167E+03  0.10771168059E+04  0.46999998093E+01 0.  1.
       -5    1    3    3    0  502  0.74581398348E+03 -0.46666657142E+03  0.11605866904E+04  0.14563652505E+04  0.46999998093E+01 0. -1.
</event>
<event>
 5   0  0.8802655E-05  0.1800654E+04  0.7818609E-02  0.8705952E-01
       -2   -1    0    0    0  501  0.00000000000E+00  0.00000000000E+00  0.37988021448E+03  0.37988021449E+03  0.25500000920E-02 0.  1.
        2   -1    0    0  501    0  0.00000000000E+00  0.00000000000E+00 -0.21337999291E+04  0.21337999291E+04  0.25500000920E-02 0. -1.
    10030    2    1    2    0    0  0.00000000000E+00  0.00000000000E+00 -0.17539197146E+04  0.25136801435E+04  0.18006536310E+04 0.  0.
        2    1    3    3  502    0  0.40252976874E+03 -0.52418716172E+03 -0.17304359042E+04  0.18523527779E+04  0.25500000920E-02 0. -1.
       -2    1    3    3    0  502 -0.40252976874E+03  0.52418716172E+03 -0.23483810408E+02  0.66132736568E+03  0.25500000920E-02 0.  1.
</event>
<event>
 5   0  0.8893075E-05  0.1806225E+04  0.7818609E-02  0.8702996E-01
       -2   -1    0    0    0  501  0.00000000000E+00  0.00000000000E+00  0.48526819538E+03  0.48526819538E+03  0.25500000920E-02 0. -1.
        2   -1    0    0  501    0  0.00000000000E+00  0.00000000000E+00 -0.16807452038E+04  0.16807452038E+04  0.25500000920E-02 0.  1.
    10030    2    1    2    0    0  0.00000000000E+00  0.00000000000E+00 -0.11954770084E+04  0.21660133992E+04  0.18062250048E+04 0.  0.
        1    1    3    3  502    0  0.66185778198E+03  0.55683161630E+03 -0.90928663656E+03  0.12549579116E+04  0.50400001928E-02 0.  1.
       -1    1    3    3    0  502 -0.66185778198E+03 -0.55683161630E+03 -0.28619037187E+03  0.91105548758E+03  0.50400001928E-02 0. -1.
</event>
<event>
 5   0  0.4335117E-05  0.1791482E+04  0.7818609E-02  0.8710842E-01
        1   -1    0    0  501    0  0.00000000000E+00  0.00000000000E+00  0.12149615351E+04  0.12149615351E+04  0.50400001928E-02 0.  1.
       -1   -1    0    0    0  501  0.00000000000E+00  0.00000000000E+00 -0.66039308539E+03  0.66039308541E+03  0.50400001928E-02 0. -1.
    10030    2    1    2    0    0  0.00000000000E+00  0.00000000000E+00  0.55456844970E+03  0.18753546205E+04  0.17914822877E+04 0.  0.
        3    1    3    3  502    0  0.19530823506E+03 -0.55807384461E+03 -0.42709271956E+03  0.72938324907E+03  0.10100000352E+00 0. -1.
       -3    1    3    3    0  502 -0.19530823506E+03  0.55807384461E+03  0.98166116927E+03  0.11459713714E+04  0.10100000352E+00 0.  1.
</event>
<event>
 5   0  0.8893075E-05  0.1798149E+04  0.7818609E-02  0.8707284E-01
       -2   -1    0    0    0  501  0.00000000000E+00  0.00000000000E+00  0.68020075137E+03  0.68020075137E+03  0.25500000920E-02 0.  1.
        2   -1    0    0  501    0  0.00000000000E+00  0.00000000000E+00 -0.11883772242E+04  0.11883772242E+04  0.25500000920E-02 0. -1.
    10030    2    1    2    0    0  0.00000000000E+00  0.00000000000E+00 -0.50817647285E+03  0.18685779756E+04  0.17981491382E+04 0.  0.
        1    1    3    3  502    0 -0.36313524376E+03 -0.10814498368E+03  0.59318219731E+03  0.70386622450E+03  0.50400001928E-02 0.  1.
       -1    1    3    3    0  502  0.36313524376E+03  0.10814498368E+03 -0.11013586702E+04  0.11647117511E+04  0.50400001928E-02 0. -1.
</event>
<event>
 5   0  0.8893075E-05  0.1793340E+04  0.7818609E-02  0.8709849E-01
       -2   -1    0    0    0  501  0.00000000000E+00  0.00000000000E+00  0.54785012177E+03  0.54785012178E+03  0.25500000920E-02 0.  1.
        2   -1    0    0  501    0  0.00000000000E+00  0.00000000000E+00 -0.14675864193E+04  0.14675864193E+04  0.25500000920E-02 0. -1.
    10030    2    1    2    0    0  0.00000000000E+00  0.00000000000E+00 -0.91973629754E+03  0.20154365411E+04  0.17933403453E+04 0.  0.
        1    1    3    3  502    0  0.72435971434E+02  0.56584199017E+03 -0.12373490031E+04  0.13625185075E+04  0.50400001928E-02 0. -1.
       -1    1    3    3    0  502 -0.72435971434E+02 -0.56584199017E+03  0.31761270557E+03  0.65291803357E+03  0.50400001928E-02 0.  1.
</event>
<event>
 5   0  0.9184414E-05  0.1802877E+04  0.7818609E-02  0.8704771E-01
        2   -1    0    0  501    0  0.00000000000E+00  0.00000000000E+00  0.10828698996E+04  0.10828698996E+04  0.25500000920E-02 0. -1.
       -2   -1    0    0    0  501  0.00000000000E+00  0.00000000000E+00 -0.75040515494E+03  0.75040515495E+03  0.25500000920E-02 0.  1.
    10030    2    1    2    0    0  0.00000000000E+00  0.00000000000E+00  0.33246474463E+03  0.18332750545E+04  0.18028767620E+04 0.  0.
        5    1    3    3  502    0 -0.47938457212E+02 -0.36997902286E+02 -0.74832209612E+03  0.75078291802E+03  0.46999998093E+01 0.  1.
       -5    1    3    3    0  502  0.47938457212E+02  0.36997902286E+02  0.10807868407E+04  0.10824921365E+04  0.46999998093E+01 0. -1.
</event>
<event>
 5   0  0.9147432E-05  0.1805307E+04  0.7818609E-02  0.8703482E-01
       -2   -1    0    0    0  501  0.00000000000E+00  0.00000000000E+00  0.17374132328E+04  0.17374132328E+04  0.25500000920E-02 0. -1.
        2   -1    0    0  501    0  0.00000000000E+00  0.00000000000E+00 -0.46896358550E+03  0.46896358551E+03  0.25500000920E-02 0.  1.
    10030    2    1    2    0    0  0.00000000000E+00  0.00000000000E+00  0.12684496473E+04  0.22063768183E+04  0.18053072195E+04 0.  0.
        3    1    3    3  502    0 -0.36353755467E+02  0.11047484943E+02  0.17364354719E+04  0.17368511165E+04  0.10100000352E+00 0. -1.
       -3    1    3    3    0  502  0.36353755467E+02 -0.11047484943E+02 -0.46798582461E+03  0.46952570185E+03  0.10100000352E+00 0.  1.
</event>
<event>
 5   0  0.4535100E-05  0.1758378E+04  0.7818609E-02  0.8728752E-01
        1   -1    0    0  501    0  0.00000000000E+00  0.00000000000E+00  0.10771677742E+04  0.10771677742E+04  0.50400001928E-02 0.  1.
       -1   -1    0    0    0  501  0.00000000000E+00  0.00000000000E+00 -0.71759816515E+03  0.71759816517E+03  0.50400001928E-02 0. -1.
    10030    2    1    2    0    0  0.00000000000E+00  0.00000000000E+00  0.35956960907E+03  0.17947659394E+04  0.17583783647E+04 0.  0.
        1    1    3    3  502    0  0.76473230098E+03  0.17541363548E+03 -0.22514668202E+03  0.81625759668E+03  0.50400001928E-02 0. -1.
       -1    1    3    3    0  502 -0.76473230098E+03 -0.17541363548E+03  0.58471629109E+03  0.97850834272E+03  0.50400001928E-02 0.  1.
</event>
<event>
 5   0  0.4535100E-05  0.1794773E+04  0.7818609E-02  0.8709084E-01
        1   -1    0    0  501    0  0.00000000000E+00  0.00000000000E+00  0.20842992284E+04  0.20842992284E+04  0.50400001928E-02 0.  1.
       -1   -1    0    0    0  501  0.00000000000E+00  0.00000000000E+00 -0.38636604637E+03  0.38636604641E+03  0.50400001928E-02 0. -1.
    10030    2    1    2    0    0  0.00000000000E+00  0.00000000000E+00  0.16979331820E+04  0.24706652748E+04  0.17947729131E+04 0.  0.
        1    1    3    3  502    0 -0.10295747189E+03 -0.49717285829E+03  0.18675695612E+04  0.19353545303E+04  0.50400001928E-02 0.  1.
       -1    1    3    3    0  502  0.10295747189E+03  0.49717285829E+03 -0.16963637916E+03  0.53531074452E+03  0.50400001928E-02 0. -1.
</event>
<event>
 5   0  0.4535100E-05  0.1800173E+04  0.7818609E-02  0.8706207E-01
       -1   -1    0    0    0  501  0.00000000000E+00  0.00000000000E+00  0.38598216699E+03  0.38598216703E+03  0.50400001928E-02 0. -1.
        1   -1    0    0  501    0  0.00000000000E+00  0.00000000000E+00 -0.20989462720E+04  0.20989462720E+04  0.50400001928E-02 0.  1.
    10030    2    1    2    0    0  0.00000000000E+00  0.00000000000E+00 -0.17129641050E+04  0.24849284390E+04  0.18001731367E+04 0.  0.
        1    1    3    3  502    0 -0.35864886887E+03 -0.66284499743E+03 -0.15357698274E+04  0.17107254206E+04  0.50400001928E-02 0.  1.
       -1    1    3    3    0  502  0.35864886887E+03  0.66284499743E+03 -0.17719427759E+03  0.77420301847E+03  0.50400001928E-02 0. -1.
</event>
<event>
 5   0  0.9184414E-05  0.1777951E+04  0.7818609E-02  0.8718113E-01
       -2   -1    0    0    0  501  0.00000000000E+00  0.00000000000E+00  0.45062937595E+03  0.45062937595E+03  0.25500000920E-02 0. -1.
        2   -1    0    0  501    0  0.00000000000E+00  0.00000000000E+00 -0.17537196770E+04  0.17537196770E+04  0.25500000920E-02 0.  1.
    10030    2    1    2    0    0  0.00000000000E+00  0.00000000000E+00 -0.13030903010E+04  0.22043490529E+04  0.17779511845E+04 0.  0.
        5    1    3    3  502    0 -0.61874697913E+03 -0.35324281755E+02 -0.14416942431E+04  0.15692673481E+04  0.46999998093E+01 0.  1.
       -5    1    3    3    0  502  0.61874697913E+03  0.35324281755E+02  0.13860394211E+03  0.63508170485E+03  0.46999998093E+01 0. -1.
</event>
<event>
 5   0  0.8893075E-05  0.1791009E+04  0.7818609E-02  0.8711095E-01
       -2   -1    0    0    0  501  0.00000000000E+00  0.00000000000E+00  0.36658092624E+03  0.36658092625E+03  0.25500000920E-02 0.  1.
        2   -1    0    0  501    0  0.00000000000E+00  0.00000000000E+00 -0.21875888568E+04  0.21875888568E+04  0.25500000920E-02 0. -1.
    10030    2    1    2    0    0  0.00000000000E+00  0.00000000000E+00 -0.18210079305E+04  0.25541697830E+04  0.17910090445E+04 0.  0.
        1    1    3    3  502    0  0.23587679666E+03 -0.57116810316E+03  0.13781975552E+02  0.61811067629E+03  0.50400001928E-02 0.  1.
       -1    1    3    3    0  502 -0.23587679666E+03  0.57116810316E+03 -0.18347899061E+04  0.19360591067E+04  0.50400001928E-02 0. -1.
</event>
<event>
 5   0  0.4623665E-05  0.1801159E+04  0.7818609E-02  0.8705683E-01
        1   -1    0    0  501    0  0.00000000000E+00  0.00000000000E+00  0.18977567716E+04  0.18977567716E+04  0.50400001928E-02 0.  1.
       -1   -1    0    0    0  501  0.00000000000E+00  0.00000000000E+00 -0.42736948243E+03  0.42736948246E+03  0.50400001928E-02 0. -1.
    10030    2    1    2    0    0  0.00000000000E+00  0.00000000000E+00  0.14703872891E+04  0.23251262540E+04  0.18011588817E+04 0.  0.
        5    1    3    3  502    0 -0.32945421416E+03  0.15466299298E+03 -0.32818714309E+03  0.49009143178E+03  0.46999998093E+01 0. -1.
       -5    1    3    3    0  502  0.32945421416E+03 -0.15466299298E+03  0.17985744322E+04  0.18350348222E+04  0.46999998093E+01 0.  1.
</event>
<event>
 5   0  0.4335117E-05  0.1796715E+04  0.7818609E-02  0.8708048E-01
        1   -1    0    0  501    0  0.00000000000E+00  0.00000000000E+00  0.17369105710E+04  0.17369105711E+04  0.50400001928E-02 0. -1.
       -1   -1    0    0    0  501  0.00000000000E+00  0.00000000000E+00 -0.46464482137E+03  0.46464482139E+03  0.50400001928E-02 0.  1.
    10030    2    1    2    0    0  0.00000000000E+00  0.00000000000E+00  0.12722657497E+04  0.22015553924E+04  0.17967153387E+04 0.  0.
        3    1    3    3  502    0  0.24633111424E+02  0.43927390581E+03  0.15958646786E+04  0.16554009898E+04  0.10100000352E+00 0. -1.
       -3    1    3    3    0  502 -0.24633111424E+02 -0.43927390581E+03 -0.32359892892E+03  0.54615440262E+03  0.10100000352E+00 0.  1.
</event>
<event>
 5   0  0.8893075E-05  0.1796381E+04  0.7818609E-02  0.8708226E-01
        2   -1    0    0  501    0  0.00000000000E+00  0.00000000000E+00  0.13882095367E+04  0.13882095367E+04  0.25500000920E-02 0. -1.
       -2   -1    0    0    0  501  0.00000000000E+00  0.00000000000E+00 -0.58114169717E+03  0.58114169717E+03  0.25500000920E-02 0.  1.
    10030    2    1    2    0    0  0.00000000000E+00  0.00000000000E+00  0.80706783953E+03  0.19693512339E+04  0.17963813027E+04 0.  0.
        1    1    3    3  502    0  0.81090869904E+03 -0.22119168574E+02 -0.19190334190E+02  0.81143727098E+03  0.50400001928E-02 0.  1.
       -1    1    3    3    0  502 -0.81090869904E+03  0.22119168574E+02  0.82625817372E+03  0.11579139629E+04  0.50400001928E-02 0. -1.
</event>
<event>
 5   0  0.4535100E-05  0.1802735E+04  0.7818609E-02  0.8704846E-01
       -1   -1    0    0    0  501  0.00000000000E+00  0.00000000000E+00  0.48306484892E+03  0.48306484894E+03  0.50400001928E-02 0.  1.
        1   -1    0    0  501    0  0.00000000000E+00  0.00000000000E+00 -0.16818937122E+04  0.16818937122E+04  0.50400001928E-02 0. -1.
    10030    2    1    2    0    0  0.00000000000E+00  0.00000000000E+00 -0.11988288633E+04  0.21649585612E+04  0.18027354016E+04 0.  0.
        1    1    3    3  502    0  0.57014891181E+03 -0.21866675257E+03 -0.13956397279E+04  0.15233828082E+04  0.50400001928E-02 0. -1.
       -1    1    3    3    0  502 -0.57014891181E+03  0.21866675257E+03  0.19681086458E+03  0.64157575294E+03  0.50400001928E-02 0.  1.
</event>
<event>
 5   0  0.4578107E-05  0.1804434E+04  0.7818609E-02  0.8703945E-01
       -1   -1    0    0    0  501  0.00000000000E+00  0.00000000000E+00  0.50792688941E+03  0.50792688944E+03  0.50400001928E-02 0. -1.
        1   -1    0    0  501    0  0.00000000000E+00  0.00000000000E+00 -0.16025833861E+04  0.16025833861E+04  0.50400001928E-02 0.  1.
    10030    2    1    2    0    0  0.00000000000E+00  0.00000000000E+00 -0.10946564967E+04  0.21105102756E+04  0.18044336445E+04 0.  0.
        2    1    3    3  502    0  0.82400413989E+03 -0.32571516882E+03 -0.34841636916E+03  0.95208568945E+03  0.25500000920E-02 0.  1.
       -2    1    3    3    0  502 -0.82400413989E+03  0.32571516882E+03 -0.74624012756E+03  0.11584245861E+04  0.25500000920E-02 0. -1.
</event>
<event>
 5   0  0.4494757E-05  0.1799340E+04  0.7818609E-02  0.8706650E-01
        1   -1    0    0  501    0  0.00000000000E+00  0.00000000000E+00  0.10926456907E+04  0.10926456907E+04  0.50400001928E-02 0. -1.
       -1   -1    0    0    0  501  0.00000000000E+00  0.00000000000E+00 -0.74077663647E+03  0.74077663649E+03  0.50400001928E-02 0.  1.
    10030    2    1    2    0    0  0.00000000000E+00  0.00000000000E+00  0.35186905426E+03  0.18334223272E+04  0.17993403232E+04 0.  0.
        4    1    3    3  502    0  0.20086156568E+03  0.39345765363E+02  0.10686058856E+04  0.10880319892E+04  0.12699999809E+01 0. -1.
       -4    1    3    3    0  502 -0.20086156568E+03 -0.39345765363E+02 -0.71673683132E+03  0.74539033807E+03  0.12699999809E+01 0.  1.
</event>
<event>
 5   0  0.4494757E-05  0.1790840E+04  0.7818609E-02  0.8711186E-01
        1   -1    0    0  501    0  0.00000000000E+00  0.00000000000E+00  0.10650716390E+04  0.10650716390E+04  0.50400001928E-02 0.  1.
       -1   -1    0    0    0  501  0.00000000000E+00  0.00000000000E+00 -0.75279143832E+03  0.75279143833E+03  0.50400001928E-02 0. -1.
    10030    2    1    2    0    0  0.00000000000E+00  0.00000000000E+00  0.31228020069E+03  0.18178630773E+04  0.17908398154E+04 0.  0.
        4    1    3    3  502    0 -0.15963415128E+03  0.75018598301E+03  0.62518748387E+03  0.98950648015E+03  0.12699999809E+01 0.  1.
       -4    1    3    3    0  502  0.15963415128E+03 -0.75018598301E+03 -0.31290728318E+03  0.82835659720E+03  0.12699999809E+01 0. -1.
</event>
<event>
 5   0  0.4535100E-05  0.1829934E+04  0.7818609E-02  0.8690541E-01
       -1   -1    0    0    0  501  0.00000000000E+00  0.00000000000E+00  0.95014998426E+03  0.95014998427E+03  0.50400001928E-02 0.  1.
        1   -1    0    0  501    0  0.00000000000E+00  0.00000000000E+00 -0.88108660126E+03  0.88108660127E+03  0.50400001928E-02 0. -1.
    10030    2    1    2    0    0  0.00000000000E+00  0.00000000000E+00  0.69063383000E+02  0.18312365855E+04  0.18299337915E+04 0.  0.
        1    1    3    3  502    0 -0.88517938195E+03  0.68255659247E+02 -0.18690179491E+03  0.90726713498E+03  0.50400001928E-02 0. -1.
       -1    1    3    3    0  502  0.88517938195E+03 -0.68255659247E+02  0.25596517791E+03  0.92396945056E+03  0.50400001928E-02 0.  1.
</event>
<event>
 5   0  0.4335117E-05  0.1805381E+04  0.7818609E-02  0.8703443E-01
       -1   -1    0    0    0  501  0.00000000000E+00  0.00000000000E+00  0.33547030926E+03  0.33547030930E+03  0.50400001928E-02 0.  1.
        1   -1    0    0  501    0  0.00000000000E+00  0.00000000000E+00 -0.24289785523E+04  0.24289785523E+04  0.50400001928E-02 0. -1.
    10030    2    1    2    0    0  0.00000000000E+00  0.00000000000E+00 -0.20935082430E+04  0.27644488616E+04  0.18053810525E+04 0.  0.
        3    1    3    3  502    0  0.62956777393E+03 -0.28084361693E+03 -0.15439998617E+03  0.70644751049E+03  0.10100000352E+00 0.  1.
       -3    1    3    3    0  502 -0.62956777393E+03  0.28084361693E+03 -0.19391082569E+04  0.20580013511E+04  0.10100000352E+00 0. -1.
</event>
<event>
 5   0  0.4494757E-05  0.1800148E+04  0.7818609E-02  0.8706221E-01
        1   -1    0    0  501    0  0.00000000000E+00  0.00000000000E+00  0.15898504922E+04  0.15898504923E+04  0.50400001928E-02 0. -1.
       -1   -1    0    0    0  501  0.00000000000E+00  0.00000000000E+00 -0.50956573082E+03  0.50956573084E+03  0.50400001928E-02 0.  1.
    10030    2    1    2    0    0  0.00000000000E+00  0.00000000000E+00  0.10802847614E+04  0.20994162231E+04  0.18001481361E+04 0.  0.
        4    1    3    3  502    0  0.42757172754E+03  0.75367123908E+03  0.82412707396E+03  0.11958365130E+04  0.12699999809E+01 0.  1.
       -4    1    3    3    0  502 -0.42757172754E+03 -0.75367123908E+03  0.25615768747E+03  0.90357971013E+03  0.12699999809E+01 0. -1.
</event>
<event>
 5   0  0.9147432E-05  0.1795107E+04  0.7818609E-02  0.8708906E-01
       -2   -1    0    0    0  501  0.00000000000E+00  0.00000000000E+00  0.51213564925E+03  0.51213564926E+03  0.25500000920E-02 0. -1.
        2   -1    0    0  501    0  0.00000000000E+00  0.00000000000E+00 -0.15730254687E+04  0.15730254687E+04  0.25500000920E-02 0.  1.
    10030    2    1    2    0    0  0.00000000000E+00  0.00000000000E+00 -0.10608898195E+04  0.20851611180E+04  0.17951071497E+04 0.  0.
        3    1    3    3  502    0  0.35259363291E+03 -0.62349991005E+03  0.97805764883E+02  0.72293871500E+03  0.10100000352E+00 0. -1.
       -3    1    3    3    0  502 -0.35259363291E+03  0.62349991005E+03 -0.11586955844E+04  0.13622224030E+04  0.10100000352E+00 0.  1.
</event>
<event>
 5   0  0.4578107E-05  0.1765786E+04  0.7818609E-02  0.8724709E-01
        1   -1    0    0  501    0  0.00000000000E+00  0.00000000000E+00  0.14968378423E+04  0.14968378423E+04  0.50400001928E-02 0.  1.
       -1   -1    0    0    0  501  0.00000000000E+00  0.00000000000E+00 -0.52076458245E+03  0.52076458248E+03  0.50400001928E-02 0. -1.
    10030    2    1    2    0    0  0.00000000000E+00  0.00000000000E+00  0.97607325980E+03  0.20176024247E+04  0.17657860957E+04 0.  0.
        2    1    3    3  502    0 -0.42604151590E+03 -0.47835076185E+03 -0.20620442538E+03  0.67294211466E+03  0.25500000920E-02 0. -1.
       -2    1    3    3    0  502  0.42604151590E+03  0.47835076185E+03  0.11822776852E+04  0.13446603101E+04  0.25500000920E-02 0.  1.
</event>
<event>
 5   0  0.4335117E-05  0.1803754E+04  0.7818609E-02  0.8704306E-01
        1   -1    0    0  501    0  0.00000000000E+00  0.00000000000E+00  0.16481912094E+04  0.16481912094E+04  0.50400001928E-02 0. -1.
       -1   -1    0    0    0  501  0.00000000000E+00  0.00000000000E+00 -0.49349982615E+03  0.49349982618E+03  0.50400001928E-02 0.  1.
    10030    2    1    2    0    0  0.00000000000E+00  0.00000000000E+00  0.11546913832E+04  0.21416910356E+04  0.18037539470E+04 0.  0.
        3    1    3    3  502    0 -0.89939286804E+03 -0.19940359392E+02  0.65315899368E+03  0.11117202122E+04  0.10100000352E+00 0. -1.
       -3    1    3    3    0  502  0.89939286804E+03  0.19940359392E+02  0.50153238956E+03  0.10299708234E+04  0.10100000352E+00 0.  1.
</event>
<event>
 5   0  0.4578107E-05  0.1798781E+04  0.7818609E-02  0.8706948E-01
        1   -1    0    0  501    0  0.00000000000E+00  0.00000000000E+00  0.79873122056E+03  0.79873122057E+03  0.50400001928E-02 0. -1.
       -1   -1    0    0    0  501  0.00000000000E+00  0.00000000000E+00 -0.10127350078E+04  0.10127350078E+04  0.50400001928E-02 0.  1.
    10030    2    1    2    0    0  0.00000000000E+00  0.00000000000E+00 -0.21400378722E+03  0.18114662284E+04  0.17987807747E+04 0.  0.
        2    1    3    3  502    0  0.27902979390E+03 -0.32222852278E+03 -0.90455562877E+03  0.99995486514E+03  0.25500000920E-02 0.  1.
       -2    1    3    3    0  502 -0.27902979390E+03  0.32222852278E+03  0.69055184154E+03  0.81151136322E+03  0.25500000920E-02 0. -1.
</event>
<event>
 5   0  0.8893075E-05  0.1802957E+04  0.7818609E-02  0.8704729E-01
       -2   -1    0    0    0  501  0.00000000000E+00  0.00000000000E+00  0.83318992152E+03  0.83318992152E+03  0.25500000920E-02 0.  1.
        2   -1    0    0  501    0  0.00000000000E+00  0.00000000000E+00 -0.97536370758E+03  0.97536370758E+03  0.25500000920E-02 0. -1.
    10030    2    1    2    0    0  0.00000000000E+00  0.00000000000E+00 -0.14217378606E+03  0.18085536291E+04  0.18029566950E+04 0.  0.
        1    1    3    3  502    0  0.68229902689E+03 -0.14650749521E+03 -0.64353067336E+03  0.94927769163E+03  0.50400001928E-02 0. -1.
       -1    1    3    3    0  502 -0.68229902689E+03  0.14650749521E+03  0.50135688730E+03  0.85927593747E+03  0.50400001928E-02 0.  1.
</event>
<event>
 5   0  0.4535100E-05  0.1795511E+04  0.7818609E-02  0.8708690E-01
       -1   -1    0    0    0  501  0.00000000000E+00  0.00000000000E+00  0.12741514331E+04  0.12741514331E+04  0.50400001928E-02 0. -1.
        1   -1    0    0  501    0  0.00000000000E+00  0.00000000000E+00 -0.63255033509E+03  0.63255033511E+03  0.50400001928E-02 0.  1.
    10030    2    1    2    0    0  0.00000000000E+00  0.00000000000E+00  0.64160109801E+03  0.19067017682E+04  0.17955109757E+04 0.  0.
        1    1    3    3  502    0  0.49385458018E+03  0.13033680884E+03 -0.46321878956E+03  0.68953004077E+03  0.50400001928E-02 0.  1.
       -1    1    3    3    0  502 -0.49385458018E+03 -0.13033680884E+03  0.11048198876E+04  0.12171717274E+04  0.50400001928E-02 0. -1.
</event>
<event>
 5   0  0.8802655E-05  0.1803068E+04  0.7818609E-02  0.8704670E-01
       -2   -1    0    0    0  501  0.00000000000E+00  0.00000000000E+00  0.45608398302E+03  0.45608398303E+03  0.25500000920E-02 0.  1.
        2   -1    0    0  501    0  0.00000000000E+00  0.00000000000E+00 -0.17820473828E+04  0.17820473828E+04  0.25500000920E-02 0. -1.
    10030    2    1    2    0    0  0.00000000000E+00  0.00000000000E+00 -0.13259633998E+04  0.22381313659E+04  0.18030676840E+04 0.  0.
        2    1    3    3  502    0 -0.32409495391E+03  0.84097152493E+03 -0.69053230048E+03  0.11353878205E+04  0.25500000920E-02 0. -1.
       -2    1    3    3    0  502  0.32409495391E+03 -0.84097152493E+03 -0.63543109935E+03  0.11027435454E+04  0.25500000920E-02 0.  1.
</event>
<event>
 5   0  0.4623665E-05  0.1804166E+04  0.7818609E-02  0.8704087E-01
        1   -1    0    0  501    0  0.00000000000E+00  0.00000000000E+00  0.78084192104E+03  0.78084192106E+03  0.50400001928E-02 0.  1.
       -1   -1    0    0    0  501  0.00000000000E+00  0.00000000000E+00 -0.10421496231E+04  0.10421496232E+04  0.50400001928E-02 0. -1.
    10030    2    1    2    0    0  0.00000000000E+00  0.00000000000E+00 -0.26130770211E+03  0.18229915442E+04  0.18041664156E+04 0.  0.
        5    1    3    3  502    0 -0.60355424557E+03 -0.48485660037E+03  0.33717652442E+03  0.84443694193E+03  0.46999998093E+01 0.  1.
       -5    1    3    3    0  502  0.60355424557E+03  0.48485660037E+03 -0.59848422653E+03  0.97855460229E+03  0.46999998093E+01 0. -1.
</event>
<event>
 5   0  0.4535100E-05  0.1798536E+04  0.7818609E-02  0.8707079E-01
       -1   -1    0    0    0  501  0.00000000000E+00  0.00000000000E+00  0.33824854552E+03  0.33824854556E+03  0.50400001928E-02 0. -1.
        1   -1    0    0  501    0  0.00000000000E+00  0.00000000000E+00 -0.23907940791E+04  0.23907940791E+04  0.50400001928E-02 0.  1.
    10030    2    1    2    0    0  0.00000000000E+00  0.00000000000E+00 -0.20525455336E+04  0.27290426247E+04  0.17985356488E+04 0.  0.
        1    1    3    3  502    0 -0.61219267103E+03  0.28833179604E+03 -0.12760128496E+03  0.68861976375E+03  0.50400001928E-02 0. -1.
       -1    1    3    3    0  502  0.61219267103E+03 -0.28833179604E+03 -0.19249442486E+04  0.20404228609E+04  0.50400001928E-02 0.  1.
</event>
<event>
 5   0  0.4335117E-05  0.1794145E+04  0.7818609E-02  0.8709419E-01
       -1   -1    0    0    0  501  0.00000000000E+00  0.00000000000E+00  0.18256575378E+04  0.18256575378E+04  0.50400001928E-02 0.  1.
        1   -1    0    0  501    0  0.00000000000E+00  0.00000000000E+00 -0.44079416317E+03  0.44079416320E+03  0.50400001928E-02 0. -1.
    10030    2    1    2    0    0  0.00000000000E+00  0.00000000000E+00  0.13848633746E+04  0.22664517010E+04  0.17941451298E+04 0.  0.
        3    1    3    3  502    0  0.44603574092E+03 -0.61699106502E+03  0.12917940870E+04  0.14994525100E+04  0.10100000352E+00 0.  1.
       -3    1    3    3    0  502 -0.44603574092E+03  0.61699106502E+03  0.93069287684E+02  0.76699919100E+03  0.10100000352E+00 0. -1.
</event>
<event>
 5   0  0.9147432E-05  0.1799645E+04  0.7818609E-02  0.8706488E-01
        2   -1    0    0  501    0  0.00000000000E+00  0.00000000000E+00  0.98424288938E+03  0.98424288939E+03  0.25500000920E-02 0. -1.
       -2   -1    0    0    0  501  0.00000000000E+00  0.00000000000E+00 -0.82264308494E+03  0.82264308494E+03  0.25500000920E-02 0.  1.
    10030    2    1    2    0    0  0.00000000000E+00  0.00000000000E+00  0.16159980444E+03  0.18068859743E+04  0.17996450837E+04 0.  0.
        3    1    3    3  502    0 -0.12323234801E+02 -0.23815304963E+03 -0.79033839856E+03  0.82553227169E+03  0.10100000352E+00 0.  1.
       -3    1    3    3    0  502  0.12323234801E+02  0.23815304963E+03  0.95193820300E+03  0.98135370264E+03  0.10100000352E+00 0. -1.
</event>
<event>
 5   0  0.8892280E-05  0.1792055E+04  0.7818609E-02  0.8710536E-01
       -2   -1    0    0    0  501  0.00000000000E+00  0.00000000000E+00  0.60934048790E+03  0.60934048790E+03  0.25500000920E-02 0. -1.
        2   -1    0    0  501    0  0.00000000000E+00  0.00000000000E+00 -0.13175968417E+04  0.13175968417E+04  0.25500000920E-02 0.  1.
    10030    2    1    2    0    0  0.00000000000E+00  0.00000000000E+00 -0.70825635381E+03  0.19269373296E+04  0.17920548009E+04 0.  0.
        4    1    3    3  502    0  0.29744544694E+03  0.80618568446E+03 -0.62711543672E+03  0.10638066251E+04  0.12699999809E+01 0.  1.
       -4    1    3    3    0  502 -0.29744544694E+03 -0.80618568446E+03 -0.81140917090E+02  0.86313070451E+03  0.12699999809E+01 0. -1.
</event>
<event>
 5   0  0.4535100E-05  0.1800364E+04  0.7818609E-02  0.8706106E-01
        1   -1    0    0  501    0  0.00000000000E+00  0.00000000000E+00  0.16540637656E+04  0.16540637656E+04  0.50400001928E-02 0. -1.
       -1   -1    0    0    0  501  0.00000000000E+00  0.00000000000E+00 -0.48990116290E+03  0.48990116292E+03  0.50400001928E-02 0.  1.
    10030    2    1    2    0    0  0.00000000000E+00  0.00000000000E+00  0.11641626027E+04  0.21439649285E+04  0.18003641435E+04 0.  0.
        1    1    3    3  502    0  0.89880772510E+03  0.37621667825E+02  0.62079852457E+03  0.10930057295E+04  0.50400001928E-02 0.  1.
       -1    1    3    3    0  502 -0.89880772510E+03 -0.37621667825E+02  0.54336407813E+03  0.10509591990E+04  0.50400001928E-02 0. -1.
</event>
<event>
 5   0  0.4623665E-05  0.1812669E+04  0.7818609E-02  0.8699591E-01
        1   -1    0    0  501    0  0.00000000000E+00  0.00000000000E+00  0.86333881060E+03  0.86333881062E+03  0.50400001928E-02 0. -1.
       -1   -1    0    0    0  501  0.00000000000E+00  0.00000000000E+00 -0.95147125809E+03  0.95147125810E+03  0.50400001928E-02 0.  1.
    10030    2    1    2    0    0  0.00000000000E+00  0.00000000000E+00 -0.88132447484E+02  0.18148100687E+04  0.18126688217E+04 0.  0.
        5    1    3    3  502    0 -0.63982593460E+03  0.25530272286E+03 -0.63371292146E+03  0.93603999045E+03  0.46999998093E+01 0.  1.
       -5    1    3    3    0  502  0.63982593460E+03 -0.25530272286E+03  0.54558047398E+03  0.87877007827E+03  0.46999998093E+01 0. -1.
</event>
<event>
 5   0  0.9147432E-05  0.1796959E+04  0.7818609E-02  0.8707918E-01
        2   -1    0    0  501    0  0.00000000000E+00  0.00000000000E+00  0.16269160643E+04  0.16269160643E+04  0.25500000920E-02 0.  1.
       -2   -1    0    0    0  501  0.00000000000E+00  0.00000000000E+00 -0.49619345401E+03  0.49619345402E+03  0.25500000920E-02 0. -1.
    10030    2    1    2    0    0  0.00000000000E+00  0.00000000000E+00  0.11307226103E+04  0.21231095183E+04  0.17969586543E+04 0.  0.
        3    1    3    3  502    0  0.81843163633E+03  0.11384509280E+03  0.14851715608E+03  0.83955250244E+03  0.10100000352E+00 0. -1.
       -3    1    3    3    0  502 -0.81843163633E+03 -0.11384509280E+03  0.98220545417E+03  0.12835570158E+04  0.10100000352E+00 0.  1.
</event>
<event>
 5   0  0.4494757E-05  0.1811816E+04  0.7818609E-02  0.8700041E-01
       -1   -1    0    0    0  501  0.00000000000E+00  0.00000000000E+00  0.82550532874E+03  0.82550532875E+03  0.50400001928E-02 0. -1.
        1   -1    0    0  501    0  0.00000000000E+00  0.00000000000E+00 -0.99414222299E+03  0.99414222300E+03  0.50400001928E-02 0.  1.
    10030    2    1    2    0    0  0.00000000000E+00  0.00000000000E+00 -0.16863689425E+03  0.18196475518E+04  0.18118164395E+04 0.  0.
        4    1    3    3  502    0 -0.71127368249E+03 -0.20243045057E+01  0.47913563746E+03  0.85760534117E+03  0.12699999809E+01 0. -1.
       -4    1    3    3    0  502  0.71127368249E+03  0.20243045057E+01 -0.64777253171E+03  0.96204221059E+03  0.12699999809E+01 0.  1.
</event>
<event>
 5   0  0.9147432E-05  0.1796591E+04  0.7818609E-02  0.8708114E-01
        2   -1    0    0  501    0  0.00000000000E+00  0.00000000000E+00  0.11756832728E+04  0.11756832728E+04  0.25500000920E-02 0. -1.
       -2   -1    0    0    0  501  0.00000000000E+00  0.00000000000E+00 -0.68635397177E+03  0.68635397177E+03  0.25500000920E-02 0.  1.
    10030    2    1    2    0    0  0.00000000000E+00  0.00000000000E+00  0.48932930105E+03  0.18620372446E+04  0.17965910874E+04 0.  0.
        3    1    3    3  502    0 -0.40288647832E+03 -0.46280948874E+03  0.92463149013E+03  0.11097087636E+04  0.10100000352E+00 0. -1.
       -3    1    3    3    0  502  0.40288647832E+03  0.46280948874E+03 -0.43530218908E+03  0.75232848098E+03  0.10100000352E+00 0.  1.
</event>
<event>
 5   0  0.4623665E-05  0.1797158E+04  0.7818609E-02  0.8707812E-01
       -1   -1    0    0    0  501  0.00000000000E+00  0.00000000000E+00  0.49701921909E+03  0.49701921912E+03  0.50400001928E-02 0. -1.
        1   -1    0    0  501    0  0.00000000000E+00  0.00000000000E+00 -0.16245729512E+04  0.16245729512E+04  0.50400001928E-02 0.  1.
    10030    2    1    2    0    0  0.00000000000E+00  0.00000000000E+00 -0.11275537321E+04  0.21215921703E+04  0.17971577333E+04 0.  0.
        5    1    3    3  502    0  0.25251748795E+03 -0.27616653465E+03 -0.15281945879E+04  0.15733511449E+04  0.46999998093E+01 0.  1.
       -5    1    3    3    0  502 -0.25251748795E+03  0.27616653465E+03  0.40064085584E+03  0.54824102541E+03  0.46999998093E+01 0. -1.
</event>
<event>
 5   0  0.4578107E-05  0.1780429E+04  0.7818609E-02  0.8716777E-01
       -1   -1    0    0    0  501  0.00000000000E+00  0.00000000000E+00  0.62981557779E+03  0.62981557781E+03  0.50400001928E-02 0. -1.
        1   -1    0    0  501    0  0.00000000000E+00  0.00000000000E+00 -0.12582753708E+04  0.12582753708E+04  0.50400001928E-02 0.  1.
    10030    2    1    2    0    0  0.00000000000E+00  0.00000000000E+00 -0.62845979299E+03  0.18880909486E+04  0.17804285211E+04 0.  0.
        2    1    3    3  502    0 -0.75610208895E+03 -0.43812849122E+03 -0.13415446079E+03  0.88410653379E+03  0.25500000920E-02 0.  1.
       -2    1    3    3    0  502  0.75610208895E+03  0.43812849122E+03 -0.49430533220E+03  0.10039844148E+04  0.25500000920E-02 0. -1.
</event>
<event>
 5   0  0.9184414E-05  0.1805873E+04  0.7818609E-02  0.8703182E-01
       -2   -1    0    0    0  501  0.00000000000E+00  0.00000000000E+00  0.60080490550E+03  0.60080490551E+03  0.25500000920E-02 0.  1.
        2   -1    0    0  501    0  0.00000000000E+00  0.00000000000E+00 -0.13570040502E+04  0.13570040502E+04  0.25500000920E-02 0. -1.
    10030    2    1    2    0    0  0.00000000000E+00  0.00000000000E+00 -0.75619914470E+03  0.19578089557E+04  0.18058734066E+04 0.  0.
        5    1    3    3  502    0 -0.37008258336E+03  0.15546204477E+03 -0.12549375844E+04  0.13175811157E+04  0.46999998093E+01 0. -1.
       -5    1    3    3    0  502  0.37008258336E+03 -0.15546204477E+03  0.49873843967E+03  0.64022783998E+03  0.46999998093E+01 0.  1.
</event>
<event>
 5   0  0.4535100E-05  0.1796064E+04  0.7818609E-02  0.8708395E-01
        1   -1    0    0  501    0  0.00000000000E+00  0.00000000000E+00  0.18255467324E+04  0.18255467324E+04  0.50400001928E-02 0.  1.
       -1   -1    0    0    0  501  0.00000000000E+00  0.00000000000E+00 -0.44176452329E+03  0.44176452332E+03  0.50400001928E-02 0. -1.
    10030    2    1    2    0    0  0.00000000000E+00  0.00000000000E+00  0.13837822091E+04  0.22673112558E+04  0.17960643441E+04 0.  0.
        1    1    3    3  502    0 -0.69887398356E+03  0.54732930046E+03  0.52033974018E+03  0.10289546410E+04  0.50400001928E-02 0. -1.
       -1    1    3    3    0  502  0.69887398356E+03 -0.54732930046E+03  0.86344246897E+03  0.12383566147E+04  0.50400001928E-02 0.  1.
</event>
<event>
 5   0  0.4535100E-05  0.1788998E+04  0.7818609E-02  0.8712172E-01
        1   -1    0    0  501    0  0.00000000000E+00  0.00000000000E+00  0.81181259555E+03  0.81181259556E+03  0.50400001928E-02 0.  1.
       -1   -1    0    0    0  501  0.00000000000E+00  0.00000000000E+00 -0.98560771487E+03  0.98560771488E+03  0.50400001928E-02 0. -1.
    10030    2    1    2    0    0  0.00000000000E+00  0.00000000000E+00 -0.17379511932E+03  0.17974203104E+04  0.17889983312E+04 0.  0.
        1    1    3    3  502    0  0.80841260862E+03  0.55014970181E+02  0.29379406369E+03  0.86190054218E+03  0.50400001928E-02 0.  1.
       -1    1    3    3    0  502 -0.80841260862E+03 -0.55014970181E+02 -0.46758918301E+03  0.93551976827E+03  0.50400001928E-02 0. -1.
</event>
<event>
 5   0  0.9147432E-05  0.1797890E+04  0.7818609E-02  0.8707423E-01
        2   -1    0    0  501    0  0.00000000000E+00  0.00000000000E+00  0.28580530322E+04  0.28580530322E+04  0.25500000920E-02 0.  1.
       -2   -1    0    0    0  501  0.00000000000E+00  0.00000000000E+00 -0.28274557213E+03  0.28274557214E+03  0.25500000920E-02 0. -1.
    10030    2    1    2    0    0  0.00000000000E+00  0.00000000000E+00  0.25753074601E+04  0.31407986044E+04  0.17978896961E+04 0.  0.
        3    1    3    3  502    0  0.34575517934E+02 -0.76845342796E+03  0.47502660188E+03  0.90408319312E+03  0.10100000352E+00 0. -1.
       -3    1    3    3    0  502 -0.34575517934E+02  0.76845342796E+03  0.21002808582E+04  0.22367154113E+04  0.10100000352E+00 0.  1.
</event>
<event>
 5   0  0.4494757E-05  0.1785841E+04  0.7818609E-02  0.8713865E-01
        1   -1    0    0  501    0  0.00000000000E+00  0.00000000000E+00  0.20554972864E+04  0.20554972864E+04  0.50400001928E-02 0. -1.
       -1   -1    0    0    0  501  0.00000000000E+00  0.00000000000E+00 -0.38789017161E+03  0.38789017165E+03  0.50400001928E-02 0.  1.
    10030    2    1    2    0    0  0.00000000000E+00  0.00000000000E+00  0.16676071148E+04  0.24433874581E+04  0.17858411970E+04 0.  0.
        4    1    3    3  502    0  0.31058452585E+03 -0.25007022213E+03 -0.25930816340E+03  0.47564713833E+03  0.12699999809E+01 0.  1.
       -4    1    3    3    0  502 -0.31058452585E+03  0.25007022213E+03  0.19269152782E+04  0.19677403197E+04  0.12699999809E+01 0. -1.
</event>
<event>
 5   0  0.4535100E-05  0.1788428E+04  0.7818609E-02  0.8712478E-01
       -1   -1    0    0    0  501  0.00000000000E+00  0.00000000000E+00  0.13488355255E+04  0.13488355255E+04  0.50400001928E-02 0. -1.
        1   -1    0    0  501    0  0.00000000000E+00  0.00000000000E+00 -0.59282123133E+03  0.59282123135E+03  0.50400001928E-02 0.  1.
    10030    2    1    2    0    0  0.00000000000E+00  0.00000000000E+00  0.75601429414E+03  0.19416567568E+04  0.17884276190E+04 0.  0.
        1    1    3    3  502    0 -0.29007117397E+02  0.74647858263E+03  0.91158967413E+03  0.11785870444E+04  0.50400001928E-02 0. -1.
       -1    1    3    3    0  502  0.29007117397E+02 -0.74647858263E+03 -0.15557537999E+03  0.76306971245E+03  0.50400001928E-02 0.  1.
</event>
<event>
 5   0  0.9184414E-05  0.1797312E+04  0.7818609E-02  0.8707730E-01
       -2   -1    0    0    0  501  0.00000000000E+00  0.00000000000E+00  0.37157879411E+03  0.37157879412E+03  0.25500000920E-02 0. -1.
        2   -1    0    0  501    0  0.00000000000E+00  0.00000000000E+00 -0.21733816890E+04  0.21733816890E+04  0.25500000920E-02 0.  1.
    10030    2    1    2    0    0  0.00000000000E+00  0.00000000000E+00 -0.18018028949E+04  0.25449604832E+04  0.17973119342E+04 0.  0.
        5    1    3    3  502    0  0.53561617790E+03  0.43428028008E+03 -0.17168759626E+04  0.18501808595E+04  0.46999998093E+01 0.  1.
       -5    1    3    3    0  502 -0.53561617790E+03 -0.43428028008E+03 -0.84926932317E+02  0.69477962371E+03  0.46999998093E+01 0. -1.
</event>
<event>
 5   0  0.4623665E-05  0.1799510E+04  0.7818609E-02  0.8706560E-01
        1   -1    0    0  501    0  0.00000000000E+00  0.00000000000E+00  0.10785324932E+04  0.10785324932E+04  0.50400001928E-02 0. -1.
       -1   -1    0    0    0  501  0.00000000000E+00  0.00000000000E+00 -0.75061178197E+03  0.75061178199E+03  0.50400001928E-02 0.  1.
    10030    2    1    2    0    0  0.00000000000E+00  0.00000000000E+00  0.32792071121E+03  0.18291442752E+04  0.17995101518E+04 0.  0.
        5    1    3    3  502    0 -0.62965755065E+02  0.73854946929E+03 -0.35445530718E+03  0.82163292271E+03  0.46999998093E+01 0.  1.
       -5    1    3    3    0  502  0.62965755065E+02 -0.73854946929E+03  0.68237601839E+03  0.10075113525E+04  0.46999998093E+01 0. -1.
</event>
<event>
 5   0  0.9147432E-05  0.1798738E+04  0.7818609E-02  0.8706971E-01
        2   -1    0    0  501    0  0.00000000000E+00  0.00000000000E+00  0.12525661215E+04  0.12525661215E+04  0.25500000920E-02 0.  1.
       -2   -1    0    0    0  501  0.00000000000E+00  0.00000000000E+00 -0.64576575946E+03  0.64576575946E+03  0.25500000920E-02 0. -1.
    10030    2    1    2    0    0  0.00000000000E+00  0.00000000000E+00  0.60680036202E+03  0.18983318810E+04  0.17987376826E+04 0.  0.
        3    1    3    3  502    0  0.75824791583E+03  0.11834521181E+03 -0.19152038203E+03  0.79096495368E+03  0.10100000352E+00 0. -1.
       -3    1    3    3    0  502 -0.75824791583E+03 -0.11834521181E+03  0.79832074405E+03  0.11073669273E+04  0.10100000352E+00 0.  1.
</event>
<event>
 5   0  0.4578107E-05  0.1799789E+04  0.7818609E-02  0.8706412E-01
        1   -1    0    0  501    0  0.00000000000E+00  0.00000000000E+00  0.93202684791E+03  0.93202684793E+03  0.50400001928E-02 0. -1.
       -1   -1    0    0    0  501  0.00000000000E+00  0.00000000000E+00 -0.86886963715E+03  0.86886963716E+03  0.50400001928E-02 0.  1.
    10030    2    1    2    0    0  0.00000000000E+00  0.00000000000E+00  0.63157210766E+02  0.18008964851E+04  0.17997886867E+04 0.  0.
        2    1    3    3  502    0 -0.12061114508E+03 -0.87447680275E+03  0.20648065147E+03  0.90658203506E+03  0.25500000920E-02 0. -1.
       -2    1    3    3    0  502  0.12061114508E+03  0.87447680275E+03 -0.14332344071E+03  0.89431445003E+03  0.25500000920E-02 0.  1.
</event>
<event>
 5   0  0.4494757E-05  0.1798577E+04  0.7818609E-02  0.8707057E-01
        1   -1    0    0  501    0  0.00000000000E+00  0.00000000000E+00  0.22976532359E+04  0.22976532359E+04  0.50400001928E-02 0.  1.
       -1   -1    0    0    0  501  0.00000000000E+00  0.00000000000E+00 -0.35197639910E+03  0.35197639913E+03  0.50400001928E-02 0. -1.
    10030    2    1    2    0    0  0.00000000000E+00  0.00000000000E+00  0.19456768368E+04  0.26496296350E+04  0.17985768956E+04 0.  0.
        4    1    3    3  502    0 -0.36188925878E+03  0.63888602180E+03  0.17377286646E+04  0.18864892549E+04  0.12699999809E+01 0.  1.
       -4    1    3    3    0  502  0.36188925878E+03 -0.63888602180E+03  0.20794817223E+03  0.76314038008E+03  0.12699999809E+01 0. -1.
</event>
<event>
 5   0  0.4535100E-05  0.1800739E+04  0.7818609E-02  0.8705907E-01
       -1   -1    0    0    0  501  0.00000000000E+00  0.00000000000E+00  0.57633311785E+03  0.57633311787E+03  0.50400001928E-02 0. -1.
        1   -1    0    0  501    0  0.00000000000E+00  0.00000000000E+00 -0.14065914431E+04  0.14065914431E+04  0.50400001928E-02 0.  1.
    10030    2    1    2    0    0  0.00000000000E+00  0.00000000000E+00 -0.83025832523E+03  0.19829245610E+04  0.18007389949E+04 0.  0.
        1    1    3    3  502    0 -0.30384586904E+03  0.83282175687E+03 -0.24188827364E+03  0.91892563780E+03  0.50400001928E-02 0.  1.
       -1    1    3    3    0  502  0.30384586904E+03 -0.83282175687E+03 -0.58837005159E+03  0.10639989232E+04  0.50400001928E-02 0. -1.
</event>
<event>
 5   0  0.4494757E-05  0.1796382E+04  0.7818609E-02  0.8708226E-01
        1   -1    0    0  501    0  0.00000000000E+00  0.00000000000E+00  0.59964922368E+03  0.59964922370E+03  0.50400001928E-02 0. -1.
       -1   -1    0    0    0  501  0.00000000000E+00  0.00000000000E+00 -0.13453645453E+04  0.13453645453E+04  0.50400001928E-02 0.  1.
    10030    2    1    2    0    0  0.00000000000E+00  0.00000000000E+00 -0.74571532157E+03  0.19450137690E+04  0.17963817024E+04 0.  0.
        4    1    3    3  502    0 -0.70022569754E+03 -0.55968253129E+03 -0.31175593528E+03  0.94908057583E+03  0.12699999809E+01 0.  1.
       -4    1    3    3    0  502  0.70022569754E+03  0.55968253129E+03 -0.43395938629E+03  0.99593319313E+03  0.12699999809E+01 0. -1.
</event>
<event>
 5   0  0.8802655E-05  0.1808555E+04  0.7818609E-02  0.8701763E-01
        2   -1    0    0  501    0  0.00000000000E+00  0.00000000000E+00  0.50022804565E+03  0.50022804566E+03  0.25500000920E-02 0.  1.
       -2   -1    0    0    0  501  0.00000000000E+00  0.00000000000E+00 -0.16346896336E+04  0.16346896336E+04  0.25500000920E-02 0. -1.
    10030    2    1    2    0    0  0.00000000000E+00  0.00000000000E+00 -0.11344615879E+04  0.21349176793E+04  0.18085547829E+04 0.  0.
        2    1    3    3  502    0  0.68544247585E+03  0.40675285186E+03 -0.63025374064E+02  0.79953203061E+03  0.25500000920E-02 0.  1.
       -2    1    3    3    0  502 -0.68544247585E+03 -0.40675285186E+03 -0.10714362139E+04  0.13353856486E+04  0.25500000920E-02 0. -1.
</event>
<event>
 5   0  0.8893075E-05  0.1801265E+04  0.7818609E-02  0.8705627E-01
       -2   -1    0    0    0  501  0.00000000000E+00  0.00000000000E+00  0.93888646882E+03  0.93888646882E+03  0.25500000920E-02 0.  1.
        2   -1    0    0  501    0  0.00000000000E+00  0.00000000000E+00 -0.86393737745E+03  0.86393737745E+03  0.25500000920E-02 0. -1.
    10030    2    1    2    0    0  0.00000000000E+00  0.00000000000E+00  0.74949091370E+02  0.18028238463E+04  0.18012652371E+04 0.  0.
        1    1    3    3  502    0  0.59582543714E+03 -0.80427001986E+02  0.70862368667E+03  0.92931371642E+03  0.50400001928E-02 0.  1.
       -1    1    3    3    0  502 -0.59582543714E+03  0.80427001986E+02 -0.63367459530E+03  0.87351012985E+03  0.50400001928E-02 0. -1.
</event>
<event>
 5   0  0.9147432E-05  0.1808808E+04  0.7818609E-02  0.8701630E-01
       -2   -1    0    0    0  501  0.00000000000E+00  0.00000000000E+00  0.51023906357E+03  0.51023906357E+03  0.25500000920E-02 0. -1.
        2   -1    0    0  501    0  0.00000000000E+00  0.00000000000E+00 -0.16030651908E+04  0.16030651908E+04  0.25500000920E-02 0.  1.
    10030    2    1    2    0    0  0.00000000000E+00  0.00000000000E+00 -0.10928261272E+04  0.21133042543E+04  0.18088078746E+04 0.  0.
        3    1    3    3  502    0 -0.74128468243E+02 -0.95034220355E+02 -0.15936402065E+04  0.15981913686E+04  0.10100000352E+00 0.  1.
       -3    1    3    3    0  502  0.74128468243E+02  0.95034220355E+02  0.50081407927E+03  0.51511288572E+03  0.10100000352E+00 0. -1.
</event>
<event>
 5   0  0.8893075E-05  0.1793905E+04  0.7818609E-02  0.8709547E-01
       -2   -1    0    0    0  501  0.00000000000E+00  0.00000000000E+00  0.81407415249E+03  0.81407415249E+03  0.25500000920E-02 0. -1.
        2   -1    0    0  501    0  0.00000000000E+00  0.00000000000E+00 -0.98826844471E+03  0.98826844471E+03  0.25500000920E-02 0.  1.
    10030    2    1    2    0    0  0.00000000000E+00  0.00000000000E+00 -0.17419429222E+03  0.18023425972E+04  0.17939050104E+04 0.  0.
        1    1    3    3  502    0 -0.44116942820E+02 -0.62292970391E+03  0.55977592213E+03  0.83865177737E+03  0.50400001928E-02 0. -1.
       -1    1    3    3    0  502  0.44116942820E+02  0.62292970391E+03 -0.73397021435E+03  0.96369081984E+03  0.50400001928E-02 0.  1.
</event>
<event>
 5   0  0.8892280E-05  0.1772565E+04  0.7818609E-02  0.8721027E-01
        2   -1    0    0  501    0  0.00000000000E+00  0.00000000000E+00  0.12036261452E+04  0.12036261452E+04  0.25500000920E-02 0. -1.
       -2   -1    0    0    0  501  0.00000000000E+00  0.00000000000E+00 -0.65260843137E+03  0.65260843137E+03  0.25500000920E-02 0.  1.
    10030    2    1    2    0    0  0.00000000000E+00  0.00000000000E+00  0.55101771381E+03  0.18562345765E+04  0.17725648880E+04 0.  0.
        4    1    3    3  502    0 -0.55337270849E+03 -0.16963559691E+03 -0.42736411686E+03  0.71947153628E+03  0.12699999809E+01 0.  1.
       -4    1    3    3    0  502  0.55337270849E+03  0.16963559691E+03  0.97838183067E+03  0.11367630403E+04  0.12699999809E+01 0. -1.
</event>
<event>
 5   0  0.4335117E-05  0.1689214E+04  0.7818609E-02  0.8767540E-01
        1   -1    0    0  501    0  0.00000000000E+00  0.00000000000E+00  0.58203690128E+03  0.58203690131E+03  0.50400001928E-02 0.  1.
       -1   -1    0    0    0  501  0.00000000000E+00  0.00000000000E+00 -0.12256280467E+04  0.12256280467E+04  0.50400001928E-02 0. -1.
    10030    2    1    2    0    0  0.00000000000E+00  0.00000000000E+00 -0.64359114544E+03  0.18076649480E+04  0.16892137230E+04 0.  0.
        3    1    3    3  502    0  0.79466587607E+02 -0.41237811144E+03  0.46238571230E+03  0.62463685649E+03  0.10100000352E+00 0.  1.
       -3    1    3    3    0  502 -0.79466587607E+02  0.41237811144E+03 -0.11059768577E+04  0.11830280916E+04  0.10100000352E+00 0. -1.
</event>
<event>
 5   0  0.4535100E-05  0.1810432E+04  0.7818609E-02  0.8700771E-01
        1   -1    0    0  501    0  0.00000000000E+00  0.00000000000E+00  0.12320858455E+04  0.12320858455E+04  0.50400001928E-02 0. -1.
       -1   -1    0    0    0  501  0.00000000000E+00  0.00000000000E+00 -0.66506416962E+03  0.66506416964E+03  0.50400001928E-02 0.  1.
    10030    2    1    2    0    0  0.00000000000E+00  0.00000000000E+00  0.56702167587E+03  0.18971500151E+04  0.18104321581E+04 0.  0.
        1    1    3    3  502    0  0.10537922454E+02  0.74632782995E+03 -0.25317292711E+03  0.78817054538E+03  0.50400001928E-02 0.  1.
       -1    1    3    3    0  502 -0.10537922454E+02 -0.74632782995E+03  0.82019460298E+03  0.11089794698E+04  0.50400001928E-02 0. -1.
</event>
<event>
 5   0  0.3270375E-05  0.1806293E+04  0.7818609E-02  0.8702960E-01
        3   -1    0    0  501    0  0.00000000000E+00  0.00000000000E+00  0.18060367941E+04  0.18060367969E+04  0.10100000352E+00 0.  1.
       -3   -1    0    0    0  501  0.00000000000E+00  0.00000000000E+00 -0.45163706165E+03  0.45163707295E+03  0.10100000352E+00 0. -1.
    10030    2    1    2    0    0  0.00000000000E+00  0.00000000000E+00  0.13543997324E+04  0.22576738699E+04  0.18062925199E+04 0.  0.
        2    1    3    3  502    0  0.63038773832E+03  0.30139823112E+03  0.13924226786E+04  0.15579058092E+04  0.25500000920E-02 0.  1.
       -2    1    3    3    0  502 -0.63038773832E+03 -0.30139823112E+03 -0.38022946148E+02  0.69976806071E+03  0.25500000920E-02 0. -1.
</event>
<event>
 5   0  0.4535100E-05  0.1807288E+04  0.7818609E-02  0.8702433E-01
       -1   -1    0    0    0  501  0.00000000000E+00  0.00000000000E+00  0.86523339516E+03  0.86523339517E+03  0.50400001928E-02 0.  1.
        1   -1    0    0  501    0  0.00000000000E+00  0.00000000000E+00 -0.94376022217E+03  0.94376022218E+03  0.50400001928E-02 0. -1.
    10030    2    1    2    0    0  0.00000000000E+00  0.00000000000E+00 -0.78526827010E+02  0.18089936174E+04  0.18072884233E+04 0.  0.
        1    1    3    3  502    0 -0.37244180258E+03 -0.30062229783E+03 -0.80646307445E+03  0.93780027337E+03  0.50400001928E-02 0. -1.
       -1    1    3    3    0  502  0.37244180258E+03  0.30062229783E+03  0.72793624744E+03  0.87119334399E+03  0.50400001928E-02 0.  1.
</event>
<event>
 5   0  0.4494757E-05  0.1789593E+04  0.7818609E-02  0.8711854E-01
       -1   -1    0    0    0  501  0.00000000000E+00  0.00000000000E+00  0.58474281725E+03  0.58474281727E+03  0.50400001928E-02 0. -1.
        1   -1    0    0  501    0  0.00000000000E+00  0.00000000000E+00 -0.13692523223E+04  0.13692523224E+04  0.50400001928E-02 0.  1.
    10030    2    1    2    0    0  0.00000000000E+00  0.00000000000E+00 -0.78450950509E+03  0.19539951396E+04  0.17895926470E+04 0.  0.
        4    1    3    3  502    0  0.28195701293E+03 -0.43748422561E+03  0.40246058917E+03  0.65792730870E+03  0.12699999809E+01 0. -1.
       -4    1    3    3    0  502 -0.28195701293E+03  0.43748422561E+03 -0.11869700943E+04  0.12960678309E+04  0.12699999809E+01 0.  1.
</event>
<event>
 5   0  0.4335117E-05  0.1787824E+04  0.7818609E-02  0.8712802E-01
        1   -1    0    0  501    0  0.00000000000E+00  0.00000000000E+00  0.17022191865E+04  0.17022191865E+04  0.50400001928E-02 0.  1.
       -1   -1    0    0    0  501  0.00000000000E+00  0.00000000000E+00 -0.46943336086E+03  0.46943336089E+03  0.50400001928E-02 0. -1.
    10030    2    1    2    0    0  0.00000000000E+00  0.00000000000E+00  0.12327858257E+04  0.21716525474E+04  0.17878237874E+04 0.  0.
        3    1    3    3  502    0 -0.38470694565E+03  0.70806259128E+03  0.14637455990E+03  0.81901012764E+03  0.10100000352E+00 0. -1.
       -3    1    3    3    0  502  0.38470694565E+03 -0.70806259128E+03  0.10864112658E+04  0.13526424198E+04  0.10100000352E+00 0.  1.
</event>
<event>
 5   0  0.8892280E-05  0.1800816E+04  0.7818609E-02  0.8705866E-01
        2   -1    0    0  501    0  0.00000000000E+00  0.00000000000E+00  0.76095684101E+03  0.76095684102E+03  0.25500000920E-02 0.  1.
       -2   -1    0    0    0  501  0.00000000000E+00  0.00000000000E+00 -0.10654149532E+04  0.10654149532E+04  0.25500000920E-02 0. -1.
    10030    2    1    2    0    0  0.00000000000E+00  0.00000000000E+00 -0.30445811216E+03  0.18263717942E+04  0.18008162562E+04 0.  0.
        4    1    3    3  502    0  0.36282246115E+03 -0.21293402805E+03 -0.95961188793E+03  0.10477774702E+04  0.12699999809E+01 0. -1.
       -4    1    3    3    0  502 -0.36282246115E+03  0.21293402805E+03  0.65515377577E+03  0.77859432404E+03  0.12699999809E+01 0.  1.
</event>
<event>
 5   0  0.4578107E-05  0.1805235E+04  0.7818609E-02  0.8703521E-01
        1   -1    0    0  501    0  0.00000000000E+00  0.00000000000E+00  0.11508584973E+04  0.11508584973E+04  0.50400001928E-02 0. -1.
       -1   -1    0    0    0  501  0.00000000000E+00  0.00000000000E+00 -0.70792219447E+03  0.70792219448E+03  0.50400001928E-02 0.  1.
    10030    2    1    2    0    0  0.00000000000E+00  0.00000000000E+00  0.44293630285E+03  0.18587806918E+04  0.18052349132E+04 0.  0.
        2    1    3    3  502    0  0.61228835399E+03 -0.64999124826E+03  0.35702658996E+03  0.96169310967E+03  0.25500000920E-02 0. -1.
       -2    1    3    3    0  502 -0.61228835399E+03  0.64999124826E+03  0.85909712897E+02  0.89708758214E+03  0.25500000920E-02 0.  1.
</event>
<event>
 5   0  0.4335117E-05  0.1803685E+04  0.7818609E-02  0.8704342E-01
       -1   -1    0    0    0  501  0.00000000000E+00  0.00000000000E+00  0.42058370210E+03  0.42058370213E+03  0.50400001928E-02 0. -1.
        1   -1    0    0  501    0  0.00000000000E+00  0.00000000000E+00 -0.19337876523E+04  0.19337876523E+04  0.50400001928E-02 0.  1.
    10030    2    1    2    0    0  0.00000000000E+00  0.00000000000E+00 -0.15132039502E+04  0.23543713544E+04  0.18036846397E+04 0.  0.
        3    1    3    3  502    0 -0.81078091144E+03  0.42205747763E+02 -0.24407363621E+03  0.84777294224E+03  0.10100000352E+00 0. -1.
       -3    1    3    3    0  502  0.81078091144E+03 -0.42205747763E+02 -0.12691303140E+04  0.15065984122E+04  0.10100000352E+00 0.  1.
</event>
<event>
 5   0  0.9184414E-05  0.1793326E+04  0.7818609E-02  0.8709857E-01
       -2   -1    0    0    0  501  0.00000000000E+00  0.00000000000E+00  0.51363181656E+03  0.51363181657E+03  0.25500000920E-02 0. -1.
        2   -1    0    0  501    0  0.00000000000E+00  0.00000000000E+00 -0.15653322717E+04  0.15653322717E+04  0.25500000920E-02 0.  1.
    10030    2    1    2    0    0  0.00000000000E+00  0.00000000000E+00 -0.10517004551E+04  0.20789640883E+04  0.17933259138E+04 0.  0.
        5    1    3    3  502    0 -0.33109290032E+03 -0.80838214312E+03 -0.29146324530E+03  0.92091102248E+03  0.46999998093E+01 0. -1.
       -5    1    3    3    0  502  0.33109290032E+03  0.80838214312E+03 -0.76023720982E+03  0.11580530658E+04  0.46999998093E+01 0.  1.
</event>
<event>
 5   0  0.4578107E-05  0.1804904E+04  0.7818609E-02  0.8703696E-01
        1   -1    0    0  501    0  0.00000000000E+00  0.00000000000E+00  0.17045575473E+04  0.17045575473E+04  0.50400001928E-02 0.  1.
       -1   -1    0    0    0  501  0.00000000000E+00  0.00000000000E+00 -0.47778947672E+03  0.47778947674E+03  0.50400001928E-02 0. -1.
    10030    2    1    2    0    0  0.00000000000E+00  0.00000000000E+00  0.12267680706E+04  0.21823470240E+04  0.18049040513E+04 0.  0.
        2    1    3    3  502    0 -0.57625154534E+03 -0.32908193739E+03 -0.12611852750E+03  0.67547512760E+03  0.25500000920E-02 0. -1.
       -2    1    3    3    0  502  0.57625154534E+03  0.32908193739E+03  0.13528865981E+04  0.15068718964E+04  0.25500000920E-02 0.  1.
</event>
<event>
 5   0  0.4623665E-05  0.1802710E+04  0.7818609E-02  0.8704860E-01
       -1   -1    0    0    0  501  0.00000000000E+00  0.00000000000E+00  0.61263303053E+03  0.61263303055E+03  0.50400001928E-02 0. -1.
        1   -1    0    0  501    0  0.00000000000E+00  0.00000000000E+00 -0.13261456576E+04  0.13261456576E+04  0.50400001928E-02 0.  1.
    10030    2    1    2    0    0  0.00000000000E+00  0.00000000000E+00 -0.71351262709E+03  0.19387786882E+04  0.18027097750E+04 0.  0.
        5    1    3    3  502    0 -0.54233278981E+03  0.76878987686E+01  0.41746588570E+03  0.68445877481E+03  0.46999998093E+01 0. -1.
       -5    1    3    3    0  502  0.54233278981E+03 -0.76878987686E+01 -0.11309785128E+04  0.12543199134E+04  0.46999998093E+01 0.  1.
</event>
<event>
 5   0  0.4623665E-05  0.1754960E+04  0.7818609E-02  0.8730625E-01
        1   -1    0    0  501    0  0.00000000000E+00  0.00000000000E+00  0.11430157364E+04  0.11430157364E+04  0.50400001928E-02 0. -1.
       -1   -1    0    0    0  501  0.00000000000E+00  0.00000000000E+00 -0.67363119710E+03  0.67363119712E+03  0.50400001928E-02 0.  1.
    10030    2    1    2    0    0  0.00000000000E+00  0.00000000000E+00  0.46938453930E+03  0.18166469335E+04  0.17549598957E+04 0.  0.
        5    1    3    3  502    0  0.26326072608E+03  0.20545053143E+03  0.10746531786E+04  0.11253522449E+04  0.46999998093E+01 0. -1.
       -5    1    3    3    0  502 -0.26326072608E+03 -0.20545053143E+03 -0.60526863934E+03  0.69129468863E+03  0.46999998093E+01 0.  1.
</event>
<event>
 5   0  0.8802655E-05  0.1801744E+04  0.7818609E-02  0.8705372E-01
       -2   -1    0    0    0  501  0.00000000000E+00  0.00000000000E+00  0.18626933439E+04  0.18626933439E+04  0.25500000920E-02 0. -1.
        2   -1    0    0  501    0  0.00000000000E+00  0.00000000000E+00 -0.43569743948E+03  0.43569743949E+03  0.25500000920E-02 0.  1.
    10030    2    1    2    0    0  0.00000000000E+00  0.00000000000E+00  0.14269959044E+04  0.22983907834E+04  0.18017443997E+04 0.  0.
        2    1    3    3  502    0 -0.71941457856E+03  0.50840391127E+03  0.47301607051E+03  0.99988803164E+03  0.25500000920E-02 0.  1.
       -2    1    3    3    0  502  0.71941457856E+03 -0.50840391127E+03  0.95397983393E+03  0.12985027518E+04  0.25500000920E-02 0. -1.
</event>
<event>
 5   0  0.8802655E-05  0.1815523E+04  0.7818609E-02  0.8698088E-01
       -2   -1    0    0    0  501  0.00000000000E+00  0.00000000000E+00  0.46676069092E+03  0.46676069093E+03  0.25500000920E-02 0.  1.
        2   -1    0    0  501    0  0.00000000000E+00  0.00000000000E+00 -0.17654241595E+04  0.17654241595E+04  0.25500000920E-02 0. -1.
    10030    2    1    2    0    0  0.00000000000E+00  0.00000000000E+00 -0.12986634686E+04  0.22321848505E+04  0.18155226250E+04 0.  0.
        2    1    3    3  502    0  0.80662902227E+03 -0.41563949441E+03 -0.68004540912E+03  0.11339613430E+04  0.25500000920E-02 0. -1.
       -2    1    3    3    0  502 -0.80662902227E+03  0.41563949441E+03 -0.61861805947E+03  0.10982235075E+04  0.25500000920E-02 0.  1.
</event>
<event>
 5   0  0.9184414E-05  0.1814977E+04  0.7818609E-02  0.8698375E-01
        2   -1    0    0  501    0  0.00000000000E+00  0.00000000000E+00  0.20799867807E+04  0.20799867807E+04  0.25500000920E-02 0. -1.
       -2   -1    0    0    0  501  0.00000000000E+00  0.00000000000E+00 -0.39593294508E+03  0.39593294509E+03  0.25500000920E-02 0.  1.
    10030    2    1    2    0    0  0.00000000000E+00  0.00000000000E+00  0.16840538356E+04  0.24759197258E+04  0.18149769054E+04 0.  0.
        5    1    3    3  502    0 -0.17780977040E+03 -0.52394928552E+03 -0.13919619775E+03  0.57055835785E+03  0.46999998093E+01 0.  1.
       -5    1    3    3    0  502  0.17780977040E+03  0.52394928552E+03  0.18232500334E+04  0.19053613680E+04  0.46999998093E+01 0. -1.
</event>
<event>
 5   0  0.8892280E-05  0.1799890E+04  0.7818609E-02  0.8706358E-01
       -2   -1    0    0    0  501  0.00000000000E+00  0.00000000000E+00  0.29541218733E+03  0.29541218734E+03  0.25500000920E-02 0. -1.
        2   -1    0    0  501    0  0.00000000000E+00  0.00000000000E+00 -0.27415960831E+04  0.27415960831E+04  0.25500000920E-02 0.  1.
    10030    2    1    2    0    0  0.00000000000E+00  0.00000000000E+00 -0.24461838958E+04  0.30370082705E+04  0.17998898807E+04 0.  0.
        4    1    3    3  502    0 -0.53697478973E+03 -0.35697807819E+03 -0.22823858825E+04  0.23717213585E+04  0.12699999809E+01 0.  1.
       -4    1    3    3    0  502  0.53697478973E+03  0.35697807819E+03 -0.16379801332E+03  0.66528691193E+03  0.12699999809E+01 0. -1.
</event>
<event>
 5   0  0.4535100E-05  0.1827858E+04  0.7818609E-02  0.8691624E-01
        1   -1    0    0  501    0  0.00000000000E+00  0.00000000000E+00  0.94758324298E+03  0.94758324300E+03  0.50400001928E-02 0. -1.
       -1   -1    0    0    0  501  0.00000000000E+00  0.00000000000E+00 -0.88146982626E+03  0.88146982628E+03  0.50400001928E-02 0.  1.
    10030    2    1    2    0    0  0.00000000000E+00  0.00000000000E+00  0.66113416722E+02  0.18290530693E+04  0.18278578026E+04 0.  0.
        1    1    3    3  502    0 -0.34014974781E+03  0.26169629909E+03 -0.77436574254E+03  0.88534123769E+03  0.50400001928E-02 0.  1.
       -1    1    3    3    0  502  0.34014974781E+03 -0.26169629909E+03  0.84047915926E+03  0.94371183159E+03  0.50400001928E-02 0. -1.
</event>
<event>
 5   0  0.8892280E-05  0.1799494E+04  0.7818609E-02  0.8706569E-01
        2   -1    0    0  501    0  0.00000000000E+00  0.00000000000E+00  0.87444632140E+03  0.87444632141E+03  0.25500000920E-02 0.  1.
       -2   -1    0    0    0  501  0.00000000000E+00  0.00000000000E+00 -0.92577931239E+03  0.92577931239E+03  0.25500000920E-02 0. -1.
    10030    2    1    2    0    0  0.00000000000E+00  0.00000000000E+00 -0.51332990988E+02  0.18002256338E+04  0.17994936112E+04 0.  0.
        4    1    3    3  502    0 -0.61622307785E+03 -0.12498238978E+03 -0.66950519510E+03  0.91847171900E+03  0.12699999809E+01 0. -1.
       -4    1    3    3    0  502  0.61622307785E+03  0.12498238978E+03  0.61817220411E+03  0.88175391480E+03  0.12699999809E+01 0.  1.
</event>
<event>
 5   0  0.4494757E-05  0.1803138E+04  0.7818609E-02  0.8704632E-01
        1   -1    0    0  501    0  0.00000000000E+00  0.00000000000E+00  0.11082318597E+04  0.11082318597E+04  0.50400001928E-02 0.  1.
       -1   -1    0    0    0  501  0.00000000000E+00  0.00000000000E+00 -0.73344489292E+03  0.73344489294E+03  0.50400001928E-02 0. -1.
    10030    2    1    2    0    0  0.00000000000E+00  0.00000000000E+00  0.37478696678E+03  0.18416767527E+04  0.18031383726E+04 0.  0.
        4    1    3    3  502    0 -0.37659981566E+03  0.42493188146E+03 -0.52788184476E+03  0.77527761477E+03  0.12699999809E+01 0. -1.
       -4    1    3    3    0  502  0.37659981566E+03 -0.42493188146E+03  0.90266881155E+03  0.10663991379E+04  0.12699999809E+01 0.  1.
</event>
<event>
 5   0  0.8893075E-05  0.1769998E+04  0.7818609E-02  0.8722419E-01
       -2   -1    0    0    0  501  0.00000000000E+00  0.00000000000E+00  0.10713831369E+04  0.10713831369E+04  0.25500000920E-02 0. -1.
        2   -1    0    0  501    0  0.00000000000E+00  0.00000000000E+00 -0.73103942041E+03  0.73103942041E+03  0.25500000920E-02 0.  1.
    10030    2    1    2    0    0  0.00000000000E+00  0.00000000000E+00  0.34034371647E+03  0.18024225573E+04  0.17699980875E+04 0.  0.
        1    1    3    3  502    0  0.26285180408E+03  0.59930060419E+03  0.77688062093E+03  0.10157734906E+04  0.50400001928E-02 0. -1.
       -1    1    3    3    0  502 -0.26285180408E+03 -0.59930060419E+03 -0.43653690446E+03  0.78664906665E+03  0.50400001928E-02 0.  1.
</event>
<event>
 5   0  0.4335117E-05  0.1804151E+04  0.7818609E-02  0.8704095E-01
       -1   -1    0    0    0  501  0.00000000000E+00  0.00000000000E+00  0.70979249569E+03  0.70979249571E+03  0.50400001928E-02 0. -1.
        1   -1    0    0  501    0  0.00000000000E+00  0.00000000000E+00 -0.11464480087E+04  0.11464480087E+04  0.50400001928E-02 0.  1.
    10030    2    1    2    0    0  0.00000000000E+00  0.00000000000E+00 -0.43665551301E+03  0.18562405044E+04  0.18041509840E+04 0.  0.
        3    1    3    3  502    0 -0.78558966510E+03 -0.36653626054E+03 -0.47501067172E+03  0.98850144191E+03  0.10100000352E+00 0.  1.
       -3    1    3    3    0  502  0.78558966510E+03  0.36653626054E+03  0.38355158708E+02  0.86773906251E+03  0.10100000352E+00 0. -1.
</event>
<event>
 5   0  0.9147432E-05  0.1807741E+04  0.7818609E-02  0.8702194E-01
       -2   -1    0    0    0  501  0.00000000000E+00  0.00000000000E+00  0.51649378709E+03  0.51649378710E+03  0.25500000920E-02 0. -1.
        2   -1    0    0  501    0  0.00000000000E+00  0.00000000000E+00 -0.15817851911E+04  0.15817851911E+04  0.25500000920E-02 0.  1.
    10030    2    1    2    0    0  0.00000000000E+00  0.00000000000E+00 -0.10652914040E+04  0.20982789782E+04  0.18077413794E+04 0.  0.
        3    1    3    3  502    0 -0.25287831158E+02 -0.56829483212E+03 -0.13479492631E+04  0.14630672291E+04  0.10100000352E+00 0.  1.
       -3    1    3    3    0  502  0.25287831158E+02  0.56829483212E+03  0.28265785917E+03  0.63521174908E+03  0.10100000352E+00 0. -1.
</event>
<event>
 5   0  0.4623665E-05  0.1805315E+04  0.7818609E-02  0.8703478E-01
       -1   -1    0    0    0  501  0.00000000000E+00  0.00000000000E+00  0.29811458825E+03  0.29811458829E+03  0.50400001928E-02 0.  1.
        1   -1    0    0  501    0  0.00000000000E+00  0.00000000000E+00 -0.27331447736E+04  0.27331447736E+04  0.50400001928E-02 0. -1.
    10030    2    1    2    0    0  0.00000000000E+00  0.00000000000E+00 -0.24350301854E+04  0.30312593619E+04  0.18053147414E+04 0.  0.
        5    1    3    3  502    0 -0.27474115984E+03 -0.77961954363E+03 -0.18263481174E+04  0.20047091744E+04  0.46999998093E+01 0.  1.
       -5    1    3    3    0  502  0.27474115984E+03  0.77961954363E+03 -0.60868206792E+03  0.10265501875E+04  0.46999998093E+01 0. -1.
</event>
<event>
 5   0  0.8893075E-05  0.1797303E+04  0.7818609E-02  0.8707735E-01
       -2   -1    0    0    0  501  0.00000000000E+00  0.00000000000E+00  0.60073576253E+03  0.60073576254E+03  0.25500000920E-02 0.  1.
        2   -1    0    0  501    0  0.00000000000E+00  0.00000000000E+00 -0.13443094316E+04  0.13443094316E+04  0.25500000920E-02 0. -1.
    10030    2    1    2    0    0  0.00000000000E+00  0.00000000000E+00 -0.74357366909E+03  0.19450451942E+04  0.17973032593E+04 0.  0.
        1    1    3    3  502    0  0.51751393830E+03 -0.50564504709E+03  0.20501481654E+03  0.75201639942E+03  0.50400001928E-02 0.  1.
       -1    1    3    3    0  502 -0.51751393830E+03  0.50564504709E+03 -0.94858848563E+03  0.11930287947E+04  0.50400001928E-02 0. -1.
</event>
<event>
 5   0  0.9147432E-05  0.1819582E+04  0.7818609E-02  0.8695955E-01
       -2   -1    0    0    0  501  0.00000000000E+00  0.00000000000E+00  0.85192056398E+03  0.85192056399E+03  0.25500000920E-02 0.  1.
        2   -1    0    0  501    0  0.00000000000E+00  0.00000000000E+00 -0.97159292729E+03  0.97159292729E+03  0.25500000920E-02 0. -1.
    10030    2    1    2    0    0  0.00000000000E+00  0.00000000000E+00 -0.11967236331E+03  0.18235134913E+04  0.18195823637E+04 0.  0.
        3    1    3    3  502    0 -0.49140536621E+03  0.20501314749E+01 -0.82715121487E+03  0.96211360007E+03  0.10100000352E+00 0. -1.
       -3    1    3    3    0  502  0.49140536621E+03 -0.20501314749E+01  0.70747885156E+03  0.86139989121E+03  0.10100000352E+00 0.  1.
</event>
<event>
 5   0  0.3270375E-05  0.1797649E+04  0.7818609E-02  0.8707551E-01
       -3   -1    0    0    0  501  0.00000000000E+00  0.00000000000E+00  0.77653377188E+03  0.77653377845E+03  0.10100000352E+00 0.  1.
        3   -1    0    0  501    0  0.00000000000E+00  0.00000000000E+00 -0.10403734905E+04  0.10403734954E+04  0.10100000352E+00 0. -1.
    10030    2    1    2    0    0  0.00000000000E+00  0.00000000000E+00 -0.26383971864E+03  0.18169072739E+04  0.17976486433E+04 0.  0.
        2    1    3    3  502    0  0.33568060136E+03  0.80426760789E+03 -0.35417868688E+03  0.94072865029E+03  0.25500000920E-02 0. -1.
       -2    1    3    3    0  502 -0.33568060136E+03 -0.80426760789E+03  0.90338968239E+02  0.87617862358E+03  0.25500000920E-02 0.  1.
</event>
<event>
 5   0  0.4494757E-05  0.1790831E+04  0.7818609E-02  0.8711190E-01
       -1   -1    0    0    0  501  0.00000000000E+00  0.00000000000E+00  0.44528358852E+03  0.44528358854E+03  0.50400001928E-02 0.  1.
        1   -1    0    0  501    0  0.00000000000E+00  0.00000000000E+00 -0.18005813272E+04  0.18005813272E+04  0.50400001928E-02 0. -1.
    10030    2    1    2    0    0  0.00000000000E+00  0.00000000000E+00 -0.13552977387E+04  0.22458649158E+04  0.17908314436E+04 0.  0.
        4    1    3    3  502    0 -0.72370673995E+03 -0.52344343955E+03 -0.75719442567E+03  0.11709353061E+04  0.12699999809E+01 0. -1.
       -4    1    3    3    0  502  0.72370673995E+03  0.52344343955E+03 -0.59810331305E+03  0.10749296097E+04  0.12699999809E+01 0.  1.
</event>
<event>
 5   0  0.4578107E-05  0.1793656E+04  0.7818609E-02  0.8709680E-01
        1   -1    0    0  501    0  0.00000000000E+00  0.00000000000E+00  0.70166713088E+03  0.70166713090E+03  0.50400001928E-02 0.  1.
       -1   -1    0    0    0  501  0.00000000000E+00  0.00000000000E+00 -0.11462711986E+04  0.11462711986E+04  0.50400001928E-02 0. -1.
    10030    2    1    2    0    0  0.00000000000E+00  0.00000000000E+00 -0.44460406769E+03  0.18479383295E+04  0.17936564031E+04 0.  0.
        2    1    3    3  502    0  0.70660256922E+03 -0.22749947883E+03 -0.74077901706E+03  0.10487119508E+04  0.25500000920E-02 0. -1.
       -2    1    3    3    0  502 -0.70660256922E+03  0.22749947883E+03  0.29617494937E+03  0.79922637865E+03  0.25500000920E-02 0.  1.
</event>
<event>
 5   0  0.8892280E-05  0.1800009E+04  0.7818609E-02  0.8706295E-01
       -2   -1    0    0    0  501  0.00000000000E+00  0.00000000000E+00  0.44985864299E+03  0.44985864300E+03  0.25500000920E-02 0.  1.
        2   -1    0    0  501    0  0.00000000000E+00  0.00000000000E+00 -0.18005842226E+04  0.18005842226E+04  0.25500000920E-02 0. -1.
    10030    2    1    2    0    0  0.00000000000E+00  0.00000000000E+00 -0.13507255796E+04  0.22504428656E+04  0.18000093055E+04 0.  0.
        4    1    3    3  502    0  0.51272411083E+03 -0.44416295966E+03 -0.14148454277E+04  0.15690621230E+04  0.12699999809E+01 0. -1.
       -4    1    3    3    0  502 -0.51272411083E+03  0.44416295966E+03  0.64119848119E+02  0.68138074260E+03  0.12699999809E+01 0.  1.
</event>
<event>
 5   0  0.8893075E-05  0.1779092E+04  0.7818609E-02  0.8717498E-01
        2   -1    0    0  501    0  0.00000000000E+00  0.00000000000E+00  0.67089334714E+03  0.67089334715E+03  0.25500000920E-02 0. -1.
       -2   -1    0    0    0  501  0.00000000000E+00  0.00000000000E+00 -0.11794597923E+04  0.11794597924E+04  0.25500000920E-02 0.  1.
    10030    2    1    2    0    0  0.00000000000E+00  0.00000000000E+00 -0.50856644520E+03  0.18503531395E+04  0.17790915973E+04 0.  0.
        1    1    3    3  502    0 -0.77162819543E+03 -0.14619633309E+03 -0.68875777243E+03  0.10445911683E+04  0.50400001928E-02 0. -1.
       -1    1    3    3    0  502  0.77162819543E+03  0.14619633309E+03  0.18019132722E+03  0.80576197120E+03  0.50400001928E-02 0.  1.
</event>
<event>
 5   0  0.4535100E-05  0.1790192E+04  0.7818609E-02  0.8711533E-01
       -1   -1    0    0    0  501  0.00000000000E+00  0.00000000000E+00  0.39752862434E+03  0.39752862437E+03  0.50400001928E-02 0. -1.
        1   -1    0    0  501    0  0.00000000000E+00  0.00000000000E+00 -0.20154440813E+04  0.20154440813E+04  0.50400001928E-02 0.  1.
    10030    2    1    2    0    0  0.00000000000E+00  0.00000000000E+00 -0.16179154570E+04  0.24129727057E+04  0.17901918480E+04 0.  0.
        1    1    3    3  502    0 -0.83816428859E+03  0.10281955818E+03 -0.40887086917E+03  0.93822525222E+03  0.50400001928E-02 0. -1.
       -1    1    3    3    0  502  0.83816428859E+03 -0.10281955818E+03 -0.12090445878E+04  0.14747474535E+04  0.50400001928E-02 0.  1.
</event>
<event>
 5   0  0.9184414E-05  0.1777962E+04  0.7818609E-02  0.8718108E-01
        2   -1    0    0  501    0  0.00000000000E+00  0.00000000000E+00  0.28019537380E+04  0.28019537380E+04  0.25500000920E-02 0.  1.
       -2   -1    0    0    0  501  0.00000000000E+00  0.00000000000E+00 -0.28204854814E+03  0.28204854815E+03  0.25500000920E-02 0. -1.
    10030    2    1    2    0    0  0.00000000000E+00  0.00000000000E+00  0.25199051899E+04  0.30840022862E+04  0.17779617361E+04 0.  0.
        5    1    3    3  502    0  0.99147803405E+02  0.77070219509E+03  0.51096149293E+03  0.93000854710E+03  0.46999998093E+01 0.  1.
       -5    1    3    3    0  502 -0.99147803405E+02 -0.77070219509E+03  0.20089436969E+04  0.21539937390E+04  0.46999998093E+01 0. -1.
</event>
<event>
 5   0  0.4494757E-05  0.1806108E+04  0.7818609E-02  0.8703058E-01
        1   -1    0    0  501    0  0.00000000000E+00  0.00000000000E+00  0.19450160396E+04  0.19450160396E+04  0.50400001928E-02 0. -1.
       -1   -1    0    0    0  501  0.00000000000E+00  0.00000000000E+00 -0.41928012325E+03  0.41928012328E+03  0.50400001928E-02 0.  1.
    10030    2    1    2    0    0  0.00000000000E+00  0.00000000000E+00  0.15257359164E+04  0.23642961629E+04  0.18061080420E+04 0.  0.
        4    1    3    3  502    0  0.45407028371E+03  0.76723601424E+03  0.95109009508E+03  0.13036122529E+04  0.12699999809E+01 0.  1.
       -4    1    3    3    0  502 -0.45407028371E+03 -0.76723601424E+03  0.57464582130E+03  0.10606839100E+04  0.12699999809E+01 0. -1.
</event>
<event>
 5   0  0.4335117E-05  0.1795797E+04  0.7818609E-02  0.8708538E-01
       -1   -1    0    0    0  501  0.00000000000E+00  0.00000000000E+00  0.13912110221E+04  0.13912110221E+04  0.50400001928E-02 0. -1.
        1   -1    0    0  501    0  0.00000000000E+00  0.00000000000E+00 -0.57951058433E+03  0.57951058436E+03  0.50400001928E-02 0.  1.
    10030    2    1    2    0    0  0.00000000000E+00  0.00000000000E+00  0.81170043773E+03  0.19707216064E+04  0.17957967729E+04 0.  0.
        3    1    3    3  502    0  0.19351535269E+03  0.57265269694E+03 -0.32278418160E+03  0.68525100593E+03  0.10100000352E+00 0.  1.
       -3    1    3    3    0  502 -0.19351535269E+03 -0.57265269694E+03  0.11344846193E+04  0.12854706005E+04  0.10100000352E+00 0. -1.
</event>
<event>
 5   0  0.4578107E-05  0.1796243E+04  0.7818609E-02  0.8708300E-01
       -1   -1    0    0    0  501  0.00000000000E+00  0.00000000000E+00  0.31798072778E+03  0.31798072782E+03  0.50400001928E-02 0. -1.
        1   -1    0    0  501    0  0.00000000000E+00  0.00000000000E+00 -0.25367024135E+04  0.25367024135E+04  0.50400001928E-02 0.  1.
    10030    2    1    2    0    0  0.00000000000E+00  0.00000000000E+00 -0.22187216857E+04  0.28546831413E+04  0.17962432794E+04 0.  0.
        2    1    3    3  502    0  0.24711657169E+03 -0.47269073999E+03 -0.22577197567E+04  0.23198710386E+04  0.25500000920E-02 0.  1.
       -2    1    3    3    0  502 -0.24711657169E+03  0.47269073999E+03  0.38998071022E+02  0.53481210273E+03  0.25500000920E-02 0. -1.
</event>
<event>
 5   0  0.8892280E-05  0.1728878E+04  0.7818609E-02  0.8745064E-01
       -2   -1    0    0    0  501  0.00000000000E+00  0.00000000000E+00  0.67347400344E+03  0.67347400344E+03  0.25500000920E-02 0.  1.
        2   -1    0    0  501    0  0.00000000000E+00  0.00000000000E+00 -0.11095520261E+04  0.11095520261E+04  0.25500000920E-02 0. -1.
    10030    2    1    2    0    0  0.00000000000E+00  0.00000000000E+00 -0.43607802265E+03  0.17830260295E+04  0.17288776070E+04 0.  0.
        4    1    3    3  502    0  0.74452138428E+03  0.67732634181E+02  0.22955033466E+03  0.78204524832E+03  0.12699999809E+01 0.  1.
       -4    1    3    3    0  502 -0.74452138428E+03 -0.67732634181E+02 -0.66562835731E+03  0.10009807812E+04  0.12699999809E+01 0. -1.
</event>
<event>
 5   0  0.4535100E-05  0.1800958E+04  0.7818609E-02  0.8705790E-01
       -1   -1    0    0    0  501  0.00000000000E+00  0.00000000000E+00  0.94106803778E+03  0.94106803779E+03  0.50400001928E-02 0.  1.
        1   -1    0    0  501    0  0.00000000000E+00  0.00000000000E+00 -0.86164059969E+03  0.86164059970E+03  0.50400001928E-02 0. -1.
    10030    2    1    2    0    0  0.00000000000E+00  0.00000000000E+00  0.79427438090E+02  0.18027086375E+04  0.18009579989E+04 0.  0.
        1    1    3    3  502    0  0.33991952365E+02 -0.54375578614E+03  0.75737412262E+03  0.93297447416E+03  0.50400001928E-02 0.  1.
       -1    1    3    3    0  502 -0.33991952365E+02  0.54375578614E+03 -0.67794668453E+03  0.86973416334E+03  0.50400001928E-02 0. -1.
</event>
<event>
 5   0  0.4335117E-05  0.1793285E+04  0.7818609E-02  0.8709879E-01
        1   -1    0    0  501    0  0.00000000000E+00  0.00000000000E+00  0.12727334622E+04  0.12727334623E+04  0.50400001928E-02 0. -1.
       -1   -1    0    0    0  501  0.00000000000E+00  0.00000000000E+00 -0.63168554396E+03  0.63168554398E+03  0.50400001928E-02 0.  1.
    10030    2    1    2    0    0  0.00000000000E+00  0.00000000000E+00  0.64104791829E+03  0.19044190062E+04  0.17932845055E+04 0.  0.
        3    1    3    3  502    0  0.67140750124E+03  0.54913090628E+03  0.79209445352E+02  0.87098044259E+03  0.10100000352E+00 0.  1.
       -3    1    3    3    0  502 -0.67140750124E+03 -0.54913090628E+03  0.56183847294E+03  0.10334385636E+04  0.10100000352E+00 0. -1.
</event>
<event>
 5   0  0.8802655E-05  0.1798958E+04  0.7818609E-02  0.8706854E-01
       -2   -1    0    0    0  501  0.00000000000E+00  0.00000000000E+00  0.60433499590E+03  0.60433499590E+03  0.25500000920E-02 0. -1.
        2   -1    0    0  501    0  0.00000000000E+00  0.00000000000E+00 -0.13387642277E+04  0.13387642277E+04  0.25500000920E-02 0.  1.
    10030    2    1    2    0    0  0.00000000000E+00  0.00000000000E+00 -0.73442923180E+03  0.19430992236E+04  0.17989575582E+04 0.  0.
        2    1    3    3  502    0  0.46408826094E+03 -0.39148563256E+03 -0.10840329998E+04  0.12424839875E+04  0.25500000920E-02 0.  1.
       -2    1    3    3    0  502 -0.46408826094E+03  0.39148563256E+03  0.34960376803E+03  0.70061523611E+03  0.25500000920E-02 0. -1.
</event>
<event>
 5   0  0.8892280E-05  0.1806873E+04  0.7818609E-02  0.8702653E-01
        2   -1    0    0  501    0  0.00000000000E+00  0.00000000000E+00  0.82210804577E+03  0.82210804578E+03  0.25500000920E-02 0.  1.
       -2   -1    0    0    0  501  0.00000000000E+00  0.00000000000E+00 -0.99281058485E+03  0.99281058485E+03  0.25500000920E-02 0. -1.
    10030    2    1    2    0    0  0.00000000000E+00  0.00000000000E+00 -0.17070253907E+03  0.18149186306E+04  0.18068730666E+04 0.  0.
        4    1    3    3  502    0  0.19761411876E+03  0.51840613053E+03 -0.80154770902E+03  0.97482131636E+03  0.12699999809E+01 0. -1.
       -4    1    3    3    0  502 -0.19761411876E+03 -0.51840613053E+03  0.63084516994E+03  0.84009731427E+03  0.12699999809E+01 0.  1.
</event>
<event>
 5   0  0.4623665E-05  0.1779502E+04  0.7818609E-02  0.8717277E-01
       -1   -1    0    0    0  501  0.00000000000E+00  0.00000000000E+00  0.74460580890E+03  0.74460580891E+03  0.50400001928E-02 0. -1.
        1   -1    0    0  501    0  0.00000000000E+00  0.00000000000E+00 -0.10631888865E+04  0.10631888865E+04  0.50400001928E-02 0.  1.
    10030    2    1    2    0    0  0.00000000000E+00  0.00000000000E+00 -0.31858307761E+03  0.18077946954E+04  0.17795017515E+04 0.  0.
        5    1    3    3  502    0  0.40073736299E+03  0.46449775319E+03  0.49538126309E+03  0.78852601900E+03  0.46999998093E+01 0. -1.
       -5    1    3    3    0  502 -0.40073736299E+03 -0.46449775319E+03 -0.81396434071E+03  0.10192686764E+04  0.46999998093E+01 0.  1.
</event>
<event>
 5   0  0.8892280E-05  0.1798595E+04  0.7818609E-02  0.8707047E-01
        2   -1    0    0  501    0  0.00000000000E+00  0.00000000000E+00  0.18881109023E+04  0.18881109023E+04  0.25500000920E-02 0.  1.
       -2   -1    0    0    0  501  0.00000000000E+00  0.00000000000E+00 -0.42833094337E+03  0.42833094337E+03  0.25500000920E-02 0. -1.
    10030    2    1    2    0    0  0.00000000000E+00  0.00000000000E+00  0.14597799589E+04  0.23164418456E+04  0.17985953675E+04 0.  0.
        4    1    3    3  502    0 -0.89078557655E+03  0.12077314297E+03  0.69706411604E+03  0.11375346545E+04  0.12699999809E+01 0.  1.
       -4    1    3    3    0  502  0.89078557655E+03 -0.12077314297E+03  0.76271584286E+03  0.11789071911E+04  0.12699999809E+01 0. -1.
</event>
<event>
 5   0  0.4578107E-05  0.1773844E+04  0.7818609E-02  0.8720334E-01
       -1   -1    0    0    0  501  0.00000000000E+00  0.00000000000E+00  0.10289924076E+04  0.10289924076E+04  0.50400001928E-02 0.  1.
        1   -1    0    0  501    0  0.00000000000E+00  0.00000000000E+00 -0.76446724451E+03  0.76446724453E+03  0.50400001928E-02 0. -1.
    10030    2    1    2    0    0  0.00000000000E+00  0.00000000000E+00  0.26452516308E+03  0.17934596521E+04  0.17738444018E+04 0.  0.
        2    1    3    3  502    0  0.34829583773E+02 -0.76492050449E+03 -0.32025170605E+03  0.82998652600E+03  0.25500000920E-02 0. -1.
       -2    1    3    3    0  502 -0.34829583773E+02  0.76492050449E+03  0.58477686913E+03  0.96347312613E+03  0.25500000920E-02 0.  1.
</event>
<event>
 5   0  0.9184414E-05  0.1805737E+04  0.7818609E-02  0.8703255E-01
        2   -1    0    0  501    0  0.00000000000E+00  0.00000000000E+00  0.18751025366E+04  0.18751025366E+04  0.25500000920E-02 0.  1.
       -2   -1    0    0    0  501  0.00000000000E+00  0.00000000000E+00 -0.43473425104E+03  0.43473425104E+03  0.25500000920E-02 0. -1.
    10030    2    1    2    0    0  0.00000000000E+00  0.00000000000E+00  0.14403682856E+04  0.23098367877E+04  0.18057367437E+04 0.  0.
        5    1    3    3  502    0  0.23799040950E+02  0.86265350945E+03  0.10596134846E+04  0.13665797812E+04  0.46999998093E+01 0.  1.
       -5    1    3    3    0  502 -0.23799040950E+02 -0.86265350945E+03  0.38075480097E+03  0.94325700643E+03  0.46999998093E+01 0. -1.
</event>
<event>
 5   0  0.4494757E-05  0.1798054E+04  0.7818609E-02  0.8707335E-01
        1   -1    0    0  501    0  0.00000000000E+00  0.00000000000E+00  0.73310064119E+03  0.73310064121E+03  0.50400001928E-02 0.  1.
       -1   -1    0    0    0  501  0.00000000000E+00  0.00000000000E+00 -0.11025077140E+04  0.11025077140E+04  0.50400001928E-02 0. -1.
    10030    2    1    2    0    0  0.00000000000E+00  0.00000000000E+00 -0.36940707279E+03  0.18356083552E+04  0.17980535165E+04 0.  0.
        4    1    3    3  502    0  0.31155446806E+03 -0.55927582147E+03 -0.82906957770E+03  0.10474796459E+04  0.12699999809E+01 0. -1.
       -4    1    3    3    0  502 -0.31155446806E+03  0.55927582147E+03  0.45966250492E+03  0.78812870927E+03  0.12699999809E+01 0.  1.
</event>
<event>
 5   0  0.9147432E-05  0.1795035E+04  0.7818609E-02  0.8708944E-01
       -2   -1    0    0    0  501  0.00000000000E+00  0.00000000000E+00  0.78040225399E+03  0.78040225399E+03  0.25500000920E-02 0. -1.
        2   -1    0    0  501    0  0.00000000000E+00  0.00000000000E+00 -0.10322086892E+04  0.10322086892E+04  0.25500000920E-02 0.  1.
    10030    2    1    2    0    0  0.00000000000E+00  0.00000000000E+00 -0.25180643524E+03  0.18126109432E+04  0.17950353620E+04 0.  0.
        3    1    3    3  502    0  0.86681963152E+03  0.20858342339E+03 -0.21671144922E+02  0.89182563701E+03  0.10100000352E+00 0. -1.
       -3    1    3    3    0  502 -0.86681963152E+03 -0.20858342339E+03 -0.23013529032E+03  0.92078530622E+03  0.10100000352E+00 0.  1.
</event>
<event>
 5   0  0.3270375E-05  0.1795998E+04  0.7818609E-02  0.8708431E-01
        4   -1    0    0  501    0  0.00000000000E+00  0.00000000000E+00  0.11350640009E+04  0.11350647114E+04  0.12699999809E+01 0. -1.
       -4   -1    0    0    0  501  0.00000000000E+00  0.00000000000E+00 -0.71044470603E+03  0.71044584116E+03  0.12699999809E+01 0.  1.
    10030    2    1    2    0    0  0.00000000000E+00  0.00000000000E+00  0.42461929484E+03  0.18455105525E+04  0.17959976765E+04 0.  0.
        3    1    3    3  502    0 -0.62846336871E+03 -0.60363698763E+03 -0.10599497305E+02  0.87146782970E+03  0.10100000352E+00 0. -1.
       -3    1    3    3    0  502  0.62846336871E+03  0.60363698763E+03  0.43521879215E+03  0.97404272283E+03  0.10100000352E+00 0.  1.
</event>
<event>
 5   0  0.8802655E-05  0.1794332E+04  0.7818609E-02  0.8709319E-01
       -2   -1    0    0    0  501  0.00000000000E+00  0.00000000000E+00  0.84922812887E+03  0.84922812888E+03  0.25500000920E-02 0. -1.
        2   -1    0    0  501    0  0.00000000000E+00  0.00000000000E+00 -0.94780993018E+03  0.94780993018E+03  0.25500000920E-02 0.  1.
    10030    2    1    2    0    0  0.00000000000E+00  0.00000000000E+00 -0.98581801305E+02  0.17970380591E+04  0.17943320245E+04 0.  0.
        2    1    3    3  502    0  0.84825165265E+02  0.40800797414E+03  0.74641408520E+03  0.85486829525E+03  0.25500000920E-02 0. -1.
       -2    1    3    3    0  502 -0.84825165265E+02 -0.40800797414E+03 -0.84499588651E+03  0.94216976381E+03  0.25500000920E-02 0.  1.
</event>
<event>
 5   0  0.3270375E-05  0.1803387E+04  0.7818609E-02  0.8704501E-01
       -3   -1    0    0    0  501  0.00000000000E+00  0.00000000000E+00  0.76504259523E+03  0.76504260190E+03  0.10100000352E+00 0. -1.
        3   -1    0    0  501    0  0.00000000000E+00  0.00000000000E+00 -0.10627524081E+04  0.10627524129E+04  0.10100000352E+00 0.  1.
    10030    2    1    2    0    0  0.00000000000E+00  0.00000000000E+00 -0.29770981291E+03  0.18277950148E+04  0.18033866706E+04 0.  0.
        4    1    3    3  502    0  0.19195773358E+03 -0.81772411894E+03 -0.48120892591E+03  0.96803106843E+03  0.12699999809E+01 0.  1.
       -4    1    3    3    0  502 -0.19195773358E+03  0.81772411894E+03  0.18349911300E+03  0.85976394641E+03  0.12699999809E+01 0. -1.
</event>
<event>
 5   0  0.8892280E-05  0.1820361E+04  0.7818609E-02  0.8695546E-01
       -2   -1    0    0    0  501  0.00000000000E+00  0.00000000000E+00  0.40060602729E+03  0.40060602730E+03  0.25500000920E-02 0.  1.
        2   -1    0    0  501    0  0.00000000000E+00  0.00000000000E+00 -0.20679378568E+04  0.20679378568E+04  0.25500000920E-02 0. -1.
    10030    2    1    2    0    0  0.00000000000E+00  0.00000000000E+00 -0.16673318295E+04  0.24685438841E+04  0.18203608098E+04 0.  0.
        4    1    3    3  502    0  0.14786539000E+03 -0.42076580284E+03  0.24227321074E+03  0.50754896901E+03  0.12699999809E+01 0.  1.
       -4    1    3    3    0  502 -0.14786539000E+03  0.42076580284E+03 -0.19096050402E+04  0.19609949151E+04  0.12699999809E+01 0. -1.
</event>
<event>
 5   0  0.9184414E-05  0.1815837E+04  0.7818609E-02  0.8697922E-01
       -2   -1    0    0    0  501  0.00000000000E+00  0.00000000000E+00  0.77027677342E+03  0.77027677342E+03  0.25500000920E-02 0.  1.
        2   -1    0    0  501    0  0.00000000000E+00  0.00000000000E+00 -0.10701558847E+04  0.10701558847E+04  0.25500000920E-02 0. -1.
    10030    2    1    2    0    0  0.00000000000E+00  0.00000000000E+00 -0.29987911128E+03  0.18404326581E+04  0.18158372415E+04 0.  0.
        5    1    3    3  502    0  0.77782144279E+03 -0.41501921974E+03  0.69901549322E+02  0.88439553720E+03  0.46999998093E+01 0. -1.
       -5    1    3    3    0  502 -0.77782144279E+03  0.41501921974E+03 -0.36978066060E+03  0.95603712092E+03  0.46999998093E+01 0.  1.
</event>
<event>
 5   0  0.4494757E-05  0.1833439E+04  0.7818609E-02  0.8688716E-01
       -1   -1    0    0    0  501  0.00000000000E+00  0.00000000000E+00  0.46643794785E+03  0.46643794788E+03  0.50400001928E-02 0.  1.
        1   -1    0    0  501    0  0.00000000000E+00  0.00000000000E+00 -0.18016863739E+04  0.18016863739E+04  0.50400001928E-02 0. -1.
    10030    2    1    2    0    0  0.00000000000E+00  0.00000000000E+00 -0.13352484260E+04  0.22681243218E+04  0.18334392763E+04 0.  0.
        4    1    3    3  502    0  0.61060606370E+03 -0.36529893137E+02 -0.15122921966E+04  0.16313195576E+04  0.12699999809E+01 0. -1.
       -4    1    3    3    0  502 -0.61060606370E+03  0.36529893137E+02  0.17704377056E+03  0.63680476421E+03  0.12699999809E+01 0.  1.
</event>
<event>
 5   0  0.4578107E-05  0.1802673E+04  0.7818609E-02  0.8704880E-01
        1   -1    0    0  501    0  0.00000000000E+00  0.00000000000E+00  0.15425289444E+04  0.15425289444E+04  0.50400001928E-02 0.  1.
       -1   -1    0    0    0  501  0.00000000000E+00  0.00000000000E+00 -0.52667219889E+03  0.52667219891E+03  0.50400001928E-02 0. -1.
    10030    2    1    2    0    0  0.00000000000E+00  0.00000000000E+00  0.10158567455E+04  0.20692011433E+04  0.18026725837E+04 0.  0.
        2    1    3    3  502    0  0.78368499826E+03 -0.43576759433E+03  0.40302991751E+03  0.98310156504E+03  0.25500000920E-02 0. -1.
       -2    1    3    3    0  502 -0.78368499826E+03  0.43576759433E+03  0.61282682796E+03  0.10860995782E+04  0.25500000920E-02 0.  1.
</event>
<event>
 5   0  0.9184414E-05  0.1805036E+04  0.7818609E-02  0.8703626E-01
        2   -1    0    0  501    0  0.00000000000E+00  0.00000000000E+00  0.22572476926E+04  0.22572476926E+04  0.25500000920E-02 0. -1.
       -2   -1    0    0    0  501  0.00000000000E+00  0.00000000000E+00 -0.36085464064E+03  0.36085464065E+03  0.25500000920E-02 0.  1.
    10030    2    1    2    0    0  0.00000000000E+00  0.00000000000E+00  0.18963930520E+04  0.26181023333E+04  0.18050355176E+04 0.  0.
        5    1    3    3  502    0  0.17836504875E+03  0.55773803621E+03 -0.47900777790E+02  0.58753926010E+03  0.46999998093E+01 0.  1.
       -5    1    3    3    0  502 -0.17836504875E+03 -0.55773803621E+03  0.19442938298E+04  0.20305630732E+04  0.46999998093E+01 0. -1.
</event>
<event>
 5   0  0.4335117E-05  0.1771352E+04  0.7818609E-02  0.8721684E-01
       -1   -1    0    0    0  501  0.00000000000E+00  0.00000000000E+00  0.16660402995E+04  0.16660402995E+04  0.50400001928E-02 0. -1.
        1   -1    0    0  501    0  0.00000000000E+00  0.00000000000E+00 -0.47083029654E+03  0.47083029657E+03  0.50400001928E-02 0.  1.
    10030    2    1    2    0    0  0.00000000000E+00  0.00000000000E+00  0.11952100029E+04  0.21368705961E+04  0.17713523063E+04 0.  0.
        3    1    3    3  502    0 -0.54752822935E+03 -0.12425224367E+02 -0.24207055731E+03  0.59878185765E+03  0.10100000352E+00 0.  1.
       -3    1    3    3    0  502  0.54752822935E+03  0.12425224367E+02  0.14372805603E+04  0.15380887384E+04  0.10100000352E+00 0. -1.
</event>
<event>
 5   0  0.8893075E-05  0.1803252E+04  0.7818609E-02  0.8704572E-01
        2   -1    0    0  501    0  0.00000000000E+00  0.00000000000E+00  0.18413268592E+04  0.18413268592E+04  0.25500000920E-02 0.  1.
       -2   -1    0    0    0  501  0.00000000000E+00  0.00000000000E+00 -0.44149111595E+03  0.44149111596E+03  0.25500000920E-02 0. -1.
    10030    2    1    2    0    0  0.00000000000E+00  0.00000000000E+00  0.13998357432E+04  0.22828179751E+04  0.18032520067E+04 0.  0.
        1    1    3    3  502    0  0.26101942058E+03 -0.61125931648E+03  0.14711687169E+04  0.16143439793E+04  0.50400001928E-02 0.  1.
       -1    1    3    3    0  502 -0.26101942058E+03  0.61125931648E+03 -0.71332973702E+02  0.66847399581E+03  0.50400001928E-02 0. -1.
</event>
<event>
 5   0  0.4535100E-05  0.1791562E+04  0.7818609E-02  0.8710799E-01
        1   -1    0    0  501    0  0.00000000000E+00  0.00000000000E+00  0.18293321855E+04  0.18293321856E+04  0.50400001928E-02 0. -1.
       -1   -1    0    0    0  501  0.00000000000E+00  0.00000000000E+00 -0.43864304842E+03  0.43864304845E+03  0.50400001928E-02 0.  1.
    10030    2    1    2    0    0  0.00000000000E+00  0.00000000000E+00  0.13906891371E+04  0.22679752340E+04  0.17915622752E+04 0.  0.
        1    1    3    3  502    0 -0.26000343407E+02 -0.83198962883E+03  0.11143261389E+04  0.13909009685E+04  0.50400001928E-02 0. -1.
       -1    1    3    3    0  502  0.26000343407E+02  0.83198962883E+03  0.27636299820E+03  0.87707426546E+03  0.50400001928E-02 0.  1.
</event>
<event>
 5   0  0.8893075E-05  0.1798041E+04  0.7818609E-02  0.8707342E-01
        2   -1    0    0  501    0  0.00000000000E+00  0.00000000000E+00  0.99722675369E+03  0.99722675370E+03  0.25500000920E-02 0. -1.
       -2   -1    0    0    0  501  0.00000000000E+00  0.00000000000E+00 -0.81048556841E+03  0.81048556841E+03  0.25500000920E-02 0.  1.
    10030    2    1    2    0    0  0.00000000000E+00  0.00000000000E+00  0.18674118529E+03  0.18077123221E+04  0.17980410366E+04 0.  0.
        1    1    3    3  502    0  0.68035543821E+03  0.14377304768E+03  0.66624569692E+03  0.96303558617E+03  0.50400001928E-02 0. -1.
       -1    1    3    3    0  502 -0.68035543821E+03 -0.14377304768E+03 -0.47950451163E+03  0.84467673594E+03  0.50400001928E-02 0.  1.
</event>
<event>
 5   0  0.8893075E-05  0.1800198E+04  0.7818609E-02  0.8706194E-01
       -2   -1    0    0    0  501  0.00000000000E+00  0.00000000000E+00  0.49841519555E+03  0.49841519556E+03  0.25500000920E-02 0. -1.
        2   -1    0    0  501    0  0.00000000000E+00  0.00000000000E+00 -0.16255087039E+04  0.16255087039E+04  0.25500000920E-02 0.  1.
    10030    2    1    2    0    0  0.00000000000E+00  0.00000000000E+00 -0.11270935083E+04  0.21239238994E+04  0.18001980319E+04 0.  0.
        1    1    3    3  502    0  0.65931138547E+03  0.46743744599E+03 -0.10310162090E+04  0.13100319432E+04  0.50400001928E-02 0.  1.
       -1    1    3    3    0  502 -0.65931138547E+03 -0.46743744599E+03 -0.96077299278E+02  0.81389195621E+03  0.50400001928E-02 0. -1.
</event>
<event>
 5   0  0.9184414E-05  0.1801464E+04  0.7818609E-02  0.8705521E-01
       -2   -1    0    0    0  501  0.00000000000E+00  0.00000000000E+00  0.49278681838E+03  0.49278681839E+03  0.25500000920E-02 0. -1.
        2   -1    0    0  501    0  0.00000000000E+00  0.00000000000E+00 -0.16463885555E+04  0.16463885555E+04  0.25500000920E-02 0.  1.
    10030    2    1    2    0    0  0.00000000000E+00  0.00000000000E+00 -0.11536017371E+04  0.21391753739E+04  0.18014644910E+04 0.  0.
        5    1    3    3  502    0 -0.22827141521E+03  0.72163250913E+03  0.30360222551E+01  0.75689670674E+03  0.46999998093E+01 0. -1.
       -5    1    3    3    0  502  0.22827141521E+03 -0.72163250913E+03 -0.11566377594E+04  0.13822786671E+04  0.46999998093E+01 0.  1.
</event>
<event>
 5   0  0.9147432E-05  0.1791625E+04  0.7818609E-02  0.8710766E-01
       -2   -1    0    0    0  501  0.00000000000E+00  0.00000000000E+00  0.92229114911E+03  0.92229114911E+03  0.25500000920E-02 0.  1.
        2   -1    0    0  501    0  0.00000000000E+00  0.00000000000E+00 -0.87009446674E+03  0.87009446674E+03  0.25500000920E-02 0. -1.
    10030    2    1    2    0    0  0.00000000000E+00  0.00000000000E+00  0.52196682369E+02  0.17923856158E+04  0.17916254358E+04 0.  0.
        3    1    3    3  502    0 -0.27794424507E+03  0.57863909710E+03 -0.59899010992E+03  0.87798939062E+03  0.10100000352E+00 0. -1.
       -3    1    3    3    0  502  0.27794424507E+03 -0.57863909710E+03  0.65118679229E+03  0.91439622523E+03  0.10100000352E+00 0.  1.
</event>
<event>
 5   0  0.4578107E-05  0.1812548E+04  0.7818609E-02  0.8699655E-01
        1   -1    0    0  501    0  0.00000000000E+00  0.00000000000E+00  0.16379513055E+04  0.16379513055E+04  0.50400001928E-02 0.  1.
       -1   -1    0    0    0  501  0.00000000000E+00  0.00000000000E+00 -0.50143896889E+03  0.50143896891E+03  0.50400001928E-02 0. -1.
    10030    2    1    2    0    0  0.00000000000E+00  0.00000000000E+00  0.11365123366E+04  0.21393902744E+04  0.18125480559E+04 0.  0.
        2    1    3    3  502    0  0.14493732156E+03 -0.49484020459E+03  0.14479397271E+04  0.15370110958E+04  0.25500000920E-02 0.  1.
       -2    1    3    3    0  502 -0.14493732156E+03  0.49484020459E+03 -0.31142739051E+03  0.60237917861E+03  0.25500000920E-02 0. -1.
</event>
<event>
 5   0  0.4335117E-05  0.1798559E+04  0.7818609E-02  0.8707066E-01
        1   -1    0    0  501    0  0.00000000000E+00  0.00000000000E+00  0.13525180286E+04  0.13525180286E+04  0.50400001928E-02 0. -1.
       -1   -1    0    0    0  501  0.00000000000E+00  0.00000000000E+00 -0.59792425621E+03  0.59792425623E+03  0.50400001928E-02 0.  1.
    10030    2    1    2    0    0  0.00000000000E+00  0.00000000000E+00  0.75459377239E+03  0.19504422848E+04  0.17985586855E+04 0.  0.
        3    1    3    3  502    0  0.42973042718E+03 -0.26527692640E+03  0.11842184750E+04  0.12874057225E+04  0.10100000352E+00 0. -1.
       -3    1    3    3    0  502 -0.42973042718E+03  0.26527692640E+03 -0.42962470257E+03  0.66303656233E+03  0.10100000352E+00 0.  1.
</event>
<event>
 5   0  0.3270375E-05  0.1795925E+04  0.7818609E-02  0.8708469E-01
        3   -1    0    0  501    0  0.00000000000E+00  0.00000000000E+00  0.98012061672E+03  0.98012062193E+03  0.10100000352E+00 0.  1.
       -3   -1    0    0    0  501  0.00000000000E+00  0.00000000000E+00 -0.82269151769E+03  0.82269152389E+03  0.10100000352E+00 0. -1.
    10030    2    1    2    0    0  0.00000000000E+00  0.00000000000E+00  0.15742909904E+03  0.18028121458E+04  0.17959253080E+04 0.  0.
        3    1    3    3  502    0 -0.89558760725E+02 -0.60589964080E+03  0.73789219822E+03  0.95896822301E+03  0.10100000352E+00 0.  1.
       -3    1    3    3    0  502  0.89558760725E+02  0.60589964080E+03 -0.58046309918E+03  0.84384392281E+03  0.10100000352E+00 0. -1.
</event>
<event>
 5   0  0.4578107E-05  0.1792946E+04  0.7818609E-02  0.8710060E-01
        1   -1    0    0  501    0  0.00000000000E+00  0.00000000000E+00  0.11567571465E+04  0.11567571465E+04  0.50400001928E-02 0.  1.
       -1   -1    0    0    0  501  0.00000000000E+00  0.00000000000E+00 -0.69475602394E+03  0.69475602396E+03  0.50400001928E-02 0. -1.
    10030    2    1    2    0    0  0.00000000000E+00  0.00000000000E+00  0.46200112256E+03  0.18515131705E+04  0.17929461741E+04 0.  0.
        2    1    3    3  502    0 -0.48161760843E+03 -0.70518354845E+03 -0.50719594216E+02  0.85546001367E+03  0.25500000920E-02 0.  1.
       -2    1    3    3    0  502  0.48161760843E+03  0.70518354845E+03  0.51272071677E+03  0.99605315680E+03  0.25500000920E-02 0. -1.
</event>
<event>
 5   0  0.4535100E-05  0.1799382E+04  0.7818609E-02  0.8706628E-01
        1   -1    0    0  501    0  0.00000000000E+00  0.00000000000E+00  0.10839464022E+04  0.10839464022E+04  0.50400001928E-02 0.  1.
       -1   -1    0    0    0  501  0.00000000000E+00  0.00000000000E+00 -0.74675613534E+03  0.74675613536E+03  0.50400001928E-02 0. -1.
    10030    2    1    2    0    0  0.00000000000E+00  0.00000000000E+00  0.33719026681E+03  0.18307025375E+04  0.17993817007E+04 0.  0.
        1    1    3    3  502    0  0.69230062364E+03 -0.57170090154E+03  0.22723122366E+03  0.92615123135E+03  0.50400001928E-02 0. -1.
       -1    1    3    3    0  502 -0.69230062364E+03  0.57170090154E+03  0.10995904315E+03  0.90455130617E+03  0.50400001928E-02 0.  1.
</event>
<event>
 5   0  0.8892280E-05  0.1790118E+04  0.7818609E-02  0.8711572E-01
       -2   -1    0    0    0  501  0.00000000000E+00  0.00000000000E+00  0.59275369752E+03  0.59275369753E+03  0.25500000920E-02 0.  1.
        2   -1    0    0  501    0  0.00000000000E+00  0.00000000000E+00 -0.13515410468E+04  0.13515410468E+04  0.25500000920E-02 0. -1.
    10030    2    1    2    0    0  0.00000000000E+00  0.00000000000E+00 -0.75878734932E+03  0.19442947444E+04  0.17901183792E+04 0.  0.
        4    1    3    3  502    0  0.78638804397E+03  0.42484640706E+03 -0.43066890111E+03  0.99215822356E+03  0.12699999809E+01 0.  1.
       -4    1    3    3    0  502 -0.78638804397E+03 -0.42484640706E+03 -0.32811844821E+03  0.95213652081E+03  0.12699999809E+01 0. -1.
</event>
<event>
 5   0  0.4335117E-05  0.1821719E+04  0.7818609E-02  0.8694834E-01
       -1   -1    0    0    0  501  0.00000000000E+00  0.00000000000E+00  0.14071539496E+04  0.14071539496E+04  0.50400001928E-02 0. -1.
        1   -1    0    0  501    0  0.00000000000E+00  0.00000000000E+00 -0.58960528652E+03  0.58960528654E+03  0.50400001928E-02 0.  1.
    10030    2    1    2    0    0  0.00000000000E+00  0.00000000000E+00  0.81754866305E+03  0.19967592361E+04  0.18217194160E+04 0.  0.
        3    1    3    3  502    0 -0.33437185724E+03 -0.20447863224E+03  0.13099997119E+04  0.13673753345E+04  0.10100000352E+00 0. -1.
       -3    1    3    3    0  502  0.33437185724E+03  0.20447863224E+03 -0.49245104883E+03  0.62938390165E+03  0.10100000352E+00 0.  1.
</event>
<event>
 5   0  0.8802655E-05  0.1795546E+04  0.7818609E-02  0.8708672E-01
        2   -1    0    0  501    0  0.00000000000E+00  0.00000000000E+00  0.14344628847E+04  0.14344628847E+04  0.25500000920E-02 0.  1.
       -2   -1    0    0    0  501  0.00000000000E+00  0.00000000000E+00 -0.56188004024E+03  0.56188004025E+03  0.25500000920E-02 0. -1.
    10030    2    1    2    0    0  0.00000000000E+00  0.00000000000E+00  0.87258284443E+03  0.19963429249E+04  0.17955456701E+04 0.  0.
        2    1    3    3  502    0 -0.73123915000E+03  0.12369057981E+03 -0.12624002261E+03  0.75229422259E+03  0.25500000920E-02 0. -1.
       -2    1    3    3    0  502  0.73123915000E+03 -0.12369057981E+03  0.99882286704E+03  0.12440487023E+04  0.25500000920E-02 0.  1.
</event>
<event>
 5   0  0.4623665E-05  0.1784869E+04  0.7818609E-02  0.8714388E-01
        1   -1    0    0  501    0  0.00000000000E+00  0.00000000000E+00  0.65714839701E+03  0.65714839703E+03  0.50400001928E-02 0.  1.
       -1   -1    0    0    0  501  0.00000000000E+00  0.00000000000E+00 -0.12119625801E+04  0.12119625801E+04  0.50400001928E-02 0. -1.
    10030    2    1    2    0    0  0.00000000000E+00  0.00000000000E+00 -0.55481418309E+03  0.18691109771E+04  0.17848689216E+04 0.  0.
        5    1    3    3  502    0  0.40281874831E+03 -0.62288098919E+03  0.24216930788E+03  0.78032796590E+03  0.46999998093E+01 0.  1.
       -5    1    3    3    0  502 -0.40281874831E+03  0.62288098919E+03 -0.79698349097E+03  0.10887830112E+04  0.46999998093E+01 0. -1.
</event>
<event>
 5   0  0.8892280E-05  0.1794479E+04  0.7818609E-02  0.8709241E-01
        2   -1    0    0  501    0  0.00000000000E+00  0.00000000000E+00  0.14978981642E+04  0.14978981642E+04  0.25500000920E-02 0.  1.
       -2   -1    0    0    0  501  0.00000000000E+00  0.00000000000E+00 -0.53744558188E+03  0.53744558189E+03  0.25500000920E-02 0. -1.
    10030    2    1    2    0    0  0.00000000000E+00  0.00000000000E+00  0.96045258229E+03  0.20353437461E+04  0.17944790335E+04 0.  0.
        4    1    3    3  502    0  0.78863075607E+03 -0.89255996571E+02  0.95488578954E+03  0.12416575962E+04  0.12699999809E+01 0.  1.
       -4    1    3    3    0  502 -0.78863075607E+03  0.89255996571E+02  0.55667927455E+01  0.79368614982E+03  0.12699999809E+01 0. -1.
</event>
<event>
 5   0  0.8893075E-05  0.1808754E+04  0.7818609E-02  0.8701658E-01
        2   -1    0    0  501    0  0.00000000000E+00  0.00000000000E+00  0.21489027753E+04  0.21489027753E+04  0.25500000920E-02 0.  1.
       -2   -1    0    0    0  501  0.00000000000E+00  0.00000000000E+00 -0.38061180259E+03  0.38061180259E+03  0.25500000920E-02 0. -1.
    10030    2    1    2    0    0  0.00000000000E+00  0.00000000000E+00  0.17682909727E+04  0.25295145779E+04  0.18087540009E+04 0.  0.
        1    1    3    3  502    0  0.24475981537E+03 -0.22010912452E+03  0.20621497097E+04  0.20882568853E+04  0.50400001928E-02 0.  1.
       -1    1    3    3    0  502 -0.24475981537E+03  0.22010912452E+03 -0.29385873699E+03  0.44125769256E+03  0.50400001928E-02 0. -1.
</event>
<event>
 5   0  0.8893075E-05  0.1799741E+04  0.7818609E-02  0.8706437E-01
        2   -1    0    0  501    0  0.00000000000E+00  0.00000000000E+00  0.15584334327E+04  0.15584334327E+04  0.25500000920E-02 0. -1.
       -2   -1    0    0    0  501  0.00000000000E+00  0.00000000000E+00 -0.51960325720E+03  0.51960325721E+03  0.25500000920E-02 0.  1.
    10030    2    1    2    0    0  0.00000000000E+00  0.00000000000E+00  0.10388301755E+04  0.20780366899E+04  0.17997411900E+04 0.  0.
        1    1    3    3  502    0  0.36927296747E+02  0.31807718150E+03 -0.45159469552E+03  0.55360137977E+03  0.50400001928E-02 0.  1.
       -1    1    3    3    0  502 -0.36927296747E+02 -0.31807718150E+03  0.14904248710E+04  0.15244353102E+04  0.50400001928E-02 0. -1.
</event>
<event>
 5   0  0.4494757E-05  0.1796282E+04  0.7818609E-02  0.8708279E-01
       -1   -1    0    0    0  501  0.00000000000E+00  0.00000000000E+00  0.41073305566E+03  0.41073305569E+03  0.50400001928E-02 0. -1.
        1   -1    0    0  501    0  0.00000000000E+00  0.00000000000E+00 -0.19639463448E+04  0.19639463448E+04  0.50400001928E-02 0.  1.
    10030    2    1    2    0    0  0.00000000000E+00  0.00000000000E+00 -0.15532132891E+04  0.23746794005E+04  0.17962824760E+04 0.  0.
        4    1    3    3  502    0  0.50038562041E+03 -0.59602051243E+02 -0.17594450427E+04  0.18301875983E+04  0.12699999809E+01 0.  1.
       -4    1    3    3    0  502 -0.50038562041E+03  0.59602051243E+02  0.20623175357E+03  0.54449180224E+03  0.12699999809E+01 0. -1.
</event>
<event>
 5   0  0.8892280E-05  0.1794968E+04  0.7818609E-02  0.8708980E-01
        2   -1    0    0  501    0  0.00000000000E+00  0.00000000000E+00  0.15418992433E+04  0.15418992434E+04  0.25500000920E-02 0. -1.
       -2   -1    0    0    0  501  0.00000000000E+00  0.00000000000E+00 -0.52239331622E+03  0.52239331623E+03  0.25500000920E-02 0.  1.
    10030    2    1    2    0    0  0.00000000000E+00  0.00000000000E+00  0.10195059271E+04  0.20642925596E+04  0.17949683663E+04 0.  0.
        4    1    3    3  502    0  0.29709742718E+03 -0.49989966177E+03  0.12959236432E+04  0.14204176340E+04  0.12699999809E+01 0. -1.
       -4    1    3    3    0  502 -0.29709742718E+03  0.49989966177E+03 -0.27641771610E+03  0.64387492555E+03  0.12699999809E+01 0.  1.
</event>
<event>
 5   0  0.8892280E-05  0.1796914E+04  0.7818609E-02  0.8707943E-01
        2   -1    0    0  501    0  0.00000000000E+00  0.00000000000E+00  0.92393351149E+03  0.92393351149E+03  0.25500000920E-02 0. -1.
       -2   -1    0    0    0  501  0.00000000000E+00  0.00000000000E+00 -0.87368249676E+03  0.87368249677E+03  0.25500000920E-02 0.  1.
    10030    2    1    2    0    0  0.00000000000E+00  0.00000000000E+00  0.50251014726E+02  0.17976160083E+04  0.17969135062E+04 0.  0.
        4    1    3    3  502    0 -0.10840370981E+03 -0.13152660358E+03 -0.85736012046E+03  0.87413877662E+03  0.12699999809E+01 0.  1.
       -4    1    3    3    0  502  0.10840370981E+03  0.13152660358E+03  0.90761113518E+03  0.92347723164E+03  0.12699999809E+01 0. -1.
</event>
<event>
 5   0  0.4578107E-05  0.1798037E+04  0.7818609E-02  0.8707344E-01
       -1   -1    0    0    0  501  0.00000000000E+00  0.00000000000E+00  0.74022470599E+03  0.74022470600E+03  0.50400001928E-02 0.  1.
        1   -1    0    0  501    0  0.00000000000E+00  0.00000000000E+00 -0.10918765686E+04  0.10918765686E+04  0.50400001928E-02 0. -1.
    10030    2    1    2    0    0  0.00000000000E+00  0.00000000000E+00 -0.35165186258E+03  0.18321012746E+04  0.17980367204E+04 0.  0.
        2    1    3    3  502    0  0.62052640664E+03 -0.33835535250E+03  0.39030498918E+03  0.80738798015E+03  0.25500000920E-02 0.  1.
       -2    1    3    3    0  502 -0.62052640664E+03  0.33835535250E+03 -0.74195685176E+03  0.10247132944E+04  0.25500000920E-02 0. -1.
</event>
<event>
 5   0  0.8892280E-05  0.1801049E+04  0.7818609E-02  0.8705742E-01
        2   -1    0    0  501    0  0.00000000000E+00  0.00000000000E+00  0.65784718161E+03  0.65784718162E+03  0.25500000920E-02 0. -1.
       -2   -1    0    0    0  501  0.00000000000E+00  0.00000000000E+00 -0.12327241604E+04  0.12327241604E+04  0.25500000920E-02 0.  1.
    10030    2    1    2    0    0  0.00000000000E+00  0.00000000000E+00 -0.57487697880E+03  0.18905713420E+04  0.18010487108E+04 0.  0.
        4    1    3    3  502    0 -0.73658494342E+03  0.21422002804E+03 -0.78257806979E+03  0.10958456312E+04  0.12699999809E+01 0.  1.
       -4    1    3    3    0  502  0.73658494342E+03 -0.21422002804E+03  0.20770109099E+03  0.79472571079E+03  0.12699999809E+01 0. -1.
</event>
<event>
 5   0  0.4623665E-05  0.1792394E+04  0.7818609E-02  0.8710355E-01
       -1   -1    0    0    0  501  0.00000000000E+00  0.00000000000E+00  0.55284685522E+03  0.55284685524E+03  0.50400001928E-02 0. -1.
        1   -1    0    0  501    0  0.00000000000E+00  0.00000000000E+00 -0.14527874196E+04  0.14527874196E+04  0.50400001928E-02 0.  1.
    10030    2    1    2    0    0  0.00000000000E+00  0.00000000000E+00 -0.89994056439E+03  0.20056342749E+04  0.17923938811E+04 0.  0.
        5    1    3    3  502    0  0.70456245472E+03 -0.54623299402E+03 -0.55233080536E+03  0.10487469404E+04  0.46999998093E+01 0. -1.
       -5    1    3    3    0  502 -0.70456245472E+03  0.54623299402E+03 -0.34760975903E+03  0.95688733450E+03  0.46999998093E+01 0.  1.
</event>
<event>
 5   0  0.4623665E-05  0.1800264E+04  0.7818609E-02  0.8706159E-01
        1   -1    0    0  501    0  0.00000000000E+00  0.00000000000E+00  0.14702688542E+04  0.14702688542E+04  0.50400001928E-02 0. -1.
       -1   -1    0    0    0  501  0.00000000000E+00  0.00000000000E+00 -0.55108125320E+03  0.55108125322E+03  0.50400001928E-02 0.  1.
    10030    2    1    2    0    0  0.00000000000E+00  0.00000000000E+00  0.91918760103E+03  0.20213501075E+04  0.18002639837E+04 0.  0.
        5    1    3    3  502    0  0.76209395251E+03 -0.46067876239E+03  0.31232441665E+03  0.94370585767E+03  0.46999998093E+01 0.  1.
       -5    1    3    3    0  502 -0.76209395251E+03  0.46067876239E+03  0.60686318438E+03  0.10776442498E+04  0.46999998093E+01 0. -1.
</event>
<event>
 5   0  0.4623665E-05  0.1799030E+04  0.7818609E-02  0.8706815E-01
       -1   -1    0    0    0  501  0.00000000000E+00  0.00000000000E+00  0.45441670076E+03  0.45441670079E+03  0.50400001928E-02 0.  1.
        1   -1    0    0  501    0  0.00000000000E+00  0.00000000000E+00 -0.17805850427E+04  0.17805850427E+04  0.50400001928E-02 0. -1.
    10030    2    1    2    0    0  0.00000000000E+00  0.00000000000E+00 -0.13261683419E+04  0.22350017435E+04  0.17990303839E+04 0.  0.
        5    1    3    3  502    0 -0.79952442083E+03 -0.40359279957E+03 -0.76686982136E+03  0.11790834832E+04  0.46999998093E+01 0.  1.
       -5    1    3    3    0  502  0.79952442083E+03  0.40359279957E+03 -0.55929852058E+03  0.10559182603E+04  0.46999998093E+01 0. -1.
</event>
<event>
 5   0  0.4578107E-05  0.1810778E+04  0.7818609E-02  0.8700589E-01
       -1   -1    0    0    0  501  0.00000000000E+00  0.00000000000E+00  0.81158308408E+03  0.81158308410E+03  0.50400001928E-02 0.  1.
        1   -1    0    0  501    0  0.00000000000E+00  0.00000000000E+00 -0.10100378374E+04  0.10100378374E+04  0.50400001928E-02 0. -1.
    10030    2    1    2    0    0  0.00000000000E+00  0.00000000000E+00 -0.19845475333E+03  0.18216209215E+04  0.18107784217E+04 0.  0.
        2    1    3    3  502    0  0.78514112796E+03 -0.56332477509E+02 -0.54924212632E+03  0.95983688831E+03  0.25500000920E-02 0. -1.
       -2    1    3    3    0  502 -0.78514112796E+03  0.56332477509E+02  0.35078737299E+03  0.86178403321E+03  0.25500000920E-02 0.  1.
</event>
<event>
 5   0  0.9147432E-05  0.1796771E+04  0.7818609E-02  0.8708018E-01
       -2   -1    0    0    0  501  0.00000000000E+00  0.00000000000E+00  0.13396528147E+04  0.13396528147E+04  0.25500000920E-02 0. -1.
        2   -1    0    0  501    0  0.00000000000E+00  0.00000000000E+00 -0.60246721384E+03  0.60246721385E+03  0.25500000920E-02 0.  1.
    10030    2    1    2    0    0  0.00000000000E+00  0.00000000000E+00  0.73718560084E+03  0.19421200285E+04  0.17967714365E+04 0.  0.
        3    1    3    3  502    0 -0.27577122800E+03 -0.18643199383E+03 -0.53334872603E+03  0.62870305572E+03  0.10100000352E+00 0.  1.
       -3    1    3    3    0  502  0.27577122800E+03  0.18643199383E+03  0.12705343269E+04  0.13134169728E+04  0.10100000352E+00 0. -1.
</event>
<event>
 5   0  0.9184414E-05  0.1796203E+04  0.7818609E-02  0.8708322E-01
       -2   -1    0    0    0  501  0.00000000000E+00  0.00000000000E+00  0.11703917142E+04  0.11703917142E+04  0.25500000920E-02 0. -1.
        2   -1    0    0  501    0  0.00000000000E+00  0.00000000000E+00 -0.68915894949E+03  0.68915894949E+03  0.25500000920E-02 0.  1.
    10030    2    1    2    0    0  0.00000000000E+00  0.00000000000E+00  0.48123276469E+03  0.18595506637E+04  0.17962025768E+04 0.  0.
        5    1    3    3  502    0  0.21987008869E+03 -0.84594111118E+03  0.45430481887E+03  0.98507572193E+03  0.46999998093E+01 0. -1.
       -5    1    3    3    0  502 -0.21987008869E+03  0.84594111118E+03  0.26927945827E+02  0.87447494175E+03  0.46999998093E+01 0.  1.
</event>
<event>
 5   0  0.8802655E-05  0.1801225E+04  0.7818609E-02  0.8705649E-01
        2   -1    0    0  501    0  0.00000000000E+00  0.00000000000E+00  0.17566685205E+04  0.17566685205E+04  0.25500000920E-02 0. -1.
       -2   -1    0    0    0  501  0.00000000000E+00  0.00000000000E+00 -0.46172766896E+03  0.46172766897E+03  0.25500000920E-02 0.  1.
    10030    2    1    2    0    0  0.00000000000E+00  0.00000000000E+00  0.12949408516E+04  0.22183961895E+04  0.18012245403E+04 0.  0.
        2    1    3    3  502    0  0.39180241748E+03 -0.28728090688E+03  0.15814319192E+04  0.16543779401E+04  0.25500000920E-02 0. -1.
       -2    1    3    3    0  502 -0.39180241748E+03  0.28728090688E+03 -0.28649106760E+03  0.56401824937E+03  0.25500000920E-02 0.  1.
</event>
<event>
 5   0  0.4578107E-05  0.1822916E+04  0.7818609E-02  0.8694207E-01
        1   -1    0    0  501    0  0.00000000000E+00  0.00000000000E+00  0.12374578108E+04  0.12374578108E+04  0.50400001928E-02 0.  1.
       -1   -1    0    0    0  501  0.00000000000E+00  0.00000000000E+00 -0.67134094924E+03  0.67134094925E+03  0.50400001928E-02 0. -1.
    10030    2    1    2    0    0  0.00000000000E+00  0.00000000000E+00  0.56611686151E+03  0.19087987600E+04  0.18229164559E+04 0.  0.
        2    1    3    3  502    0  0.15962282407E+03 -0.10384196953E+03  0.12163955821E+04  0.12312111162E+04  0.25500000920E-02 0.  1.
       -2    1    3    3    0  502 -0.15962282407E+03  0.10384196953E+03 -0.65027872056E+03  0.67758764380E+03  0.25500000920E-02 0. -1.
</event>
<event>
 5   0  0.8893075E-05  0.1817784E+04  0.7818609E-02  0.8696899E-01
       -2   -1    0    0    0  501  0.00000000000E+00  0.00000000000E+00  0.45964644508E+03  0.45964644509E+03  0.25500000920E-02 0.  1.
        2   -1    0    0  501    0  0.00000000000E+00  0.00000000000E+00 -0.17972176234E+04  0.17972176234E+04  0.25500000920E-02 0. -1.
    10030    2    1    2    0    0  0.00000000000E+00  0.00000000000E+00 -0.13375711783E+04  0.22568640684E+04  0.18177840264E+04 0.  0.
        1    1    3    3  502    0  0.86418455934E+03 -0.32991768857E+02 -0.10159334662E+04  0.13341754822E+04  0.50400001928E-02 0. -1.
       -1    1    3    3    0  502 -0.86418455934E+03  0.32991768857E+02 -0.32163771207E+03  0.92268858628E+03  0.50400001928E-02 0.  1.
</event>
<event>
 5   0  0.3270375E-05  0.1800578E+04  0.7818609E-02  0.8705992E-01
        3   -1    0    0  501    0  0.00000000000E+00  0.00000000000E+00  0.98940345332E+03  0.98940345848E+03  0.10100000352E+00 0.  1.
       -3   -1    0    0    0  501  0.00000000000E+00  0.00000000000E+00 -0.81920109286E+03  0.81920109908E+03  0.10100000352E+00 0. -1.
    10030    2    1    2    0    0  0.00000000000E+00  0.00000000000E+00  0.17020236047E+03  0.18086045576E+04  0.18005781300E+04 0.  0.
        5    1    3    3  502    0  0.49246006856E+03 -0.67190944198E+03  0.42797174127E+03  0.93656880082E+03  0.46999998093E+01 0.  1.
       -5    1    3    3    0  502 -0.49246006856E+03  0.67190944198E+03 -0.25776938080E+03  0.87203575674E+03  0.46999998093E+01 0. -1.
</event>
<event>
 5   0  0.3270375E-05  0.1783367E+04  0.7818609E-02  0.8715195E-01
        4   -1    0    0  501    0  0.00000000000E+00  0.00000000000E+00  0.12114907893E+04  0.12114914550E+04  0.12699999809E+01 0. -1.
       -4   -1    0    0    0  501  0.00000000000E+00  0.00000000000E+00 -0.65629678647E+03  0.65629801526E+03  0.12699999809E+01 0.  1.
    10030    2    1    2    0    0  0.00000000000E+00  0.00000000000E+00  0.55519400282E+03  0.18677894702E+04  0.17833667947E+04 0.  0.
        5    1    3    3  502    0 -0.88366735553E+03  0.11903250079E+03  0.28425890025E+03  0.93587496165E+03  0.46999998093E+01 0.  1.
       -5    1    3    3    0  502  0.88366735553E+03 -0.11903250079E+03  0.27093510256E+03  0.93191450856E+03  0.46999998093E+01 0. -1.
</event>
<event>
 5   0  0.4535100E-05  0.1799998E+04  0.7818609E-02  0.8706301E-01
       -1   -1    0    0    0  501  0.00000000000E+00  0.00000000000E+00  0.35831439593E+03  0.35831439597E+03  0.50400001928E-02 0.  1.
        1   -1    0    0  501    0  0.00000000000E+00  0.00000000000E+00 -0.22605791372E+04  0.22605791372E+04  0.50400001928E-02 0. -1.
    10030    2    1    2    0    0  0.00000000000E+00  0.00000000000E+00 -0.19022647413E+04  0.26188935332E+04  0.17999978312E+04 0.  0.
        1    1    3    3  502    0  0.14435788442E+00 -0.63332721316E+03 -0.18814935601E+04  0.19852257798E+04  0.50400001928E-02 0. -1.
       -1    1    3    3    0  502 -0.14435788442E+00  0.63332721316E+03 -0.20771181168E+02  0.63366775345E+03  0.50400001928E-02 0.  1.
</event>
<event>
 5   0  0.4335117E-05  0.1800453E+04  0.7818609E-02  0.8706058E-01
        1   -1    0    0  501    0  0.00000000000E+00  0.00000000000E+00  0.14606643841E+04  0.14606643841E+04  0.50400001928E-02 0. -1.
       -1   -1    0    0    0  501  0.00000000000E+00  0.00000000000E+00 -0.55482150292E+03  0.55482150294E+03  0.50400001928E-02 0.  1.
    10030    2    1    2    0    0  0.00000000000E+00  0.00000000000E+00  0.90584288119E+03  0.20154858871E+04  0.18004532861E+04 0.  0.
        3    1    3    3  502    0 -0.13497040194E+03 -0.68093951402E+03  0.10945353431E+04  0.12961108204E+04  0.10100000352E+00 0. -1.
       -3    1    3    3    0  502  0.13497040194E+03  0.68093951402E+03 -0.18869246196E+03  0.71937506667E+03  0.10100000352E+00 0.  1.
</event>
<event>
 5   0  0.4578107E-05  0.1788951E+04  0.7818609E-02  0.8712197E-01
       -1   -1    0    0    0  501  0.00000000000E+00  0.00000000000E+00  0.10676638415E+04  0.10676638416E+04  0.50400001928E-02 0.  1.
        1   -1    0    0  501    0  0.00000000000E+00  0.00000000000E+00 -0.74938046545E+03  0.74938046546E+03  0.50400001928E-02 0. -1.
    10030    2    1    2    0    0  0.00000000000E+00  0.00000000000E+00  0.31828337610E+03  0.18170443070E+04  0.17889510072E+04 0.  0.
        2    1    3    3  502    0 -0.69990847084E+03 -0.55045613302E+03  0.72880957284E+02  0.89341225415E+03  0.25500000920E-02 0. -1.
       -2    1    3    3    0  502  0.69990847084E+03  0.55045613302E+03  0.24540241882E+03  0.92363205287E+03  0.25500000920E-02 0.  1.
</event>
<event>
 5   0  0.4335117E-05  0.1806324E+04  0.7818609E-02  0.8702943E-01
        1   -1    0    0  501    0  0.00000000000E+00  0.00000000000E+00  0.21777092890E+04  0.21777092890E+04  0.50400001928E-02 0.  1.
       -1   -1    0    0    0  501  0.00000000000E+00  0.00000000000E+00 -0.37456881048E+03  0.37456881051E+03  0.50400001928E-02 0. -1.
    10030    2    1    2    0    0  0.00000000000E+00  0.00000000000E+00  0.18031404785E+04  0.25522780995E+04  0.18063244205E+04 0.  0.
        3    1    3    3  502    0 -0.38801498170E+03 -0.80258109789E+03  0.11063770863E+04  0.14208315565E+04  0.10100000352E+00 0. -1.
       -3    1    3    3    0  502  0.38801498170E+03  0.80258109789E+03  0.69676339221E+03  0.11314465430E+04  0.10100000352E+00 0.  1.
</event>
<event>
 5   0  0.4494757E-05  0.1794432E+04  0.7818609E-02  0.8709266E-01
       -1   -1    0    0    0  501  0.00000000000E+00  0.00000000000E+00  0.48536891728E+03  0.48536891731E+03  0.50400001928E-02 0. -1.
        1   -1    0    0  501    0  0.00000000000E+00  0.00000000000E+00 -0.16585253211E+04  0.16585253211E+04  0.50400001928E-02 0.  1.
    10030    2    1    2    0    0  0.00000000000E+00  0.00000000000E+00 -0.11731564038E+04  0.21438942384E+04  0.17944320989E+04 0.  0.
        4    1    3    3  502    0  0.58885494107E+03 -0.67691086266E+03 -0.57935329405E+03  0.10679935907E+04  0.12699999809E+01 0.  1.
       -4    1    3    3    0  502 -0.58885494107E+03  0.67691086266E+03 -0.59380310976E+03  0.10759006477E+04  0.12699999809E+01 0. -1.
</event>
<event>
 5   0  0.4578107E-05  0.1763357E+04  0.7818609E-02  0.8726032E-01
        1   -1    0    0  501    0  0.00000000000E+00  0.00000000000E+00  0.18055935878E+04  0.18055935878E+04  0.50400001928E-02 0.  1.
       -1   -1    0    0    0  501  0.00000000000E+00  0.00000000000E+00 -0.43052695421E+03  0.43052695424E+03  0.50400001928E-02 0. -1.
    10030    2    1    2    0    0  0.00000000000E+00  0.00000000000E+00  0.13750666336E+04  0.22361205421E+04  0.17633566944E+04 0.  0.
        2    1    3    3  502    0  0.16418496344E+03 -0.75581162026E+03  0.15079575064E+03  0.78800207231E+03  0.25500000920E-02 0. -1.
       -2    1    3    3    0  502 -0.16418496344E+03  0.75581162026E+03  0.12242708830E+04  0.14481184698E+04  0.25500000920E-02 0.  1.
</event>
<event>
 5   0  0.8802655E-05  0.1798053E+04  0.7818609E-02  0.8707335E-01
       -2   -1    0    0    0  501  0.00000000000E+00  0.00000000000E+00  0.10475884751E+04  0.10475884752E+04  0.25500000920E-02 0.  1.
        2   -1    0    0  501    0  0.00000000000E+00  0.00000000000E+00 -0.77153278639E+03  0.77153278639E+03  0.25500000920E-02 0. -1.
    10030    2    1    2    0    0  0.00000000000E+00  0.00000000000E+00  0.27605568876E+03  0.18191212615E+04  0.17980532308E+04 0.  0.
        2    1    3    3  502    0  0.63283367437E+03  0.27432917557E+03  0.72142459646E+03  0.99809238268E+03  0.25500000920E-02 0.  1.
       -2    1    3    3    0  502 -0.63283367437E+03 -0.27432917557E+03 -0.44536890770E+03  0.82102887886E+03  0.25500000920E-02 0. -1.
</event>
<event>
 5   0  0.4578107E-05  0.1799521E+04  0.7818609E-02  0.8706554E-01
       -1   -1    0    0    0  501  0.00000000000E+00  0.00000000000E+00  0.52407036821E+03  0.52407036824E+03  0.50400001928E-02 0.  1.
        1   -1    0    0  501    0  0.00000000000E+00  0.00000000000E+00 -0.15447718065E+04  0.15447718065E+04  0.50400001928E-02 0. -1.
    10030    2    1    2    0    0  0.00000000000E+00  0.00000000000E+00 -0.10207014383E+04  0.20688421748E+04  0.17995211913E+04 0.  0.
        2    1    3    3  502    0 -0.98839728916E+02 -0.35389208910E+03  0.43388573043E+03  0.56856462238E+03  0.25500000920E-02 0.  1.
       -2    1    3    3    0  502  0.98839728916E+02  0.35389208910E+03 -0.14545871688E+04  0.15002775524E+04  0.25500000920E-02 0. -1.
</event>
<event>
 5   0  0.4623665E-05  0.1815818E+04  0.7818609E-02  0.8697933E-01
        1   -1    0    0  501    0  0.00000000000E+00  0.00000000000E+00  0.18517889765E+04  0.18517889765E+04  0.50400001928E-02 0.  1.
       -1   -1    0    0    0  501  0.00000000000E+00  0.00000000000E+00 -0.44513619990E+03  0.44513619993E+03  0.50400001928E-02 0. -1.
    10030    2    1    2    0    0  0.00000000000E+00  0.00000000000E+00  0.14066527766E+04  0.22969251765E+04  0.18158175107E+04 0.  0.
        5    1    3    3  502    0  0.40685122346E+03 -0.76289113249E+03  0.10537560681E+04  0.13630681344E+04  0.46999998093E+01 0.  1.
       -5    1    3    3    0  502 -0.40685122346E+03  0.76289113249E+03  0.35289670854E+03  0.93385704204E+03  0.46999998093E+01 0. -1.
</event>
<event>
 5   0  0.3270375E-05  0.1800685E+04  0.7818609E-02  0.8705935E-01
       -3   -1    0    0    0  501  0.00000000000E+00  0.00000000000E+00  0.57634715560E+03  0.57634716445E+03  0.10100000352E+00 0.  1.
        3   -1    0    0  501    0  0.00000000000E+00  0.00000000000E+00 -0.14064735427E+04  0.14064735464E+04  0.10100000352E+00 0. -1.
    10030    2    1    2    0    0  0.00000000000E+00  0.00000000000E+00 -0.83012638713E+03  0.19828207108E+04  0.18006854674E+04 0.  0.
        1    1    3    3  502    0  0.79534794143E+03 -0.31811842953E+03 -0.10982600678E+03  0.86361995978E+03  0.50400001928E-02 0.  1.
       -1    1    3    3    0  502 -0.79534794143E+03  0.31811842953E+03 -0.72030038035E+03  0.11192007510E+04  0.50400001928E-02 0. -1.
</event>
<event>
 5   0  0.9147432E-05  0.1808615E+04  0.7818609E-02  0.8701731E-01
       -2   -1    0    0    0  501  0.00000000000E+00  0.00000000000E+00  0.89922837303E+03  0.89922837303E+03  0.25500000920E-02 0. -1.
        2   -1    0    0  501    0  0.00000000000E+00  0.00000000000E+00 -0.90941534030E+03  0.90941534031E+03  0.25500000920E-02 0.  1.
    10030    2    1    2    0    0  0.00000000000E+00  0.00000000000E+00 -0.10186967276E+02  0.18086437133E+04  0.18086150247E+04 0.  0.
        3    1    3    3  502    0 -0.31994960204E+03  0.44468429219E+03  0.71440399496E+03  0.90026937402E+03  0.10100000352E+00 0. -1.
       -3    1    3    3    0  502  0.31994960204E+03 -0.44468429219E+03 -0.72459096224E+03  0.90837433932E+03  0.10100000352E+00 0.  1.
</event>
<event>
 5   0  0.9147432E-05  0.1799858E+04  0.7818609E-02  0.8706375E-01
        2   -1    0    0  501    0  0.00000000000E+00  0.00000000000E+00  0.76800104229E+03  0.76800104229E+03  0.25500000920E-02 0.  1.
       -2   -1    0    0    0  501  0.00000000000E+00  0.00000000000E+00 -0.10545193149E+04  0.10545193149E+04  0.25500000920E-02 0. -1.
    10030    2    1    2    0    0  0.00000000000E+00  0.00000000000E+00 -0.28651827258E+03  0.18225203572E+04  0.17998576976E+04 0.  0.
        3    1    3    3  502    0  0.44288168942E+03 -0.52023765115E+03  0.44984676735E+03  0.81801804919E+03  0.10100000352E+00 0.  1.
       -3    1    3    3    0  502 -0.44288168942E+03  0.52023765115E+03 -0.73636503992E+03  0.10045023080E+04  0.10100000352E+00 0. -1.
</event>
<event>
 5   0  0.8892280E-05  0.1799504E+04  0.7818609E-02  0.8706563E-01
       -2   -1    0    0    0  501  0.00000000000E+00  0.00000000000E+00  0.62338933162E+03  0.62338933163E+03  0.25500000920E-02 0. -1.
        2   -1    0    0  501    0  0.00000000000E+00  0.00000000000E+00 -0.12986321130E+04  0.12986321131E+04  0.25500000920E-02 0.  1.
    10030    2    1    2    0    0  0.00000000000E+00  0.00000000000E+00 -0.67524278143E+03  0.19220214447E+04  0.17995037149E+04 0.  0.
        4    1    3    3  502    0 -0.11093344088E+03 -0.65230642991E+03  0.31359636005E+03  0.73222550948E+03  0.12699999809E+01 0. -1.
       -4    1    3    3    0  502  0.11093344088E+03  0.65230642991E+03 -0.98883914147E+03  0.11897959352E+04  0.12699999809E+01 0.  1.
</event>
<event>
 5   0  0.9147432E-05  0.1799457E+04  0.7818609E-02  0.8706588E-01
       -2   -1    0    0    0  501  0.00000000000E+00  0.00000000000E+00  0.75206001027E+03  0.75206001027E+03  0.25500000920E-02 0. -1.
        2   -1    0    0  501    0  0.00000000000E+00  0.00000000000E+00 -0.10763917134E+04  0.10763917134E+04  0.25500000920E-02 0.  1.
    10030    2    1    2    0    0  0.00000000000E+00  0.00000000000E+00 -0.32433170310E+03  0.18284517236E+04  0.17994567658E+04 0.  0.
        3    1    3    3  502    0 -0.17882245582E+03 -0.62466459706E+03 -0.79455066097E+03  0.10263986032E+04  0.10100000352E+00 0.  1.
       -3    1    3    3    0  502  0.17882245582E+03  0.62466459706E+03  0.47021895787E+03  0.80205312048E+03  0.10100000352E+00 0. -1.
</event>
<event>
 5   0  0.8893075E-05  0.1796575E+04  0.7818609E-02  0.8708123E-01
       -2   -1    0    0    0  501  0.00000000000E+00  0.00000000000E+00  0.68747115670E+03  0.68747115671E+03  0.25500000920E-02 0. -1.
        2   -1    0    0  501    0  0.00000000000E+00  0.00000000000E+00 -0.11737515323E+04  0.11737515323E+04  0.25500000920E-02 0.  1.
    10030    2    1    2    0    0  0.00000000000E+00  0.00000000000E+00 -0.48628037561E+03  0.18612226890E+04  0.17965748786E+04 0.  0.
        1    1    3    3  502    0  0.53226838241E+03 -0.69327977817E+03 -0.28379341846E+02  0.87450092556E+03  0.50400001928E-02 0. -1.
       -1    1    3    3    0  502 -0.53226838241E+03  0.69327977817E+03 -0.45790103377E+03  0.98672176346E+03  0.50400001928E-02 0.  1.
</event>
<event>
 5   0  0.9147432E-05  0.1810896E+04  0.7818609E-02  0.8700526E-01
       -2   -1    0    0    0  501  0.00000000000E+00  0.00000000000E+00  0.51378666629E+03  0.51378666629E+03  0.25500000920E-02 0.  1.
        2   -1    0    0  501    0  0.00000000000E+00  0.00000000000E+00 -0.15956745671E+04  0.15956745671E+04  0.25500000920E-02 0. -1.
    10030    2    1    2    0    0  0.00000000000E+00  0.00000000000E+00 -0.10818879008E+04  0.21094612334E+04  0.18108962602E+04 0.  0.
        3    1    3    3  502    0 -0.61866683787E+03 -0.28084958705E+03  0.15624024317E+03  0.69716294410E+03  0.10100000352E+00 0.  1.
       -3    1    3    3    0  502  0.61866683787E+03  0.28084958705E+03 -0.12381281440E+04  0.14122982893E+04  0.10100000352E+00 0. -1.
</event>
<event>
 5   0  0.9184414E-05  0.1805734E+04  0.7818609E-02  0.8703256E-01
       -2   -1    0    0    0  501  0.00000000000E+00  0.00000000000E+00  0.71452080679E+03  0.71452080679E+03  0.25500000920E-02 0.  1.
        2   -1    0    0  501    0  0.00000000000E+00  0.00000000000E+00 -0.11408606935E+04  0.11408606935E+04  0.25500000920E-02 0. -1.
    10030    2    1    2    0    0  0.00000000000E+00  0.00000000000E+00 -0.42633988668E+03  0.18553815003E+04  0.18057338709E+04 0.  0.
        5    1    3    3  502    0 -0.16363239655E+03  0.66948530860E+03 -0.81243837616E+03  0.10653939857E+04  0.46999998093E+01 0. -1.
       -5    1    3    3    0  502  0.16363239655E+03 -0.66948530860E+03  0.38609848949E+03  0.78998751460E+03  0.46999998093E+01 0.  1.
</event>
<event>
 5   0  0.4335117E-05  0.1801970E+04  0.7818609E-02  0.8705253E-01
       -1   -1    0    0    0  501  0.00000000000E+00  0.00000000000E+00  0.88577399974E+03  0.88577399976E+03  0.50400001928E-02 0. -1.
        1   -1    0    0  501    0  0.00000000000E+00  0.00000000000E+00 -0.91645710241E+03  0.91645710242E+03  0.50400001928E-02 0.  1.
    10030    2    1    2    0    0  0.00000000000E+00  0.00000000000E+00 -0.30683102664E+02  0.18022311022E+04  0.18019698923E+04 0.  0.
        3    1    3    3  502    0 -0.68646011240E+03  0.13595472331E+03  0.55224638738E+03  0.89145232922E+03  0.10100000352E+00 0. -1.
       -3    1    3    3    0  502  0.68646011240E+03 -0.13595472331E+03 -0.58292949005E+03  0.91077877296E+03  0.10100000352E+00 0.  1.
</event>
<event>
 5   0  0.4535100E-05  0.1793684E+04  0.7818609E-02  0.8709665E-01
       -1   -1    0    0    0  501  0.00000000000E+00  0.00000000000E+00  0.40664369592E+03  0.40664369595E+03  0.50400001928E-02 0. -1.
        1   -1    0    0  501    0  0.00000000000E+00  0.00000000000E+00 -0.19779615085E+04  0.19779615085E+04  0.50400001928E-02 0.  1.
    10030    2    1    2    0    0  0.00000000000E+00  0.00000000000E+00 -0.15713178125E+04  0.23846052044E+04  0.17936840059E+04 0.  0.
        1    1    3    3  502    0 -0.72133554239E+03 -0.29753521142E+03 -0.19787945634E+03  0.80498971796E+03  0.50400001928E-02 0. -1.
       -1    1    3    3    0  502  0.72133554239E+03  0.29753521142E+03 -0.13734383562E+04  0.15796154865E+04  0.50400001928E-02 0.  1.
</event>
<event>
 5   0  0.4335117E-05  0.1798970E+04  0.7818609E-02  0.8706847E-01
       -1   -1    0    0    0  501  0.00000000000E+00  0.00000000000E+00  0.92476144543E+03  0.92476144544E+03  0.50400001928E-02 0.  1.
        1   -1    0    0  501    0  0.00000000000E+00  0.00000000000E+00 -0.87489958534E+03  0.87489958536E+03  0.50400001928E-02 0. -1.
    10030    2    1    2    0    0  0.00000000000E+00  0.00000000000E+00  0.49861860085E+02  0.17996610308E+04  0.17989701556E+04 0.  0.
        3    1    3    3  502    0  0.76910617117E+03  0.17863908699E+03  0.45595271643E+03  0.91177251316E+03  0.10100000352E+00 0.  1.
       -3    1    3    3    0  502 -0.76910617117E+03 -0.17863908699E+03 -0.40609085634E+03  0.88788851763E+03  0.10100000352E+00 0. -1.
</event>
<event>
 5   0  0.4535100E-05  0.1795231E+04  0.7818609E-02  0.8708840E-01
       -1   -1    0    0    0  501  0.00000000000E+00  0.00000000000E+00  0.59258948929E+03  0.59258948931E+03  0.50400001928E-02 0. -1.
        1   -1    0    0  501    0  0.00000000000E+00  0.00000000000E+00 -0.13596491338E+04  0.13596491338E+04  0.50400001928E-02 0.  1.
    10030    2    1    2    0    0  0.00000000000E+00  0.00000000000E+00 -0.76705964449E+03  0.19522386231E+04  0.17952312228E+04 0.  0.
        1    1    3    3  502    0  0.74003034643E+03  0.43263255520E+03 -0.67308366257E+03  0.10898887367E+04  0.50400001928E-02 0.  1.
       -1    1    3    3    0  502 -0.74003034643E+03 -0.43263255520E+03 -0.93975981922E+02  0.86234988645E+03  0.50400001928E-02 0. -1.
</event>
<event>
 5   0  0.4494757E-05  0.1780893E+04  0.7818609E-02  0.8716527E-01
       -1   -1    0    0    0  501  0.00000000000E+00  0.00000000000E+00  0.65490910103E+03  0.65490910105E+03  0.50400001928E-02 0. -1.
        1   -1    0    0  501    0  0.00000000000E+00  0.00000000000E+00 -0.12106949047E+04  0.12106949047E+04  0.50400001928E-02 0.  1.
    10030    2    1    2    0    0  0.00000000000E+00  0.00000000000E+00 -0.55578580369E+03  0.18656040058E+04  0.17808931598E+04 0.  0.
        4    1    3    3  502    0  0.28419429778E+03  0.16033235512E+03  0.59002124097E+03  0.67423997263E+03  0.12699999809E+01 0. -1.
       -4    1    3    3    0  502 -0.28419429778E+03 -0.16033235512E+03 -0.11458070447E+04  0.11913640331E+04  0.12699999809E+01 0.  1.
</event>
<event>
 5   0  0.8892280E-05  0.1802679E+04  0.7818609E-02  0.8704876E-01
       -2   -1    0    0    0  501  0.00000000000E+00  0.00000000000E+00  0.63818547010E+03  0.63818547011E+03  0.25500000920E-02 0. -1.
        2   -1    0    0  501    0  0.00000000000E+00  0.00000000000E+00 -0.12730038432E+04  0.12730038433E+04  0.25500000920E-02 0.  1.
    10030    2    1    2    0    0  0.00000000000E+00  0.00000000000E+00 -0.63481837315E+03  0.19111893134E+04  0.18026786249E+04 0.  0.
        4    1    3    3  502    0  0.50939410472E+03  0.32363446556E+03  0.39235838305E+03  0.71983910347E+03  0.12699999809E+01 0. -1.
       -4    1    3    3    0  502 -0.50939410472E+03 -0.32363446556E+03 -0.10271767562E+04  0.11913502099E+04  0.12699999809E+01 0.  1.
</event>
<event>
 5   0  0.9184414E-05  0.1793585E+04  0.7818609E-02  0.8709718E-01
       -2   -1    0    0    0  501  0.00000000000E+00  0.00000000000E+00  0.85545409569E+03  0.85545409569E+03  0.25500000920E-02 0.  1.
        2   -1    0    0  501    0  0.00000000000E+00  0.00000000000E+00 -0.94012858037E+03  0.94012858038E+03  0.25500000920E-02 0. -1.
    10030    2    1    2    0    0  0.00000000000E+00  0.00000000000E+00 -0.84674484685E+02  0.17955826761E+04  0.17935850630E+04 0.  0.
        5    1    3    3  502    0 -0.23433033134E+03 -0.86542641129E+03 -0.23845692569E+02  0.89691933004E+03  0.46999998093E+01 0. -1.
       -5    1    3    3    0  502  0.23433033134E+03  0.86542641129E+03 -0.60828792116E+02  0.89866334603E+03  0.46999998093E+01 0.  1.
</event>
<event>
 5   0  0.4535100E-05  0.1799283E+04  0.7818609E-02  0.8706681E-01
       -1   -1    0    0    0  501  0.00000000000E+00  0.00000000000E+00  0.48996512002E+03  0.48996512005E+03  0.50400001928E-02 0. -1.
        1   -1    0    0  501    0  0.00000000000E+00  0.00000000000E+00 -0.16518625883E+04  0.16518625883E+04  0.50400001928E-02 0.  1.
    10030    2    1    2    0    0  0.00000000000E+00  0.00000000000E+00 -0.11618974683E+04  0.21418277084E+04  0.17992832477E+04 0.  0.
        1    1    3    3  502    0  0.60222954814E+03  0.53705650881E+03 -0.10544813495E+04  0.13277955561E+04  0.50400001928E-02 0.  1.
       -1    1    3    3    0  502 -0.60222954814E+03 -0.53705650881E+03 -0.10741611876E+03  0.81403215225E+03  0.50400001928E-02 0. -1.
</event>
<event>
 5   0  0.9147432E-05  0.1783764E+04  0.7818609E-02  0.8714981E-01
        2   -1    0    0  501    0  0.00000000000E+00  0.00000000000E+00  0.91346436527E+03  0.91346436527E+03  0.25500000920E-02 0. -1.
       -2   -1    0    0    0  501  0.00000000000E+00  0.00000000000E+00 -0.87080998048E+03  0.87080998048E+03  0.25500000920E-02 0.  1.
    10030    2    1    2    0    0  0.00000000000E+00  0.00000000000E+00  0.42654384795E+02  0.17842743458E+04  0.17837644307E+04 0.  0.
        3    1    3    3  502    0 -0.91674862246E+02  0.88528210990E+03  0.79008062619E+02  0.89351607632E+03  0.10100000352E+00 0. -1.
       -3    1    3    3    0  502  0.91674862246E+02 -0.88528210990E+03 -0.36353677824E+02  0.89075826944E+03  0.10100000352E+00 0.  1.
</event>
<event>
 5   0  0.8893075E-05  0.1802148E+04  0.7818609E-02  0.8705158E-01
        2   -1    0    0  501    0  0.00000000000E+00  0.00000000000E+00  0.17459307285E+04  0.17459307285E+04  0.25500000920E-02 0.  1.
       -2   -1    0    0    0  501  0.00000000000E+00  0.00000000000E+00 -0.46504371287E+03  0.46504371288E+03  0.25500000920E-02 0. -1.
    10030    2    1    2    0    0  0.00000000000E+00  0.00000000000E+00  0.12808870156E+04  0.22109744413E+04  0.18021477280E+04 0.  0.
        1    1    3    3  502    0 -0.50747344631E+03  0.48650801324E+03  0.13319751089E+04  0.15061132217E+04  0.50400001928E-02 0.  1.
       -1    1    3    3    0  502  0.50747344631E+03 -0.48650801324E+03 -0.51088093365E+02  0.70486121965E+03  0.50400001928E-02 0. -1.
</event>
<event>
 5   0  0.8802655E-05  0.1796129E+04  0.7818609E-02  0.8708361E-01
       -2   -1    0    0    0  501  0.00000000000E+00  0.00000000000E+00  0.48336419042E+03  0.48336419043E+03  0.25500000920E-02 0.  1.
        2   -1    0    0  501    0  0.00000000000E+00  0.00000000000E+00 -0.16685557691E+04  0.16685557691E+04  0.25500000920E-02 0. -1.
    10030    2    1    2    0    0  0.00000000000E+00  0.00000000000E+00 -0.11851915787E+04  0.21519199595E+04  0.17961292921E+04 0.  0.
        2    1    3    3  502    0 -0.69717513833E+03 -0.30325699939E+03 -0.19887272049E+02  0.76053499905E+03  0.25500000920E-02 0.  1.
       -2    1    3    3    0  502  0.69717513833E+03  0.30325699939E+03 -0.11653043066E+04  0.13913849605E+04  0.25500000920E-02 0. -1.
</event>
<event>
 5   0  0.4578107E-05  0.1812449E+04  0.7818609E-02  0.8699707E-01
        1   -1    0    0  501    0  0.00000000000E+00  0.00000000000E+00  0.58839365088E+03  0.58839365090E+03  0.50400001928E-02 0.  1.
       -1   -1    0    0    0  501  0.00000000000E+00  0.00000000000E+00 -0.13957371255E+04  0.13957371255E+04  0.50400001928E-02 0. -1.
    10030    2    1    2    0    0  0.00000000000E+00  0.00000000000E+00 -0.80734347461E+03  0.19841307764E+04  0.18124490205E+04 0.  0.
        2    1    3    3  502    0  0.44006949880E+03 -0.65175474953E+03 -0.89665904028E+03  0.11926620862E+04  0.25500000920E-02 0. -1.
       -2    1    3    3    0  502 -0.44006949880E+03  0.65175474953E+03  0.89315565677E+02  0.79146869021E+03  0.25500000920E-02 0.  1.
</event>
<event>
 5   0  0.4494757E-05  0.1798050E+04  0.7818609E-02  0.8707337E-01
       -1   -1    0    0    0  501  0.00000000000E+00  0.00000000000E+00  0.10409570578E+04  0.10409570578E+04  0.50400001928E-02 0.  1.
        1   -1    0    0  501    0  0.00000000000E+00  0.00000000000E+00 -0.77644465031E+03  0.77644465033E+03  0.50400001928E-02 0. -1.
    10030    2    1    2    0    0  0.00000000000E+00  0.00000000000E+00  0.26451240745E+03  0.18174017081E+04  0.17980495418E+04 0.  0.
        4    1    3    3  502    0  0.33837269140E+03  0.43077426299E+03 -0.58828472188E+03  0.80383025002E+03  0.12699999809E+01 0. -1.
       -4    1    3    3    0  502 -0.33837269140E+03 -0.43077426299E+03  0.85279712933E+03  0.10135714581E+04  0.12699999809E+01 0.  1.
</event>
<event>
 5   0  0.9184414E-05  0.1803392E+04  0.7818609E-02  0.8704498E-01
        2   -1    0    0  501    0  0.00000000000E+00  0.00000000000E+00  0.34489583280E+03  0.34489583281E+03  0.25500000920E-02 0. -1.
       -2   -1    0    0    0  501  0.00000000000E+00  0.00000000000E+00 -0.23573957208E+04  0.23573957208E+04  0.25500000920E-02 0.  1.
    10030    2    1    2    0    0  0.00000000000E+00  0.00000000000E+00 -0.20124998880E+04  0.27022915536E+04  0.18033923149E+04 0.  0.
        5    1    3    3  502    0 -0.71344485790E+03 -0.15161546812E+03 -0.21186973086E+03  0.75954044546E+03  0.46999998093E+01 0. -1.
       -5    1    3    3    0  502  0.71344485790E+03  0.15161546812E+03 -0.18006301572E+04  0.19427511082E+04  0.46999998093E+01 0.  1.
</event>
<event>
 5   0  0.3270375E-05  0.1848618E+04  0.7818609E-02  0.8680864E-01
        4   -1    0    0  501    0  0.00000000000E+00  0.00000000000E+00  0.10134109782E+04  0.10134117740E+04  0.12699999809E+01 0. -1.
       -4   -1    0    0    0  501  0.00000000000E+00  0.00000000000E+00 -0.84303973655E+03  0.84304069315E+03  0.12699999809E+01 0.  1.
    10030    2    1    2    0    0  0.00000000000E+00  0.00000000000E+00  0.17037124166E+03  0.18564524671E+04  0.18486182415E+04 0.  0.
        3    1    3    3  502    0 -0.30580054703E+03  0.58770912790E+03 -0.56208550152E+03  0.86882455927E+03  0.10100000352E+00 0.  1.
       -3    1    3    3    0  502  0.30580054703E+03 -0.58770912790E+03  0.73245674318E+03  0.98762790787E+03  0.10100000352E+00 0. -1.
</event>
<event>
 5   0  0.4623665E-05  0.1800921E+04  0.7818609E-02  0.8705810E-01
       -1   -1    0    0    0  501  0.00000000000E+00  0.00000000000E+00  0.11012444260E+04  0.11012444260E+04  0.50400001928E-02 0.  1.
        1   -1    0    0  501    0  0.00000000000E+00  0.00000000000E+00 -0.73628446647E+03  0.73628446649E+03  0.50400001928E-02 0. -1.
    10030    2    1    2    0    0  0.00000000000E+00  0.00000000000E+00  0.36495995956E+03  0.18375288925E+04  0.18009210585E+04 0.  0.
        5    1    3    3  502    0  0.31250681891E+03 -0.31786844526E+03  0.98075565246E+03  0.10773136035E+04  0.46999998093E+01 0.  1.
       -5    1    3    3    0  502 -0.31250681891E+03  0.31786844526E+03 -0.61579569290E+03  0.76021528908E+03  0.46999998093E+01 0. -1.
</event>
<event>
 5   0  0.4494757E-05  0.1802740E+04  0.7818609E-02  0.8704844E-01
        1   -1    0    0  501    0  0.00000000000E+00  0.00000000000E+00  0.71489922769E+03  0.71489922771E+03  0.50400001928E-02 0. -1.
       -1   -1    0    0    0  501  0.00000000000E+00  0.00000000000E+00 -0.11364787311E+04  0.11364787311E+04  0.50400001928E-02 0.  1.
    10030    2    1    2    0    0  0.00000000000E+00  0.00000000000E+00 -0.42157950340E+03  0.18513779588E+04  0.18027398783E+04 0.  0.
        4    1    3    3  502    0 -0.18546999561E+03  0.65998867362E+02 -0.11141302080E+04  0.11313897220E+04  0.12699999809E+01 0.  1.
       -4    1    3    3    0  502  0.18546999561E+03 -0.65998867362E+02  0.69255070462E+03  0.71998823680E+03  0.12699999809E+01 0. -1.
</event>
<event>
 5   0  0.4335117E-05  0.1805860E+04  0.7818609E-02  0.8703189E-01
       -1   -1    0    0    0  501  0.00000000000E+00  0.00000000000E+00  0.13860794830E+04  0.13860794830E+04  0.50400001928E-02 0.  1.
        1   -1    0    0  501    0  0.00000000000E+00  0.00000000000E+00 -0.58819314670E+03  0.58819314672E+03  0.50400001928E-02 0. -1.
    10030    2    1    2    0    0  0.00000000000E+00  0.00000000000E+00  0.79788633631E+03  0.19742726297E+04  0.18058598536E+04 0.  0.
        3    1    3    3  502    0  0.47144000963E+03  0.35553357682E+03 -0.34785970939E+03  0.68532196414E+03  0.10100000352E+00 0. -1.
       -3    1    3    3    0  502 -0.47144000963E+03 -0.35553357682E+03  0.11457460457E+04  0.12889506656E+04  0.10100000352E+00 0.  1.
</event>
<event>
 5   0  0.4623665E-05  0.1800810E+04  0.7818609E-02  0.8705869E-01
       -1   -1    0    0    0  501  0.00000000000E+00  0.00000000000E+00  0.49646868835E+03  0.49646868837E+03  0.50400001928E-02 0. -1.
        1   -1    0    0  501    0  0.00000000000E+00  0.00000000000E+00 -0.16329910505E+04  0.16329910505E+04  0.50400001928E-02 0.  1.
    10030    2    1    2    0    0  0.00000000000E+00  0.00000000000E+00 -0.11365223622E+04  0.21294597389E+04  0.18008097345E+04 0.  0.
        5    1    3    3  502    0  0.71308443212E+03 -0.54954395077E+03 -0.58575555931E+03  0.10740668631E+04  0.46999998093E+01 0.  1.
       -5    1    3    3    0  502 -0.71308443212E+03  0.54954395077E+03 -0.55076680286E+03  0.10553928758E+04  0.46999998093E+01 0. -1.
</event>
<event>
 5   0  0.4535100E-05  0.1802605E+04  0.7818609E-02  0.8704915E-01
        1   -1    0    0  501    0  0.00000000000E+00  0.00000000000E+00  0.11433900218E+04  0.11433900218E+04  0.50400001928E-02 0. -1.
       -1   -1    0    0    0  501  0.00000000000E+00  0.00000000000E+00 -0.71047185651E+03  0.71047185653E+03  0.50400001928E-02 0.  1.
    10030    2    1    2    0    0  0.00000000000E+00  0.00000000000E+00  0.43291816531E+03  0.18538618784E+04  0.18026052608E+04 0.  0.
        1    1    3    3  502    0 -0.57588901756E+03  0.36884831599E+03  0.82022052063E+03  0.10679227234E+04  0.50400001928E-02 0. -1.
       -1    1    3    3    0  502  0.57588901756E+03 -0.36884831599E+03 -0.38730235533E+03  0.78593915491E+03  0.50400001928E-02 0.  1.
</event>
<event>
 5   0  0.3270375E-05  0.1803457E+04  0.7818609E-02  0.8704463E-01
       -3   -1    0    0    0  501  0.00000000000E+00  0.00000000000E+00  0.11733906776E+04  0.11733906820E+04  0.10100000352E+00 0.  1.
        3   -1    0    0  501    0  0.00000000000E+00  0.00000000000E+00 -0.69296098475E+03  0.69296099211E+03  0.10100000352E+00 0. -1.
    10030    2    1    2    0    0  0.00000000000E+00  0.00000000000E+00  0.48042969289E+03  0.18663516741E+04  0.18034566481E+04 0.  0.
        3    1    3    3  502    0  0.49269261174E+02  0.73749714514E+02  0.11688656966E+04  0.11722258772E+04  0.10100000352E+00 0.  1.
       -3    1    3    3    0  502 -0.49269261174E+02 -0.73749714514E+02 -0.68843600367E+03  0.69412579684E+03  0.10100000352E+00 0. -1.
</event>
<event>
 5   0  0.8893075E-05  0.1790785E+04  0.7818609E-02  0.8711215E-01
        2   -1    0    0  501    0  0.00000000000E+00  0.00000000000E+00  0.17726294448E+04  0.17726294448E+04  0.25500000920E-02 0.  1.
       -2   -1    0    0    0  501  0.00000000000E+00  0.00000000000E+00 -0.45228176944E+03  0.45228176945E+03  0.25500000920E-02 0. -1.
    10030    2    1    2    0    0  0.00000000000E+00  0.00000000000E+00  0.13203476754E+04  0.22249112142E+04  0.17907852823E+04 0.  0.
        1    1    3    3  502    0 -0.80916238982E+03  0.30213151470E+03  0.95339797388E+03  0.12864660594E+04  0.50400001928E-02 0. -1.
       -1    1    3    3    0  502  0.80916238982E+03 -0.30213151470E+03  0.36694970148E+03  0.93844515488E+03  0.50400001928E-02 0.  1.
</event>
<event>
 5   0  0.4535100E-05  0.1806843E+04  0.7818609E-02  0.8702669E-01
       -1   -1    0    0    0  501  0.00000000000E+00  0.00000000000E+00  0.13639617971E+04  0.13639617971E+04  0.50400001928E-02 0. -1.
        1   -1    0    0  501    0  0.00000000000E+00  0.00000000000E+00 -0.59838196147E+03  0.59838196149E+03  0.50400001928E-02 0.  1.
    10030    2    1    2    0    0  0.00000000000E+00  0.00000000000E+00  0.76557983565E+03  0.19623437586E+04  0.18068426999E+04 0.  0.
        1    1    3    3  502    0  0.58350568561E+03  0.37674886733E+03 -0.24464167532E+03  0.73638858186E+03  0.50400001928E-02 0.  1.
       -1    1    3    3    0  502 -0.58350568561E+03 -0.37674886733E+03  0.10102215110E+04  0.12259551768E+04  0.50400001928E-02 0. -1.
</event>
<event>
 5   0  0.8892280E-05  0.1792299E+04  0.7818609E-02  0.8710406E-01
        2   -1    0    0  501    0  0.00000000000E+00  0.00000000000E+00  0.12003776531E+04  0.12003776531E+04  0.25500000920E-02 0. -1.
       -2   -1    0    0    0  501  0.00000000000E+00  0.00000000000E+00 -0.66902595050E+03  0.66902595051E+03  0.25500000920E-02 0.  1.
    10030    2    1    2    0    0  0.00000000000E+00  0.00000000000E+00  0.53135170259E+03  0.18694036036E+04  0.17922988594E+04 0.  0.
        4    1    3    3  502    0  0.16381780395E+03  0.88101769360E+03  0.25802985961E+03  0.93252853612E+03  0.12699999809E+01 0.  1.
       -4    1    3    3    0  502 -0.16381780395E+03 -0.88101769360E+03  0.27332184298E+03  0.93687506748E+03  0.12699999809E+01 0. -1.
</event>
<event>
 5   0  0.9184414E-05  0.1794987E+04  0.7818609E-02  0.8708970E-01
       -2   -1    0    0    0  501  0.00000000000E+00  0.00000000000E+00  0.60615355431E+03  0.60615355432E+03  0.25500000920E-02 0.  1.
        2   -1    0    0  501    0  0.00000000000E+00  0.00000000000E+00 -0.13288624674E+04  0.13288624674E+04  0.25500000920E-02 0. -1.
    10030    2    1    2    0    0  0.00000000000E+00  0.00000000000E+00 -0.72270891304E+03  0.19350160217E+04  0.17949871396E+04 0.  0.
        5    1    3    3  502    0 -0.86224502600E+03  0.22568805765E+03 -0.47478168163E+03  0.10098719322E+04  0.46999998093E+01 0.  1.
       -5    1    3    3    0  502  0.86224502600E+03 -0.22568805765E+03 -0.24792723142E+03  0.92514408948E+03  0.46999998093E+01 0. -1.
</event>
<event>
 5   0  0.4578107E-05  0.1790351E+04  0.7818609E-02  0.8711448E-01
        1   -1    0    0  501    0  0.00000000000E+00  0.00000000000E+00  0.58671346955E+03  0.58671346957E+03  0.50400001928E-02 0. -1.
       -1   -1    0    0    0  501  0.00000000000E+00  0.00000000000E+00 -0.13658093996E+04  0.13658093996E+04  0.50400001928E-02 0.  1.
    10030    2    1    2    0    0  0.00000000000E+00  0.00000000000E+00 -0.77909593006E+03  0.19525228692E+04  0.17903505485E+04 0.  0.
        2    1    3    3  502    0 -0.50639380072E+03 -0.42539016987E+03  0.26837841904E+03  0.71373556297E+03  0.25500000920E-02 0. -1.
       -2    1    3    3    0  502  0.50639380072E+03  0.42539016987E+03 -0.10474743491E+04  0.12387873062E+04  0.25500000920E-02 0.  1.
</event>
<event>
 5   0  0.4535100E-05  0.1789414E+04  0.7818609E-02  0.8711950E-01
        1   -1    0    0  501    0  0.00000000000E+00  0.00000000000E+00  0.89645478635E+03  0.89645478637E+03  0.50400001928E-02 0.  1.
       -1   -1    0    0    0  501  0.00000000000E+00  0.00000000000E+00 -0.89296220739E+03  0.89296220741E+03  0.50400001928E-02 0. -1.
    10030    2    1    2    0    0  0.00000000000E+00  0.00000000000E+00  0.34925789604E+01  0.17894169938E+04  0.17894135854E+04 0.  0.
        1    1    3    3  502    0  0.37535596049E+03  0.79050781929E+03 -0.18454828272E+03  0.89434488768E+03  0.50400001928E-02 0. -1.
       -1    1    3    3    0  502 -0.37535596049E+03 -0.79050781929E+03  0.18804086168E+03  0.89507210610E+03  0.50400001928E-02 0.  1.
</event>
<event>
 5   0  0.8802655E-05  0.1805422E+04  0.7818609E-02  0.8703421E-01
        2   -1    0    0  501    0  0.00000000000E+00  0.00000000000E+00  0.11747055129E+04  0.11747055130E+04  0.25500000920E-02 0. -1.
       -2   -1    0    0    0  501  0.00000000000E+00  0.00000000000E+00 -0.69369484573E+03  0.69369484573E+03  0.25500000920E-02 0.  1.
    10030    2    1    2    0    0  0.00000000000E+00  0.00000000000E+00  0.48101066722E+03  0.18684003587E+04  0.18054220111E+04 0.  0.
        2    1    3    3  502    0  0.74136237054E+01 -0.81950847507E+03 -0.15116476716E+03  0.83336659963E+03  0.25500000920E-02 0.  1.
       -2    1    3    3    0  502 -0.74136237054E+01  0.81950847507E+03  0.63217543439E+03  0.10350337591E+04  0.25500000920E-02 0. -1.
</event>
<event>
 5   0  0.4335117E-05  0.1810624E+04  0.7818609E-02  0.8700670E-01
       -1   -1    0    0    0  501  0.00000000000E+00  0.00000000000E+00  0.55098339061E+03  0.55098339064E+03  0.50400001928E-02 0.  1.
        1   -1    0    0  501    0  0.00000000000E+00  0.00000000000E+00 -0.14875033097E+04  0.14875033098E+04  0.50400001928E-02 0. -1.
    10030    2    1    2    0    0  0.00000000000E+00  0.00000000000E+00 -0.93651991914E+03  0.20384867004E+04  0.18106237789E+04 0.  0.
        3    1    3    3  502    0  0.26257947461E+03 -0.19449369585E+03  0.48227418279E+03  0.58254971959E+03  0.10100000352E+00 0.  1.
       -3    1    3    3    0  502 -0.26257947461E+03  0.19449369585E+03 -0.14187941019E+04  0.14559369808E+04  0.10100000352E+00 0. -1.
</event>
<event>
 5   0  0.4335117E-05  0.1800479E+04  0.7818609E-02  0.8706045E-01
       -1   -1    0    0    0  501  0.00000000000E+00  0.00000000000E+00  0.68489499484E+03  0.68489499486E+03  0.50400001928E-02 0.  1.
        1   -1    0    0  501    0  0.00000000000E+00  0.00000000000E+00 -0.11832924976E+04  0.11832924977E+04  0.50400001928E-02 0. -1.
    10030    2    1    2    0    0  0.00000000000E+00  0.00000000000E+00 -0.49839750281E+03  0.18681874925E+04  0.18004789464E+04 0.  0.
        3    1    3    3  502    0 -0.78173477539E+03  0.43173150097E+03 -0.13121356256E+03  0.90261750325E+03  0.10100000352E+00 0. -1.
       -3    1    3    3    0  502  0.78173477539E+03 -0.43173150097E+03 -0.36718394024E+03  0.96556998926E+03  0.10100000352E+00 0.  1.
</event>
<event>
 5   0  0.8802655E-05  0.1790349E+04  0.7818609E-02  0.8711449E-01
       -2   -1    0    0    0  501  0.00000000000E+00  0.00000000000E+00  0.78763067746E+03  0.78763067747E+03  0.25500000920E-02 0.  1.
        2   -1    0    0  501    0  0.00000000000E+00  0.00000000000E+00 -0.10174024666E+04  0.10174024666E+04  0.25500000920E-02 0. -1.
    10030    2    1    2    0    0  0.00000000000E+00  0.00000000000E+00 -0.22977178912E+03  0.18050331441E+04  0.17903490096E+04 0.  0.
        2    1    3    3  502    0  0.64934878085E+03  0.87540307638E-01 -0.73612440487E+03  0.98159716091E+03  0.25500000920E-02 0. -1.
       -2    1    3    3    0  502 -0.64934878085E+03 -0.87540307638E-01  0.50635261575E+03  0.82343598314E+03  0.25500000920E-02 0.  1.
</event>
<event>
 5   0  0.4623665E-05  0.1789799E+04  0.7818609E-02  0.8711743E-01
       -1   -1    0    0    0  501  0.00000000000E+00  0.00000000000E+00  0.53661271002E+03  0.53661271005E+03  0.50400001928E-02 0. -1.
        1   -1    0    0  501    0  0.00000000000E+00  0.00000000000E+00 -0.14924083173E+04  0.14924083173E+04  0.50400001928E-02 0.  1.
    10030    2    1    2    0    0  0.00000000000E+00  0.00000000000E+00 -0.95579560730E+03  0.20290210274E+04  0.17897991749E+04 0.  0.
        5    1    3    3  502    0 -0.14468452106E+03  0.69039709923E+03  0.14637800012E+03  0.72043762685E+03  0.46999998093E+01 0. -1.
       -5    1    3    3    0  502  0.14468452106E+03 -0.69039709923E+03 -0.11021736074E+04  0.13085834005E+04  0.46999998093E+01 0.  1.
</event>
<event>
 5   0  0.9147432E-05  0.1788697E+04  0.7818609E-02  0.8712333E-01
       -2   -1    0    0    0  501  0.00000000000E+00  0.00000000000E+00  0.88118367712E+03  0.88118367712E+03  0.25500000920E-02 0.  1.
        2   -1    0    0  501    0  0.00000000000E+00  0.00000000000E+00 -0.90771010313E+03  0.90771010313E+03  0.25500000920E-02 0. -1.
    10030    2    1    2    0    0  0.00000000000E+00  0.00000000000E+00 -0.26526426009E+02  0.17888937803E+04  0.17886970973E+04 0.  0.
        3    1    3    3  502    0 -0.51369635398E+03 -0.65723924558E+03 -0.33580750691E+03  0.89922970476E+03  0.10100000352E+00 0.  1.
       -3    1    3    3    0  502  0.51369635398E+03  0.65723924558E+03  0.30928108090E+03  0.88966407550E+03  0.10100000352E+00 0. -1.
</event>
<event>
 5   0  0.9147432E-05  0.1788595E+04  0.7818609E-02  0.8712388E-01
        2   -1    0    0  501    0  0.00000000000E+00  0.00000000000E+00  0.27869115284E+04  0.27869115284E+04  0.25500000920E-02 0. -1.
       -2   -1    0    0    0  501  0.00000000000E+00  0.00000000000E+00 -0.28697278112E+03  0.28697278113E+03  0.25500000920E-02 0.  1.
    10030    2    1    2    0    0  0.00000000000E+00  0.00000000000E+00  0.24999387473E+04  0.30738843096E+04  0.17885947021E+04 0.  0.
        3    1    3    3  502    0  0.75249001096E+03  0.42491262166E+03  0.85440761798E+03  0.12152383883E+04  0.10100000352E+00 0.  1.
       -3    1    3    3    0  502 -0.75249001096E+03 -0.42491262166E+03  0.16455311293E+04  0.18586459212E+04  0.10100000352E+00 0. -1.
</event>
<event>
 5   0  0.8802655E-05  0.1800110E+04  0.7818609E-02  0.8706241E-01
        2   -1    0    0  501    0  0.00000000000E+00  0.00000000000E+00  0.92304342490E+03  0.92304342491E+03  0.25500000920E-02 0. -1.
       -2   -1    0    0    0  501  0.00000000000E+00  0.00000000000E+00 -0.87763906645E+03  0.87763906645E+03  0.25500000920E-02 0.  1.
    10030    2    1    2    0    0  0.00000000000E+00  0.00000000000E+00  0.45404358459E+02  0.18006824914E+04  0.18001099630E+04 0.  0.
        2    1    3    3  502    0 -0.24516937145E+03 -0.82501497484E+03  0.28611318043E+03  0.90698317594E+03  0.25500000920E-02 0. -1.
       -2    1    3    3    0  502  0.24516937145E+03  0.82501497484E+03 -0.24070882197E+03  0.89369931542E+03  0.25500000920E-02 0.  1.
</event>
<event>
 5   0  0.4494757E-05  0.1798989E+04  0.7818609E-02  0.8706838E-01
        1   -1    0    0  501    0  0.00000000000E+00  0.00000000000E+00  0.22743236002E+04  0.22743236002E+04  0.50400001928E-02 0. -1.
       -1   -1    0    0    0  501  0.00000000000E+00  0.00000000000E+00 -0.35574970377E+03  0.35574970381E+03  0.50400001928E-02 0.  1.
    10030    2    1    2    0    0  0.00000000000E+00  0.00000000000E+00  0.19185738965E+04  0.26300733040E+04  0.17989885460E+04 0.  0.
        4    1    3    3  502    0 -0.12761993793E+03  0.48570705758E+03 -0.13171171661E+03  0.51917991441E+03  0.12699999809E+01 0.  1.
       -4    1    3    3    0  502  0.12761993793E+03 -0.48570705758E+03  0.20502856131E+04  0.21108933896E+04  0.12699999809E+01 0. -1.
</event>
<event>
 5   0  0.8893075E-05  0.1801400E+04  0.7818609E-02  0.8705555E-01
        2   -1    0    0  501    0  0.00000000000E+00  0.00000000000E+00  0.16860864782E+04  0.16860864782E+04  0.25500000920E-02 0.  1.
       -2   -1    0    0    0  501  0.00000000000E+00  0.00000000000E+00 -0.48114999067E+03  0.48114999067E+03  0.25500000920E-02 0. -1.
    10030    2    1    2    0    0  0.00000000000E+00  0.00000000000E+00  0.12049364875E+04  0.21672364688E+04  0.18014000036E+04 0.  0.
        1    1    3    3  502    0  0.43899339727E+03  0.11944775651E+03  0.15376894831E+04  0.16035809664E+04  0.50400001928E-02 0.  1.
       -1    1    3    3    0  502 -0.43899339727E+03 -0.11944775651E+03 -0.33275299556E+03  0.56365550247E+03  0.50400001928E-02 0. -1.
</event>
<event>
 5   0  0.8802655E-05  0.1800059E+04  0.7818609E-02  0.8706268E-01
        2   -1    0    0  501    0  0.00000000000E+00  0.00000000000E+00  0.97051581451E+03  0.97051581451E+03  0.25500000920E-02 0. -1.
       -2   -1    0    0    0  501  0.00000000000E+00  0.00000000000E+00 -0.83466269115E+03  0.83466269116E+03  0.25500000920E-02 0.  1.
    10030    2    1    2    0    0  0.00000000000E+00  0.00000000000E+00  0.13585312336E+03  0.18051785057E+04  0.18000592674E+04 0.  0.
        2    1    3    3  502    0  0.25062849505E+03  0.65283249824E+03  0.63614931893E+03  0.94535224613E+03  0.25500000920E-02 0. -1.
       -2    1    3    3    0  502 -0.25062849505E+03 -0.65283249824E+03 -0.50029619557E+03  0.85982625954E+03  0.25500000920E-02 0.  1.
</event>
<event>
 5   0  0.8893075E-05  0.1790301E+04  0.7818609E-02  0.8711474E-01
        2   -1    0    0  501    0  0.00000000000E+00  0.00000000000E+00  0.97387916087E+03  0.97387916087E+03  0.25500000920E-02 0. -1.
       -2   -1    0    0    0  501  0.00000000000E+00  0.00000000000E+00 -0.82278627340E+03  0.82278627341E+03  0.25500000920E-02 0.  1.
    10030    2    1    2    0    0  0.00000000000E+00  0.00000000000E+00  0.15109288747E+03  0.17966654343E+04  0.17903009865E+04 0.  0.
        1    1    3    3  502    0  0.21843397146E+03 -0.59663717228E+03 -0.55725451646E+03  0.84511650758E+03  0.50400001928E-02 0.  1.
       -1    1    3    3    0  502 -0.21843397146E+03  0.59663717228E+03  0.70834740393E+03  0.95154892671E+03  0.50400001928E-02 0. -1.
</event>
<event>
 5   0  0.9147432E-05  0.1798383E+04  0.7818609E-02  0.8707160E-01
       -2   -1    0    0    0  501  0.00000000000E+00  0.00000000000E+00  0.71712331978E+03  0.71712331979E+03  0.25500000920E-02 0. -1.
        2   -1    0    0  501    0  0.00000000000E+00  0.00000000000E+00 -0.11274841859E+04  0.11274841859E+04  0.25500000920E-02 0.  1.
    10030    2    1    2    0    0  0.00000000000E+00  0.00000000000E+00 -0.41036086610E+03  0.18446075057E+04  0.17983828318E+04 0.  0.
        3    1    3    3  502    0 -0.33591224880E+01  0.77251014306E+03  0.26682372617E+03  0.81729928171E+03  0.10100000352E+00 0. -1.
       -3    1    3    3    0  502  0.33591224880E+01 -0.77251014306E+03 -0.67718459227E+03  0.10273082240E+04  0.10100000352E+00 0.  1.
</event>
<event>
 5   0  0.4578107E-05  0.1802484E+04  0.7818609E-02  0.8704980E-01
        1   -1    0    0  501    0  0.00000000000E+00  0.00000000000E+00  0.14600864183E+04  0.14600864183E+04  0.50400001928E-02 0. -1.
       -1   -1    0    0    0  501  0.00000000000E+00  0.00000000000E+00 -0.55629391561E+03  0.55629391563E+03  0.50400001928E-02 0.  1.
    10030    2    1    2    0    0  0.00000000000E+00  0.00000000000E+00  0.90379250265E+03  0.20163803339E+04  0.18024840535E+04 0.  0.
        2    1    3    3  502    0 -0.42605219083E+03 -0.80233460469E+02  0.13357705259E+04  0.14043649010E+04  0.25500000920E-02 0. -1.
       -2    1    3    3    0  502  0.42605219083E+03  0.80233460469E+02 -0.43197802323E+03  0.61201543285E+03  0.25500000920E-02 0.  1.
</event>
<event>
 5   0  0.8893075E-05  0.1804083E+04  0.7818609E-02  0.8704131E-01
       -2   -1    0    0    0  501  0.00000000000E+00  0.00000000000E+00  0.45342384965E+03  0.45342384966E+03  0.25500000920E-02 0. -1.
        2   -1    0    0  501    0  0.00000000000E+00  0.00000000000E+00 -0.17945205777E+04  0.17945205777E+04  0.25500000920E-02 0.  1.
    10030    2    1    2    0    0  0.00000000000E+00  0.00000000000E+00 -0.13410967280E+04  0.22479444273E+04  0.18040825132E+04 0.  0.
        1    1    3    3  502    0 -0.32075002893E+03  0.48935286143E+03  0.18489736778E+03  0.61362353336E+03  0.50400001928E-02 0. -1.
       -1    1    3    3    0  502  0.32075002893E+03 -0.48935286143E+03 -0.15259940958E+04  0.16343208940E+04  0.50400001928E-02 0.  1.
</event>
<event>
 5   0  0.8892280E-05  0.1798465E+04  0.7818609E-02  0.8707116E-01
       -2   -1    0    0    0  501  0.00000000000E+00  0.00000000000E+00  0.35227673253E+03  0.35227673253E+03  0.25500000920E-02 0. -1.
        2   -1    0    0  501    0  0.00000000000E+00  0.00000000000E+00 -0.22954077665E+04  0.22954077665E+04  0.25500000920E-02 0.  1.
    10030    2    1    2    0    0  0.00000000000E+00  0.00000000000E+00 -0.19431310340E+04  0.26476844991E+04  0.17984646205E+04 0.  0.
        4    1    3    3  502    0 -0.88213755330E+02 -0.80998877762E+03 -0.15316829547E+04  0.17349114597E+04  0.12699999809E+01 0.  1.
       -4    1    3    3    0  502  0.88213755330E+02  0.80998877762E+03 -0.41144807933E+03  0.91277303936E+03  0.12699999809E+01 0. -1.
</event>
<event>
 5   0  0.4535100E-05  0.1791839E+04  0.7818609E-02  0.8710651E-01
       -1   -1    0    0    0  501  0.00000000000E+00  0.00000000000E+00  0.38816620278E+03  0.38816620281E+03  0.50400001928E-02 0.  1.
        1   -1    0    0  501    0  0.00000000000E+00  0.00000000000E+00 -0.20678558583E+04  0.20678558583E+04  0.50400001928E-02 0. -1.
    10030    2    1    2    0    0  0.00000000000E+00  0.00000000000E+00 -0.16796896555E+04  0.24560220611E+04  0.17918390066E+04 0.  0.
        1    1    3    3  502    0  0.80176056931E+03 -0.18881433969E+03 -0.13228987722E+04  0.15583748031E+04  0.50400001928E-02 0. -1.
       -1    1    3    3    0  502 -0.80176056931E+03  0.18881433969E+03 -0.35679088329E+03  0.89764725800E+03  0.50400001928E-02 0.  1.
</event>
<event>
 5   0  0.4578107E-05  0.1812401E+04  0.7818609E-02  0.8699733E-01
        1   -1    0    0  501    0  0.00000000000E+00  0.00000000000E+00  0.18333449217E+04  0.18333449217E+04  0.50400001928E-02 0. -1.
       -1   -1    0    0    0  501  0.00000000000E+00  0.00000000000E+00 -0.44792401061E+03  0.44792401063E+03  0.50400001928E-02 0.  1.
    10030    2    1    2    0    0  0.00000000000E+00  0.00000000000E+00  0.13854209111E+04  0.22812689323E+04  0.18124008499E+04 0.  0.
        2    1    3    3  502    0 -0.10454840884E+03  0.22770448281E+03 -0.40345718372E+03  0.47492883718E+03  0.25500000920E-02 0.  1.
       -2    1    3    3    0  502  0.10454840884E+03 -0.22770448281E+03  0.17888780948E+04  0.18063400952E+04  0.25500000920E-02 0. -1.
</event>
<event>
 5   0  0.4623665E-05  0.1808359E+04  0.7818609E-02  0.8701867E-01
        1   -1    0    0  501    0  0.00000000000E+00  0.00000000000E+00  0.23130823164E+04  0.23130823164E+04  0.50400001928E-02 0. -1.
       -1   -1    0    0    0  501  0.00000000000E+00  0.00000000000E+00 -0.35344194832E+03  0.35344194835E+03  0.50400001928E-02 0.  1.
    10030    2    1    2    0    0  0.00000000000E+00  0.00000000000E+00  0.19596403681E+04  0.26665242648E+04  0.18083587261E+04 0.  0.
        5    1    3    3  502    0 -0.64790668462E+03 -0.62717109323E+03  0.88210292521E+03  0.12614492906E+04  0.46999998093E+01 0.  1.
       -5    1    3    3    0  502  0.64790668462E+03  0.62717109323E+03  0.10775374429E+04  0.14050749742E+04  0.46999998093E+01 0. -1.
</event>
<event>
 5   0  0.3270375E-05  0.1797911E+04  0.7818609E-02  0.8707411E-01
        3   -1    0    0  501    0  0.00000000000E+00  0.00000000000E+00  0.74622879353E+03  0.74622880036E+03  0.10100000352E+00 0.  1.
       -3   -1    0    0    0  501  0.00000000000E+00  0.00000000000E+00 -0.10829394744E+04  0.10829394791E+04  0.10100000352E+00 0. -1.
    10030    2    1    2    0    0  0.00000000000E+00  0.00000000000E+00 -0.33671068091E+03  0.18291682795E+04  0.17979105962E+04 0.  0.
        1    1    3    3  502    0  0.30400462493E+03 -0.63050669246E+03  0.40551065658E+03  0.80894770773E+03  0.50400001928E-02 0.  1.
       -1    1    3    3    0  502 -0.30400462493E+03  0.63050669246E+03 -0.74222133749E+03  0.10202205718E+04  0.50400001928E-02 0. -1.
</event>
<event>
 5   0  0.4335117E-05  0.1801443E+04  0.7818609E-02  0.8705533E-01
        1   -1    0    0  501    0  0.00000000000E+00  0.00000000000E+00  0.12519852503E+04  0.12519852503E+04  0.50400001928E-02 0.  1.
       -1   -1    0    0    0  501  0.00000000000E+00  0.00000000000E+00 -0.64801005385E+03  0.64801005387E+03  0.50400001928E-02 0. -1.
    10030    2    1    2    0    0  0.00000000000E+00  0.00000000000E+00  0.60397519641E+03  0.18999953041E+04  0.18014427878E+04 0.  0.
        3    1    3    3  502    0  0.35887885795E+03 -0.24855592324E+03  0.11329505292E+04  0.12141461994E+04  0.10100000352E+00 0.  1.
       -3    1    3    3    0  502 -0.35887885795E+03  0.24855592324E+03 -0.52897533276E+03  0.68584910478E+03  0.10100000352E+00 0. -1.
</event>
<event>
 5   0  0.8892280E-05  0.1821022E+04  0.7818609E-02  0.8695199E-01
       -2   -1    0    0    0  501  0.00000000000E+00  0.00000000000E+00  0.87150761355E+03  0.87150761356E+03  0.25500000920E-02 0. -1.
        2   -1    0    0  501    0  0.00000000000E+00  0.00000000000E+00 -0.95125998330E+03  0.95125998330E+03  0.25500000920E-02 0.  1.
    10030    2    1    2    0    0  0.00000000000E+00  0.00000000000E+00 -0.79752369743E+02  0.18227675969E+04  0.18210220404E+04 0.  0.
        4    1    3    3  502    0 -0.68137814650E+03  0.30046923216E+02 -0.64365394679E+03  0.93780115816E+03  0.12699999809E+01 0.  1.
       -4    1    3    3    0  502  0.68137814650E+03 -0.30046923216E+02  0.56390157705E+03  0.88496643870E+03  0.12699999809E+01 0. -1.
</event>
<event>
 5   0  0.4535100E-05  0.1800196E+04  0.7818609E-02  0.8706195E-01
        1   -1    0    0  501    0  0.00000000000E+00  0.00000000000E+00  0.49362578030E+03  0.49362578032E+03  0.50400001928E-02 0.  1.
       -1   -1    0    0    0  501  0.00000000000E+00  0.00000000000E+00 -0.16412761733E+04  0.16412761733E+04  0.50400001928E-02 0. -1.
    10030    2    1    2    0    0  0.00000000000E+00  0.00000000000E+00 -0.11476503930E+04  0.21349019536E+04  0.18001958024E+04 0.  0.
        1    1    3    3  502    0  0.68613335439E+03  0.27728283132E+03 -0.11814455916E+04  0.13940869537E+04  0.50400001928E-02 0. -1.
       -1    1    3    3    0  502 -0.68613335439E+03 -0.27728283132E+03  0.33795198652E+02  0.74081499987E+03  0.50400001928E-02 0.  1.
</event>
<event>
 5   0  0.9184414E-05  0.1798022E+04  0.7818609E-02  0.8707352E-01
        2   -1    0    0  501    0  0.00000000000E+00  0.00000000000E+00  0.13286361667E+04  0.13286361667E+04  0.25500000920E-02 0. -1.
       -2   -1    0    0    0  501  0.00000000000E+00  0.00000000000E+00 -0.60830876934E+03  0.60830876934E+03  0.25500000920E-02 0.  1.
    10030    2    1    2    0    0  0.00000000000E+00  0.00000000000E+00  0.72032739741E+03  0.19369449361E+04  0.17980222818E+04 0.  0.
        5    1    3    3  502    0 -0.76919208178E+03 -0.60087813680E+02  0.85726237671E+03  0.11533377114E+04  0.46999998093E+01 0. -1.
       -5    1    3    3    0  502  0.76919208178E+03  0.60087813680E+02 -0.13693497930E+03  0.78360722469E+03  0.46999998093E+01 0.  1.
</event>
<event>
 5   0  0.9184414E-05  0.1776945E+04  0.7818609E-02  0.8718657E-01
        2   -1    0    0  501    0  0.00000000000E+00  0.00000000000E+00  0.14997692102E+04  0.14997692102E+04  0.25500000920E-02 0.  1.
       -2   -1    0    0    0  501  0.00000000000E+00  0.00000000000E+00 -0.52633659228E+03  0.52633659229E+03  0.25500000920E-02 0. -1.
    10030    2    1    2    0    0  0.00000000000E+00  0.00000000000E+00  0.97343261787E+03  0.20261058024E+04  0.17769450361E+04 0.  0.
        5    1    3    3  502    0 -0.72553305445E+03  0.31073379757E+03  0.95184671357E+03  0.12365225280E+04  0.46999998093E+01 0.  1.
       -5    1    3    3    0  502  0.72553305445E+03 -0.31073379757E+03  0.21585904298E+02  0.78958327447E+03  0.46999998093E+01 0. -1.
</event>
<event>
 5   0  0.9184414E-05  0.1805076E+04  0.7818609E-02  0.8703605E-01
       -2   -1    0    0    0  501  0.00000000000E+00  0.00000000000E+00  0.53150107417E+03  0.53150107417E+03  0.25500000920E-02 0.  1.
        2   -1    0    0  501    0  0.00000000000E+00  0.00000000000E+00 -0.15325936039E+04  0.15325936039E+04  0.25500000920E-02 0. -1.
    10030    2    1    2    0    0  0.00000000000E+00  0.00000000000E+00 -0.10010925298E+04  0.20640946781E+04  0.18050763383E+04 0.  0.
        5    1    3    3  502    0  0.13078247853E+03  0.11440195877E+03 -0.15132725675E+04  0.15232228394E+04  0.46999998093E+01 0. -1.
       -5    1    3    3    0  502 -0.13078247853E+03 -0.11440195877E+03  0.51218003774E+03  0.54087183872E+03  0.46999998093E+01 0.  1.
</event>
<event>
 5   0  0.8802655E-05  0.1673226E+04  0.7818609E-02  0.8776784E-01
       -2   -1    0    0    0  501  0.00000000000E+00  0.00000000000E+00  0.50054323350E+03  0.50054323351E+03  0.25500000920E-02 0.  1.
        2   -1    0    0  501    0  0.00000000000E+00  0.00000000000E+00 -0.13983226620E+04  0.13983226620E+04  0.25500000920E-02 0. -1.
    10030    2    1    2    0    0  0.00000000000E+00  0.00000000000E+00 -0.89777942854E+03  0.18988658956E+04  0.16732255637E+04 0.  0.
        2    1    3    3  502    0  0.32261342090E+03  0.76822415703E+03 -0.53436740414E+03  0.98984660297E+03  0.25500000920E-02 0. -1.
       -2    1    3    3    0  502 -0.32261342090E+03 -0.76822415703E+03 -0.36341202440E+03  0.90901929258E+03  0.25500000920E-02 0.  1.
</event>
<event>
 5   0  0.4494757E-05  0.1804598E+04  0.7818609E-02  0.8703858E-01
       -1   -1    0    0    0  501  0.00000000000E+00  0.00000000000E+00  0.93092164766E+03  0.93092164767E+03  0.50400001928E-02 0.  1.
        1   -1    0    0  501    0  0.00000000000E+00  0.00000000000E+00 -0.87455606430E+03  0.87455606431E+03  0.50400001928E-02 0. -1.
    10030    2    1    2    0    0  0.00000000000E+00  0.00000000000E+00  0.56365583359E+02  0.18054777120E+04  0.18045976531E+04 0.  0.
        4    1    3    3  502    0 -0.12993403062E+03 -0.27206109911E+03  0.87903357324E+03  0.92930174311E+03  0.12699999809E+01 0.  1.
       -4    1    3    3    0  502  0.12993403062E+03  0.27206109911E+03 -0.82266798988E+03  0.87617596887E+03  0.12699999809E+01 0. -1.
</event>
<event>
 5   0  0.8893075E-05  0.1807996E+04  0.7818609E-02  0.8702059E-01
        2   -1    0    0  501    0  0.00000000000E+00  0.00000000000E+00  0.12486938709E+04  0.12486938709E+04  0.25500000920E-02 0.  1.
       -2   -1    0    0    0  501  0.00000000000E+00  0.00000000000E+00 -0.65445362086E+03  0.65445362086E+03  0.25500000920E-02 0. -1.
    10030    2    1    2    0    0  0.00000000000E+00  0.00000000000E+00  0.59424025005E+03  0.19031474918E+04  0.18079958243E+04 0.  0.
        1    1    3    3  502    0 -0.51996532012E+03  0.32924240441E+03 -0.39988173467E+03  0.73394134421E+03  0.50400001928E-02 0. -1.
       -1    1    3    3    0  502  0.51996532012E+03 -0.32924240441E+03  0.99412198472E+03  0.11692061476E+04  0.50400001928E-02 0.  1.
</event>
<event>
 5   0  0.9184414E-05  0.1803936E+04  0.7818609E-02  0.8704209E-01
       -2   -1    0    0    0  501  0.00000000000E+00  0.00000000000E+00  0.58953304773E+03  0.58953304773E+03  0.25500000920E-02 0.  1.
        2   -1    0    0  501    0  0.00000000000E+00  0.00000000000E+00 -0.13799837454E+04  0.13799837454E+04  0.25500000920E-02 0. -1.
    10030    2    1    2    0    0  0.00000000000E+00  0.00000000000E+00 -0.79045069764E+03  0.19695167931E+04  0.18039357230E+04 0.  0.
        5    1    3    3  502    0  0.58756780564E+03 -0.53439264546E+03  0.71458497016E+02  0.79745835787E+03  0.46999998093E+01 0.  1.
       -5    1    3    3    0  502 -0.58756780564E+03  0.53439264546E+03 -0.86190919465E+03  0.11720584352E+04  0.46999998093E+01 0. -1.
</event>
<event>
 5   0  0.8892280E-05  0.1797720E+04  0.7818609E-02  0.8707513E-01
       -2   -1    0    0    0  501  0.00000000000E+00  0.00000000000E+00  0.67360719062E+03  0.67360719063E+03  0.25500000920E-02 0. -1.
        2   -1    0    0  501    0  0.00000000000E+00  0.00000000000E+00 -0.11994373952E+04  0.11994373952E+04  0.25500000920E-02 0.  1.
    10030    2    1    2    0    0  0.00000000000E+00  0.00000000000E+00 -0.52583020460E+03  0.18730445858E+04  0.17977203944E+04 0.  0.
        4    1    3    3  502    0  0.50673483958E+03  0.67103855968E+03  0.68001036638E+02  0.84362236819E+03  0.12699999809E+01 0. -1.
       -4    1    3    3    0  502 -0.50673483958E+03 -0.67103855968E+03 -0.59383124124E+03  0.10294222177E+04  0.12699999809E+01 0.  1.
</event>
<event>
 5   0  0.9147432E-05  0.1892240E+04  0.7818609E-02  0.8658729E-01
       -2   -1    0    0    0  501  0.00000000000E+00  0.00000000000E+00  0.40305892913E+03  0.40305892914E+03  0.25500000920E-02 0. -1.
        2   -1    0    0  501    0  0.00000000000E+00  0.00000000000E+00 -0.22208731680E+04  0.22208731680E+04  0.25500000920E-02 0.  1.
    10030    2    1    2    0    0  0.00000000000E+00  0.00000000000E+00 -0.18178142389E+04  0.26239320972E+04  0.18922396897E+04 0.  0.
        3    1    3    3  502    0  0.13750950628E+03  0.45224734486E+03 -0.20453984605E+04  0.20993073614E+04  0.10100000352E+00 0.  1.
       -3    1    3    3    0  502 -0.13750950628E+03 -0.45224734486E+03  0.22758422161E+03  0.52462473576E+03  0.10100000352E+00 0. -1.
</event>
<event>
 5   0  0.9184414E-05  0.1800172E+04  0.7818609E-02  0.8706208E-01
        2   -1    0    0  501    0  0.00000000000E+00  0.00000000000E+00  0.76228142627E+03  0.76228142627E+03  0.25500000920E-02 0.  1.
       -2   -1    0    0    0  501  0.00000000000E+00  0.00000000000E+00 -0.10628025841E+04  0.10628025841E+04  0.25500000920E-02 0. -1.
    10030    2    1    2    0    0  0.00000000000E+00  0.00000000000E+00 -0.30052115778E+03  0.18250840103E+04  0.18001718469E+04 0.  0.
        5    1    3    3  502    0 -0.50074541022E+03 -0.42978047040E+03  0.47031754484E+03  0.81035665085E+03  0.46999998093E+01 0.  1.
       -5    1    3    3    0  502  0.50074541022E+03  0.42978047040E+03 -0.77083870263E+03  0.10147273595E+04  0.46999998093E+01 0. -1.
</event>
<event>
 5   0  0.4494757E-05  0.1814872E+04  0.7818609E-02  0.8698431E-01
       -1   -1    0    0    0  501  0.00000000000E+00  0.00000000000E+00  0.48189108412E+03  0.48189108415E+03  0.50400001928E-02 0.  1.
        1   -1    0    0  501    0  0.00000000000E+00  0.00000000000E+00 -0.17087673144E+04  0.17087673144E+04  0.50400001928E-02 0. -1.
    10030    2    1    2    0    0  0.00000000000E+00  0.00000000000E+00 -0.12268762303E+04  0.21906583986E+04  0.18148716028E+04 0.  0.
        4    1    3    3  502    0  0.84384685986E+03 -0.23050670672E+03 -0.32217068915E+03  0.93220514405E+03  0.12699999809E+01 0.  1.
       -4    1    3    3    0  502 -0.84384685986E+03  0.23050670672E+03 -0.90470554115E+03  0.12584532545E+04  0.12699999809E+01 0. -1.
</event>
<event>
 5   0  0.4335117E-05  0.1818870E+04  0.7818609E-02  0.8696329E-01
        1   -1    0    0  501    0  0.00000000000E+00  0.00000000000E+00  0.16263958479E+04  0.16263958479E+04  0.50400001928E-02 0. -1.
       -1   -1    0    0    0  501  0.00000000000E+00  0.00000000000E+00 -0.50853046545E+03  0.50853046547E+03  0.50400001928E-02 0.  1.
    10030    2    1    2    0    0  0.00000000000E+00  0.00000000000E+00  0.11178653825E+04  0.21349263134E+04  0.18188698003E+04 0.  0.
        3    1    3    3  502    0 -0.78079262468E+01 -0.92391854062E+02  0.16208333333E+04  0.16234832685E+04  0.10100000352E+00 0. -1.
       -3    1    3    3    0  502  0.78079262468E+01  0.92391854062E+02 -0.50296795086E+03  0.51144304492E+03  0.10100000352E+00 0.  1.
</event>
<event>
 5   0  0.4623665E-05  0.1809883E+04  0.7818609E-02  0.8701062E-01
        1   -1    0    0  501    0  0.00000000000E+00  0.00000000000E+00  0.12976070028E+04  0.12976070029E+04  0.50400001928E-02 0. -1.
       -1   -1    0    0    0  501  0.00000000000E+00  0.00000000000E+00 -0.63109932339E+03  0.63109932341E+03  0.50400001928E-02 0.  1.
    10030    2    1    2    0    0  0.00000000000E+00  0.00000000000E+00  0.66650767946E+03  0.19287063263E+04  0.18098827604E+04 0.  0.
        5    1    3    3  502    0  0.44417391574E+03  0.12729006253E+03  0.11624134822E+04  0.12508878531E+04  0.46999998093E+01 0. -1.
       -5    1    3    3    0  502 -0.44417391574E+03 -0.12729006253E+03 -0.49590580271E+03  0.67781847320E+03  0.46999998093E+01 0.  1.
</event>
<event>
 5   0  0.8893075E-05  0.1798129E+04  0.7818609E-02  0.8707295E-01
       -2   -1    0    0    0  501  0.00000000000E+00  0.00000000000E+00  0.71515556471E+03  0.71515556471E+03  0.25500000920E-02 0. -1.
        2   -1    0    0  501    0  0.00000000000E+00  0.00000000000E+00 -0.11302669445E+04  0.11302669445E+04  0.25500000920E-02 0.  1.
    10030    2    1    2    0    0  0.00000000000E+00  0.00000000000E+00 -0.41511137981E+03  0.18454225092E+04  0.17981286884E+04 0.  0.
        1    1    3    3  502    0  0.17245105017E+03 -0.21557192137E+02 -0.11128635111E+04  0.11263521970E+04  0.50400001928E-02 0.  1.
       -1    1    3    3    0  502 -0.17245105017E+03  0.21557192137E+02  0.69775213129E+03  0.71907031227E+03  0.50400001928E-02 0. -1.
</event>
<event>
 5   0  0.9184414E-05  0.1802648E+04  0.7818609E-02  0.8704893E-01
        2   -1    0    0  501    0  0.00000000000E+00  0.00000000000E+00  0.78277691976E+03  0.78277691977E+03  0.25500000920E-02 0.  1.
       -2   -1    0    0    0  501  0.00000000000E+00  0.00000000000E+00 -0.10378242820E+04  0.10378242820E+04  0.25500000920E-02 0. -1.
    10030    2    1    2    0    0  0.00000000000E+00  0.00000000000E+00 -0.25504736222E+03  0.18206012018E+04  0.18026479354E+04 0.  0.
        5    1    3    3  502    0 -0.32642038675E+03 -0.44631703956E+03  0.59133305573E+03  0.80959622126E+03  0.46999998093E+01 0.  1.
       -5    1    3    3    0  502  0.32642038675E+03  0.44631703956E+03 -0.84638041795E+03  0.10110049805E+04  0.46999998093E+01 0. -1.
</event>
<event>
 5   0  0.4623665E-05  0.1903488E+04  0.7818609E-02  0.8653122E-01
       -1   -1    0    0    0  501  0.00000000000E+00  0.00000000000E+00  0.96449350969E+03  0.96449350970E+03  0.50400001928E-02 0.  1.
        1   -1    0    0  501    0  0.00000000000E+00  0.00000000000E+00 -0.93916260709E+03  0.93916260710E+03  0.50400001928E-02 0. -1.
    10030    2    1    2    0    0  0.00000000000E+00  0.00000000000E+00  0.25330902600E+02  0.19036561168E+04  0.19034875772E+04 0.  0.
        5    1    3    3  502    0 -0.73434318408E+03 -0.14435896701E+03  0.60067560924E+03  0.95965238545E+03  0.46999998093E+01 0.  1.
       -5    1    3    3    0  502  0.73434318408E+03  0.14435896701E+03 -0.57534470664E+03  0.94400373136E+03  0.46999998093E+01 0. -1.
</event>
<event>
 5   0  0.4535100E-05  0.1798092E+04  0.7818609E-02  0.8707315E-01
        1   -1    0    0  501    0  0.00000000000E+00  0.00000000000E+00  0.11940726091E+04  0.11940726091E+04  0.50400001928E-02 0.  1.
       -1   -1    0    0    0  501  0.00000000000E+00  0.00000000000E+00 -0.67691301640E+03  0.67691301642E+03  0.50400001928E-02 0. -1.
    10030    2    1    2    0    0  0.00000000000E+00  0.00000000000E+00  0.51715959267E+03  0.18709856255E+04  0.17980915345E+04 0.  0.
        1    1    3    3  502    0  0.73978243416E+03 -0.14303893862E+03  0.76891663053E+03  0.10765551415E+04  0.50400001928E-02 0.  1.
       -1    1    3    3    0  502 -0.73978243416E+03  0.14303893862E+03 -0.25175703786E+03  0.79443048405E+03  0.50400001928E-02 0. -1.
</event>
<event>
 5   0  0.8892280E-05  0.1703599E+04  0.7818609E-02  0.8759314E-01
       -2   -1    0    0    0  501  0.00000000000E+00  0.00000000000E+00  0.58751132559E+03  0.58751132560E+03  0.25500000920E-02 0. -1.
        2   -1    0    0  501    0  0.00000000000E+00  0.00000000000E+00 -0.12349757263E+04  0.12349757263E+04  0.25500000920E-02 0.  1.
    10030    2    1    2    0    0  0.00000000000E+00  0.00000000000E+00 -0.64746440076E+03  0.18224870519E+04  0.17035988097E+04 0.  0.
        4    1    3    3  502    0 -0.12902610818E+03  0.27102517718E+03 -0.11765193115E+04  0.12142082550E+04  0.12699999809E+01 0.  1.
       -4    1    3    3    0  502  0.12902610818E+03 -0.27102517718E+03  0.52905491078E+03  0.60827879692E+03  0.12699999809E+01 0. -1.
</event>
<event>
 5   0  0.4535100E-05  0.1800567E+04  0.7818609E-02  0.8705998E-01
       -1   -1    0    0    0  501  0.00000000000E+00  0.00000000000E+00  0.10294549258E+04  0.10294549258E+04  0.50400001928E-02 0. -1.
        1   -1    0    0  501    0  0.00000000000E+00  0.00000000000E+00 -0.78731977609E+03  0.78731977611E+03  0.50400001928E-02 0.  1.
    10030    2    1    2    0    0  0.00000000000E+00  0.00000000000E+00  0.24213514967E+03  0.18167747019E+04  0.18005668237E+04 0.  0.
        1    1    3    3  502    0 -0.38356180389E+02 -0.80213843267E+02  0.10250140107E+04  0.10288630518E+04  0.50400001928E-02 0. -1.
       -1    1    3    3    0  502  0.38356180389E+02  0.80213843267E+02 -0.78287886104E+03  0.78791165007E+03  0.50400001928E-02 0.  1.
</event>
<event>
 5   0  0.8892280E-05  0.1791770E+04  0.7818609E-02  0.8710689E-01
        2   -1    0    0  501    0  0.00000000000E+00  0.00000000000E+00  0.19510266973E+04  0.19510266973E+04  0.25500000920E-02 0. -1.
       -2   -1    0    0    0  501  0.00000000000E+00  0.00000000000E+00 -0.41137802668E+03  0.41137802668E+03  0.25500000920E-02 0.  1.
    10030    2    1    2    0    0  0.00000000000E+00  0.00000000000E+00  0.15396486706E+04  0.23624047240E+04  0.17917695306E+04 0.  0.
        4    1    3    3  502    0  0.29681295152E+03  0.75642746698E+03  0.12672366156E+04  0.15053805810E+04  0.12699999809E+01 0. -1.
       -4    1    3    3    0  502 -0.29681295152E+03 -0.75642746698E+03  0.27241205507E+03  0.85702414297E+03  0.12699999809E+01 0.  1.
</event>
<event>
 5   0  0.8893075E-05  0.1785296E+04  0.7818609E-02  0.8714158E-01
        2   -1    0    0  501    0  0.00000000000E+00  0.00000000000E+00  0.18966272356E+04  0.18966272356E+04  0.25500000920E-02 0.  1.
       -2   -1    0    0    0  501  0.00000000000E+00  0.00000000000E+00 -0.42012517496E+03  0.42012517497E+03  0.25500000920E-02 0. -1.
    10030    2    1    2    0    0  0.00000000000E+00  0.00000000000E+00  0.14765020607E+04  0.23167524106E+04  0.17852964451E+04 0.  0.
        1    1    3    3  502    0  0.76628405225E+03 -0.44291179439E+03  0.88879783107E+03  0.12543220045E+04  0.50400001928E-02 0. -1.
       -1    1    3    3    0  502 -0.76628405225E+03  0.44291179439E+03  0.58770422958E+03  0.10624304061E+04  0.50400001928E-02 0.  1.
</event>
<event>
 5   0  0.3270375E-05  0.1804088E+04  0.7818609E-02  0.8704129E-01
       -4   -1    0    0    0  501  0.00000000000E+00  0.00000000000E+00  0.11983867906E+04  0.11983874636E+04  0.12699999809E+01 0.  1.
        4   -1    0    0  501    0  0.00000000000E+00  0.00000000000E+00 -0.67898071903E+03  0.67898190676E+03  0.12699999809E+01 0. -1.
    10030    2    1    2    0    0  0.00000000000E+00  0.00000000000E+00  0.51940607159E+03  0.18773693703E+04  0.18040878818E+04 0.  0.
        4    1    3    3  502    0 -0.34410121885E+03 -0.66475559003E+03 -0.26410817547E+03  0.79376343109E+03  0.12699999809E+01 0. -1.
       -4    1    3    3    0  502  0.34410121885E+03  0.66475559003E+03  0.78351424707E+03  0.10836059392E+04  0.12699999809E+01 0.  1.
</event>
<event>
 5   0  0.4535100E-05  0.1782859E+04  0.7818609E-02  0.8715468E-01
       -1   -1    0    0    0  501  0.00000000000E+00  0.00000000000E+00  0.59453697826E+03  0.59453697828E+03  0.50400001928E-02 0.  1.
        1   -1    0    0  501    0  0.00000000000E+00  0.00000000000E+00 -0.13365803878E+04  0.13365803878E+04  0.50400001928E-02 0. -1.
    10030    2    1    2    0    0  0.00000000000E+00  0.00000000000E+00 -0.74204340952E+03  0.19311173661E+04  0.17828589007E+04 0.  0.
        1    1    3    3  502    0  0.20982051217E+03 -0.41760146059E+03  0.45120190660E+03  0.64961433771E+03  0.50400001928E-02 0.  1.
       -1    1    3    3    0  502 -0.20982051217E+03  0.41760146059E+03 -0.11932453161E+04  0.12815030284E+04  0.50400001928E-02 0. -1.
</event>
<event>
 5   0  0.3270375E-05  0.1809799E+04  0.7818609E-02  0.8701106E-01
        3   -1    0    0  501    0  0.00000000000E+00  0.00000000000E+00  0.18951423797E+04  0.18951423824E+04  0.10100000352E+00 0. -1.
       -3   -1    0    0    0  501  0.00000000000E+00  0.00000000000E+00 -0.43207471044E+03  0.43207472225E+03  0.10100000352E+00 0.  1.
    10030    2    1    2    0    0  0.00000000000E+00  0.00000000000E+00  0.14630676693E+04  0.23272171046E+04  0.18097990074E+04 0.  0.
        4    1    3    3  502    0  0.54863506528E+03 -0.62447857558E+03  0.11913526784E+04  0.14526860444E+04  0.12699999809E+01 0. -1.
       -4    1    3    3    0  502 -0.54863506528E+03  0.62447857558E+03  0.27171499082E+03  0.87453106026E+03  0.12699999809E+01 0.  1.
</event>
<event>
 5   0  0.8892280E-05  0.1790175E+04  0.7818609E-02  0.8711542E-01
        2   -1    0    0  501    0  0.00000000000E+00  0.00000000000E+00  0.77185820947E+03  0.77185820948E+03  0.25500000920E-02 0.  1.
       -2   -1    0    0    0  501  0.00000000000E+00  0.00000000000E+00 -0.10379903432E+04  0.10379903432E+04  0.25500000920E-02 0. -1.
    10030    2    1    2    0    0  0.00000000000E+00  0.00000000000E+00 -0.26613213374E+03  0.18098485527E+04  0.17901747041E+04 0.  0.
        4    1    3    3  502    0 -0.38756791060E+02 -0.34503644834E+03 -0.96713427909E+03  0.10275711976E+04  0.12699999809E+01 0. -1.
       -4    1    3    3    0  502  0.38756791060E+02  0.34503644834E+03  0.70100214535E+03  0.78227735505E+03  0.12699999809E+01 0.  1.
</event>
<event>
 5   0  0.4494757E-05  0.1776076E+04  0.7818609E-02  0.8719126E-01
       -1   -1    0    0    0  501  0.00000000000E+00  0.00000000000E+00  0.80836698527E+03  0.80836698529E+03  0.50400001928E-02 0. -1.
        1   -1    0    0  501    0  0.00000000000E+00  0.00000000000E+00 -0.97556160246E+03  0.97556160247E+03  0.50400001928E-02 0.  1.
    10030    2    1    2    0    0  0.00000000000E+00  0.00000000000E+00 -0.16719461718E+03  0.17839285878E+04  0.17760763402E+04 0.  0.
        4    1    3    3  502    0  0.18973704647E+03  0.81621237181E+02  0.78390395256E+03  0.81065972695E+03  0.12699999809E+01 0. -1.
       -4    1    3    3    0  502 -0.18973704647E+03 -0.81621237181E+02 -0.95109856974E+03  0.97326886081E+03  0.12699999809E+01 0.  1.
</event>
<event>
 5   0  0.8892280E-05  0.1797688E+04  0.7818609E-02  0.8707530E-01
       -2   -1    0    0    0  501  0.00000000000E+00  0.00000000000E+00  0.58534160998E+03  0.58534160998E+03  0.25500000920E-02 0. -1.
        2   -1    0    0  501    0  0.00000000000E+00  0.00000000000E+00 -0.13802550886E+04  0.13802550886E+04  0.25500000920E-02 0.  1.
    10030    2    1    2    0    0  0.00000000000E+00  0.00000000000E+00 -0.79491347859E+03  0.19655966986E+04  0.17976882218E+04 0.  0.
        4    1    3    3  502    0  0.82353424550E+03  0.35662382576E+03 -0.45245299341E+03  0.10050395668E+04  0.12699999809E+01 0. -1.
       -4    1    3    3    0  502 -0.82353424550E+03 -0.35662382576E+03 -0.34246048519E+03  0.96055713179E+03  0.12699999809E+01 0.  1.
</event>
<event>
 5   0  0.4578107E-05  0.1800069E+04  0.7818609E-02  0.8706263E-01
        1   -1    0    0  501    0  0.00000000000E+00  0.00000000000E+00  0.70197055665E+03  0.70197055667E+03  0.50400001928E-02 0.  1.
       -1   -1    0    0    0  501  0.00000000000E+00  0.00000000000E+00 -0.11539824914E+04  0.11539824914E+04  0.50400001928E-02 0. -1.
    10030    2    1    2    0    0  0.00000000000E+00  0.00000000000E+00 -0.45201193478E+03  0.18559530481E+04  0.18000685897E+04 0.  0.
        2    1    3    3  502    0 -0.22441450191E+03  0.92193860964E+02  0.66761997074E+03  0.71033654137E+03  0.25500000920E-02 0.  1.
       -2    1    3    3    0  502  0.22441450191E+03 -0.92193860964E+02 -0.11196319055E+04  0.11456165068E+04  0.25500000920E-02 0. -1.
</event>
<event>
 5   0  0.8893075E-05  0.1796960E+04  0.7818609E-02  0.8707918E-01
        2   -1    0    0  501    0  0.00000000000E+00  0.00000000000E+00  0.98008205668E+03  0.98008205668E+03  0.25500000920E-02 0. -1.
       -2   -1    0    0    0  501  0.00000000000E+00  0.00000000000E+00 -0.82367185807E+03  0.82367185807E+03  0.25500000920E-02 0.  1.
    10030    2    1    2    0    0  0.00000000000E+00  0.00000000000E+00  0.15641019861E+03  0.18037539148E+04  0.17969596642E+04 0.  0.
        1    1    3    3  502    0  0.87596579901E+03 -0.15727171268E+03  0.20202275761E+03  0.91261364622E+03  0.50400001928E-02 0.  1.
       -1    1    3    3    0  502 -0.87596579901E+03  0.15727171268E+03 -0.45612559000E+02  0.89114026854E+03  0.50400001928E-02 0. -1.
</event>
<event>
 5   0  0.4335117E-05  0.1823925E+04  0.7818609E-02  0.8693679E-01
        1   -1    0    0  501    0  0.00000000000E+00  0.00000000000E+00  0.22705882272E+04  0.22705882272E+04  0.50400001928E-02 0.  1.
       -1   -1    0    0    0  501  0.00000000000E+00  0.00000000000E+00 -0.36628180871E+03  0.36628180875E+03  0.50400001928E-02 0. -1.
    10030    2    1    2    0    0  0.00000000000E+00  0.00000000000E+00  0.19043064185E+04  0.26368700360E+04  0.18239245190E+04 0.  0.
        3    1    3    3  502    0 -0.49719337962E+03  0.75962370418E+03  0.82740471097E+03  0.12283435980E+04  0.10100000352E+00 0.  1.
       -3    1    3    3    0  502  0.49719337962E+03 -0.75962370418E+03  0.10769017075E+04  0.14085264380E+04  0.10100000352E+00 0. -1.
</event>
<event>
 5   0  0.4535100E-05  0.1794634E+04  0.7818609E-02  0.8709159E-01
       -1   -1    0    0    0  501  0.00000000000E+00  0.00000000000E+00  0.74175636233E+03  0.74175636235E+03  0.50400001928E-02 0.  1.
        1   -1    0    0  501    0  0.00000000000E+00  0.00000000000E+00 -0.10855011062E+04  0.10855011062E+04  0.50400001928E-02 0. -1.
    10030    2    1    2    0    0  0.00000000000E+00  0.00000000000E+00 -0.34374474382E+03  0.18272574685E+04  0.17946335022E+04 0.  0.
        1    1    3    3  502    0 -0.50831202898E+03 -0.47624044899E+03 -0.74783332042E+03  0.10219788448E+04  0.50400001928E-02 0. -1.
       -1    1    3    3    0  502  0.50831202898E+03  0.47624044899E+03  0.40408857660E+03  0.80527862372E+03  0.50400001928E-02 0.  1.
</event>
<event>
 5   0  0.4335117E-05  0.1794488E+04  0.7818609E-02  0.8709236E-01
       -1   -1    0    0    0  501  0.00000000000E+00  0.00000000000E+00  0.74673529793E+03  0.74673529795E+03  0.50400001928E-02 0.  1.
        1   -1    0    0  501    0  0.00000000000E+00  0.00000000000E+00 -0.10780885997E+04  0.10780885997E+04  0.50400001928E-02 0. -1.
    10030    2    1    2    0    0  0.00000000000E+00  0.00000000000E+00 -0.33135330173E+03  0.18248238976E+04  0.17944880180E+04 0.  0.
        3    1    3    3  502    0 -0.63709362966E+03  0.49684253051E+03  0.23118479943E+03  0.84034945990E+03  0.10100000352E+00 0.  1.
       -3    1    3    3    0  502  0.63709362966E+03 -0.49684253051E+03 -0.56253810117E+03  0.98447443773E+03  0.10100000352E+00 0. -1.
</event>
<event>
 5   0  0.9147432E-05  0.1769813E+04  0.7818609E-02  0.8722519E-01
        2   -1    0    0  501    0  0.00000000000E+00  0.00000000000E+00  0.11373386864E+04  0.11373386865E+04  0.25500000920E-02 0. -1.
       -2   -1    0    0    0  501  0.00000000000E+00  0.00000000000E+00 -0.68850184784E+03  0.68850184784E+03  0.25500000920E-02 0.  1.
    10030    2    1    2    0    0  0.00000000000E+00  0.00000000000E+00  0.44883683861E+03  0.18258405343E+04  0.17698133091E+04 0.  0.
        3    1    3    3  502    0  0.57282875169E+03 -0.69279883077E+02  0.91657294435E+03  0.10830689976E+04  0.10100000352E+00 0. -1.
       -3    1    3    3    0  502 -0.57282875169E+03  0.69279883077E+02 -0.46773610574E+03  0.74277153673E+03  0.10100000352E+00 0.  1.
</event>
<event>
 5   0  0.8802655E-05  0.1794218E+04  0.7818609E-02  0.8709380E-01
       -2   -1    0    0    0  501  0.00000000000E+00  0.00000000000E+00  0.42341341153E+03  0.42341341154E+03  0.25500000920E-02 0. -1.
        2   -1    0    0  501    0  0.00000000000E+00  0.00000000000E+00 -0.19007534791E+04  0.19007534791E+04  0.25500000920E-02 0.  1.
    10030    2    1    2    0    0  0.00000000000E+00  0.00000000000E+00 -0.14773400676E+04  0.23241668906E+04  0.17942179523E+04 0.  0.
        2    1    3    3  502    0  0.46529962601E+03 -0.42596350056E+03  0.87581740447E+02  0.63688241226E+03  0.25500000920E-02 0. -1.
       -2    1    3    3    0  502 -0.46529962601E+03  0.42596350056E+03 -0.15649218080E+04  0.16872844784E+04  0.25500000920E-02 0.  1.
</event>
<event>
 5   0  0.4494757E-05  0.1815608E+04  0.7818609E-02  0.8698043E-01
       -1   -1    0    0    0  501  0.00000000000E+00  0.00000000000E+00  0.96372753502E+03  0.96372753504E+03  0.50400001928E-02 0. -1.
        1   -1    0    0  501    0  0.00000000000E+00  0.00000000000E+00 -0.85512559094E+03  0.85512559095E+03  0.50400001928E-02 0.  1.
    10030    2    1    2    0    0  0.00000000000E+00  0.00000000000E+00  0.10860194409E+03  0.18188531260E+04  0.18156079730E+04 0.  0.
        4    1    3    3  502    0 -0.51357349810E+03 -0.11970140187E+03  0.79455357775E+03  0.95362632324E+03  0.12699999809E+01 0. -1.
       -4    1    3    3    0  502  0.51357349810E+03  0.11970140187E+03 -0.68595163367E+03  0.86522680275E+03  0.12699999809E+01 0.  1.
</event>
<event>
 5   0  0.8893075E-05  0.1801440E+04  0.7818609E-02  0.8705534E-01
       -2   -1    0    0    0  501  0.00000000000E+00  0.00000000000E+00  0.55168280622E+03  0.55168280623E+03  0.25500000920E-02 0.  1.
        2   -1    0    0  501    0  0.00000000000E+00  0.00000000000E+00 -0.14705846979E+04  0.14705846979E+04  0.25500000920E-02 0. -1.
    10030    2    1    2    0    0  0.00000000000E+00  0.00000000000E+00 -0.91890189170E+03  0.20222675041E+04  0.18014397497E+04 0.  0.
        1    1    3    3  502    0 -0.65437753214E+03 -0.61664082206E+03 -0.51927988225E+03  0.10383195337E+04  0.50400001928E-02 0. -1.
       -1    1    3    3    0  502  0.65437753214E+03  0.61664082206E+03 -0.39962200945E+03  0.98394797041E+03  0.50400001928E-02 0.  1.
</event>
<event>
 5   0  0.9184414E-05  0.1800984E+04  0.7818609E-02  0.8705777E-01
       -2   -1    0    0    0  501  0.00000000000E+00  0.00000000000E+00  0.50592199003E+03  0.50592199004E+03  0.25500000920E-02 0.  1.
        2   -1    0    0  501    0  0.00000000000E+00  0.00000000000E+00 -0.16027876764E+04  0.16027876764E+04  0.25500000920E-02 0. -1.
    10030    2    1    2    0    0  0.00000000000E+00  0.00000000000E+00 -0.10968656864E+04  0.21087096665E+04  0.18009836544E+04 0.  0.
        5    1    3    3  502    0  0.36359301052E+03  0.57416440945E+03 -0.12401347631E+04  0.14141502632E+04  0.46999998093E+01 0. -1.
       -5    1    3    3    0  502 -0.36359301052E+03 -0.57416440945E+03  0.14326907663E+03  0.69455940329E+03  0.46999998093E+01 0.  1.
</event>
<event>
 5   0  0.4494757E-05  0.1803679E+04  0.7818609E-02  0.8704345E-01
        1   -1    0    0  501    0  0.00000000000E+00  0.00000000000E+00  0.18966662719E+04  0.18966662719E+04  0.50400001928E-02 0. -1.
       -1   -1    0    0    0  501  0.00000000000E+00  0.00000000000E+00 -0.42881263480E+03  0.42881263483E+03  0.50400001928E-02 0.  1.
    10030    2    1    2    0    0  0.00000000000E+00  0.00000000000E+00  0.14678536371E+04  0.23254789068E+04  0.18036789753E+04 0.  0.
        4    1    3    3  502    0  0.64248198270E+03 -0.61863802685E+03  0.90602144483E+03  0.12713664215E+04  0.12699999809E+01 0. -1.
       -4    1    3    3    0  502 -0.64248198270E+03  0.61863802685E+03  0.56183219229E+03  0.10541124852E+04  0.12699999809E+01 0.  1.
</event>
<event>
 5   0  0.8893075E-05  0.1809216E+04  0.7818609E-02  0.8701414E-01
        2   -1    0    0  501    0  0.00000000000E+00  0.00000000000E+00  0.78133824620E+03  0.78133824620E+03  0.25500000920E-02 0. -1.
       -2   -1    0    0    0  501  0.00000000000E+00  0.00000000000E+00 -0.10473253544E+04  0.10473253544E+04  0.25500000920E-02 0.  1.
    10030    2    1    2    0    0  0.00000000000E+00  0.00000000000E+00 -0.26598710820E+03  0.18286636006E+04  0.18092156926E+04 0.  0.
        1    1    3    3  502    0 -0.49591882717E+02 -0.60229502338E+03  0.54736668732E+03  0.81537043142E+03  0.50400001928E-02 0. -1.
       -1    1    3    3    0  502  0.49591882717E+02  0.60229502338E+03 -0.81335379552E+03  0.10132931692E+04  0.50400001928E-02 0.  1.
</event>
<event>
 5   0  0.4535100E-05  0.1805945E+04  0.7818609E-02  0.8703144E-01
       -1   -1    0    0    0  501  0.00000000000E+00  0.00000000000E+00  0.37190053868E+03  0.37190053872E+03  0.50400001928E-02 0.  1.
        1   -1    0    0  501    0  0.00000000000E+00  0.00000000000E+00 -0.21924123529E+04  0.21924123530E+04  0.50400001928E-02 0. -1.
    10030    2    1    2    0    0  0.00000000000E+00  0.00000000000E+00 -0.18205118143E+04  0.25643128917E+04  0.18059449993E+04 0.  0.
        1    1    3    3  502    0 -0.73574249931E+03  0.52282475101E+03 -0.94773205738E+03  0.13087623154E+04  0.50400001928E-02 0. -1.
       -1    1    3    3    0  502  0.73574249931E+03 -0.52282475101E+03 -0.87277975688E+03  0.12555505763E+04  0.50400001928E-02 0.  1.
</event>
<event>
 5   0  0.8893075E-05  0.1797300E+04  0.7818609E-02  0.8707737E-01
       -2   -1    0    0    0  501  0.00000000000E+00  0.00000000000E+00  0.55681934301E+03  0.55681934302E+03  0.25500000920E-02 0. -1.
        2   -1    0    0  501    0  0.00000000000E+00  0.00000000000E+00 -0.14503301229E+04  0.14503301229E+04  0.25500000920E-02 0.  1.
    10030    2    1    2    0    0  0.00000000000E+00  0.00000000000E+00 -0.89351077985E+03  0.20071494659E+04  0.17973000486E+04 0.  0.
        1    1    3    3  502    0  0.65548790358E+02  0.23235665926E+03 -0.14134355888E+04  0.14339060028E+04  0.50400001928E-02 0.  1.
       -1    1    3    3    0  502 -0.65548790358E+02 -0.23235665926E+03  0.51992480896E+03  0.57324346312E+03  0.50400001928E-02 0. -1.
</event>
<event>
 5   0  0.4494757E-05  0.1798504E+04  0.7818609E-02  0.8707096E-01
        1   -1    0    0  501    0  0.00000000000E+00  0.00000000000E+00  0.70664683502E+03  0.70664683504E+03  0.50400001928E-02 0.  1.
       -1   -1    0    0    0  501  0.00000000000E+00  0.00000000000E+00 -0.11443534409E+04  0.11443534409E+04  0.50400001928E-02 0. -1.
    10030    2    1    2    0    0  0.00000000000E+00  0.00000000000E+00 -0.43770660588E+03  0.18510002759E+04  0.17985035304E+04 0.  0.
        4    1    3    3  502    0  0.46233659835E+03 -0.83685861437E+02 -0.10079760840E+04  0.11121042453E+04  0.12699999809E+01 0. -1.
       -4    1    3    3    0  502 -0.46233659835E+03  0.83685861437E+02  0.57026947810E+03  0.73889603067E+03  0.12699999809E+01 0.  1.
</event>
<event>
 5   0  0.8802655E-05  0.1802118E+04  0.7818609E-02  0.8705174E-01
        2   -1    0    0  501    0  0.00000000000E+00  0.00000000000E+00  0.23974781266E+04  0.23974781266E+04  0.25500000920E-02 0. -1.
       -2   -1    0    0    0  501  0.00000000000E+00  0.00000000000E+00 -0.33865065628E+03  0.33865065629E+03  0.25500000920E-02 0.  1.
    10030    2    1    2    0    0  0.00000000000E+00  0.00000000000E+00  0.20588274703E+04  0.27361287829E+04  0.18021182437E+04 0.  0.
        2    1    3    3  502    0 -0.21847541533E+03 -0.86629156049E+03  0.85160601183E+03  0.12342711915E+04  0.25500000920E-02 0. -1.
       -2    1    3    3    0  502  0.21847541533E+03  0.86629156049E+03  0.12072214585E+04  0.15018575914E+04  0.25500000920E-02 0.  1.
</event>
<event>
 5   0  0.8802655E-05  0.1790961E+04  0.7818609E-02  0.8711121E-01
       -2   -1    0    0    0  501  0.00000000000E+00  0.00000000000E+00  0.11721473814E+04  0.11721473814E+04  0.25500000920E-02 0.  1.
        2   -1    0    0  501    0  0.00000000000E+00  0.00000000000E+00 -0.68411674525E+03  0.68411674526E+03  0.25500000920E-02 0. -1.
    10030    2    1    2    0    0  0.00000000000E+00  0.00000000000E+00  0.48803063612E+03  0.18562641266E+04  0.17909613636E+04 0.  0.
        2    1    3    3  502    0  0.45120593108E+03 -0.61404031546E+03 -0.24351146868E+03  0.79995633421E+03  0.25500000920E-02 0. -1.
       -2    1    3    3    0  502 -0.45120593108E+03  0.61404031546E+03  0.73154210480E+03  0.10563077924E+04  0.25500000920E-02 0.  1.
</event>
<event>
 5   0  0.4494757E-05  0.1795546E+04  0.7818609E-02  0.8708672E-01
       -1   -1    0    0    0  501  0.00000000000E+00  0.00000000000E+00  0.59807930535E+03  0.59807930537E+03  0.50400001928E-02 0. -1.
        1   -1    0    0  501    0  0.00000000000E+00  0.00000000000E+00 -0.13476414498E+04  0.13476414498E+04  0.50400001928E-02 0.  1.
    10030    2    1    2    0    0  0.00000000000E+00  0.00000000000E+00 -0.74956214441E+03  0.19457207551E+04  0.17955461143E+04 0.  0.
        4    1    3    3  502    0  0.28216431914E+03 -0.40769581712E+03  0.43625631289E+03  0.66041938624E+03  0.12699999809E+01 0. -1.
       -4    1    3    3    0  502 -0.28216431914E+03  0.40769581712E+03 -0.11858184573E+04  0.12853013689E+04  0.12699999809E+01 0.  1.
</event>
<event>
 5   0  0.4623665E-05  0.1819633E+04  0.7818609E-02  0.8695928E-01
       -1   -1    0    0    0  501  0.00000000000E+00  0.00000000000E+00  0.30068345568E+03  0.30068345572E+03  0.50400001928E-02 0.  1.
        1   -1    0    0  501    0  0.00000000000E+00  0.00000000000E+00 -0.27529481545E+04  0.27529481545E+04  0.50400001928E-02 0. -1.
    10030    2    1    2    0    0  0.00000000000E+00  0.00000000000E+00 -0.24522646989E+04  0.30536316103E+04  0.18196328910E+04 0.  0.
        5    1    3    3  502    0  0.85219499072E+02  0.23342373640E+03 -0.26948752996E+04  0.27063118767E+04  0.46999998093E+01 0. -1.
       -5    1    3    3    0  502 -0.85219499072E+02 -0.23342373640E+03  0.24261060072E+03  0.34731973355E+03  0.46999998093E+01 0.  1.
</event>
<event>
 5   0  0.4578107E-05  0.1782063E+04  0.7818609E-02  0.8715897E-01
       -1   -1    0    0    0  501  0.00000000000E+00  0.00000000000E+00  0.11775705576E+04  0.11775705577E+04  0.50400001928E-02 0.  1.
        1   -1    0    0  501    0  0.00000000000E+00  0.00000000000E+00 -0.67421623701E+03  0.67421623703E+03  0.50400001928E-02 0. -1.
    10030    2    1    2    0    0  0.00000000000E+00  0.00000000000E+00  0.50335432064E+03  0.18517867947E+04  0.17820630631E+04 0.  0.
        2    1    3    3  502    0  0.26107660257E+03 -0.68165758463E+03  0.78266828664E+03  0.10702278739E+04  0.25500000920E-02 0.  1.
       -2    1    3    3    0  502 -0.26107660257E+03  0.68165758463E+03 -0.27931396600E+03  0.78155892081E+03  0.25500000920E-02 0. -1.
</event>
<event>
 5   0  0.9147432E-05  0.1800206E+04  0.7818609E-02  0.8706190E-01
       -2   -1    0    0    0  501  0.00000000000E+00  0.00000000000E+00  0.50574363597E+03  0.50574363598E+03  0.25500000920E-02 0.  1.
        2   -1    0    0  501    0  0.00000000000E+00  0.00000000000E+00 -0.16019690045E+04  0.16019690045E+04  0.25500000920E-02 0. -1.
    10030    2    1    2    0    0  0.00000000000E+00  0.00000000000E+00 -0.10962253685E+04  0.21077126405E+04  0.18002062427E+04 0.  0.
        3    1    3    3  502    0  0.76725737212E+03 -0.44656978760E+03 -0.72207726057E+03  0.11443356285E+04  0.10100000352E+00 0. -1.
       -3    1    3    3    0  502 -0.76725737212E+03  0.44656978760E+03 -0.37414810796E+03  0.96337701195E+03  0.10100000352E+00 0.  1.
</event>
<event>
 5   0  0.4578107E-05  0.1803306E+04  0.7818609E-02  0.8704543E-01
       -1   -1    0    0    0  501  0.00000000000E+00  0.00000000000E+00  0.91742105422E+03  0.91742105424E+03  0.50400001928E-02 0. -1.
        1   -1    0    0  501    0  0.00000000000E+00  0.00000000000E+00 -0.88615572971E+03  0.88615572972E+03  0.50400001928E-02 0.  1.
    10030    2    1    2    0    0  0.00000000000E+00  0.00000000000E+00  0.31265324513E+02  0.18035767840E+04  0.18033057686E+04 0.  0.
        2    1    3    3  502    0 -0.41277379776E+02 -0.14189511947E+03  0.90522677892E+03  0.91720966430E+03  0.25500000920E-02 0. -1.
       -2    1    3    3    0  502  0.41277379776E+02  0.14189511947E+03 -0.87396145441E+03  0.88636711966E+03  0.25500000920E-02 0.  1.
</event>
<event>
 5   0  0.4535100E-05  0.1803493E+04  0.7818609E-02  0.8704444E-01
       -1   -1    0    0    0  501  0.00000000000E+00  0.00000000000E+00  0.62661206204E+03  0.62661206206E+03  0.50400001928E-02 0.  1.
        1   -1    0    0  501    0  0.00000000000E+00  0.00000000000E+00 -0.12976880235E+04  0.12976880235E+04  0.50400001928E-02 0. -1.
    10030    2    1    2    0    0  0.00000000000E+00  0.00000000000E+00 -0.67107596142E+03  0.19243000855E+04  0.18034932418E+04 0.  0.
        1    1    3    3  502    0 -0.67483158985E+03  0.47917347990E+03 -0.71748589886E+03  0.10953496764E+04  0.50400001928E-02 0. -1.
       -1    1    3    3    0  502  0.67483158985E+03 -0.47917347990E+03  0.46409937434E+02  0.82895040914E+03  0.50400001928E-02 0.  1.
</event>
<event>
 5   0  0.8893075E-05  0.1798499E+04  0.7818609E-02  0.8707098E-01
       -2   -1    0    0    0  501  0.00000000000E+00  0.00000000000E+00  0.87031298919E+03  0.87031298919E+03  0.25500000920E-02 0.  1.
        2   -1    0    0  501    0  0.00000000000E+00  0.00000000000E+00 -0.92914855993E+03  0.92914855993E+03  0.25500000920E-02 0. -1.
    10030    2    1    2    0    0  0.00000000000E+00  0.00000000000E+00 -0.58835570745E+02  0.17994615491E+04  0.17984994419E+04 0.  0.
        1    1    3    3  502    0 -0.65910024101E+03 -0.15756413598E+03  0.56200795821E+03  0.88039339489E+03  0.50400001928E-02 0.  1.
       -1    1    3    3    0  502  0.65910024101E+03  0.15756413598E+03 -0.62084352895E+03  0.91906815423E+03  0.50400001928E-02 0. -1.
</event>
<event>
 5   0  0.4623665E-05  0.1798447E+04  0.7818609E-02  0.8707126E-01
        1   -1    0    0  501    0  0.00000000000E+00  0.00000000000E+00  0.11751059904E+04  0.11751059904E+04  0.50400001928E-02 0. -1.
       -1   -1    0    0    0  501  0.00000000000E+00  0.00000000000E+00 -0.68811079166E+03  0.68811079168E+03  0.50400001928E-02 0.  1.
    10030    2    1    2    0    0  0.00000000000E+00  0.00000000000E+00  0.48699519876E+03  0.18632167821E+04  0.17984472340E+04 0.  0.
        5    1    3    3  502    0  0.64548850641E+02  0.73672731545E+03 -0.28643891183E+03  0.79309711364E+03  0.46999998093E+01 0.  1.
       -5    1    3    3    0  502 -0.64548850641E+02 -0.73672731545E+03  0.77343411058E+03  0.10701196685E+04  0.46999998093E+01 0. -1.
</event>
<event>
 5   0  0.4623665E-05  0.1802627E+04  0.7818609E-02  0.8704904E-01
       -1   -1    0    0    0  501  0.00000000000E+00  0.00000000000E+00  0.14290877513E+04  0.14290877513E+04  0.50400001928E-02 0. -1.
        1   -1    0    0  501    0  0.00000000000E+00  0.00000000000E+00 -0.56845096728E+03  0.56845096730E+03  0.50400001928E-02 0.  1.
    10030    2    1    2    0    0  0.00000000000E+00  0.00000000000E+00  0.86063678400E+03  0.19975387186E+04  0.18026273210E+04 0.  0.
        5    1    3    3  502    0  0.38495477088E+03 -0.95971969497E+02  0.13271092080E+04  0.13851504375E+04  0.46999998093E+01 0. -1.
       -5    1    3    3    0  502 -0.38495477088E+03  0.95971969497E+02 -0.46647242396E+03  0.61238828113E+03  0.46999998093E+01 0.  1.
</event>
<event>
 5   0  0.8802655E-05  0.1804519E+04  0.7818609E-02  0.8703900E-01
       -2   -1    0    0    0  501  0.00000000000E+00  0.00000000000E+00  0.51389476837E+03  0.51389476837E+03  0.25500000920E-02 0.  1.
        2   -1    0    0  501    0  0.00000000000E+00  0.00000000000E+00 -0.15841232460E+04  0.15841232460E+04  0.25500000920E-02 0. -1.
    10030    2    1    2    0    0  0.00000000000E+00  0.00000000000E+00 -0.10702284776E+04  0.20980180143E+04  0.18045194912E+04 0.  0.
        2    1    3    3  502    0 -0.39717387699E+03 -0.49618532634E+03 -0.12796852409E+04  0.14288251406E+04  0.25500000920E-02 0. -1.
       -2    1    3    3    0  502  0.39717387699E+03  0.49618532634E+03  0.20945676326E+03  0.66919287378E+03  0.25500000920E-02 0.  1.
</event>
<event>
 5   0  0.8802655E-05  0.1794749E+04  0.7818609E-02  0.8709097E-01
       -2   -1    0    0    0  501  0.00000000000E+00  0.00000000000E+00  0.33493746081E+03  0.33493746081E+03  0.25500000920E-02 0.  1.
        2   -1    0    0  501    0  0.00000000000E+00  0.00000000000E+00 -0.24042727801E+04  0.24042727801E+04  0.25500000920E-02 0. -1.
    10030    2    1    2    0    0  0.00000000000E+00  0.00000000000E+00 -0.20693353193E+04  0.27392102409E+04  0.17947490299E+04 0.  0.
        2    1    3    3  502    0 -0.41177262542E+03 -0.79702758638E+03 -0.10678032043E+04  0.13946373549E+04  0.25500000920E-02 0. -1.
       -2    1    3    3    0  502  0.41177262542E+03  0.79702758638E+03 -0.10015321150E+04  0.13445728860E+04  0.25500000920E-02 0.  1.
</event>
<event>
 5   0  0.4335117E-05  0.1807028E+04  0.7818609E-02  0.8702571E-01
        1   -1    0    0  501    0  0.00000000000E+00  0.00000000000E+00  0.13190183632E+04  0.13190183632E+04  0.50400001928E-02 0.  1.
       -1   -1    0    0    0  501  0.00000000000E+00  0.00000000000E+00 -0.61889810415E+03  0.61889810417E+03  0.50400001928E-02 0. -1.
    10030    2    1    2    0    0  0.00000000000E+00  0.00000000000E+00  0.70012025904E+03  0.19379164674E+04  0.18070284606E+04 0.  0.
        3    1    3    3  502    0 -0.41588841782E+03  0.80209372996E+03  0.35490705436E+03  0.97070930518E+03  0.10100000352E+00 0. -1.
       -3    1    3    3    0  502  0.41588841782E+03 -0.80209372996E+03  0.34521320468E+03  0.96720716220E+03  0.10100000352E+00 0.  1.
</event>
<event>
 5   0  0.9184414E-05  0.1795038E+04  0.7818609E-02  0.8708943E-01
        2   -1    0    0  501    0  0.00000000000E+00  0.00000000000E+00  0.17427257118E+04  0.17427257118E+04  0.25500000920E-02 0. -1.
       -2   -1    0    0    0  501  0.00000000000E+00  0.00000000000E+00 -0.46223008313E+03  0.46223008314E+03  0.25500000920E-02 0.  1.
    10030    2    1    2    0    0  0.00000000000E+00  0.00000000000E+00  0.12804956287E+04  0.22049557950E+04  0.17950378834E+04 0.  0.
        5    1    3    3  502    0 -0.42885255405E+03 -0.64551972646E+03  0.84208304386E+02  0.77956613503E+03  0.46999998093E+01 0.  1.
       -5    1    3    3    0  502  0.42885255405E+03  0.64551972646E+03  0.11962873243E+04  0.14253896599E+04  0.46999998093E+01 0. -1.
</event>
<event>
 5   0  0.4494757E-05  0.1801397E+04  0.7818609E-02  0.8705557E-01
        1   -1    0    0  501    0  0.00000000000E+00  0.00000000000E+00  0.10139224508E+04  0.10139224508E+04  0.50400001928E-02 0. -1.
       -1   -1    0    0    0  501  0.00000000000E+00  0.00000000000E+00 -0.80011835300E+03  0.80011835301E+03  0.50400001928E-02 0.  1.
    10030    2    1    2    0    0  0.00000000000E+00  0.00000000000E+00  0.21380409777E+03  0.18140408038E+04  0.18013971926E+04 0.  0.
        4    1    3    3  502    0 -0.20988230040E+03 -0.38666103764E+03  0.89835667654E+03  0.10003017891E+04  0.12699999809E+01 0. -1.
       -4    1    3    3    0  502  0.20988230040E+03  0.38666103764E+03 -0.68455257877E+03  0.81373901471E+03  0.12699999809E+01 0.  1.
</event>
<event>
 5   0  0.8802655E-05  0.1793120E+04  0.7818609E-02  0.8709967E-01
        2   -1    0    0  501    0  0.00000000000E+00  0.00000000000E+00  0.75122573802E+03  0.75122573802E+03  0.25500000920E-02 0.  1.
       -2   -1    0    0    0  501  0.00000000000E+00  0.00000000000E+00 -0.10700115181E+04  0.10700115181E+04  0.25500000920E-02 0. -1.
    10030    2    1    2    0    0  0.00000000000E+00  0.00000000000E+00 -0.31878578004E+03  0.18212372561E+04  0.17931204001E+04 0.  0.
        2    1    3    3  502    0  0.54342180036E+03  0.71296021696E+03 -0.14500502284E+03  0.90810020413E+03  0.25500000920E-02 0. -1.
       -2    1    3    3    0  502 -0.54342180036E+03 -0.71296021696E+03 -0.17378075720E+03  0.91313705196E+03  0.25500000920E-02 0.  1.
</event>
<event>
 5   0  0.4335117E-05  0.1793909E+04  0.7818609E-02  0.8709545E-01
       -1   -1    0    0    0  501  0.00000000000E+00  0.00000000000E+00  0.42197941049E+03  0.42197941052E+03  0.50400001928E-02 0.  1.
        1   -1    0    0  501    0  0.00000000000E+00  0.00000000000E+00 -0.19065558867E+04  0.19065558867E+04  0.50400001928E-02 0. -1.
    10030    2    1    2    0    0  0.00000000000E+00  0.00000000000E+00 -0.14845764762E+04  0.23285352973E+04  0.17939089489E+04 0.  0.
        3    1    3    3  502    0  0.72601831297E+03  0.44958174754E+03 -0.10984790766E+04  0.13913599931E+04  0.10100000352E+00 0. -1.
       -3    1    3    3    0  502 -0.72601831297E+03 -0.44958174754E+03 -0.38609739960E+03  0.93717530412E+03  0.10100000352E+00 0.  1.
</event>
<event>
 5   0  0.4623665E-05  0.1804162E+04  0.7818609E-02  0.8704089E-01
       -1   -1    0    0    0  501  0.00000000000E+00  0.00000000000E+00  0.51407122453E+03  0.51407122456E+03  0.50400001928E-02 0. -1.
        1   -1    0    0  501    0  0.00000000000E+00  0.00000000000E+00 -0.15829525760E+04  0.15829525760E+04  0.50400001928E-02 0.  1.
    10030    2    1    2    0    0  0.00000000000E+00  0.00000000000E+00 -0.10688813515E+04  0.20970238006E+04  0.18041622645E+04 0.  0.
        5    1    3    3  502    0  0.25049457641E+03 -0.52174621912E+02  0.47099342336E+03  0.53602856158E+03  0.46999998093E+01 0. -1.
       -5    1    3    3    0  502 -0.25049457641E+03  0.52174621912E+02 -0.15398747749E+04  0.15609952390E+04  0.46999998093E+01 0.  1.
</event>
<event>
 5   0  0.4578107E-05  0.1786311E+04  0.7818609E-02  0.8713613E-01
       -1   -1    0    0    0  501  0.00000000000E+00  0.00000000000E+00  0.10359832555E+04  0.10359832556E+04  0.50400001928E-02 0.  1.
        1   -1    0    0  501    0  0.00000000000E+00  0.00000000000E+00 -0.77001882315E+03  0.77001882317E+03  0.50400001928E-02 0. -1.
    10030    2    1    2    0    0  0.00000000000E+00  0.00000000000E+00  0.26596443239E+03  0.18060020787E+04  0.17863108433E+04 0.  0.
        2    1    3    3  502    0  0.29019609254E+03 -0.60004413169E+02 -0.71886863847E+03  0.77755155527E+03  0.25500000920E-02 0. -1.
       -2    1    3    3    0  502 -0.29019609254E+03  0.60004413169E+02  0.98483307086E+03  0.10284505235E+04  0.25500000920E-02 0.  1.
</event>
<event>
 5   0  0.4623665E-05  0.1809761E+04  0.7818609E-02  0.8701126E-01
       -1   -1    0    0    0  501  0.00000000000E+00  0.00000000000E+00  0.63405458268E+03  0.63405458270E+03  0.50400001928E-02 0. -1.
        1   -1    0    0  501    0  0.00000000000E+00  0.00000000000E+00 -0.12913852432E+04  0.12913852432E+04  0.50400001928E-02 0.  1.
    10030    2    1    2    0    0  0.00000000000E+00  0.00000000000E+00 -0.65733066053E+03  0.19254398259E+04  0.18097610135E+04 0.  0.
        5    1    3    3  502    0  0.53882198227E+03  0.67739219266E+03 -0.47989502284E+02  0.86689929841E+03  0.46999998093E+01 0. -1.
       -5    1    3    3    0  502 -0.53882198227E+03 -0.67739219266E+03 -0.60934115825E+03  0.10585405275E+04  0.46999998093E+01 0.  1.
</event>
<event>
 5   0  0.8802655E-05  0.1801996E+04  0.7818609E-02  0.8705239E-01
       -2   -1    0    0    0  501  0.00000000000E+00  0.00000000000E+00  0.29743286742E+03  0.29743286743E+03  0.25500000920E-02 0. -1.
        2   -1    0    0  501    0  0.00000000000E+00  0.00000000000E+00 -0.27293459916E+04  0.27293459916E+04  0.25500000920E-02 0.  1.
    10030    2    1    2    0    0  0.00000000000E+00  0.00000000000E+00 -0.24319131242E+04  0.30267788590E+04  0.18019957874E+04 0.  0.
        2    1    3    3  502    0  0.45878438705E+03  0.62749879314E+03 -0.19811972916E+04  0.21282341407E+04  0.25500000920E-02 0.  1.
       -2    1    3    3    0  502 -0.45878438705E+03 -0.62749879314E+03 -0.45071583259E+03  0.89854471839E+03  0.25500000920E-02 0. -1.
</event>
<event>
 5   0  0.8802655E-05  0.1771036E+04  0.7818609E-02  0.8721856E-01
        2   -1    0    0  501    0  0.00000000000E+00  0.00000000000E+00  0.22688078746E+04  0.22688078746E+04  0.25500000920E-02 0.  1.
       -2   -1    0    0    0  501  0.00000000000E+00  0.00000000000E+00 -0.34561844367E+03  0.34561844368E+03  0.25500000920E-02 0. -1.
    10030    2    1    2    0    0  0.00000000000E+00  0.00000000000E+00  0.19231894309E+04  0.26144263183E+04  0.17710356819E+04 0.  0.
        2    1    3    3  502    0 -0.24092969607E+03  0.84880997356E+03  0.10722256158E+04  0.13885939870E+04  0.25500000920E-02 0.  1.
       -2    1    3    3    0  502  0.24092969607E+03 -0.84880997356E+03  0.85096381513E+03  0.12258323312E+04  0.25500000920E-02 0. -1.
</event>
<event>
 5   0  0.4494757E-05  0.1793832E+04  0.7818609E-02  0.8709586E-01
        1   -1    0    0  501    0  0.00000000000E+00  0.00000000000E+00  0.19245678748E+04  0.19245678748E+04  0.50400001928E-02 0. -1.
       -1   -1    0    0    0  501  0.00000000000E+00  0.00000000000E+00 -0.41799446365E+03  0.41799446368E+03  0.50400001928E-02 0.  1.
    10030    2    1    2    0    0  0.00000000000E+00  0.00000000000E+00  0.15065734111E+04  0.23425623384E+04  0.17938324522E+04 0.  0.
        4    1    3    3  502    0 -0.57367521192E+03 -0.54595484669E+03  0.20343203021E+03  0.81765282804E+03  0.12699999809E+01 0. -1.
       -4    1    3    3    0  502  0.57367521192E+03  0.54595484669E+03  0.13031413809E+04  0.15249095104E+04  0.12699999809E+01 0.  1.
</event>
<event>
 5   0  0.8892280E-05  0.1794226E+04  0.7818609E-02  0.8709376E-01
       -2   -1    0    0    0  501  0.00000000000E+00  0.00000000000E+00  0.62803945292E+03  0.62803945293E+03  0.25500000920E-02 0. -1.
        2   -1    0    0  501    0  0.00000000000E+00  0.00000000000E+00 -0.12814670029E+04  0.12814670029E+04  0.25500000920E-02 0.  1.
    10030    2    1    2    0    0  0.00000000000E+00  0.00000000000E+00 -0.65342755001E+03  0.19095064559E+04  0.17942261122E+04 0.  0.
        4    1    3    3  502    0  0.34036030509E+03 -0.73272923783E+03 -0.74173465079E+03  0.10967721634E+04  0.12699999809E+01 0.  1.
       -4    1    3    3    0  502 -0.34036030509E+03  0.73272923783E+03  0.88307100780E+02  0.81273429249E+03  0.12699999809E+01 0. -1.
</event>
<event>
 5   0  0.3270375E-05  0.1813604E+04  0.7818609E-02  0.8699098E-01
        3   -1    0    0  501    0  0.00000000000E+00  0.00000000000E+00  0.14918824699E+04  0.14918824733E+04  0.10100000352E+00 0.  1.
       -3   -1    0    0    0  501  0.00000000000E+00  0.00000000000E+00 -0.55117589548E+03  0.55117590474E+03  0.10100000352E+00 0. -1.
    10030    2    1    2    0    0  0.00000000000E+00  0.00000000000E+00  0.94070657441E+03  0.20430583780E+04  0.18136037817E+04 0.  0.
        4    1    3    3  502    0 -0.18995465781E+03  0.57364150392E+03 -0.29131050813E+03  0.67082842224E+03  0.12699999809E+01 0. -1.
       -4    1    3    3    0  502  0.18995465781E+03 -0.57364150392E+03  0.12320170825E+04  0.13722299558E+04  0.12699999809E+01 0.  1.
</event>
<event>
 5   0  0.4623665E-05  0.1800203E+04  0.7818609E-02  0.8706192E-01
        1   -1    0    0  501    0  0.00000000000E+00  0.00000000000E+00  0.10457654872E+04  0.10457654872E+04  0.50400001928E-02 0.  1.
       -1   -1    0    0    0  501  0.00000000000E+00  0.00000000000E+00 -0.77472665047E+03  0.77472665049E+03  0.50400001928E-02 0. -1.
    10030    2    1    2    0    0  0.00000000000E+00  0.00000000000E+00  0.27103883675E+03  0.18204921377E+04  0.18002026476E+04 0.  0.
        5    1    3    3  502    0 -0.19735347785E+03 -0.85251765263E+03 -0.77629859848E+02  0.87851193982E+03  0.46999998093E+01 0. -1.
       -5    1    3    3    0  502  0.19735347785E+03  0.85251765263E+03  0.34866869660E+03  0.94198019791E+03  0.46999998093E+01 0.  1.
</event>
<event>
 5   0  0.4335117E-05  0.1791731E+04  0.7818609E-02  0.8710709E-01
       -1   -1    0    0    0  501  0.00000000000E+00  0.00000000000E+00  0.49808399489E+03  0.49808399491E+03  0.50400001928E-02 0.  1.
        1   -1    0    0  501    0  0.00000000000E+00  0.00000000000E+00 -0.16113252314E+04  0.16113252314E+04  0.50400001928E-02 0. -1.
    10030    2    1    2    0    0  0.00000000000E+00  0.00000000000E+00 -0.11132412365E+04  0.21094092263E+04  0.17917313508E+04 0.  0.
        3    1    3    3  502    0  0.72291104475E+03 -0.50350458820E+03 -0.36512146490E+03  0.95364088801E+03  0.10100000352E+00 0. -1.
       -3    1    3    3    0  502 -0.72291104475E+03  0.50350458820E+03 -0.74811977161E+03  0.11557683383E+04  0.10100000352E+00 0.  1.
</event>
<event>
 5   0  0.8802655E-05  0.1786261E+04  0.7818609E-02  0.8713640E-01
        2   -1    0    0  501    0  0.00000000000E+00  0.00000000000E+00  0.10606823640E+04  0.10606823640E+04  0.25500000920E-02 0.  1.
       -2   -1    0    0    0  501  0.00000000000E+00  0.00000000000E+00 -0.75204585070E+03  0.75204585070E+03  0.25500000920E-02 0. -1.
    10030    2    1    2    0    0  0.00000000000E+00  0.00000000000E+00  0.30863651335E+03  0.18127282147E+04  0.17862606426E+04 0.  0.
        2    1    3    3  502    0 -0.42604095561E+03 -0.75497850963E+03  0.37239379478E+03  0.94349381782E+03  0.25500000920E-02 0. -1.
       -2    1    3    3    0  502  0.42604095561E+03  0.75497850963E+03 -0.63757281426E+02  0.86923439693E+03  0.25500000920E-02 0.  1.
</event>
<event>
 5   0  0.4535100E-05  0.1802891E+04  0.7818609E-02  0.8704764E-01
        1   -1    0    0  501    0  0.00000000000E+00  0.00000000000E+00  0.67442132897E+03  0.67442132899E+03  0.50400001928E-02 0. -1.
       -1   -1    0    0    0  501  0.00000000000E+00  0.00000000000E+00 -0.12048902988E+04  0.12048902988E+04  0.50400001928E-02 0.  1.
    10030    2    1    2    0    0  0.00000000000E+00  0.00000000000E+00 -0.53046896983E+03  0.18793116278E+04  0.18028906973E+04 0.  0.
        1    1    3    3  502    0  0.54273900933E+03  0.24216343737E+03 -0.97175131756E+03  0.11390826949E+04  0.50400001928E-02 0.  1.
       -1    1    3    3    0  502 -0.54273900933E+03 -0.24216343737E+03  0.44128234773E+03  0.74022893289E+03  0.50400001928E-02 0. -1.
</event>
<event>
 5   0  0.8802655E-05  0.1799063E+04  0.7818609E-02  0.8706798E-01
        2   -1    0    0  501    0  0.00000000000E+00  0.00000000000E+00  0.75134725213E+03  0.75134725213E+03  0.25500000920E-02 0.  1.
       -2   -1    0    0    0  501  0.00000000000E+00  0.00000000000E+00 -0.10769416022E+04  0.10769416022E+04  0.25500000920E-02 0. -1.
    10030    2    1    2    0    0  0.00000000000E+00  0.00000000000E+00 -0.32559435006E+03  0.18282888543E+04  0.17990632157E+04 0.  0.
        2    1    3    3  502    0 -0.70633854641E+02  0.88935100372E+03 -0.45938888075E+02  0.89333349354E+03  0.25500000920E-02 0.  1.
       -2    1    3    3    0  502  0.70633854641E+02 -0.88935100372E+03 -0.27965546198E+03  0.93495536078E+03  0.25500000920E-02 0. -1.
</event>
<event>
 5   0  0.8802655E-05  0.1800347E+04  0.7818609E-02  0.8706115E-01
        2   -1    0    0  501    0  0.00000000000E+00  0.00000000000E+00  0.26434236592E+04  0.26434236592E+04  0.25500000920E-02 0.  1.
       -2   -1    0    0    0  501  0.00000000000E+00  0.00000000000E+00 -0.30653898067E+03  0.30653898068E+03  0.25500000920E-02 0. -1.
    10030    2    1    2    0    0  0.00000000000E+00  0.00000000000E+00  0.23368846785E+04  0.29499626399E+04  0.18003470710E+04 0.  0.
        2    1    3    3  502    0  0.28943505820E+03  0.75589188532E+03  0.18138888231E+04  0.19862874560E+04  0.25500000920E-02 0.  1.
       -2    1    3    3    0  502 -0.28943505820E+03 -0.75589188532E+03  0.52299585537E+03  0.96367518385E+03  0.25500000920E-02 0. -1.
</event>
<event>
 5   0  0.4335117E-05  0.1822001E+04  0.7818609E-02  0.8694686E-01
        1   -1    0    0  501    0  0.00000000000E+00  0.00000000000E+00  0.73313427416E+03  0.73313427418E+03  0.50400001928E-02 0. -1.
       -1   -1    0    0    0  501  0.00000000000E+00  0.00000000000E+00 -0.11320192785E+04  0.11320192785E+04  0.50400001928E-02 0.  1.
    10030    2    1    2    0    0  0.00000000000E+00  0.00000000000E+00 -0.39888500430E+03  0.18651535527E+04  0.18220012427E+04 0.  0.
        3    1    3    3  502    0  0.59587394625E+03 -0.68629640109E+03 -0.26299021300E+03  0.94616720103E+03  0.10100000352E+00 0.  1.
       -3    1    3    3    0  502 -0.59587394625E+03  0.68629640109E+03 -0.13589479130E+03  0.91898635162E+03  0.10100000352E+00 0. -1.
</event>
<event>
 5   0  0.4535100E-05  0.1801460E+04  0.7818609E-02  0.8705523E-01
        1   -1    0    0  501    0  0.00000000000E+00  0.00000000000E+00  0.41847548444E+03  0.41847548447E+03  0.50400001928E-02 0.  1.
       -1   -1    0    0    0  501  0.00000000000E+00  0.00000000000E+00 -0.19387391068E+04  0.19387391068E+04  0.50400001928E-02 0. -1.
    10030    2    1    2    0    0  0.00000000000E+00  0.00000000000E+00 -0.15202636223E+04  0.23572145912E+04  0.18014602821E+04 0.  0.
        1    1    3    3  502    0 -0.31524726490E+03  0.44643234935E+03 -0.16969974931E+04  0.17828301018E+04  0.50400001928E-02 0. -1.
       -1    1    3    3    0  502  0.31524726490E+03 -0.44643234935E+03  0.17673387073E+03  0.57438448940E+03  0.50400001928E-02 0.  1.
</event>
<event>
 5   0  0.4335117E-05  0.1800308E+04  0.7818609E-02  0.8706135E-01
        1   -1    0    0  501    0  0.00000000000E+00  0.00000000000E+00  0.13834292321E+04  0.13834292321E+04  0.50400001928E-02 0. -1.
       -1   -1    0    0    0  501  0.00000000000E+00  0.00000000000E+00 -0.58570221766E+03  0.58570221769E+03  0.50400001928E-02 0.  1.
    10030    2    1    2    0    0  0.00000000000E+00  0.00000000000E+00  0.79772701441E+03  0.19691314498E+04  0.18003083838E+04 0.  0.
        3    1    3    3  502    0 -0.30924305448E+03  0.35370861760E+03  0.12386775961E+04  0.13247880020E+04  0.10100000352E+00 0. -1.
       -3    1    3    3    0  502  0.30924305448E+03 -0.35370861760E+03 -0.44095058174E+03  0.64434344774E+03  0.10100000352E+00 0.  1.
</event>
<event>
 5   0  0.3270375E-05  0.1782375E+04  0.7818609E-02  0.8715729E-01
       -3   -1    0    0    0  501  0.00000000000E+00  0.00000000000E+00  0.11343745906E+04  0.11343745951E+04  0.10100000352E+00 0.  1.
        3   -1    0    0  501    0  0.00000000000E+00  0.00000000000E+00 -0.70013504837E+03  0.70013505566E+03  0.10100000352E+00 0. -1.
    10030    2    1    2    0    0  0.00000000000E+00  0.00000000000E+00  0.43423954227E+03  0.18345096508E+04  0.17823752912E+04 0.  0.
        2    1    3    3  502    0  0.30541899194E+03 -0.56458006581E+03 -0.41917316706E+03  0.76664043419E+03  0.25500000920E-02 0. -1.
       -2    1    3    3    0  502 -0.30541899194E+03  0.56458006581E+03  0.85341270933E+03  0.10678692166E+04  0.25500000920E-02 0.  1.
</event>
<event>
 5   0  0.4494757E-05  0.1793316E+04  0.7818609E-02  0.8709862E-01
       -1   -1    0    0    0  501  0.00000000000E+00  0.00000000000E+00  0.68998296283E+03  0.68998296285E+03  0.50400001928E-02 0. -1.
        1   -1    0    0  501    0  0.00000000000E+00  0.00000000000E+00 -0.11652398667E+04  0.11652398667E+04  0.50400001928E-02 0.  1.
    10030    2    1    2    0    0  0.00000000000E+00  0.00000000000E+00 -0.47525690389E+03  0.18552228296E+04  0.17933160967E+04 0.  0.
        4    1    3    3  502    0  0.86320324995E+03  0.38481480905E+02  0.10210798835E+02  0.86412183655E+03  0.12699999809E+01 0.  1.
       -4    1    3    3    0  502 -0.86320324995E+03 -0.38481480905E+02 -0.48546770272E+03  0.99110099303E+03  0.12699999809E+01 0. -1.
</event>
<event>
 5   0  0.4494757E-05  0.1800249E+04  0.7818609E-02  0.8706167E-01
       -1   -1    0    0    0  501  0.00000000000E+00  0.00000000000E+00  0.51360554199E+03  0.51360554201E+03  0.50400001928E-02 0. -1.
        1   -1    0    0  501    0  0.00000000000E+00  0.00000000000E+00 -0.15775227680E+04  0.15775227680E+04  0.50400001928E-02 0.  1.
    10030    2    1    2    0    0  0.00000000000E+00  0.00000000000E+00 -0.10639172260E+04  0.20911283100E+04  0.18002493564E+04 0.  0.
        4    1    3    3  502    0 -0.87165253651E+03 -0.71521973599E+00 -0.27107097749E+03  0.91283062157E+03  0.12699999809E+01 0. -1.
       -4    1    3    3    0  502  0.87165253651E+03  0.71521973599E+00 -0.79284624854E+03  0.11782976885E+04  0.12699999809E+01 0.  1.
</event>
<event>
 5   0  0.8893075E-05  0.1793030E+04  0.7818609E-02  0.8710015E-01
        2   -1    0    0  501    0  0.00000000000E+00  0.00000000000E+00  0.82635999314E+03  0.82635999314E+03  0.25500000920E-02 0. -1.
       -2   -1    0    0    0  501  0.00000000000E+00  0.00000000000E+00 -0.97262594388E+03  0.97262594389E+03  0.25500000920E-02 0.  1.
    10030    2    1    2    0    0  0.00000000000E+00  0.00000000000E+00 -0.14626595074E+03  0.17989859370E+04  0.17930300258E+04 0.  0.
        1    1    3    3  502    0  0.48178130671E+03  0.64361672234E+03 -0.47116658437E+03  0.93185495815E+03  0.50400001928E-02 0.  1.
       -1    1    3    3    0  502 -0.48178130671E+03 -0.64361672234E+03  0.32490063363E+03  0.86713097888E+03  0.50400001928E-02 0. -1.
</event>
<event>
 5   0  0.9147432E-05  0.1800367E+04  0.7818609E-02  0.8706104E-01
       -2   -1    0    0    0  501  0.00000000000E+00  0.00000000000E+00  0.66468204974E+03  0.66468204975E+03  0.25500000920E-02 0.  1.
        2   -1    0    0  501    0  0.00000000000E+00  0.00000000000E+00 -0.12191248798E+04  0.12191248798E+04  0.25500000920E-02 0. -1.
    10030    2    1    2    0    0  0.00000000000E+00  0.00000000000E+00 -0.55444283003E+03  0.18838069295E+04  0.18003671003E+04 0.  0.
        3    1    3    3  502    0 -0.76749322692E+03  0.66809513212E+02 -0.76444246458E+03  0.10853025644E+04  0.10100000352E+00 0. -1.
       -3    1    3    3    0  502  0.76749322692E+03 -0.66809513212E+02  0.20999963455E+03  0.79850436513E+03  0.10100000352E+00 0.  1.
</event>
<event>
 5   0  0.4623665E-05  0.1798736E+04  0.7818609E-02  0.8706972E-01
        1   -1    0    0  501    0  0.00000000000E+00  0.00000000000E+00  0.95389296795E+03  0.95389296796E+03  0.50400001928E-02 0.  1.
       -1   -1    0    0    0  501  0.00000000000E+00  0.00000000000E+00 -0.84795994603E+03  0.84795994605E+03  0.50400001928E-02 0. -1.
    10030    2    1    2    0    0  0.00000000000E+00  0.00000000000E+00  0.10593302191E+03  0.18018529140E+04  0.17987362560E+04 0.  0.
        5    1    3    3  502    0  0.57084648649E+03  0.64431510847E+03 -0.20793297477E+03  0.88558787375E+03  0.46999998093E+01 0. -1.
       -5    1    3    3    0  502 -0.57084648649E+03 -0.64431510847E+03  0.31386599668E+03  0.91626504026E+03  0.46999998093E+01 0.  1.
</event>
<event>
 5   0  0.8802655E-05  0.1798200E+04  0.7818609E-02  0.8707257E-01
        2   -1    0    0  501    0  0.00000000000E+00  0.00000000000E+00  0.27182136309E+04  0.27182136309E+04  0.25500000920E-02 0.  1.
       -2   -1    0    0    0  501  0.00000000000E+00  0.00000000000E+00 -0.29739426201E+03  0.29739426202E+03  0.25500000920E-02 0. -1.
    10030    2    1    2    0    0  0.00000000000E+00  0.00000000000E+00  0.24208193689E+04  0.30156078929E+04  0.17982003634E+04 0.  0.
        2    1    3    3  502    0  0.83369795160E+03  0.33664154579E+03  0.12123450941E+04  0.15093576224E+04  0.25500000920E-02 0.  1.
       -2    1    3    3    0  502 -0.83369795160E+03 -0.33664154579E+03  0.12084742747E+04  0.15062502706E+04  0.25500000920E-02 0. -1.
</event>
<event>
 5   0  0.8892280E-05  0.1800555E+04  0.7818609E-02  0.8706004E-01
        2   -1    0    0  501    0  0.00000000000E+00  0.00000000000E+00  0.92327260300E+03  0.92327260301E+03  0.25500000920E-02 0. -1.
       -2   -1    0    0    0  501  0.00000000000E+00  0.00000000000E+00 -0.87785495682E+03  0.87785495682E+03  0.25500000920E-02 0.  1.
    10030    2    1    2    0    0  0.00000000000E+00  0.00000000000E+00  0.45417646184E+02  0.18011275598E+04  0.18005548379E+04 0.  0.
        4    1    3    3  502    0  0.15125128754E+03  0.80513680798E+03 -0.35074032485E+03  0.89114680044E+03  0.12699999809E+01 0.  1.
       -4    1    3    3    0  502 -0.15125128754E+03 -0.80513680798E+03  0.39615797103E+03  0.90998075939E+03  0.12699999809E+01 0. -1.
</event>
<event>
 5   0  0.4494757E-05  0.1789681E+04  0.7818609E-02  0.8711806E-01
       -1   -1    0    0    0  501  0.00000000000E+00  0.00000000000E+00  0.34800250677E+03  0.34800250681E+03  0.50400001928E-02 0.  1.
        1   -1    0    0  501    0  0.00000000000E+00  0.00000000000E+00 -0.23009590318E+04  0.23009590318E+04  0.50400001928E-02 0. -1.
    10030    2    1    2    0    0  0.00000000000E+00  0.00000000000E+00 -0.19529565250E+04  0.26489615386E+04  0.17896809896E+04 0.  0.
        4    1    3    3  502    0 -0.27827587175E+03  0.81575493618E+03 -0.62049433249E+03  0.10620303227E+04  0.12699999809E+01 0.  1.
       -4    1    3    3    0  502  0.27827587175E+03 -0.81575493618E+03 -0.13324621926E+04  0.15869312160E+04  0.12699999809E+01 0. -1.
</event>
<event>
 5   0  0.9184414E-05  0.1798154E+04  0.7818609E-02  0.8707282E-01
        2   -1    0    0  501    0  0.00000000000E+00  0.00000000000E+00  0.68437831272E+03  0.68437831272E+03  0.25500000920E-02 0.  1.
       -2   -1    0    0    0  501  0.00000000000E+00  0.00000000000E+00 -0.11811300690E+04  0.11811300690E+04  0.25500000920E-02 0. -1.
    10030    2    1    2    0    0  0.00000000000E+00  0.00000000000E+00 -0.49675175625E+03  0.18655083817E+04  0.17981543913E+04 0.  0.
        5    1    3    3  502    0  0.17898635386E+03 -0.30711361169E+02  0.66513952949E+03  0.68950125907E+03  0.46999998093E+01 0.  1.
       -5    1    3    3    0  502 -0.17898635386E+03  0.30711361169E+02 -0.11618912857E+04  0.11760071226E+04  0.46999998093E+01 0. -1.
</event>
<event>
 5   0  0.8893075E-05  0.1785157E+04  0.7818609E-02  0.8714233E-01
       -2   -1    0    0    0  501  0.00000000000E+00  0.00000000000E+00  0.68723403428E+03  0.68723403428E+03  0.25500000920E-02 0.  1.
        2   -1    0    0  501    0  0.00000000000E+00  0.00000000000E+00 -0.11592791023E+04  0.11592791023E+04  0.25500000920E-02 0. -1.
    10030    2    1    2    0    0  0.00000000000E+00  0.00000000000E+00 -0.47204506801E+03  0.18465131366E+04  0.17851566366E+04 0.  0.
        1    1    3    3  502    0 -0.78927933467E+03  0.40770243369E+03 -0.32567871087E+03  0.94617639229E+03  0.50400001928E-02 0.  1.
       -1    1    3    3    0  502  0.78927933467E+03 -0.40770243369E+03 -0.14636635714E+03  0.90033674429E+03  0.50400001928E-02 0. -1.
</event>
<event>
 5   0  0.4494757E-05  0.1801561E+04  0.7818609E-02  0.8705470E-01
       -1   -1    0    0    0  501  0.00000000000E+00  0.00000000000E+00  0.68786154014E+03  0.68786154016E+03  0.50400001928E-02 0. -1.
        1   -1    0    0  501    0  0.00000000000E+00  0.00000000000E+00 -0.11796055322E+04  0.11796055322E+04  0.50400001928E-02 0.  1.
    10030    2    1    2    0    0  0.00000000000E+00  0.00000000000E+00 -0.49174399204E+03  0.18674670723E+04  0.18015607435E+04 0.  0.
        4    1    3    3  502    0  0.13825546410E+03 -0.85782800141E+03  0.34691123780E+00  0.86889883565E+03  0.12699999809E+01 0. -1.
       -4    1    3    3    0  502 -0.13825546410E+03  0.85782800141E+03 -0.49209090327E+03  0.99856823669E+03  0.12699999809E+01 0.  1.
</event>
<event>
 5   0  0.4335117E-05  0.1802241E+04  0.7818609E-02  0.8705109E-01
        1   -1    0    0  501    0  0.00000000000E+00  0.00000000000E+00  0.13115638023E+04  0.13115638023E+04  0.50400001928E-02 0. -1.
       -1   -1    0    0    0  501  0.00000000000E+00  0.00000000000E+00 -0.61912180186E+03  0.61912180188E+03  0.50400001928E-02 0.  1.
    10030    2    1    2    0    0  0.00000000000E+00  0.00000000000E+00  0.69244200042E+03  0.19306856042E+04  0.18022405439E+04 0.  0.
        3    1    3    3  502    0 -0.89863761524E+03  0.54174446702E+02  0.38816910974E+03  0.98038752651E+03  0.10100000352E+00 0.  1.
       -3    1    3    3    0  502  0.89863761524E+03 -0.54174446702E+02  0.30427289068E+03  0.95029807766E+03  0.10100000352E+00 0. -1.
</event>
<event>
 5   0  0.8892280E-05  0.1782775E+04  0.7818609E-02  0.8715514E-01
       -2   -1    0    0    0  501  0.00000000000E+00  0.00000000000E+00  0.80789113759E+03  0.80789113759E+03  0.25500000920E-02 0.  1.
        2   -1    0    0  501    0  0.00000000000E+00  0.00000000000E+00 -0.98351288005E+03  0.98351288005E+03  0.25500000920E-02 0. -1.
    10030    2    1    2    0    0  0.00000000000E+00  0.00000000000E+00 -0.17562174246E+03  0.17914040176E+04  0.17827746234E+04 0.  0.
        4    1    3    3  502    0 -0.46340060065E+02 -0.65013158642E+03 -0.69882594334E+03  0.95560336585E+03  0.12699999809E+01 0. -1.
       -4    1    3    3    0  502  0.46340060065E+02  0.65013158642E+03  0.52320420088E+03  0.83580065180E+03  0.12699999809E+01 0.  1.
</event>
<event>
 5   0  0.9147432E-05  0.1807619E+04  0.7818609E-02  0.8702258E-01
        2   -1    0    0  501    0  0.00000000000E+00  0.00000000000E+00  0.18607311041E+04  0.18607311041E+04  0.25500000920E-02 0. -1.
       -2   -1    0    0    0  501  0.00000000000E+00  0.00000000000E+00 -0.43900563272E+03  0.43900563273E+03  0.25500000920E-02 0.  1.
    10030    2    1    2    0    0  0.00000000000E+00  0.00000000000E+00  0.14217254714E+04  0.22997367369E+04  0.18076188046E+04 0.  0.
        3    1    3    3  502    0  0.44529312175E+03  0.73098104894E+03  0.10801478595E+04  0.13781649636E+04  0.10100000352E+00 0. -1.
       -3    1    3    3    0  502 -0.44529312175E+03 -0.73098104894E+03  0.34157761188E+03  0.92157177329E+03  0.10100000352E+00 0.  1.
</event>
<event>
 5   0  0.8802655E-05  0.1806332E+04  0.7818609E-02  0.8702940E-01
       -2   -1    0    0    0  501  0.00000000000E+00  0.00000000000E+00  0.37189559695E+03  0.37189559696E+03  0.25500000920E-02 0. -1.
        2   -1    0    0  501    0  0.00000000000E+00  0.00000000000E+00 -0.21933800929E+04  0.21933800929E+04  0.25500000920E-02 0.  1.
    10030    2    1    2    0    0  0.00000000000E+00  0.00000000000E+00 -0.18214844960E+04  0.25652756899E+04  0.18063315299E+04 0.  0.
        2    1    3    3  502    0 -0.27249935729E+03  0.33658232304E+03 -0.20363145425E+04  0.20818550564E+04  0.25500000920E-02 0.  1.
       -2    1    3    3    0  502  0.27249935729E+03 -0.33658232304E+03  0.21483004657E+03  0.48342063343E+03  0.25500000920E-02 0. -1.
</event>
<event>
 5   0  0.8802655E-05  0.1726622E+04  0.7818609E-02  0.8746325E-01
       -2   -1    0    0    0  501  0.00000000000E+00  0.00000000000E+00  0.93883740977E+03  0.93883740977E+03  0.25500000920E-02 0.  1.
        2   -1    0    0  501    0  0.00000000000E+00  0.00000000000E+00 -0.79386022428E+03  0.79386022429E+03  0.25500000920E-02 0. -1.
    10030    2    1    2    0    0  0.00000000000E+00  0.00000000000E+00  0.14497718549E+03  0.17326976341E+04  0.17266217613E+04 0.  0.
        2    1    3    3  502    0  0.39727507543E+03  0.76436741353E+03  0.12943905059E+03  0.87111393988E+03  0.25500000920E-02 0. -1.
       -2    1    3    3    0  502 -0.39727507543E+03 -0.76436741353E+03  0.15538134901E+02  0.86158369418E+03  0.25500000920E-02 0.  1.
</event>
<event>
 5   0  0.8892280E-05  0.1795619E+04  0.7818609E-02  0.8708633E-01
        2   -1    0    0  501    0  0.00000000000E+00  0.00000000000E+00  0.14176730998E+04  0.14176730998E+04  0.25500000920E-02 0. -1.
       -2   -1    0    0    0  501  0.00000000000E+00  0.00000000000E+00 -0.56858107054E+03  0.56858107055E+03  0.25500000920E-02 0.  1.
    10030    2    1    2    0    0  0.00000000000E+00  0.00000000000E+00  0.84909202930E+03  0.19862541704E+04  0.17956192122E+04 0.  0.
        4    1    3    3  502    0  0.39841635323E+03  0.65144359671E+03 -0.97754607819E+02  0.76985188606E+03  0.12699999809E+01 0.  1.
       -4    1    3    3    0  502 -0.39841635323E+03 -0.65144359671E+03  0.94684663712E+03  0.12164022843E+04  0.12699999809E+01 0. -1.
</event>
<event>
 5   0  0.9184414E-05  0.1778252E+04  0.7818609E-02  0.8717951E-01
       -2   -1    0    0    0  501  0.00000000000E+00  0.00000000000E+00  0.14552605053E+04  0.14552605053E+04  0.25500000920E-02 0.  1.
        2   -1    0    0  501    0  0.00000000000E+00  0.00000000000E+00 -0.54323242072E+03  0.54323242073E+03  0.25500000920E-02 0. -1.
    10030    2    1    2    0    0  0.00000000000E+00  0.00000000000E+00  0.91202808456E+03  0.19984929260E+04  0.17782515987E+04 0.  0.
        5    1    3    3  502    0 -0.13665780103E+03  0.85161664786E+03  0.69861094529E+03  0.11099574822E+04  0.46999998093E+01 0.  1.
       -5    1    3    3    0  502  0.13665780103E+03 -0.85161664786E+03  0.21341713927E+03  0.88853544377E+03  0.46999998093E+01 0. -1.
</event>
<event>
 5   0  0.9184414E-05  0.1800729E+04  0.7818609E-02  0.8705912E-01
       -2   -1    0    0    0  501  0.00000000000E+00  0.00000000000E+00  0.51826756238E+03  0.51826756238E+03  0.25500000920E-02 0. -1.
        2   -1    0    0  501    0  0.00000000000E+00  0.00000000000E+00 -0.15641653254E+04  0.15641653254E+04  0.25500000920E-02 0.  1.
    10030    2    1    2    0    0  0.00000000000E+00  0.00000000000E+00 -0.10458977630E+04  0.20824328878E+04  0.18007289084E+04 0.  0.
        5    1    3    3  502    0  0.28220962263E+03  0.17892694642E+03 -0.14897877478E+04  0.15268093355E+04  0.46999998093E+01 0.  1.
       -5    1    3    3    0  502 -0.28220962263E+03 -0.17892694642E+03  0.44388998482E+03  0.55562355231E+03  0.46999998093E+01 0. -1.
</event>
<event>
 5   0  0.9147432E-05  0.1795390E+04  0.7818609E-02  0.8708755E-01
        2   -1    0    0  501    0  0.00000000000E+00  0.00000000000E+00  0.15852758193E+04  0.15852758193E+04  0.25500000920E-02 0.  1.
       -2   -1    0    0    0  501  0.00000000000E+00  0.00000000000E+00 -0.50833809610E+03  0.50833809611E+03  0.25500000920E-02 0. -1.
    10030    2    1    2    0    0  0.00000000000E+00  0.00000000000E+00  0.10769377232E+04  0.20936139155E+04  0.17953897536E+04 0.  0.
        3    1    3    3  502    0  0.27804706149E+03 -0.55579146176E+03 -0.21693153068E+03  0.65823522890E+03  0.10100000352E+00 0. -1.
       -3    1    3    3    0  502 -0.27804706149E+03  0.55579146176E+03  0.12938692539E+04  0.14353786866E+04  0.10100000352E+00 0.  1.
</event>
<event>
 5   0  0.4535100E-05  0.1802210E+04  0.7818609E-02  0.8705125E-01
        1   -1    0    0  501    0  0.00000000000E+00  0.00000000000E+00  0.57593101881E+03  0.57593101883E+03  0.50400001928E-02 0. -1.
       -1   -1    0    0    0  501  0.00000000000E+00  0.00000000000E+00 -0.14098735151E+04  0.14098735151E+04  0.50400001928E-02 0.  1.
    10030    2    1    2    0    0  0.00000000000E+00  0.00000000000E+00 -0.83394249625E+03  0.19858045339E+04  0.18022096326E+04 0.  0.
        1    1    3    3  502    0 -0.79040000961E+03 -0.26324595377E+03 -0.79541143871E+03  0.11518289648E+04  0.50400001928E-02 0.  1.
       -1    1    3    3    0  502  0.79040000961E+03  0.26324595377E+03 -0.38531057541E+02  0.83397556906E+03  0.50400001928E-02 0. -1.
</event>
<event>
 5   0  0.4535100E-05  0.1683598E+04  0.7818609E-02  0.8770775E-01
        1   -1    0    0  501    0  0.00000000000E+00  0.00000000000E+00  0.16550367661E+04  0.16550367661E+04  0.50400001928E-02 0.  1.
       -1   -1    0    0    0  501  0.00000000000E+00  0.00000000000E+00 -0.42816291671E+03  0.42816291674E+03  0.50400001928E-02 0. -1.
    10030    2    1    2    0    0  0.00000000000E+00  0.00000000000E+00  0.12268738494E+04  0.20831996829E+04  0.16835977775E+04 0.  0.
        1    1    3    3  502    0  0.33884623271E+03 -0.47213932118E+03  0.13669953174E+04  0.14853984334E+04  0.50400001928E-02 0.  1.
       -1    1    3    3    0  502 -0.33884623271E+03  0.47213932118E+03 -0.14012146804E+03  0.59780124946E+03  0.50400001928E-02 0. -1.
</event>
<event>
 5   0  0.8802655E-05  0.1811859E+04  0.7818609E-02  0.8700018E-01
       -2   -1    0    0    0  501  0.00000000000E+00  0.00000000000E+00  0.61174007188E+03  0.61174007188E+03  0.25500000920E-02 0. -1.
        2   -1    0    0  501    0  0.00000000000E+00  0.00000000000E+00 -0.13415967380E+04  0.13415967380E+04  0.25500000920E-02 0.  1.
    10030    2    1    2    0    0  0.00000000000E+00  0.00000000000E+00 -0.72985666608E+03  0.19533368098E+04  0.18118592494E+04 0.  0.
        2    1    3    3  502    0  0.64273506699E+03  0.56995984462E+03 -0.67504556819E+03  0.10925424980E+04  0.25500000920E-02 0.  1.
       -2    1    3    3    0  502 -0.64273506699E+03 -0.56995984462E+03 -0.54811097888E+02  0.86079431183E+03  0.25500000920E-02 0. -1.
</event>
<event>
 5   0  0.8892280E-05  0.1803657E+04  0.7818609E-02  0.8704357E-01
       -2   -1    0    0    0  501  0.00000000000E+00  0.00000000000E+00  0.57490006868E+03  0.57490006869E+03  0.25500000920E-02 0. -1.
        2   -1    0    0  501    0  0.00000000000E+00  0.00000000000E+00 -0.14146706441E+04  0.14146706441E+04  0.25500000920E-02 0.  1.
    10030    2    1    2    0    0  0.00000000000E+00  0.00000000000E+00 -0.83977057542E+03  0.19895707128E+04  0.18036565643E+04 0.  0.
        4    1    3    3  502    0 -0.62384402157E+03  0.51489996545E+03  0.19949403998E+02  0.80913715110E+03  0.12699999809E+01 0. -1.
       -4    1    3    3    0  502  0.62384402157E+03 -0.51489996545E+03 -0.85971997942E+03  0.11804335617E+04  0.12699999809E+01 0.  1.
</event>
<event>
 5   0  0.4623665E-05  0.1782495E+04  0.7818609E-02  0.8715664E-01
       -1   -1    0    0    0  501  0.00000000000E+00  0.00000000000E+00  0.67235154316E+03  0.67235154318E+03  0.50400001928E-02 0.  1.
        1   -1    0    0  501    0  0.00000000000E+00  0.00000000000E+00 -0.11814086896E+04  0.11814086897E+04  0.50400001928E-02 0. -1.
    10030    2    1    2    0    0  0.00000000000E+00  0.00000000000E+00 -0.50905714648E+03  0.18537602328E+04  0.17824948310E+04 0.  0.
        5    1    3    3  502    0 -0.77074091475E+03  0.29019499739E+03 -0.60880219689E+03  0.10241664411E+04  0.46999998093E+01 0. -1.
       -5    1    3    3    0  502  0.77074091475E+03 -0.29019499739E+03  0.99745050412E+02  0.82959379171E+03  0.46999998093E+01 0.  1.
</event>
<event>
 5   0  0.3270375E-05  0.1800311E+04  0.7818609E-02  0.8706134E-01
       -3   -1    0    0    0  501  0.00000000000E+00  0.00000000000E+00  0.89322718714E+03  0.89322719285E+03  0.10100000352E+00 0. -1.
        3   -1    0    0  501    0  0.00000000000E+00  0.00000000000E+00 -0.90713803249E+03  0.90713803812E+03  0.10100000352E+00 0.  1.
    10030    2    1    2    0    0  0.00000000000E+00  0.00000000000E+00 -0.13910845353E+02  0.18003652310E+04  0.18003114878E+04 0.  0.
        5    1    3    3  502    0 -0.54257229278E+03 -0.62308045137E+02  0.70860160262E+03  0.89465373559E+03  0.46999998093E+01 0. -1.
       -5    1    3    3    0  502  0.54257229278E+03  0.62308045137E+02 -0.72251244797E+03  0.90571149537E+03  0.46999998093E+01 0.  1.
</event>
<event>
 5   0  0.8893075E-05  0.1805903E+04  0.7818609E-02  0.8703167E-01
       -2   -1    0    0    0  501  0.00000000000E+00  0.00000000000E+00  0.68505456781E+03  0.68505456781E+03  0.25500000920E-02 0. -1.
        2   -1    0    0  501    0  0.00000000000E+00  0.00000000000E+00 -0.11901548169E+04  0.11901548169E+04  0.25500000920E-02 0.  1.
    10030    2    1    2    0    0  0.00000000000E+00  0.00000000000E+00 -0.50510024905E+03  0.18752093847E+04  0.18059025375E+04 0.  0.
        1    1    3    3  502    0  0.28307709836E+03 -0.32729059704E+02  0.63713872405E+03  0.69796102232E+03  0.50400001928E-02 0. -1.
       -1    1    3    3    0  502 -0.28307709836E+03  0.32729059704E+02 -0.11422389731E+04  0.11772483624E+04  0.50400001928E-02 0.  1.
</event>
<event>
 5   0  0.4623665E-05  0.1797260E+04  0.7818609E-02  0.8707758E-01
        1   -1    0    0  501    0  0.00000000000E+00  0.00000000000E+00  0.59241418598E+03  0.59241418601E+03  0.50400001928E-02 0.  1.
       -1   -1    0    0    0  501  0.00000000000E+00  0.00000000000E+00 -0.13631264409E+04  0.13631264409E+04  0.50400001928E-02 0. -1.
    10030    2    1    2    0    0  0.00000000000E+00  0.00000000000E+00 -0.77071225492E+03  0.19555406269E+04  0.17972595148E+04 0.  0.
        5    1    3    3  502    0  0.42059951424E+03  0.30130819725E+03  0.41407609842E+03  0.66270029907E+03  0.46999998093E+01 0.  1.
       -5    1    3    3    0  502 -0.42059951424E+03 -0.30130819725E+03 -0.11847883533E+04  0.12928403278E+04  0.46999998093E+01 0. -1.
</event>
<event>
 5   0  0.4494757E-05  0.1802535E+04  0.7818609E-02  0.8704953E-01
       -1   -1    0    0    0  501  0.00000000000E+00  0.00000000000E+00  0.12363487628E+04  0.12363487628E+04  0.50400001928E-02 0.  1.
        1   -1    0    0  501    0  0.00000000000E+00  0.00000000000E+00 -0.65700164275E+03  0.65700164277E+03  0.50400001928E-02 0. -1.
    10030    2    1    2    0    0  0.00000000000E+00  0.00000000000E+00  0.57934712007E+03  0.18933504056E+04  0.18025350684E+04 0.  0.
        4    1    3    3  502    0  0.47308940589E+03 -0.36642992243E+03  0.99756953646E+03  0.11632846028E+04  0.12699999809E+01 0.  1.
       -4    1    3    3    0  502 -0.47308940589E+03  0.36642992243E+03 -0.41822241639E+03  0.73006580285E+03  0.12699999809E+01 0. -1.
</event>
<event>
 5   0  0.4535100E-05  0.1817762E+04  0.7818609E-02  0.8696911E-01
        1   -1    0    0  501    0  0.00000000000E+00  0.00000000000E+00  0.67915444719E+03  0.67915444721E+03  0.50400001928E-02 0.  1.
       -1   -1    0    0    0  501  0.00000000000E+00  0.00000000000E+00 -0.12163129118E+04  0.12163129118E+04  0.50400001928E-02 0. -1.
    10030    2    1    2    0    0  0.00000000000E+00  0.00000000000E+00 -0.53715846458E+03  0.18954673590E+04  0.18177616161E+04 0.  0.
        1    1    3    3  502    0  0.39058663601E+03  0.42928869567E+03 -0.99791989297E+03  0.11544222872E+04  0.50400001928E-02 0. -1.
       -1    1    3    3    0  502 -0.39058663601E+03 -0.42928869567E+03  0.46076142839E+03  0.74104507176E+03  0.50400001928E-02 0.  1.
</event>
<event>
 5   0  0.4535100E-05  0.1798451E+04  0.7818609E-02  0.8707124E-01
       -1   -1    0    0    0  501  0.00000000000E+00  0.00000000000E+00  0.42896437746E+03  0.42896437749E+03  0.50400001928E-02 0.  1.
        1   -1    0    0  501    0  0.00000000000E+00  0.00000000000E+00 -0.18850194477E+04  0.18850194477E+04  0.50400001928E-02 0. -1.
    10030    2    1    2    0    0  0.00000000000E+00  0.00000000000E+00 -0.14560550703E+04  0.23139838252E+04  0.17984506598E+04 0.  0.
        1    1    3    3  502    0  0.31862227801E+03  0.64040171096E+03 -0.14291910574E+04  0.15981932255E+04  0.50400001928E-02 0. -1.
       -1    1    3    3    0  502 -0.31862227801E+03 -0.64040171096E+03 -0.26864012874E+02  0.71579059973E+03  0.50400001928E-02 0.  1.
</event>
<event>
 5   0  0.4535100E-05  0.1797252E+04  0.7818609E-02  0.8707762E-01
        1   -1    0    0  501    0  0.00000000000E+00  0.00000000000E+00  0.17921863211E+04  0.17921863211E+04  0.50400001928E-02 0.  1.
       -1   -1    0    0    0  501  0.00000000000E+00  0.00000000000E+00 -0.45058318594E+03  0.45058318597E+03  0.50400001928E-02 0. -1.
    10030    2    1    2    0    0  0.00000000000E+00  0.00000000000E+00  0.13416031351E+04  0.22427695070E+04  0.17972523722E+04 0.  0.
        1    1    3    3  502    0  0.29761358600E+03  0.84402263367E+03  0.77203419781E+03  0.11819411387E+04  0.50400001928E-02 0.  1.
       -1    1    3    3    0  502 -0.29761358600E+03 -0.84402263367E+03  0.56956893730E+03  0.10608283683E+04  0.50400001928E-02 0. -1.
</event>
<event>
 5   0  0.4578107E-05  0.1786090E+04  0.7818609E-02  0.8713732E-01
        1   -1    0    0  501    0  0.00000000000E+00  0.00000000000E+00  0.11146644555E+04  0.11146644555E+04  0.50400001928E-02 0.  1.
       -1   -1    0    0    0  501  0.00000000000E+00  0.00000000000E+00 -0.71548834122E+03  0.71548834124E+03  0.50400001928E-02 0. -1.
    10030    2    1    2    0    0  0.00000000000E+00  0.00000000000E+00  0.39917611424E+03  0.18301527967E+04  0.17860900563E+04 0.  0.
        2    1    3    3  502    0 -0.52823263083E+03 -0.52793571014E+03  0.70134539405E+03  0.10245150990E+04  0.25500000920E-02 0.  1.
       -2    1    3    3    0  502  0.52823263083E+03  0.52793571014E+03 -0.30216927980E+03  0.80563769772E+03  0.25500000920E-02 0. -1.
</event>
<event>
 5   0  0.4623665E-05  0.1784944E+04  0.7818609E-02  0.8714347E-01
        1   -1    0    0  501    0  0.00000000000E+00  0.00000000000E+00  0.10913836238E+04  0.10913836238E+04  0.50400001928E-02 0.  1.
       -1   -1    0    0    0  501  0.00000000000E+00  0.00000000000E+00 -0.72981350147E+03  0.72981350149E+03  0.50400001928E-02 0. -1.
    10030    2    1    2    0    0  0.00000000000E+00  0.00000000000E+00  0.36157012236E+03  0.18211971253E+04  0.17849442613E+04 0.  0.
        5    1    3    3  502    0  0.30409408989E+03  0.70729902728E+03 -0.27975740850E+03  0.81916507927E+03  0.46999998093E+01 0.  1.
       -5    1    3    3    0  502 -0.30409408989E+03 -0.70729902728E+03  0.64132753086E+03  0.10020320461E+04  0.46999998093E+01 0. -1.
</event>
<event>
 5   0  0.9147432E-05  0.1798435E+04  0.7818609E-02  0.8707132E-01
       -2   -1    0    0    0  501  0.00000000000E+00  0.00000000000E+00  0.11156526465E+04  0.11156526465E+04  0.25500000920E-02 0.  1.
        2   -1    0    0  501    0  0.00000000000E+00  0.00000000000E+00 -0.72477030621E+03  0.72477030621E+03  0.25500000920E-02 0. -1.
    10030    2    1    2    0    0  0.00000000000E+00  0.00000000000E+00  0.39088234032E+03  0.18404229527E+04  0.17984347753E+04 0.  0.
        3    1    3    3  502    0  0.63613959853E+03  0.57451653926E+03  0.47353760882E+03  0.97927560976E+03  0.10100000352E+00 0. -1.
       -3    1    3    3    0  502 -0.63613959853E+03 -0.57451653926E+03 -0.82655268503E+02  0.86114734298E+03  0.10100000352E+00 0.  1.
</event>
<event>
 5   0  0.4335117E-05  0.1803694E+04  0.7818609E-02  0.8704338E-01
       -1   -1    0    0    0  501  0.00000000000E+00  0.00000000000E+00  0.11649146116E+04  0.11649146116E+04  0.50400001928E-02 0. -1.
        1   -1    0    0  501    0  0.00000000000E+00  0.00000000000E+00 -0.69818674871E+03  0.69818674873E+03  0.50400001928E-02 0.  1.
    10030    2    1    2    0    0  0.00000000000E+00  0.00000000000E+00  0.46672786289E+03  0.18631013603E+04  0.18036939266E+04 0.  0.
        3    1    3    3  502    0 -0.55069250699E+03 -0.60236056700E+03  0.62970404348E+03  0.10308383397E+04  0.10100000352E+00 0. -1.
       -3    1    3    3    0  502  0.55069250699E+03  0.60236056700E+03 -0.16297618059E+03  0.83226302067E+03  0.10100000352E+00 0.  1.
</event>
<event>
 5   0  0.4578107E-05  0.1798044E+04  0.7818609E-02  0.8707340E-01
        1   -1    0    0  501    0  0.00000000000E+00  0.00000000000E+00  0.59953468178E+03  0.59953468180E+03  0.50400001928E-02 0. -1.
       -1   -1    0    0    0  501  0.00000000000E+00  0.00000000000E+00 -0.13481129308E+04  0.13481129308E+04  0.50400001928E-02 0.  1.
    10030    2    1    2    0    0  0.00000000000E+00  0.00000000000E+00 -0.74857824902E+03  0.19476476126E+04  0.17980438893E+04 0.  0.
        2    1    3    3  502    0  0.74523472064E+03 -0.35662579468E+03 -0.75830536507E+03  0.11214204265E+04  0.25500000920E-02 0.  1.
       -2    1    3    3    0  502 -0.74523472064E+03  0.35662579468E+03  0.97271160487E+01  0.82622718611E+03  0.25500000920E-02 0. -1.
</event>
<event>
 5   0  0.9184414E-05  0.1781656E+04  0.7818609E-02  0.8716116E-01
       -2   -1    0    0    0  501  0.00000000000E+00  0.00000000000E+00  0.45052505229E+03  0.45052505230E+03  0.25500000920E-02 0.  1.
        2   -1    0    0  501    0  0.00000000000E+00  0.00000000000E+00 -0.17614446012E+04  0.17614446012E+04  0.25500000920E-02 0. -1.
    10030    2    1    2    0    0  0.00000000000E+00  0.00000000000E+00 -0.13109195489E+04  0.22119696535E+04  0.17816564440E+04 0.  0.
        5    1    3    3  502    0 -0.28713488190E+03  0.15537781197E+03 -0.16844760190E+04  0.17158293194E+04  0.46999998093E+01 0. -1.
       -5    1    3    3    0  502  0.28713488190E+03 -0.15537781197E+03  0.37355647002E+03  0.49614033413E+03  0.46999998093E+01 0.  1.
</event>
<event>
 5   0  0.9147432E-05  0.1798403E+04  0.7818609E-02  0.8707149E-01
       -2   -1    0    0    0  501  0.00000000000E+00  0.00000000000E+00  0.38743775823E+03  0.38743775824E+03  0.25500000920E-02 0.  1.
        2   -1    0    0  501    0  0.00000000000E+00  0.00000000000E+00 -0.20869514315E+04  0.20869514315E+04  0.25500000920E-02 0. -1.
    10030    2    1    2    0    0  0.00000000000E+00  0.00000000000E+00 -0.16995136733E+04  0.24743891897E+04  0.17984034966E+04 0.  0.
        3    1    3    3  502    0  0.73797832591E+03 -0.32688875358E+03 -0.30442261282E+03  0.86263631046E+03  0.10100000352E+00 0.  1.
       -3    1    3    3    0  502 -0.73797832591E+03  0.32688875358E+03 -0.13950910605E+04  0.16117528793E+04  0.10100000352E+00 0. -1.
</event>
<event>
 5   0  0.4535100E-05  0.1801028E+04  0.7818609E-02  0.8705753E-01
        1   -1    0    0  501    0  0.00000000000E+00  0.00000000000E+00  0.13907557753E+04  0.13907557753E+04  0.50400001928E-02 0. -1.
       -1   -1    0    0    0  501  0.00000000000E+00  0.00000000000E+00 -0.58308238025E+03  0.58308238027E+03  0.50400001928E-02 0.  1.
    10030    2    1    2    0    0  0.00000000000E+00  0.00000000000E+00  0.80767339502E+03  0.19738381555E+04  0.18010276931E+04 0.  0.
        1    1    3    3  502    0 -0.35316265487E+03 -0.29161724463E+03  0.12535774431E+04  0.13346238736E+04  0.50400001928E-02 0. -1.
       -1    1    3    3    0  502  0.35316265487E+03  0.29161724463E+03 -0.44590404805E+03  0.63921428195E+03  0.50400001928E-02 0.  1.
</event>
<event>
 5   0  0.8892280E-05  0.1808425E+04  0.7818609E-02  0.8701832E-01
        2   -1    0    0  501    0  0.00000000000E+00  0.00000000000E+00  0.10548214673E+04  0.10548214673E+04  0.25500000920E-02 0.  1.
       -2   -1    0    0    0  501  0.00000000000E+00  0.00000000000E+00 -0.77510772960E+03  0.77510772960E+03  0.25500000920E-02 0. -1.
    10030    2    1    2    0    0  0.00000000000E+00  0.00000000000E+00  0.27971373774E+03  0.18299291969E+04  0.18084250305E+04 0.  0.
        4    1    3    3  502    0  0.69989051177E+03 -0.56926526932E+03  0.20131610966E+03  0.92435894771E+03  0.12699999809E+01 0. -1.
       -4    1    3    3    0  502 -0.69989051177E+03  0.56926526932E+03  0.78397628086E+02  0.90557024923E+03  0.12699999809E+01 0.  1.
</event>
<event>
 5   0  0.8893075E-05  0.1800734E+04  0.7818609E-02  0.8705909E-01
        2   -1    0    0  501    0  0.00000000000E+00  0.00000000000E+00  0.19448186327E+04  0.19448186327E+04  0.25500000920E-02 0. -1.
       -2   -1    0    0    0  501  0.00000000000E+00  0.00000000000E+00 -0.41683079715E+03  0.41683079716E+03  0.25500000920E-02 0.  1.
    10030    2    1    2    0    0  0.00000000000E+00  0.00000000000E+00  0.15279878355E+04  0.23616494298E+04  0.18007335183E+04 0.  0.
        1    1    3    3  502    0  0.83173420878E+03 -0.16863559314E+03  0.36958423915E+03  0.92564154357E+03  0.50400001928E-02 0.  1.
       -1    1    3    3    0  502 -0.83173420878E+03  0.16863559314E+03  0.11584035964E+04  0.14360078863E+04  0.50400001928E-02 0. -1.
</event>
<event>
 5   0  0.9147432E-05  0.1812033E+04  0.7818609E-02  0.8699927E-01
       -2   -1    0    0    0  501  0.00000000000E+00  0.00000000000E+00  0.70689721173E+03  0.70689721174E+03  0.25500000920E-02 0. -1.
        2   -1    0    0  501    0  0.00000000000E+00  0.00000000000E+00 -0.11612232778E+04  0.11612232778E+04  0.25500000920E-02 0.  1.
    10030    2    1    2    0    0  0.00000000000E+00  0.00000000000E+00 -0.45432606603E+03  0.18681204895E+04  0.18120325574E+04 0.  0.
        3    1    3    3  502    0  0.41855845890E+03 -0.56313046358E+03  0.36377938452E+03  0.79034331358E+03  0.10100000352E+00 0. -1.
       -3    1    3    3    0  502 -0.41855845890E+03  0.56313046358E+03 -0.81810545055E+03  0.10777771759E+04  0.10100000352E+00 0.  1.
</event>
<event>
 5   0  0.4623665E-05  0.1796370E+04  0.7818609E-02  0.8708232E-01
       -1   -1    0    0    0  501  0.00000000000E+00  0.00000000000E+00  0.59106364291E+03  0.59106364293E+03  0.50400001928E-02 0.  1.
        1   -1    0    0  501    0  0.00000000000E+00  0.00000000000E+00 -0.13648893050E+04  0.13648893050E+04  0.50400001928E-02 0. -1.
    10030    2    1    2    0    0  0.00000000000E+00  0.00000000000E+00 -0.77382566213E+03  0.19559529480E+04  0.17963701677E+04 0.  0.
        5    1    3    3  502    0 -0.57452440791E+03  0.18657381809E+03 -0.11106624305E+04  0.12643105668E+04  0.46999998093E+01 0. -1.
       -5    1    3    3    0  502  0.57452440791E+03 -0.18657381809E+03  0.33683676836E+03  0.69164238115E+03  0.46999998093E+01 0.  1.
</event>
<event>
 5   0  0.4578107E-05  0.1796935E+04  0.7818609E-02  0.8707931E-01
        1   -1    0    0  501    0  0.00000000000E+00  0.00000000000E+00  0.10083787630E+04  0.10083787630E+04  0.50400001928E-02 0.  1.
       -1   -1    0    0    0  501  0.00000000000E+00  0.00000000000E+00 -0.80053633424E+03  0.80053633426E+03  0.50400001928E-02 0. -1.
    10030    2    1    2    0    0  0.00000000000E+00  0.00000000000E+00  0.20784242879E+03  0.18089150973E+04  0.17969349888E+04 0.  0.
        2    1    3    3  502    0 -0.20179352514E+03  0.87128274565E+03  0.19045704290E+03  0.91440042370E+03  0.25500000920E-02 0. -1.
       -2    1    3    3    0  502  0.20179352514E+03 -0.87128274565E+03  0.17385385892E+02  0.89451467361E+03  0.25500000920E-02 0.  1.
</event>
<event>
 5   0  0.4535100E-05  0.1801091E+04  0.7818609E-02  0.8705719E-01
       -1   -1    0    0    0  501  0.00000000000E+00  0.00000000000E+00  0.70274874714E+03  0.70274874716E+03  0.50400001928E-02 0. -1.
        1   -1    0    0  501    0  0.00000000000E+00  0.00000000000E+00 -0.11540145238E+04  0.11540145238E+04  0.50400001928E-02 0.  1.
    10030    2    1    2    0    0  0.00000000000E+00  0.00000000000E+00 -0.45126577664E+03  0.18567632709E+04  0.18010910702E+04 0.  0.
        1    1    3    3  502    0  0.26272073260E+03 -0.12672778336E+03  0.65270032530E+03  0.71491246254E+03  0.50400001928E-02 0. -1.
       -1    1    3    3    0  502 -0.26272073260E+03  0.12672778336E+03 -0.11039661019E+04  0.11418508084E+04  0.50400001928E-02 0.  1.
</event>
<event>
 5   0  0.8802655E-05  0.1797071E+04  0.7818609E-02  0.8707859E-01
        2   -1    0    0  501    0  0.00000000000E+00  0.00000000000E+00  0.58986891298E+03  0.58986891298E+03  0.25500000920E-02 0.  1.
       -2   -1    0    0    0  501  0.00000000000E+00  0.00000000000E+00 -0.13687206111E+04  0.13687206111E+04  0.25500000920E-02 0. -1.
    10030    2    1    2    0    0  0.00000000000E+00  0.00000000000E+00 -0.77885169808E+03  0.19585895240E+04  0.17970706597E+04 0.  0.
        2    1    3    3  502    0  0.63716838812E+03 -0.18112185932E+03  0.27224564087E+03  0.71617481925E+03  0.25500000920E-02 0.  1.
       -2    1    3    3    0  502 -0.63716838812E+03  0.18112185932E+03 -0.10510973389E+04  0.12424147048E+04  0.25500000920E-02 0. -1.
</event>
<event>
 5   0  0.8892280E-05  0.1795981E+04  0.7818609E-02  0.8708440E-01
        2   -1    0    0  501    0  0.00000000000E+00  0.00000000000E+00  0.10238641263E+04  0.10238641263E+04  0.25500000920E-02 0.  1.
       -2   -1    0    0    0  501  0.00000000000E+00  0.00000000000E+00 -0.78759172391E+03  0.78759172392E+03  0.25500000920E-02 0. -1.
    10030    2    1    2    0    0  0.00000000000E+00  0.00000000000E+00  0.23627240243E+03  0.18114558503E+04  0.17959809713E+04 0.  0.
        4    1    3    3  502    0 -0.59164391923E+03 -0.24703159075E+03  0.75229702354E+03  0.98844299710E+03  0.12699999809E+01 0.  1.
       -4    1    3    3    0  502  0.59164391923E+03  0.24703159075E+03 -0.51602462110E+03  0.82301285317E+03  0.12699999809E+01 0. -1.
</event>
<event>
 5   0  0.4578107E-05  0.1797866E+04  0.7818609E-02  0.8707435E-01
       -1   -1    0    0    0  501  0.00000000000E+00  0.00000000000E+00  0.69727324524E+03  0.69727324526E+03  0.50400001928E-02 0.  1.
        1   -1    0    0  501    0  0.00000000000E+00  0.00000000000E+00 -0.11589149773E+04  0.11589149773E+04  0.50400001928E-02 0. -1.
    10030    2    1    2    0    0  0.00000000000E+00  0.00000000000E+00 -0.46164173204E+03  0.18561882226E+04  0.17978658539E+04 0.  0.
        2    1    3    3  502    0 -0.67148434394E+01 -0.64800879738E+03 -0.87402332093E+03  0.10880612373E+04  0.25500000920E-02 0. -1.
       -2    1    3    3    0  502  0.67148434394E+01  0.64800879738E+03  0.41238158889E+03  0.76812698524E+03  0.25500000920E-02 0.  1.
</event>
<event>
 5   0  0.4623665E-05  0.1799032E+04  0.7818609E-02  0.8706814E-01
        1   -1    0    0  501    0  0.00000000000E+00  0.00000000000E+00  0.70320010368E+03  0.70320010370E+03  0.50400001928E-02 0. -1.
       -1   -1    0    0    0  501  0.00000000000E+00  0.00000000000E+00 -0.11506384334E+04  0.11506384334E+04  0.50400001928E-02 0.  1.
    10030    2    1    2    0    0  0.00000000000E+00  0.00000000000E+00 -0.44743832973E+03  0.18538385371E+04  0.17990320350E+04 0.  0.
        5    1    3    3  502    0  0.87091627747E+03 -0.15144739807E+03 -0.39514676243E+03  0.96829465072E+03  0.46999998093E+01 0.  1.
       -5    1    3    3    0  502 -0.87091627747E+03  0.15144739807E+03 -0.52291567298E+02  0.88554388641E+03  0.46999998093E+01 0. -1.
</event>
<event>
 5   0  0.4578107E-05  0.1795626E+04  0.7818609E-02  0.8708629E-01
        1   -1    0    0  501    0  0.00000000000E+00  0.00000000000E+00  0.24090941216E+04  0.24090941216E+04  0.50400001928E-02 0. -1.
       -1   -1    0    0    0  501  0.00000000000E+00  0.00000000000E+00 -0.33459390667E+03  0.33459390671E+03  0.50400001928E-02 0.  1.
    10030    2    1    2    0    0  0.00000000000E+00  0.00000000000E+00  0.20745002149E+04  0.27436880283E+04  0.17956260343E+04 0.  0.
        2    1    3    3  502    0 -0.10187549287E+02 -0.82298450826E+03  0.15853278585E+04  0.17862451416E+04  0.25500000920E-02 0. -1.
       -2    1    3    3    0  502  0.10187549287E+02  0.82298450826E+03  0.48917235641E+03  0.95744288669E+03  0.25500000920E-02 0.  1.
</event>
<event>
 5   0  0.3270375E-05  0.1799493E+04  0.7818609E-02  0.8706569E-01
       -3   -1    0    0    0  501  0.00000000000E+00  0.00000000000E+00  0.11450513096E+04  0.11450513141E+04  0.10100000352E+00 0.  1.
        3   -1    0    0  501    0  0.00000000000E+00  0.00000000000E+00 -0.70699357866E+03  0.70699358588E+03  0.10100000352E+00 0. -1.
    10030    2    1    2    0    0  0.00000000000E+00  0.00000000000E+00  0.43805773096E+03  0.18520448999E+04  0.17994931886E+04 0.  0.
        5    1    3    3  502    0  0.87955742487E+03 -0.62781371221E+02  0.35037078766E+02  0.88250351336E+03  0.46999998093E+01 0.  1.
       -5    1    3    3    0  502 -0.87955742487E+03  0.62781371221E+02  0.40302065219E+03  0.96954138659E+03  0.46999998093E+01 0. -1.
</event>
<event>
 5   0  0.8802655E-05  0.1792652E+04  0.7818609E-02  0.8710217E-01
       -2   -1    0    0    0  501  0.00000000000E+00  0.00000000000E+00  0.38257988630E+03  0.38257988631E+03  0.25500000920E-02 0.  1.
        2   -1    0    0  501    0  0.00000000000E+00  0.00000000000E+00 -0.20999549972E+04  0.20999549972E+04  0.25500000920E-02 0. -1.
    10030    2    1    2    0    0  0.00000000000E+00  0.00000000000E+00 -0.17173751109E+04  0.24825348835E+04  0.17926522742E+04 0.  0.
        2    1    3    3  502    0  0.47543730070E+03  0.68838506051E+03 -0.13041795946E+04  0.15494512039E+04  0.25500000920E-02 0. -1.
       -2    1    3    3    0  502 -0.47543730070E+03 -0.68838506051E+03 -0.41319551636E+03  0.93308367962E+03  0.25500000920E-02 0.  1.
</event>
<event>
 5   0  0.9147432E-05  0.1798128E+04  0.7818609E-02  0.8707296E-01
        2   -1    0    0  501    0  0.00000000000E+00  0.00000000000E+00  0.15779908940E+04  0.15779908940E+04  0.25500000920E-02 0. -1.
       -2   -1    0    0    0  501  0.00000000000E+00  0.00000000000E+00 -0.51224377296E+03  0.51224377297E+03  0.25500000920E-02 0.  1.
    10030    2    1    2    0    0  0.00000000000E+00  0.00000000000E+00  0.10657471210E+04  0.20902346669E+04  0.17981279256E+04 0.  0.
        3    1    3    3  502    0  0.37417205291E+03  0.41300786533E+02 -0.41621975120E+03  0.56120350288E+03  0.10100000352E+00 0.  1.
       -3    1    3    3    0  502 -0.37417205291E+03 -0.41300786533E+02  0.14819668722E+04  0.15290311640E+04  0.10100000352E+00 0. -1.
</event>
<event>
 5   0  0.8802655E-05  0.1819110E+04  0.7818609E-02  0.8696202E-01
        2   -1    0    0  501    0  0.00000000000E+00  0.00000000000E+00  0.14925471644E+04  0.14925471644E+04  0.25500000920E-02 0.  1.
       -2   -1    0    0    0  501  0.00000000000E+00  0.00000000000E+00 -0.55428089445E+03  0.55428089446E+03  0.25500000920E-02 0. -1.
    10030    2    1    2    0    0  0.00000000000E+00  0.00000000000E+00  0.93826626991E+03  0.20468280588E+04  0.18191100871E+04 0.  0.
        2    1    3    3  502    0 -0.32790427126E+03  0.70251067449E+03  0.10043313740E+04  0.12687489774E+04  0.25500000920E-02 0.  1.
       -2    1    3    3    0  502  0.32790427126E+03 -0.70251067449E+03 -0.66065104126E+02  0.77807908138E+03  0.25500000920E-02 0. -1.
</event>
<event>
 5   0  0.4335117E-05  0.1789638E+04  0.7818609E-02  0.8711829E-01
        1   -1    0    0  501    0  0.00000000000E+00  0.00000000000E+00  0.10147011941E+04  0.10147011941E+04  0.50400001928E-02 0.  1.
       -1   -1    0    0    0  501  0.00000000000E+00  0.00000000000E+00 -0.78910068243E+03  0.78910068245E+03  0.50400001928E-02 0. -1.
    10030    2    1    2    0    0  0.00000000000E+00  0.00000000000E+00  0.22560051165E+03  0.18038018765E+04  0.17896384045E+04 0.  0.
        3    1    3    3  502    0 -0.81245334914E+03 -0.12212293500E+03 -0.24455746430E+03  0.85720640416E+03  0.10100000352E+00 0. -1.
       -3    1    3    3    0  502  0.81245334914E+03  0.12212293500E+03  0.47015797595E+03  0.94659547238E+03  0.10100000352E+00 0.  1.
</event>
<event>
 5   0  0.4623665E-05  0.1808431E+04  0.7818609E-02  0.8701829E-01
       -1   -1    0    0    0  501  0.00000000000E+00  0.00000000000E+00  0.85495872780E+03  0.85495872782E+03  0.50400001928E-02 0.  1.
        1   -1    0    0  501    0  0.00000000000E+00  0.00000000000E+00 -0.95631042476E+03  0.95631042477E+03  0.50400001928E-02 0. -1.
    10030    2    1    2    0    0  0.00000000000E+00  0.00000000000E+00 -0.10135169696E+03  0.18112691526E+04  0.18084313027E+04 0.  0.
        5    1    3    3  502    0  0.13858167468E+03 -0.87802199059E+03 -0.21663547038E+03  0.91492104224E+03  0.46999998093E+01 0.  1.
       -5    1    3    3    0  502 -0.13858167468E+03  0.87802199059E+03  0.11528377343E+03  0.89634811035E+03  0.46999998093E+01 0. -1.
</event>
<event>
 5   0  0.9184414E-05  0.1797045E+04  0.7818609E-02  0.8707872E-01
       -2   -1    0    0    0  501  0.00000000000E+00  0.00000000000E+00  0.36594196034E+03  0.36594196035E+03  0.25500000920E-02 0. -1.
        2   -1    0    0  501    0  0.00000000000E+00  0.00000000000E+00 -0.22062045302E+04  0.22062045302E+04  0.25500000920E-02 0.  1.
    10030    2    1    2    0    0  0.00000000000E+00  0.00000000000E+00 -0.18402625698E+04  0.25721464905E+04  0.17970451421E+04 0.  0.
        5    1    3    3  502    0 -0.26785373644E+03  0.26244506342E+03  0.24856371507E+03  0.44992115519E+03  0.46999998093E+01 0. -1.
       -5    1    3    3    0  502  0.26785373644E+03 -0.26244506342E+03 -0.20888262849E+04  0.21222253353E+04  0.46999998093E+01 0.  1.
</event>
<event>
 5   0  0.4623665E-05  0.1789197E+04  0.7818609E-02  0.8712066E-01
        1   -1    0    0  501    0  0.00000000000E+00  0.00000000000E+00  0.10949590314E+04  0.10949590314E+04  0.50400001928E-02 0. -1.
       -1   -1    0    0    0  501  0.00000000000E+00  0.00000000000E+00 -0.73090064009E+03  0.73090064011E+03  0.50400001928E-02 0.  1.
    10030    2    1    2    0    0  0.00000000000E+00  0.00000000000E+00  0.36405839130E+03  0.18258596715E+04  0.17891967549E+04 0.  0.
        5    1    3    3  502    0 -0.66035296491E+03 -0.53890438398E+03  0.45925780412E+03  0.96820648313E+03  0.46999998093E+01 0.  1.
       -5    1    3    3    0  502  0.66035296491E+03  0.53890438398E+03 -0.95199412822E+02  0.85765318838E+03  0.46999998093E+01 0. -1.
</event>
<event>
 5   0  0.4578107E-05  0.1800860E+04  0.7818609E-02  0.8705842E-01
        1   -1    0    0  501    0  0.00000000000E+00  0.00000000000E+00  0.12417255218E+04  0.12417255218E+04  0.50400001928E-02 0.  1.
       -1   -1    0    0    0  501  0.00000000000E+00  0.00000000000E+00 -0.65294127537E+03  0.65294127539E+03  0.50400001928E-02 0. -1.
    10030    2    1    2    0    0  0.00000000000E+00  0.00000000000E+00  0.58878424646E+03  0.18946667972E+04  0.18008596235E+04 0.  0.
        2    1    3    3  502    0 -0.33626443226E+03  0.18456726532E+03  0.11514647512E+04  0.12136761995E+04  0.25500000920E-02 0.  1.
       -2    1    3    3    0  502  0.33626443226E+03 -0.18456726532E+03 -0.56268050475E+03  0.68099059778E+03  0.25500000920E-02 0. -1.
</event>
<event>
 5   0  0.9184414E-05  0.1804166E+04  0.7818609E-02  0.8704087E-01
       -2   -1    0    0    0  501  0.00000000000E+00  0.00000000000E+00  0.84325588564E+03  0.84325588565E+03  0.25500000920E-02 0.  1.
        2   -1    0    0  501    0  0.00000000000E+00  0.00000000000E+00 -0.96501372574E+03  0.96501372574E+03  0.25500000920E-02 0. -1.
    10030    2    1    2    0    0  0.00000000000E+00  0.00000000000E+00 -0.12175784009E+03  0.18082696114E+04  0.18041657396E+04 0.  0.
        5    1    3    3  502    0  0.28456571838E+03  0.84108242065E+03 -0.22040795165E+03  0.91487651711E+03  0.46999998093E+01 0. -1.
       -5    1    3    3    0  502 -0.28456571838E+03 -0.84108242065E+03  0.98650111559E+02  0.89339309428E+03  0.46999998093E+01 0.  1.
</event>
<event>
 5   0  0.4535100E-05  0.1801268E+04  0.7818609E-02  0.8705625E-01
        1   -1    0    0  501    0  0.00000000000E+00  0.00000000000E+00  0.11889957091E+04  0.11889957091E+04  0.50400001928E-02 0.  1.
       -1   -1    0    0    0  501  0.00000000000E+00  0.00000000000E+00 -0.68220733163E+03  0.68220733165E+03  0.50400001928E-02 0. -1.
    10030    2    1    2    0    0  0.00000000000E+00  0.00000000000E+00  0.50678837750E+03  0.18712030408E+04  0.18012679868E+04 0.  0.
        1    1    3    3  502    0  0.65555648240E+03  0.60904567744E+03  0.35959168090E+03  0.96436358072E+03  0.50400001928E-02 0.  1.
       -1    1    3    3    0  502 -0.65555648240E+03 -0.60904567744E+03  0.14719669660E+03  0.90683946007E+03  0.50400001928E-02 0. -1.
</event>
<event>
 5   0  0.9147432E-05  0.1808752E+04  0.7818609E-02  0.8701659E-01
        2   -1    0    0  501    0  0.00000000000E+00  0.00000000000E+00  0.16241711151E+04  0.16241711151E+04  0.25500000920E-02 0. -1.
       -2   -1    0    0    0  501  0.00000000000E+00  0.00000000000E+00 -0.50357719985E+03  0.50357719986E+03  0.25500000920E-02 0.  1.
    10030    2    1    2    0    0  0.00000000000E+00  0.00000000000E+00  0.11205939153E+04  0.21277483150E+04  0.18087515498E+04 0.  0.
        3    1    3    3  502    0 -0.76161296690E+03 -0.47510491319E+03  0.43080861028E+03  0.99567819037E+03  0.10100000352E+00 0. -1.
       -3    1    3    3    0  502  0.76161296690E+03  0.47510491319E+03  0.68978530501E+03  0.11320701246E+04  0.10100000352E+00 0.  1.
</event>
<event>
 5   0  0.8893075E-05  0.1796374E+04  0.7818609E-02  0.8708230E-01
       -2   -1    0    0    0  501  0.00000000000E+00  0.00000000000E+00  0.77076450568E+03  0.77076450568E+03  0.25500000920E-02 0. -1.
        2   -1    0    0  501    0  0.00000000000E+00  0.00000000000E+00 -0.10466751552E+04  0.10466751552E+04  0.25500000920E-02 0.  1.
    10030    2    1    2    0    0  0.00000000000E+00  0.00000000000E+00 -0.27591064951E+03  0.18174396609E+04  0.17963741911E+04 0.  0.
        1    1    3    3  502    0  0.18330853675E+03 -0.21645232713E+03 -0.10001734714E+04  0.10396156032E+04  0.50400001928E-02 0.  1.
       -1    1    3    3    0  502 -0.18330853675E+03  0.21645232713E+03  0.72426282185E+03  0.77782405768E+03  0.50400001928E-02 0. -1.
</event>
<event>
 5   0  0.9147432E-05  0.1811719E+04  0.7818609E-02  0.8700092E-01
       -2   -1    0    0    0  501  0.00000000000E+00  0.00000000000E+00  0.65471213285E+03  0.65471213285E+03  0.25500000920E-02 0. -1.
        2   -1    0    0  501    0  0.00000000000E+00  0.00000000000E+00 -0.12533470529E+04  0.12533470529E+04  0.25500000920E-02 0.  1.
    10030    2    1    2    0    0  0.00000000000E+00  0.00000000000E+00 -0.59863492004E+03  0.19080591857E+04  0.18117190977E+04 0.  0.
        3    1    3    3  502    0  0.41287744602E+03 -0.79369640857E+03 -0.44885265351E+03  0.10009447983E+04  0.10100000352E+00 0.  1.
       -3    1    3    3    0  502 -0.41287744602E+03  0.79369640857E+03 -0.14978226654E+03  0.90711438748E+03  0.10100000352E+00 0. -1.
</event>
<event>
 5   0  0.4578107E-05  0.1801331E+04  0.7818609E-02  0.8705592E-01
       -1   -1    0    0    0  501  0.00000000000E+00  0.00000000000E+00  0.61860730521E+03  0.61860730523E+03  0.50400001928E-02 0. -1.
        1   -1    0    0  501    0  0.00000000000E+00  0.00000000000E+00 -0.13113297501E+04  0.13113297501E+04  0.50400001928E-02 0.  1.
    10030    2    1    2    0    0  0.00000000000E+00  0.00000000000E+00 -0.69272244487E+03  0.19299370553E+04  0.18013308002E+04 0.  0.
        2    1    3    3  502    0  0.21480022534E+03 -0.72378655209E+03  0.17981493748E+03  0.77610535467E+03  0.25500000920E-02 0. -1.
       -2    1    3    3    0  502 -0.21480022534E+03  0.72378655209E+03 -0.87253738236E+03  0.11538317006E+04  0.25500000920E-02 0.  1.
</event>
<event>
 5   0  0.8892280E-05  0.1797019E+04  0.7818609E-02  0.8707886E-01
        2   -1    0    0  501    0  0.00000000000E+00  0.00000000000E+00  0.95761038986E+03  0.95761038986E+03  0.25500000920E-02 0.  1.
       -2   -1    0    0    0  501  0.00000000000E+00  0.00000000000E+00 -0.84305656515E+03  0.84305656516E+03  0.25500000920E-02 0. -1.
    10030    2    1    2    0    0  0.00000000000E+00  0.00000000000E+00  0.11455382471E+03  0.18006669550E+04  0.17970194501E+04 0.  0.
        4    1    3    3  502    0  0.26228938782E+03 -0.45837654247E+03 -0.67111900277E+03  0.85399479298E+03  0.12699999809E+01 0. -1.
       -4    1    3    3    0  502 -0.26228938782E+03  0.45837654247E+03  0.78567282748E+03  0.94667216204E+03  0.12699999809E+01 0.  1.
</event>
<event>
 5   0  0.4623665E-05  0.1797809E+04  0.7818609E-02  0.8707465E-01
       -1   -1    0    0    0  501  0.00000000000E+00  0.00000000000E+00  0.47910589951E+03  0.47910589953E+03  0.50400001928E-02 0. -1.
        1   -1    0    0  501    0  0.00000000000E+00  0.00000000000E+00 -0.16865367202E+04  0.16865367202E+04  0.50400001928E-02 0.  1.
    10030    2    1    2    0    0  0.00000000000E+00  0.00000000000E+00 -0.12074308206E+04  0.21656426197E+04  0.17978094364E+04 0.  0.
        5    1    3    3  502    0  0.59815058681E+03 -0.50249002316E+03 -0.11393596047E+04  0.13814639868E+04  0.46999998093E+01 0.  1.
       -5    1    3    3    0  502 -0.59815058681E+03  0.50249002316E+03 -0.68071215904E+02  0.78417863291E+03  0.46999998093E+01 0. -1.
</event>
<event>
 5   0  0.3270375E-05  0.1814113E+04  0.7818609E-02  0.8698830E-01
       -4   -1    0    0    0  501  0.00000000000E+00  0.00000000000E+00  0.87597545263E+03  0.87597637326E+03  0.12699999809E+01 0. -1.
        4   -1    0    0  501    0  0.00000000000E+00  0.00000000000E+00 -0.93923866782E+03  0.93923952644E+03  0.12699999809E+01 0.  1.
    10030    2    1    2    0    0  0.00000000000E+00  0.00000000000E+00 -0.63263215194E+02  0.18152158997E+04  0.18141131520E+04 0.  0.
        3    1    3    3  502    0  0.20415724202E+02  0.83548918551E+03  0.32113431307E+03  0.89531348595E+03  0.10100000352E+00 0. -1.
       -3    1    3    3    0  502 -0.20415724202E+02 -0.83548918551E+03 -0.38439752826E+03  0.91990241375E+03  0.10100000352E+00 0.  1.
</event>
<event>
 5   0  0.3270375E-05  0.1800100E+04  0.7818609E-02  0.8706246E-01
        3   -1    0    0  501    0  0.00000000000E+00  0.00000000000E+00  0.42393636520E+03  0.42393637723E+03  0.10100000352E+00 0.  1.
       -3   -1    0    0    0  501  0.00000000000E+00  0.00000000000E+00 -0.19108763750E+04  0.19108763776E+04  0.10100000352E+00 0. -1.
    10030    2    1    2    0    0  0.00000000000E+00  0.00000000000E+00 -0.14869400098E+04  0.23348127549E+04  0.18000999994E+04 0.  0.
        1    1    3    3  502    0 -0.85429191948E+02 -0.77826564841E+03 -0.16764223272E+03  0.80068688296E+03  0.50400001928E-02 0.  1.
       -1    1    3    3    0  502  0.85429191948E+02  0.77826564841E+03 -0.13192977771E+04  0.15341258719E+04  0.50400001928E-02 0. -1.
</event>
<event>
 5   0  0.4578107E-05  0.1797577E+04  0.7818609E-02  0.8707589E-01
       -1   -1    0    0    0  501  0.00000000000E+00  0.00000000000E+00  0.60352636157E+03  0.60352636159E+03  0.50400001928E-02 0. -1.
        1   -1    0    0  501    0  0.00000000000E+00  0.00000000000E+00 -0.13385013962E+04  0.13385013962E+04  0.50400001928E-02 0.  1.
    10030    2    1    2    0    0  0.00000000000E+00  0.00000000000E+00 -0.73497503462E+03  0.19420277578E+04  0.17975771223E+04 0.  0.
        2    1    3    3  502    0  0.16529643880E+03  0.88289461280E+03 -0.33340793997E+03  0.95811620612E+03  0.25500000920E-02 0. -1.
       -2    1    3    3    0  502 -0.16529643880E+03 -0.88289461280E+03 -0.40156709465E+03  0.98391155167E+03  0.25500000920E-02 0.  1.
</event>
<event>
 5   0  0.4335117E-05  0.1794467E+04  0.7818609E-02  0.8709248E-01
       -1   -1    0    0    0  501  0.00000000000E+00  0.00000000000E+00  0.56660479898E+03  0.56660479900E+03  0.50400001928E-02 0. -1.
        1   -1    0    0  501    0  0.00000000000E+00  0.00000000000E+00 -0.14207923009E+04  0.14207923009E+04  0.50400001928E-02 0.  1.
    10030    2    1    2    0    0  0.00000000000E+00  0.00000000000E+00 -0.85418750188E+03  0.19873970999E+04  0.17944667576E+04 0.  0.
        3    1    3    3  502    0 -0.84745057196E+03  0.25272354374E+03 -0.59500567710E+03  0.10658674530E+04  0.10100000352E+00 0.  1.
       -3    1    3    3    0  502  0.84745057196E+03 -0.25272354374E+03 -0.25918182478E+03  0.92152964682E+03  0.10100000352E+00 0. -1.
</event>
<event>
 5   0  0.4623665E-05  0.1799326E+04  0.7818609E-02  0.8706658E-01
        1   -1    0    0  501    0  0.00000000000E+00  0.00000000000E+00  0.13537150400E+04  0.13537150400E+04  0.50400001928E-02 0. -1.
       -1   -1    0    0    0  501  0.00000000000E+00  0.00000000000E+00 -0.59790549635E+03  0.59790549637E+03  0.50400001928E-02 0.  1.
    10030    2    1    2    0    0  0.00000000000E+00  0.00000000000E+00  0.75580954360E+03  0.19516205363E+04  0.17993261660E+04 0.  0.
        5    1    3    3  502    0 -0.58214897258E+03 -0.56953113432E+03  0.79249888033E+03  0.11363712882E+04  0.46999998093E+01 0. -1.
       -5    1    3    3    0  502  0.58214897258E+03  0.56953113432E+03 -0.36689336729E+02  0.81524924818E+03  0.46999998093E+01 0.  1.
</event>
<event>
 5   0  0.9184414E-05  0.1800211E+04  0.7818609E-02  0.8706187E-01
        2   -1    0    0  501    0  0.00000000000E+00  0.00000000000E+00  0.62847627994E+03  0.62847627995E+03  0.25500000920E-02 0.  1.
       -2   -1    0    0    0  501  0.00000000000E+00  0.00000000000E+00 -0.12891332411E+04  0.12891332411E+04  0.25500000920E-02 0. -1.
    10030    2    1    2    0    0  0.00000000000E+00  0.00000000000E+00 -0.66065696114E+03  0.19176095210E+04  0.18002107251E+04 0.  0.
        5    1    3    3  502    0  0.45094436422E+03 -0.48228653142E+03 -0.98195428359E+03  0.11833036056E+04  0.46999998093E+01 0. -1.
       -5    1    3    3    0  502 -0.45094436422E+03  0.48228653142E+03  0.32129732245E+03  0.73430591542E+03  0.46999998093E+01 0.  1.
</event>
<event>
 5   0  0.4535100E-05  0.1796301E+04  0.7818609E-02  0.8708269E-01
       -1   -1    0    0    0  501  0.00000000000E+00  0.00000000000E+00  0.14949124526E+04  0.14949124526E+04  0.50400001928E-02 0. -1.
        1   -1    0    0  501    0  0.00000000000E+00  0.00000000000E+00 -0.53961308616E+03  0.53961308618E+03  0.50400001928E-02 0.  1.
    10030    2    1    2    0    0  0.00000000000E+00  0.00000000000E+00  0.95529936647E+03  0.20345255388E+04  0.17963010016E+04 0.  0.
        1    1    3    3  502    0  0.46746190562E+03  0.42527660651E+02 -0.38963300787E+03  0.61003533994E+03  0.50400001928E-02 0.  1.
       -1    1    3    3    0  502 -0.46746190562E+03 -0.42527660651E+02  0.13449323743E+04  0.14244901989E+04  0.50400001928E-02 0. -1.
</event>
<event>
 5   0  0.4623665E-05  0.1798866E+04  0.7818609E-02  0.8706903E-01
        1   -1    0    0  501    0  0.00000000000E+00  0.00000000000E+00  0.98906784611E+03  0.98906784612E+03  0.50400001928E-02 0. -1.
       -1   -1    0    0    0  501  0.00000000000E+00  0.00000000000E+00 -0.81792130641E+03  0.81792130643E+03  0.50400001928E-02 0.  1.
    10030    2    1    2    0    0  0.00000000000E+00  0.00000000000E+00  0.17114653970E+03  0.18069891525E+04  0.17988659370E+04 0.  0.
        5    1    3    3  502    0 -0.32980903613E+03 -0.51934887823E+03  0.74463077197E+03  0.96591631842E+03  0.46999998093E+01 0. -1.
       -5    1    3    3    0  502  0.32980903613E+03  0.51934887823E+03 -0.57348423227E+03  0.84107283412E+03  0.46999998093E+01 0.  1.
</event>
<event>
 5   0  0.4494757E-05  0.1787886E+04  0.7818609E-02  0.8712768E-01
        1   -1    0    0  501    0  0.00000000000E+00  0.00000000000E+00  0.16188961062E+04  0.16188961062E+04  0.50400001928E-02 0. -1.
       -1   -1    0    0    0  501  0.00000000000E+00  0.00000000000E+00 -0.49362928600E+03  0.49362928603E+03  0.50400001928E-02 0.  1.
    10030    2    1    2    0    0  0.00000000000E+00  0.00000000000E+00  0.11252668202E+04  0.21125253923E+04  0.17878864942E+04 0.  0.
        4    1    3    3  502    0 -0.65489233962E+03 -0.60392736551E+03  0.47484076032E+03  0.10094986874E+04  0.12699999809E+01 0.  1.
       -4    1    3    3    0  502  0.65489233962E+03  0.60392736551E+03  0.65042605989E+03  0.11030267048E+04  0.12699999809E+01 0. -1.
</event>
<event>
 5   0  0.4578107E-05  0.1791770E+04  0.7818609E-02  0.8710688E-01
        1   -1    0    0  501    0  0.00000000000E+00  0.00000000000E+00  0.14844468948E+04  0.14844468948E+04  0.50400001928E-02 0.  1.
       -1   -1    0    0    0  501  0.00000000000E+00  0.00000000000E+00 -0.54067972206E+03  0.54067972209E+03  0.50400001928E-02 0. -1.
    10030    2    1    2    0    0  0.00000000000E+00  0.00000000000E+00  0.94376717270E+03  0.20251266169E+04  0.17917704479E+04 0.  0.
        2    1    3    3  502    0 -0.83806136037E+03  0.29658788836E+03  0.59722850933E+03  0.10709776429E+04  0.25500000920E-02 0.  1.
       -2    1    3    3    0  502  0.83806136037E+03 -0.29658788836E+03  0.34653866337E+03  0.95414897395E+03  0.25500000920E-02 0. -1.
</event>
<event>
 5   0  0.8802655E-05  0.1802840E+04  0.7818609E-02  0.8704791E-01
        2   -1    0    0  501    0  0.00000000000E+00  0.00000000000E+00  0.21987710042E+04  0.21987710042E+04  0.25500000920E-02 0.  1.
       -2   -1    0    0    0  501  0.00000000000E+00  0.00000000000E+00 -0.36955102099E+03  0.36955102100E+03  0.25500000920E-02 0. -1.
    10030    2    1    2    0    0  0.00000000000E+00  0.00000000000E+00  0.18292199833E+04  0.25683220253E+04  0.18028400590E+04 0.  0.
        2    1    3    3  502    0 -0.74627411025E+03  0.39781777508E+03  0.47006689475E+03  0.96754685434E+03  0.25500000920E-02 0. -1.
       -2    1    3    3    0  502  0.74627411025E+03 -0.39781777508E+03  0.13591530885E+04  0.16007751709E+04  0.25500000920E-02 0.  1.
</event>
<event>
 5   0  0.9147432E-05  0.1784529E+04  0.7818609E-02  0.8714570E-01
       -2   -1    0    0    0  501  0.00000000000E+00  0.00000000000E+00  0.85478572719E+03  0.85478572719E+03  0.25500000920E-02 0.  1.
        2   -1    0    0  501    0  0.00000000000E+00  0.00000000000E+00 -0.93138672911E+03  0.93138672911E+03  0.25500000920E-02 0. -1.
    10030    2    1    2    0    0  0.00000000000E+00  0.00000000000E+00 -0.76601001920E+02  0.17861724563E+04  0.17845291620E+04 0.  0.
        3    1    3    3  502    0  0.58649946782E+03  0.67091126720E+03  0.68244718290E+01  0.89115101853E+03  0.10100000352E+00 0.  1.
       -3    1    3    3    0  502 -0.58649946782E+03 -0.67091126720E+03 -0.83425473749E+02  0.89502143778E+03  0.10100000352E+00 0. -1.
</event>
<event>
 5   0  0.8892280E-05  0.1801238E+04  0.7818609E-02  0.8705641E-01
       -2   -1    0    0    0  501  0.00000000000E+00  0.00000000000E+00  0.36953285621E+03  0.36953285622E+03  0.25500000920E-02 0.  1.
        2   -1    0    0  501    0  0.00000000000E+00  0.00000000000E+00 -0.21949735440E+04  0.21949735440E+04  0.25500000920E-02 0. -1.
    10030    2    1    2    0    0  0.00000000000E+00  0.00000000000E+00 -0.18254406878E+04  0.25645064002E+04  0.18012382886E+04 0.  0.
        4    1    3    3  502    0  0.82259555197E+03 -0.11060194297E+03 -0.41498506563E+03  0.92796037065E+03  0.12699999809E+01 0.  1.
       -4    1    3    3    0  502 -0.82259555197E+03  0.11060194297E+03 -0.14104556222E+04  0.16365460296E+04  0.12699999809E+01 0. -1.
</event>
<event>
 5   0  0.4623665E-05  0.1785518E+04  0.7818609E-02  0.8714039E-01
        1   -1    0    0  501    0  0.00000000000E+00  0.00000000000E+00  0.16075464960E+04  0.16075464961E+04  0.50400001928E-02 0.  1.
       -1   -1    0    0    0  501  0.00000000000E+00  0.00000000000E+00 -0.49579837608E+03  0.49579837610E+03  0.50400001928E-02 0. -1.
    10030    2    1    2    0    0  0.00000000000E+00  0.00000000000E+00  0.11117481200E+04  0.21033448722E+04  0.17855183474E+04 0.  0.
        5    1    3    3  502    0 -0.80190249899E+03 -0.10291815477E+03  0.10018955198E+04  0.12874224198E+04  0.46999998093E+01 0.  1.
       -5    1    3    3    0  502  0.80190249899E+03  0.10291815477E+03  0.10985260017E+03  0.81592245234E+03  0.46999998093E+01 0. -1.
</event>
<event>
 5   0  0.8893075E-05  0.1795976E+04  0.7818609E-02  0.8708442E-01
        2   -1    0    0  501    0  0.00000000000E+00  0.00000000000E+00  0.15236584634E+04  0.15236584634E+04  0.25500000920E-02 0.  1.
       -2   -1    0    0    0  501  0.00000000000E+00  0.00000000000E+00 -0.52924080786E+03  0.52924080787E+03  0.25500000920E-02 0. -1.
    10030    2    1    2    0    0  0.00000000000E+00  0.00000000000E+00  0.99441765556E+03  0.20528992713E+04  0.17959757639E+04 0.  0.
        1    1    3    3  502    0 -0.47142925846E+03  0.27456055715E+03  0.13125150220E+04  0.14213812748E+04  0.50400001928E-02 0.  1.
       -1    1    3    3    0  502  0.47142925846E+03 -0.27456055715E+03 -0.31809736649E+03  0.63151799647E+03  0.50400001928E-02 0. -1.
</event>
<event>
 5   0  0.9184414E-05  0.1799216E+04  0.7818609E-02  0.8706716E-01
       -2   -1    0    0    0  501  0.00000000000E+00  0.00000000000E+00  0.71963651604E+03  0.71963651604E+03  0.25500000920E-02 0.  1.
        2   -1    0    0  501    0  0.00000000000E+00  0.00000000000E+00 -0.11245884699E+04  0.11245884699E+04  0.25500000920E-02 0. -1.
    10030    2    1    2    0    0  0.00000000000E+00  0.00000000000E+00 -0.40495195383E+03  0.18442249859E+04  0.17992164166E+04 0.  0.
        5    1    3    3  502    0 -0.37424935269E+03  0.21871489215E+03 -0.10104679659E+04  0.10995300733E+04  0.46999998093E+01 0. -1.
       -5    1    3    3    0  502  0.37424935269E+03 -0.21871489215E+03  0.60551601204E+03  0.74469491262E+03  0.46999998093E+01 0.  1.
</event>
<event>
 5   0  0.4494757E-05  0.1809937E+04  0.7818609E-02  0.8701033E-01
       -1   -1    0    0    0  501  0.00000000000E+00  0.00000000000E+00  0.49045392028E+03  0.49045392030E+03  0.50400001928E-02 0. -1.
        1   -1    0    0  501    0  0.00000000000E+00  0.00000000000E+00 -0.16698156903E+04  0.16698156903E+04  0.50400001928E-02 0.  1.
    10030    2    1    2    0    0  0.00000000000E+00  0.00000000000E+00 -0.11793617700E+04  0.21602696106E+04  0.18099366304E+04 0.  0.
        4    1    3    3  502    0 -0.50755604115E+03 -0.65061051691E+03 -0.10331636296E+04  0.13222465269E+04  0.12699999809E+01 0.  1.
       -4    1    3    3    0  502  0.50755604115E+03  0.65061051691E+03 -0.14619814047E+03  0.83802308369E+03  0.12699999809E+01 0. -1.
</event>
<event>
 5   0  0.4578107E-05  0.1820107E+04  0.7818609E-02  0.8695680E-01
       -1   -1    0    0    0  501  0.00000000000E+00  0.00000000000E+00  0.54995437799E+03  0.54995437801E+03  0.50400001928E-02 0.  1.
        1   -1    0    0  501    0  0.00000000000E+00  0.00000000000E+00 -0.15059376665E+04  0.15059376665E+04  0.50400001928E-02 0. -1.
    10030    2    1    2    0    0  0.00000000000E+00  0.00000000000E+00 -0.95598328852E+03  0.20558920445E+04  0.18201066042E+04 0.  0.
        2    1    3    3  502    0  0.58487789223E+03  0.56416713946E+03 -0.15249910585E+02  0.81277258187E+03  0.25500000920E-02 0.  1.
       -2    1    3    3    0  502 -0.58487789223E+03 -0.56416713946E+03 -0.94073337793E+03  0.12431194627E+04  0.25500000920E-02 0. -1.
</event>
<event>
 5   0  0.4578107E-05  0.1811525E+04  0.7818609E-02  0.8700195E-01
       -1   -1    0    0    0  501  0.00000000000E+00  0.00000000000E+00  0.99353130941E+03  0.99353130942E+03  0.50400001928E-02 0. -1.
        1   -1    0    0  501    0  0.00000000000E+00  0.00000000000E+00 -0.82574689529E+03  0.82574689531E+03  0.50400001928E-02 0.  1.
    10030    2    1    2    0    0  0.00000000000E+00  0.00000000000E+00  0.16778441411E+03  0.18192782047E+04  0.18115246553E+04 0.  0.
        2    1    3    3  502    0  0.52049632201E+03  0.56776538334E+03  0.56251513236E+03  0.95378049146E+03  0.25500000920E-02 0. -1.
       -2    1    3    3    0  502 -0.52049632201E+03 -0.56776538334E+03 -0.39473071825E+03  0.86549771327E+03  0.25500000920E-02 0.  1.
</event>
<event>
 5   0  0.4335117E-05  0.1811435E+04  0.7818609E-02  0.8700242E-01
       -1   -1    0    0    0  501  0.00000000000E+00  0.00000000000E+00  0.64870262641E+03  0.64870262643E+03  0.50400001928E-02 0. -1.
        1   -1    0    0  501    0  0.00000000000E+00  0.00000000000E+00 -0.12645615001E+04  0.12645615001E+04  0.50400001928E-02 0.  1.
    10030    2    1    2    0    0  0.00000000000E+00  0.00000000000E+00 -0.61585887368E+03  0.19132641265E+04  0.18114351950E+04 0.  0.
        3    1    3    3  502    0 -0.60950985928E+03  0.34193148449E+03 -0.91642720576E+03  0.11525008643E+04  0.10100000352E+00 0.  1.
       -3    1    3    3    0  502  0.60950985928E+03 -0.34193148449E+03  0.30056833208E+03  0.76076326219E+03  0.10100000352E+00 0. -1.
</event>
<event>
 5   0  0.4578107E-05  0.1794058E+04  0.7818609E-02  0.8709466E-01
        1   -1    0    0  501    0  0.00000000000E+00  0.00000000000E+00  0.17149409366E+04  0.17149409366E+04  0.50400001928E-02 0.  1.
       -1   -1    0    0    0  501  0.00000000000E+00  0.00000000000E+00 -0.46920601269E+03  0.46920601272E+03  0.50400001928E-02 0. -1.
    10030    2    1    2    0    0  0.00000000000E+00  0.00000000000E+00  0.12457349239E+04  0.21841469493E+04  0.17940575229E+04 0.  0.
        2    1    3    3  502    0  0.27286947556E+02  0.82705610267E+03  0.10444131214E+04  0.13325033368E+04  0.25500000920E-02 0.  1.
       -2    1    3    3    0  502 -0.27286947556E+02 -0.82705610267E+03  0.20132180244E+03  0.85164361245E+03  0.25500000920E-02 0. -1.
</event>
<event>
 5   0  0.8802655E-05  0.1797743E+04  0.7818609E-02  0.8707501E-01
        2   -1    0    0  501    0  0.00000000000E+00  0.00000000000E+00  0.25371238098E+04  0.25371238098E+04  0.25500000920E-02 0. -1.
       -2   -1    0    0    0  501  0.00000000000E+00  0.00000000000E+00 -0.31845910634E+03  0.31845910635E+03  0.25500000920E-02 0.  1.
    10030    2    1    2    0    0  0.00000000000E+00  0.00000000000E+00  0.22186647035E+04  0.28555829162E+04  0.17977432310E+04 0.  0.
        2    1    3    3  502    0 -0.41005880688E+03  0.67530087298E+03  0.42836096581E+03  0.89870607608E+03  0.25500000920E-02 0.  1.
       -2    1    3    3    0  502  0.41005880688E+03 -0.67530087298E+03  0.17903037377E+04  0.19568768401E+04  0.25500000920E-02 0. -1.
</event>
<event>
 5   0  0.8802655E-05  0.1799738E+04  0.7818609E-02  0.8706439E-01
       -2   -1    0    0    0  501  0.00000000000E+00  0.00000000000E+00  0.96329892752E+03  0.96329892752E+03  0.25500000920E-02 0. -1.
        2   -1    0    0  501    0  0.00000000000E+00  0.00000000000E+00 -0.84061608388E+03  0.84061608389E+03  0.25500000920E-02 0.  1.
    10030    2    1    2    0    0  0.00000000000E+00  0.00000000000E+00  0.12268284363E+03  0.18039150114E+04  0.17997383944E+04 0.  0.
        2    1    3    3  502    0 -0.59249487175E+03  0.65997756784E+03 -0.91143178299E+02  0.89158714777E+03  0.25500000920E-02 0. -1.
       -2    1    3    3    0  502  0.59249487175E+03 -0.65997756784E+03  0.21382602193E+03  0.91232786364E+03  0.25500000920E-02 0.  1.
</event>
<event>
 5   0  0.9147432E-05  0.1799985E+04  0.7818609E-02  0.8706308E-01
       -2   -1    0    0    0  501  0.00000000000E+00  0.00000000000E+00  0.68077013916E+03  0.68077013916E+03  0.25500000920E-02 0. -1.
        2   -1    0    0  501    0  0.00000000000E+00  0.00000000000E+00 -0.11898086248E+04  0.11898086248E+04  0.25500000920E-02 0.  1.
    10030    2    1    2    0    0  0.00000000000E+00  0.00000000000E+00 -0.50903848564E+03  0.18705787640E+04  0.17999846478E+04 0.  0.
        3    1    3    3  502    0 -0.56148551544E+03  0.65365439359E+03 -0.52442856571E+03  0.10087395011E+04  0.10100000352E+00 0.  1.
       -3    1    3    3    0  502  0.56148551544E+03 -0.65365439359E+03  0.15390080066E+02  0.86183926289E+03  0.10100000352E+00 0. -1.
</event>
<event>
 5   0  0.4535100E-05  0.1803511E+04  0.7818609E-02  0.8704435E-01
        1   -1    0    0  501    0  0.00000000000E+00  0.00000000000E+00  0.13293852743E+04  0.13293852743E+04  0.50400001928E-02 0. -1.
       -1   -1    0    0    0  501  0.00000000000E+00  0.00000000000E+00 -0.61168355411E+03  0.61168355413E+03  0.50400001928E-02 0.  1.
    10030    2    1    2    0    0  0.00000000000E+00  0.00000000000E+00  0.71770172016E+03  0.19410688284E+04  0.18035111415E+04 0.  0.
        1    1    3    3  502    0  0.44112321549E+03 -0.61372093419E+02  0.12027517923E+04  0.12825630975E+04  0.50400001928E-02 0. -1.
       -1    1    3    3    0  502 -0.44112321549E+03  0.61372093419E+02 -0.48505007217E+03  0.65850573090E+03  0.50400001928E-02 0.  1.
</event>
<event>
 5   0  0.4578107E-05  0.1799830E+04  0.7818609E-02  0.8706390E-01
        1   -1    0    0  501    0  0.00000000000E+00  0.00000000000E+00  0.13734840762E+04  0.13734840762E+04  0.50400001928E-02 0. -1.
       -1   -1    0    0    0  501  0.00000000000E+00  0.00000000000E+00 -0.58962983866E+03  0.58962983869E+03  0.50400001928E-02 0.  1.
    10030    2    1    2    0    0  0.00000000000E+00  0.00000000000E+00  0.78385423749E+03  0.19631139148E+04  0.17998302078E+04 0.  0.
        2    1    3    3  502    0  0.69858460264E+03 -0.41331069045E+03  0.81576903629E+03  0.11507933326E+04  0.25500000920E-02 0. -1.
       -2    1    3    3    0  502 -0.69858460264E+03  0.41331069045E+03 -0.31914798800E+02  0.81232058220E+03  0.25500000920E-02 0.  1.
</event>
<event>
 5   0  0.4578107E-05  0.1800828E+04  0.7818609E-02  0.8705859E-01
        1   -1    0    0  501    0  0.00000000000E+00  0.00000000000E+00  0.75052526080E+03  0.75052526081E+03  0.50400001928E-02 0. -1.
       -1   -1    0    0    0  501  0.00000000000E+00  0.00000000000E+00 -0.10802372726E+04  0.10802372726E+04  0.50400001928E-02 0.  1.
    10030    2    1    2    0    0  0.00000000000E+00  0.00000000000E+00 -0.32971201183E+03  0.18307625334E+04  0.18008279882E+04 0.  0.
        2    1    3    3  502    0  0.74464407418E+03 -0.44617648893E+03 -0.40794811560E+03  0.95916105087E+03  0.25500000920E-02 0. -1.
       -2    1    3    3    0  502 -0.74464407418E+03  0.44617648893E+03  0.78236103773E+02  0.87160148257E+03  0.25500000920E-02 0.  1.
</event>
<event>
 5   0  0.9147432E-05  0.1795588E+04  0.7818609E-02  0.8708649E-01
        2   -1    0    0  501    0  0.00000000000E+00  0.00000000000E+00  0.11136381958E+04  0.11136381958E+04  0.25500000920E-02 0.  1.
       -2   -1    0    0    0  501  0.00000000000E+00  0.00000000000E+00 -0.72378421168E+03  0.72378421168E+03  0.25500000920E-02 0. -1.
    10030    2    1    2    0    0  0.00000000000E+00  0.00000000000E+00  0.38985398415E+03  0.18374224075E+04  0.17955876405E+04 0.  0.
        3    1    3    3  502    0  0.21868354881E+02 -0.16455033614E+03  0.10977981231E+04  0.11102773380E+04  0.10100000352E+00 0.  1.
       -3    1    3    3    0  502 -0.21868354881E+02  0.16455033614E+03 -0.70794413892E+03  0.72714506951E+03  0.10100000352E+00 0. -1.
</event>
<event>
 5   0  0.8802655E-05  0.1804556E+04  0.7818609E-02  0.8703880E-01
        2   -1    0    0  501    0  0.00000000000E+00  0.00000000000E+00  0.14771418542E+04  0.14771418542E+04  0.25500000920E-02 0. -1.
       -2   -1    0    0    0  501  0.00000000000E+00  0.00000000000E+00 -0.55113577059E+03  0.55113577060E+03  0.25500000920E-02 0.  1.
    10030    2    1    2    0    0  0.00000000000E+00  0.00000000000E+00  0.92600608358E+03  0.20282776248E+04  0.18045561383E+04 0.  0.
        2    1    3    3  502    0 -0.35802211056E+02  0.39693967912E+03 -0.44683640372E+03  0.59875343746E+03  0.25500000920E-02 0.  1.
       -2    1    3    3    0  502  0.35802211056E+02 -0.39693967912E+03  0.13728424873E+04  0.14295241873E+04  0.25500000920E-02 0. -1.
</event>
<event>
 5   0  0.8802655E-05  0.1797068E+04  0.7818609E-02  0.8707860E-01
        2   -1    0    0  501    0  0.00000000000E+00  0.00000000000E+00  0.12625708793E+04  0.12625708793E+04  0.25500000920E-02 0.  1.
       -2   -1    0    0    0  501  0.00000000000E+00  0.00000000000E+00 -0.63946012371E+03  0.63946012371E+03  0.25500000920E-02 0. -1.
    10030    2    1    2    0    0  0.00000000000E+00  0.00000000000E+00  0.62311075561E+03  0.19020310030E+04  0.17970684246E+04 0.  0.
        2    1    3    3  502    0  0.61375091420E+03 -0.52151745299E+03 -0.11007509315E+03  0.81288816241E+03  0.25500000920E-02 0.  1.
       -2    1    3    3    0  502 -0.61375091420E+03  0.52151745299E+03  0.73318584876E+03  0.10891428406E+04  0.25500000920E-02 0. -1.
</event>
<event>
 5   0  0.4494757E-05  0.1796934E+04  0.7818609E-02  0.8707932E-01
        1   -1    0    0  501    0  0.00000000000E+00  0.00000000000E+00  0.99552426151E+03  0.99552426152E+03  0.50400001928E-02 0. -1.
       -1   -1    0    0    0  501  0.00000000000E+00  0.00000000000E+00 -0.81087197215E+03  0.81087197216E+03  0.50400001928E-02 0.  1.
    10030    2    1    2    0    0  0.00000000000E+00  0.00000000000E+00  0.18465228936E+03  0.18063962337E+04  0.17969337453E+04 0.  0.
        4    1    3    3  502    0 -0.18108672084E+03 -0.17675190095E+03  0.95896067390E+03  0.99178668167E+03  0.12699999809E+01 0. -1.
       -4    1    3    3    0  502  0.18108672084E+03  0.17675190095E+03 -0.77430838454E+03  0.81460955201E+03  0.12699999809E+01 0.  1.
</event>
<event>
 5   0  0.3270375E-05  0.1794713E+04  0.7818609E-02  0.8709116E-01
        3   -1    0    0  501    0  0.00000000000E+00  0.00000000000E+00  0.11797553112E+04  0.11797553155E+04  0.10100000352E+00 0. -1.
       -3   -1    0    0    0  501  0.00000000000E+00  0.00000000000E+00 -0.68255556123E+03  0.68255556870E+03  0.10100000352E+00 0.  1.
    10030    2    1    2    0    0  0.00000000000E+00  0.00000000000E+00  0.49719974994E+03  0.18623108842E+04  0.17947128567E+04 0.  0.
        2    1    3    3  502    0  0.27841659721E+03  0.83172463032E+03  0.44539244365E+03  0.98369512104E+03  0.25500000920E-02 0. -1.
       -2    1    3    3    0  502 -0.27841659721E+03 -0.83172463032E+03  0.51807306290E+02  0.87861576316E+03  0.25500000920E-02 0.  1.
</event>
<event>
 5   0  0.8893075E-05  0.1791524E+04  0.7818609E-02  0.8710820E-01
       -2   -1    0    0    0  501  0.00000000000E+00  0.00000000000E+00  0.51838535229E+03  0.51838535230E+03  0.25500000920E-02 0. -1.
        2   -1    0    0  501    0  0.00000000000E+00  0.00000000000E+00 -0.15478639377E+04  0.15478639377E+04  0.25500000920E-02 0.  1.
    10030    2    1    2    0    0  0.00000000000E+00  0.00000000000E+00 -0.10294785854E+04  0.20662492900E+04  0.17915244823E+04 0.  0.
        1    1    3    3  502    0  0.37806670596E+02 -0.86403232944E+03 -0.78376542736E+03  0.11671629945E+04  0.50400001928E-02 0.  1.
       -1    1    3    3    0  502 -0.37806670596E+02  0.86403232944E+03 -0.24571315807E+03  0.89908629549E+03  0.50400001928E-02 0. -1.
</event>
<event>
 5   0  0.9147432E-05  0.1810832E+04  0.7818609E-02  0.8700560E-01
        2   -1    0    0  501    0  0.00000000000E+00  0.00000000000E+00  0.13640649203E+04  0.13640649203E+04  0.25500000920E-02 0. -1.
       -2   -1    0    0    0  501  0.00000000000E+00  0.00000000000E+00 -0.60098179348E+03  0.60098179348E+03  0.25500000920E-02 0.  1.
    10030    2    1    2    0    0  0.00000000000E+00  0.00000000000E+00  0.76308312685E+03  0.19650467138E+04  0.18108320543E+04 0.  0.
        3    1    3    3  502    0  0.38059427435E+03 -0.63926265560E+03 -0.17841631293E+03  0.76507590174E+03  0.10100000352E+00 0.  1.
       -3    1    3    3    0  502 -0.38059427435E+03  0.63926265560E+03  0.94149943978E+03  0.11999708121E+04  0.10100000352E+00 0. -1.
</event>
<event>
 5   0  0.4578107E-05  0.1801721E+04  0.7818609E-02  0.8705385E-01
        1   -1    0    0  501    0  0.00000000000E+00  0.00000000000E+00  0.73117108947E+03  0.73117108949E+03  0.50400001928E-02 0.  1.
       -1   -1    0    0    0  501  0.00000000000E+00  0.00000000000E+00 -0.11099315051E+04  0.11099315051E+04  0.50400001928E-02 0. -1.
    10030    2    1    2    0    0  0.00000000000E+00  0.00000000000E+00 -0.37876041566E+03  0.18411025946E+04  0.18017212080E+04 0.  0.
        2    1    3    3  502    0  0.38095744476E+03 -0.72969502379E+03 -0.56339466010E+03  0.99749533608E+03  0.25500000920E-02 0. -1.
       -2    1    3    3    0  502 -0.38095744476E+03  0.72969502379E+03  0.18463424444E+03  0.84360725856E+03  0.25500000920E-02 0.  1.
</event>
<event>
 5   0  0.9147432E-05  0.1786811E+04  0.7818609E-02  0.8713345E-01
       -2   -1    0    0    0  501  0.00000000000E+00  0.00000000000E+00  0.45671900715E+03  0.45671900716E+03  0.25500000920E-02 0.  1.
        2   -1    0    0  501    0  0.00000000000E+00  0.00000000000E+00 -0.17476249382E+04  0.17476249382E+04  0.25500000920E-02 0. -1.
    10030    2    1    2    0    0  0.00000000000E+00  0.00000000000E+00 -0.12909059311E+04  0.22043439454E+04  0.17868111559E+04 0.  0.
        3    1    3    3  502    0 -0.29808016727E+02  0.17082373028E+03  0.43575886236E+03  0.46899366841E+03  0.10100000352E+00 0.  1.
       -3    1    3    3    0  502  0.29808016727E+02 -0.17082373028E+03 -0.17266647935E+04  0.17353502770E+04  0.10100000352E+00 0. -1.
</event>
<event>
 5   0  0.8802655E-05  0.1782234E+04  0.7818609E-02  0.8715805E-01
       -2   -1    0    0    0  501  0.00000000000E+00  0.00000000000E+00  0.86533388523E+03  0.86533388523E+03  0.25500000920E-02 0.  1.
        2   -1    0    0  501    0  0.00000000000E+00  0.00000000000E+00 -0.91766821408E+03  0.91766821408E+03  0.25500000920E-02 0. -1.
    10030    2    1    2    0    0  0.00000000000E+00  0.00000000000E+00 -0.52334328851E+02  0.17830020993E+04  0.17822338803E+04 0.  0.
        2    1    3    3  502    0 -0.64324270816E+03  0.24307683064E+02 -0.64266111622E+03  0.90959625954E+03  0.25500000920E-02 0. -1.
       -2    1    3    3    0  502  0.64324270816E+03 -0.24307683064E+02  0.59032678737E+03  0.87340583977E+03  0.25500000920E-02 0.  1.
</event>
<event>
 5   0  0.9147432E-05  0.1796502E+04  0.7818609E-02  0.8708162E-01
       -2   -1    0    0    0  501  0.00000000000E+00  0.00000000000E+00  0.62194192538E+03  0.62194192539E+03  0.25500000920E-02 0.  1.
        2   -1    0    0  501    0  0.00000000000E+00  0.00000000000E+00 -0.12973152246E+04  0.12973152246E+04  0.25500000920E-02 0. -1.
    10030    2    1    2    0    0  0.00000000000E+00  0.00000000000E+00 -0.67537329925E+03  0.19192571500E+04  0.17965018549E+04 0.  0.
        3    1    3    3  502    0 -0.71405043278E+03  0.29386540014E+03 -0.82799064271E+03  0.11321631546E+04  0.10100000352E+00 0. -1.
       -3    1    3    3    0  502  0.71405043278E+03 -0.29386540014E+03  0.15261734346E+03  0.78709399545E+03  0.10100000352E+00 0.  1.
</event>
<event>
 5   0  0.4623665E-05  0.1798629E+04  0.7818609E-02  0.8707029E-01
        1   -1    0    0  501    0  0.00000000000E+00  0.00000000000E+00  0.10331662383E+04  0.10331662383E+04  0.50400001928E-02 0. -1.
       -1   -1    0    0    0  501  0.00000000000E+00  0.00000000000E+00 -0.78280418520E+03  0.78280418522E+03  0.50400001928E-02 0.  1.
    10030    2    1    2    0    0  0.00000000000E+00  0.00000000000E+00  0.25036205311E+03  0.18159704235E+04  0.17986293174E+04 0.  0.
        5    1    3    3  502    0 -0.29418384546E+03  0.45540063114E+03 -0.59923986729E+03  0.80811161254E+03  0.46999998093E+01 0.  1.
       -5    1    3    3    0  502  0.29418384546E+03 -0.45540063114E+03  0.84960192040E+03  0.10078588110E+04  0.46999998093E+01 0. -1.
</event>
<event>
 5   0  0.4623665E-05  0.1800752E+04  0.7818609E-02  0.8705900E-01
        1   -1    0    0  501    0  0.00000000000E+00  0.00000000000E+00  0.84244265013E+03  0.84244265015E+03  0.50400001928E-02 0. -1.
       -1   -1    0    0    0  501  0.00000000000E+00  0.00000000000E+00 -0.96229303955E+03  0.96229303956E+03  0.50400001928E-02 0.  1.
    10030    2    1    2    0    0  0.00000000000E+00  0.00000000000E+00 -0.11985038942E+03  0.18047356897E+04  0.18007517302E+04 0.  0.
        5    1    3    3  502    0  0.43788742926E+03 -0.18241493922E+03 -0.82688553406E+03  0.95330078527E+03  0.46999998093E+01 0.  1.
       -5    1    3    3    0  502 -0.43788742926E+03  0.18241493922E+03  0.70703514464E+03  0.85143490445E+03  0.46999998093E+01 0. -1.
</event>
<event>
 5   0  0.8893075E-05  0.1837764E+04  0.7818609E-02  0.8686471E-01
       -2   -1    0    0    0  501  0.00000000000E+00  0.00000000000E+00  0.91321961068E+03  0.91321961068E+03  0.25500000920E-02 0.  1.
        2   -1    0    0  501    0  0.00000000000E+00  0.00000000000E+00 -0.92457909799E+03  0.92457909800E+03  0.25500000920E-02 0. -1.
    10030    2    1    2    0    0  0.00000000000E+00  0.00000000000E+00 -0.11359487313E+02  0.18377987087E+04  0.18377636017E+04 0.  0.
        1    1    3    3  502    0  0.71748111037E+03 -0.54482160860E+03  0.17524920820E+03  0.91778102722E+03  0.50400001928E-02 0.  1.
       -1    1    3    3    0  502 -0.71748111037E+03  0.54482160860E+03 -0.18660869551E+03  0.92001768146E+03  0.50400001928E-02 0. -1.
</event>
<event>
 5   0  0.4578107E-05  0.1801469E+04  0.7818609E-02  0.8705518E-01
        1   -1    0    0  501    0  0.00000000000E+00  0.00000000000E+00  0.44713172566E+03  0.44713172569E+03  0.50400001928E-02 0. -1.
       -1   -1    0    0    0  501  0.00000000000E+00  0.00000000000E+00 -0.18145056789E+04  0.18145056789E+04  0.50400001928E-02 0.  1.
    10030    2    1    2    0    0  0.00000000000E+00  0.00000000000E+00 -0.13673739533E+04  0.22616374046E+04  0.18014694618E+04 0.  0.
        2    1    3    3  502    0  0.66382411582E+03 -0.40572295002E+03 -0.12535649119E+04  0.14753638728E+04  0.25500000920E-02 0.  1.
       -2    1    3    3    0  502 -0.66382411582E+03  0.40572295002E+03 -0.11380904139E+03  0.78627353181E+03  0.25500000920E-02 0. -1.
</event>
<event>
 5   0  0.8802655E-05  0.1805201E+04  0.7818609E-02  0.8703539E-01
        2   -1    0    0  501    0  0.00000000000E+00  0.00000000000E+00  0.83824375262E+03  0.83824375263E+03  0.25500000920E-02 0.  1.
       -2   -1    0    0    0  501  0.00000000000E+00  0.00000000000E+00 -0.97189781152E+03  0.97189781152E+03  0.25500000920E-02 0. -1.
    10030    2    1    2    0    0  0.00000000000E+00  0.00000000000E+00 -0.13365405890E+03  0.18101415642E+04  0.18052005636E+04 0.  0.
        2    1    3    3  502    0 -0.69449117816E+03  0.51553637480E+03 -0.32558666995E+03  0.92417662270E+03  0.25500000920E-02 0. -1.
       -2    1    3    3    0  502  0.69449117816E+03 -0.51553637480E+03  0.19193261105E+03  0.88596494145E+03  0.25500000920E-02 0.  1.
</event>
<event>
 5   0  0.4535100E-05  0.1815783E+04  0.7818609E-02  0.8697951E-01
       -1   -1    0    0    0  501  0.00000000000E+00  0.00000000000E+00  0.77177585587E+03  0.77177585589E+03  0.50400001928E-02 0.  1.
        1   -1    0    0  501    0  0.00000000000E+00  0.00000000000E+00 -0.10680139587E+04  0.10680139588E+04  0.50400001928E-02 0. -1.
    10030    2    1    2    0    0  0.00000000000E+00  0.00000000000E+00 -0.29623810287E+03  0.18397898146E+04  0.18157834531E+04 0.  0.
        1    1    3    3  502    0  0.40774587603E+03  0.12996776124E+02  0.67367856910E+03  0.78757122224E+03  0.50400001928E-02 0.  1.
       -1    1    3    3    0  502 -0.40774587603E+03 -0.12996776124E+02 -0.96991667197E+03  0.10522185924E+04  0.50400001928E-02 0. -1.
</event>
<event>
 5   0  0.8892280E-05  0.1801898E+04  0.7818609E-02  0.8705291E-01
        2   -1    0    0  501    0  0.00000000000E+00  0.00000000000E+00  0.85622631058E+03  0.85622631059E+03  0.25500000920E-02 0.  1.
       -2   -1    0    0    0  501  0.00000000000E+00  0.00000000000E+00 -0.94800781719E+03  0.94800781719E+03  0.25500000920E-02 0. -1.
    10030    2    1    2    0    0  0.00000000000E+00  0.00000000000E+00 -0.91781506601E+02  0.18042341278E+04  0.18018981500E+04 0.  0.
        4    1    3    3  502    0  0.76401066449E+03  0.47024591335E+03  0.37066567757E+02  0.89789701961E+03  0.12699999809E+01 0.  1.
       -4    1    3    3    0  502 -0.76401066449E+03 -0.47024591335E+03 -0.12884807436E+03  0.90633710817E+03  0.12699999809E+01 0. -1.
</event>
<event>
 5   0  0.4494757E-05  0.1793714E+04  0.7818609E-02  0.8709649E-01
        1   -1    0    0  501    0  0.00000000000E+00  0.00000000000E+00  0.16556465781E+04  0.16556465781E+04  0.50400001928E-02 0. -1.
       -1   -1    0    0    0  501  0.00000000000E+00  0.00000000000E+00 -0.48582402554E+03  0.48582402557E+03  0.50400001928E-02 0.  1.
    10030    2    1    2    0    0  0.00000000000E+00  0.00000000000E+00  0.11698225525E+04  0.21414706036E+04  0.17937144538E+04 0.  0.
        4    1    3    3  502    0 -0.76776541030E+03 -0.77121482997E+02  0.11306307126E+04  0.13688458166E+04  0.12699999809E+01 0. -1.
       -4    1    3    3    0  502  0.76776541030E+03  0.77121482997E+02  0.39191839954E+02  0.77262478708E+03  0.12699999809E+01 0.  1.
</event>
<event>
 5   0  0.9184414E-05  0.1796434E+04  0.7818609E-02  0.8708198E-01
        2   -1    0    0  501    0  0.00000000000E+00  0.00000000000E+00  0.20976424128E+04  0.20976424128E+04  0.25500000920E-02 0. -1.
       -2   -1    0    0    0  501  0.00000000000E+00  0.00000000000E+00 -0.38461915615E+03  0.38461915616E+03  0.25500000920E-02 0.  1.
    10030    2    1    2    0    0  0.00000000000E+00  0.00000000000E+00  0.17130232567E+04  0.24822615690E+04  0.17964336389E+04 0.  0.
        5    1    3    3  502    0  0.76181289823E+01  0.37782649082E+03  0.19824314816E+04  0.20181346739E+04  0.46999998093E+01 0. -1.
       -5    1    3    3    0  502 -0.76181289823E+01 -0.37782649082E+03 -0.26940822490E+03  0.46412689504E+03  0.46999998093E+01 0.  1.
</event>
<event>
 5   0  0.4494757E-05  0.1799825E+04  0.7818609E-02  0.8706393E-01
        1   -1    0    0  501    0  0.00000000000E+00  0.00000000000E+00  0.12564837821E+04  0.12564837821E+04  0.50400001928E-02 0.  1.
       -1   -1    0    0    0  501  0.00000000000E+00  0.00000000000E+00 -0.64453066083E+03  0.64453066085E+03  0.50400001928E-02 0. -1.
    10030    2    1    2    0    0  0.00000000000E+00  0.00000000000E+00  0.61195312124E+03  0.19010144429E+04  0.17998247942E+04 0.  0.
        4    1    3    3  502    0  0.54020412617E+03 -0.71892715511E+03  0.26994162935E+03  0.93890726296E+03  0.12699999809E+01 0. -1.
       -4    1    3    3    0  502 -0.54020412617E+03  0.71892715511E+03  0.34201149189E+03  0.96210717998E+03  0.12699999809E+01 0.  1.
</event>
<event>
 5   0  0.4623665E-05  0.1798923E+04  0.7818609E-02  0.8706872E-01
       -1   -1    0    0    0  501  0.00000000000E+00  0.00000000000E+00  0.84184961551E+03  0.84184961552E+03  0.50400001928E-02 0.  1.
        1   -1    0    0  501    0  0.00000000000E+00  0.00000000000E+00 -0.96101603660E+03  0.96101603661E+03  0.50400001928E-02 0. -1.
    10030    2    1    2    0    0  0.00000000000E+00  0.00000000000E+00 -0.11916642109E+03  0.18028656521E+04  0.17989229899E+04 0.  0.
        5    1    3    3  502    0  0.85893902063E+03  0.14473800196E+03 -0.28431463460E+03  0.91628719942E+03  0.46999998093E+01 0. -1.
       -5    1    3    3    0  502 -0.85893902063E+03 -0.14473800196E+03  0.16514821352E+03  0.88657845271E+03  0.46999998093E+01 0.  1.
</event>
<event>
 5   0  0.8893075E-05  0.1801718E+04  0.7818609E-02  0.8705386E-01
       -2   -1    0    0    0  501  0.00000000000E+00  0.00000000000E+00  0.11296612912E+04  0.11296612912E+04  0.25500000920E-02 0. -1.
        2   -1    0    0  501    0  0.00000000000E+00  0.00000000000E+00 -0.71839850197E+03  0.71839850197E+03  0.25500000920E-02 0.  1.
    10030    2    1    2    0    0  0.00000000000E+00  0.00000000000E+00  0.41126278923E+03  0.18480597932E+04  0.18017180460E+04 0.  0.
        1    1    3    3  502    0 -0.64740480713E+03  0.24929332088E+02  0.84766426312E+03  0.10669063496E+04  0.50400001928E-02 0. -1.
       -1    1    3    3    0  502  0.64740480713E+03 -0.24929332088E+02 -0.43640147389E+03  0.78115344353E+03  0.50400001928E-02 0.  1.
</event>
<event>
 5   0  0.4335117E-05  0.1791219E+04  0.7818609E-02  0.8710983E-01
        1   -1    0    0  501    0  0.00000000000E+00  0.00000000000E+00  0.14236284002E+04  0.14236284002E+04  0.50400001928E-02 0. -1.
       -1   -1    0    0    0  501  0.00000000000E+00  0.00000000000E+00 -0.56343087960E+03  0.56343087963E+03  0.50400001928E-02 0.  1.
    10030    2    1    2    0    0  0.00000000000E+00  0.00000000000E+00  0.86019752056E+03  0.19870592798E+04  0.17912188049E+04 0.  0.
        3    1    3    3  502    0  0.87234284485E+03  0.14030941814E+03  0.59255998003E+03  0.10638590658E+04  0.10100000352E+00 0. -1.
       -3    1    3    3    0  502 -0.87234284485E+03 -0.14030941814E+03  0.26763754052E+03  0.92320021398E+03  0.10100000352E+00 0.  1.
</event>
<event>
 5   0  0.8893075E-05  0.1805142E+04  0.7818609E-02  0.8703570E-01
       -2   -1    0    0    0  501  0.00000000000E+00  0.00000000000E+00  0.53113663990E+03  0.53113663990E+03  0.25500000920E-02 0. -1.
        2   -1    0    0  501    0  0.00000000000E+00  0.00000000000E+00 -0.15337560182E+04  0.15337560182E+04  0.25500000920E-02 0.  1.
    10030    2    1    2    0    0  0.00000000000E+00  0.00000000000E+00 -0.10026193783E+04  0.20648926581E+04  0.18051415656E+04 0.  0.
        1    1    3    3  502    0  0.28803609930E+03  0.82225453398E+03 -0.23166396678E+03  0.90151844501E+03  0.50400001928E-02 0. -1.
       -1    1    3    3    0  502 -0.28803609930E+03 -0.82225453398E+03 -0.77095541156E+03  0.11633742131E+04  0.50400001928E-02 0.  1.
</event>
<event>
 5   0  0.4335117E-05  0.1826128E+04  0.7818609E-02  0.8692527E-01
        1   -1    0    0  501    0  0.00000000000E+00  0.00000000000E+00  0.11588784235E+04  0.11588784235E+04  0.50400001928E-02 0. -1.
       -1   -1    0    0    0  501  0.00000000000E+00  0.00000000000E+00 -0.71939011892E+03  0.71939011894E+03  0.50400001928E-02 0.  1.
    10030    2    1    2    0    0  0.00000000000E+00  0.00000000000E+00  0.43948830456E+03  0.18782685424E+04  0.18261278016E+04 0.  0.
        3    1    3    3  502    0 -0.37863763481E+03  0.24117920457E+03 -0.59803721145E+03  0.74778498493E+03  0.10100000352E+00 0.  1.
       -3    1    3    3    0  502  0.37863763481E+03 -0.24117920457E+03  0.10375255160E+04  0.11304835575E+04  0.10100000352E+00 0. -1.
</event>
<event>
 5   0  0.4623665E-05  0.1784228E+04  0.7818609E-02  0.8714732E-01
        1   -1    0    0  501    0  0.00000000000E+00  0.00000000000E+00  0.54720606856E+03  0.54720606858E+03  0.50400001928E-02 0. -1.
       -1   -1    0    0    0  501  0.00000000000E+00  0.00000000000E+00 -0.14544202233E+04  0.14544202233E+04  0.50400001928E-02 0.  1.
    10030    2    1    2    0    0  0.00000000000E+00  0.00000000000E+00 -0.90721415477E+03  0.20016262919E+04  0.17842282057E+04 0.  0.
        5    1    3    3  502    0  0.45909734056E+03 -0.57422276724E+03  0.11327777646E+03  0.74387908908E+03  0.46999998093E+01 0. -1.
       -5    1    3    3    0  502 -0.45909734056E+03  0.57422276724E+03 -0.10204919312E+04  0.12577472028E+04  0.46999998093E+01 0.  1.
</event>
<event>
 5   0  0.8892280E-05  0.1807009E+04  0.7818609E-02  0.8702581E-01
       -2   -1    0    0    0  501  0.00000000000E+00  0.00000000000E+00  0.51411032318E+03  0.51411032319E+03  0.25500000920E-02 0. -1.
        2   -1    0    0  501    0  0.00000000000E+00  0.00000000000E+00 -0.15878306568E+04  0.15878306568E+04  0.25500000920E-02 0.  1.
    10030    2    1    2    0    0  0.00000000000E+00  0.00000000000E+00 -0.10737203337E+04  0.21019409800E+04  0.18070087240E+04 0.  0.
        4    1    3    3  502    0 -0.64769914792E+03  0.49736559603E+03 -0.87202733097E+02  0.82127501599E+03  0.12699999809E+01 0.  1.
       -4    1    3    3    0  502  0.64769914792E+03 -0.49736559603E+03 -0.98651760056E+03  0.12806659640E+04  0.12699999809E+01 0. -1.
</event>
<event>
 5   0  0.8802655E-05  0.1808140E+04  0.7818609E-02  0.8701983E-01
       -2   -1    0    0    0  501  0.00000000000E+00  0.00000000000E+00  0.88594349671E+03  0.88594349671E+03  0.25500000920E-02 0.  1.
        2   -1    0    0  501    0  0.00000000000E+00  0.00000000000E+00 -0.92256737383E+03  0.92256737384E+03  0.25500000920E-02 0. -1.
    10030    2    1    2    0    0  0.00000000000E+00  0.00000000000E+00 -0.36623877122E+02  0.18085108705E+04  0.18081400003E+04 0.  0.
        2    1    3    3  502    0 -0.39915329895E+02  0.27116247626E+03 -0.88001069686E+03  0.92170556508E+03  0.25500000920E-02 0. -1.
       -2    1    3    3    0  502  0.39915329895E+02 -0.27116247626E+03  0.84338681974E+03  0.88680530547E+03  0.25500000920E-02 0.  1.
</event>
<event>
 5   0  0.4494757E-05  0.1791443E+04  0.7818609E-02  0.8710863E-01
        1   -1    0    0  501    0  0.00000000000E+00  0.00000000000E+00  0.10040822453E+04  0.10040822454E+04  0.50400001928E-02 0.  1.
       -1   -1    0    0    0  501  0.00000000000E+00  0.00000000000E+00 -0.79905476244E+03  0.79905476246E+03  0.50400001928E-02 0. -1.
    10030    2    1    2    0    0  0.00000000000E+00  0.00000000000E+00  0.20502748291E+03  0.18031370078E+04  0.17914426589E+04 0.  0.
        4    1    3    3  502    0  0.51596255645E+03 -0.19644822967E+03  0.81245905774E+03  0.98229354065E+03  0.12699999809E+01 0.  1.
       -4    1    3    3    0  502 -0.51596255645E+03  0.19644822967E+03 -0.60743157483E+03  0.82084346717E+03  0.12699999809E+01 0. -1.
</event>
<event>
 5   0  0.9184414E-05  0.1807062E+04  0.7818609E-02  0.8702553E-01
        2   -1    0    0  501    0  0.00000000000E+00  0.00000000000E+00  0.10860100013E+04  0.10860100013E+04  0.25500000920E-02 0. -1.
       -2   -1    0    0    0  501  0.00000000000E+00  0.00000000000E+00 -0.75171313041E+03  0.75171313041E+03  0.25500000920E-02 0.  1.
    10030    2    1    2    0    0  0.00000000000E+00  0.00000000000E+00  0.33429687093E+03  0.18377231317E+04  0.18070616788E+04 0.  0.
        5    1    3    3  502    0 -0.15591155985E+03  0.61866572841E+03  0.81776149025E+03  0.10372134028E+04  0.46999998093E+01 0. -1.
       -5    1    3    3    0  502  0.15591155985E+03 -0.61866572841E+03 -0.48346461932E+03  0.80050972895E+03  0.46999998093E+01 0.  1.
</event>
<event>
 5   0  0.4535100E-05  0.1801156E+04  0.7818609E-02  0.8705685E-01
        1   -1    0    0  501    0  0.00000000000E+00  0.00000000000E+00  0.62605226402E+03  0.62605226405E+03  0.50400001928E-02 0. -1.
       -1   -1    0    0    0  501  0.00000000000E+00  0.00000000000E+00 -0.12954846937E+04  0.12954846937E+04  0.50400001928E-02 0.  1.
    10030    2    1    2    0    0  0.00000000000E+00  0.00000000000E+00 -0.66943242964E+03  0.19215369577E+04  0.18011564346E+04 0.  0.
        1    1    3    3  502    0 -0.81531083914E+03  0.38145358614E+03 -0.36493840739E+03  0.97129740245E+03  0.50400001928E-02 0.  1.
       -1    1    3    3    0  502  0.81531083914E+03 -0.38145358614E+03 -0.30449402225E+03  0.95023955527E+03  0.50400001928E-02 0. -1.
</event>
<event>
 5   0  0.8892280E-05  0.1810844E+04  0.7818609E-02  0.8700554E-01
       -2   -1    0    0    0  501  0.00000000000E+00  0.00000000000E+00  0.49994950113E+03  0.49994950114E+03  0.25500000920E-02 0. -1.
        2   -1    0    0  501    0  0.00000000000E+00  0.00000000000E+00 -0.16397437387E+04  0.16397437387E+04  0.25500000920E-02 0.  1.
    10030    2    1    2    0    0  0.00000000000E+00  0.00000000000E+00 -0.11397942376E+04  0.21396932399E+04  0.18108440730E+04 0.  0.
        4    1    3    3  502    0  0.85711371224E+03 -0.23842977571E+03 -0.37113958422E+03  0.96397037171E+03  0.12699999809E+01 0.  1.
       -4    1    3    3    0  502 -0.85711371224E+03  0.23842977571E+03 -0.76865465337E+03  0.11757228682E+04  0.12699999809E+01 0. -1.
</event>
<event>
 5   0  0.4578107E-05  0.1796814E+04  0.7818609E-02  0.8707995E-01
        1   -1    0    0  501    0  0.00000000000E+00  0.00000000000E+00  0.10018935807E+04  0.10018935807E+04  0.50400001928E-02 0. -1.
       -1   -1    0    0    0  501  0.00000000000E+00  0.00000000000E+00 -0.80560999989E+03  0.80560999991E+03  0.50400001928E-02 0.  1.
    10030    2    1    2    0    0  0.00000000000E+00  0.00000000000E+00  0.19628358080E+03  0.18075035806E+04  0.17968143894E+04 0.  0.
        2    1    3    3  502    0 -0.46655635511E+03 -0.12493870592E+03 -0.66389424915E+03  0.82099944384E+03  0.25500000920E-02 0.  1.
       -2    1    3    3    0  502  0.46655635511E+03  0.12493870592E+03  0.86017782994E+03  0.98650413677E+03  0.25500000920E-02 0. -1.
</event>
<event>
 5   0  0.4578107E-05  0.1807835E+04  0.7818609E-02  0.8702144E-01
       -1   -1    0    0    0  501  0.00000000000E+00  0.00000000000E+00  0.48735557125E+03  0.48735557128E+03  0.50400001928E-02 0. -1.
        1   -1    0    0  501    0  0.00000000000E+00  0.00000000000E+00 -0.16765308257E+04  0.16765308257E+04  0.50400001928E-02 0.  1.
    10030    2    1    2    0    0  0.00000000000E+00  0.00000000000E+00 -0.11891752544E+04  0.21638863970E+04  0.18078347693E+04 0.  0.
        2    1    3    3  502    0  0.47727104089E+00  0.86971714681E+03 -0.29979166034E+03  0.91993651024E+03  0.25500000920E-02 0.  1.
       -2    1    3    3    0  502 -0.47727104089E+00 -0.86971714681E+03 -0.88938359408E+03  0.12439498867E+04  0.25500000920E-02 0. -1.
</event>
<event>
 5   0  0.8802655E-05  0.1795486E+04  0.7818609E-02  0.8708703E-01
        2   -1    0    0  501    0  0.00000000000E+00  0.00000000000E+00  0.11330310750E+04  0.11330310750E+04  0.25500000920E-02 0.  1.
       -2   -1    0    0    0  501  0.00000000000E+00  0.00000000000E+00 -0.71131574867E+03  0.71131574867E+03  0.25500000920E-02 0. -1.
    10030    2    1    2    0    0  0.00000000000E+00  0.00000000000E+00  0.42171532633E+03  0.18443468237E+04  0.17954863936E+04 0.  0.
        2    1    3    3  502    0  0.77489230698E+03 -0.28418015854E+03 -0.15191926831E+03  0.83922339935E+03  0.25500000920E-02 0. -1.
       -2    1    3    3    0  502 -0.77489230698E+03  0.28418015854E+03  0.57363459464E+03  0.10051234243E+04  0.25500000920E-02 0.  1.
</event>
<event>
 5   0  0.4623665E-05  0.1803568E+04  0.7818609E-02  0.8704404E-01
        1   -1    0    0  501    0  0.00000000000E+00  0.00000000000E+00  0.28235598051E+04  0.28235598051E+04  0.50400001928E-02 0. -1.
       -1   -1    0    0    0  501  0.00000000000E+00  0.00000000000E+00 -0.28801038278E+03  0.28801038282E+03  0.50400001928E-02 0.  1.
    10030    2    1    2    0    0  0.00000000000E+00  0.00000000000E+00  0.25355494223E+04  0.31115701879E+04  0.18035681749E+04 0.  0.
        5    1    3    3  502    0 -0.27579295606E+03 -0.42950542329E+03  0.25503249904E+04  0.26009068245E+04  0.46999998093E+01 0. -1.
       -5    1    3    3    0  502  0.27579295606E+03  0.42950542329E+03 -0.14775568134E+02  0.51066336334E+03  0.46999998093E+01 0.  1.
</event>
<event>
 5   0  0.4494757E-05  0.1791604E+04  0.7818609E-02  0.8710777E-01
        1   -1    0    0  501    0  0.00000000000E+00  0.00000000000E+00  0.55183283219E+03  0.55183283221E+03  0.50400001928E-02 0.  1.
       -1   -1    0    0    0  501  0.00000000000E+00  0.00000000000E+00 -0.14541750000E+04  0.14541750000E+04  0.50400001928E-02 0. -1.
    10030    2    1    2    0    0  0.00000000000E+00  0.00000000000E+00 -0.90234216778E+03  0.20060078322E+04  0.17916043188E+04 0.  0.
        4    1    3    3  502    0 -0.80732550681E+02  0.80922677124E+03 -0.30594509339E+02  0.81382021905E+03  0.12699999809E+01 0.  1.
       -4    1    3    3    0  502  0.80732550681E+02 -0.80922677124E+03 -0.87174765844E+03  0.11921876131E+04  0.12699999809E+01 0. -1.
</event>
<event>
 5   0  0.4623665E-05  0.1792543E+04  0.7818609E-02  0.8710275E-01
        1   -1    0    0  501    0  0.00000000000E+00  0.00000000000E+00  0.91123268638E+03  0.91123268639E+03  0.50400001928E-02 0. -1.
       -1   -1    0    0    0  501  0.00000000000E+00  0.00000000000E+00 -0.88155643916E+03  0.88155643917E+03  0.50400001928E-02 0.  1.
    10030    2    1    2    0    0  0.00000000000E+00  0.00000000000E+00  0.29676247218E+02  0.17927891256E+04  0.17925434915E+04 0.  0.
        5    1    3    3  502    0  0.31948985867E+03  0.23685933683E+03  0.81813237098E+03  0.90969158602E+03  0.46999998093E+01 0. -1.
       -5    1    3    3    0  502 -0.31948985867E+03 -0.23685933683E+03 -0.78845612376E+03  0.88309753954E+03  0.46999998093E+01 0.  1.
</event>
<event>
 5   0  0.8802655E-05  0.1807277E+04  0.7818609E-02  0.8702439E-01
       -2   -1    0    0    0  501  0.00000000000E+00  0.00000000000E+00  0.39759742898E+03  0.39759742899E+03  0.25500000920E-02 0. -1.
        2   -1    0    0  501    0  0.00000000000E+00  0.00000000000E+00 -0.20537409906E+04  0.20537409906E+04  0.25500000920E-02 0.  1.
    10030    2    1    2    0    0  0.00000000000E+00  0.00000000000E+00 -0.16561435616E+04  0.24513384196E+04  0.18072765562E+04 0.  0.
        2    1    3    3  502    0 -0.40242497897E+03 -0.78998541127E+03 -0.10651045369E+04  0.13858104085E+04  0.25500000920E-02 0.  1.
       -2    1    3    3    0  502  0.40242497897E+03  0.78998541127E+03 -0.59103902467E+03  0.10655280111E+04  0.25500000920E-02 0. -1.
</event>
<event>
 5   0  0.8802655E-05  0.1793373E+04  0.7818609E-02  0.8709832E-01
        2   -1    0    0  501    0  0.00000000000E+00  0.00000000000E+00  0.85423395376E+03  0.85423395376E+03  0.25500000920E-02 0. -1.
       -2   -1    0    0    0  501  0.00000000000E+00  0.00000000000E+00 -0.94124832600E+03  0.94124832600E+03  0.25500000920E-02 0.  1.
    10030    2    1    2    0    0  0.00000000000E+00  0.00000000000E+00 -0.87014372242E+02  0.17954822798E+04  0.17933725536E+04 0.  0.
        2    1    3    3  502    0  0.50491619996E+03 -0.44373190373E+03  0.55066204135E+03  0.86894594490E+03  0.25500000920E-02 0. -1.
       -2    1    3    3    0  502 -0.50491619996E+03  0.44373190373E+03 -0.63767641359E+03  0.92653633487E+03  0.25500000920E-02 0.  1.
</event>
<event>
 5   0  0.4535100E-05  0.1812978E+04  0.7818609E-02  0.8699428E-01
       -1   -1    0    0    0  501  0.00000000000E+00  0.00000000000E+00  0.59871101215E+03  0.59871101217E+03  0.50400001928E-02 0. -1.
        1   -1    0    0  501    0  0.00000000000E+00  0.00000000000E+00 -0.13724855595E+04  0.13724855595E+04  0.50400001928E-02 0.  1.
    10030    2    1    2    0    0  0.00000000000E+00  0.00000000000E+00 -0.77377454733E+03  0.19711965717E+04  0.18129779022E+04 0.  0.
        1    1    3    3  502    0 -0.62554213421E+03  0.65602509495E+03 -0.37917366212E+03  0.98257038066E+03  0.50400001928E-02 0. -1.
       -1    1    3    3    0  502  0.62554213421E+03 -0.65602509495E+03 -0.39460088521E+03  0.98862619099E+03  0.50400001928E-02 0.  1.
</event>
<event>
 5   0  0.9147432E-05  0.1799799E+04  0.7818609E-02  0.8706407E-01
       -2   -1    0    0    0  501  0.00000000000E+00  0.00000000000E+00  0.11399450504E+04  0.11399450504E+04  0.25500000920E-02 0. -1.
        2   -1    0    0  501    0  0.00000000000E+00  0.00000000000E+00 -0.71040157864E+03  0.71040157864E+03  0.25500000920E-02 0.  1.
    10030    2    1    2    0    0  0.00000000000E+00  0.00000000000E+00  0.42954347172E+03  0.18503466290E+04  0.17997986147E+04 0.  0.
        3    1    3    3  502    0  0.75356855163E+03 -0.37586345719E+03  0.54098413609E+03  0.10009009672E+04  0.10100000352E+00 0. -1.
       -3    1    3    3    0  502 -0.75356855163E+03  0.37586345719E+03 -0.11144066438E+03  0.84944566179E+03  0.10100000352E+00 0.  1.
</event>
<event>
 5   0  0.9147432E-05  0.1797341E+04  0.7818609E-02  0.8707715E-01
       -2   -1    0    0    0  501  0.00000000000E+00  0.00000000000E+00  0.33100252365E+03  0.33100252366E+03  0.25500000920E-02 0. -1.
        2   -1    0    0  501    0  0.00000000000E+00  0.00000000000E+00 -0.24398861010E+04  0.24398861010E+04  0.25500000920E-02 0.  1.
    10030    2    1    2    0    0  0.00000000000E+00  0.00000000000E+00 -0.21088835774E+04  0.27708886247E+04  0.17973407655E+04 0.  0.
        3    1    3    3  502    0  0.57807348955E+03 -0.43252635239E+03 -0.18794250881E+04  0.20133272652E+04  0.10100000352E+00 0.  1.
       -3    1    3    3    0  502 -0.57807348955E+03  0.43252635239E+03 -0.22945848923E+03  0.75756135944E+03  0.10100000352E+00 0. -1.
</event>
<event>
 5   0  0.8892280E-05  0.1805632E+04  0.7818609E-02  0.8703310E-01
       -2   -1    0    0    0  501  0.00000000000E+00  0.00000000000E+00  0.12375216349E+04  0.12375216349E+04  0.25500000920E-02 0.  1.
        2   -1    0    0  501    0  0.00000000000E+00  0.00000000000E+00 -0.65863642385E+03  0.65863642385E+03  0.25500000920E-02 0. -1.
    10030    2    1    2    0    0  0.00000000000E+00  0.00000000000E+00  0.57888521102E+03  0.18961580587E+04  0.18056321043E+04 0.  0.
        4    1    3    3  502    0  0.52301429429E+03 -0.73319390527E+03  0.22337618620E+03  0.92790936423E+03  0.12699999809E+01 0. -1.
       -4    1    3    3    0  502 -0.52301429429E+03  0.73319390527E+03  0.35550902481E+03  0.96824869449E+03  0.12699999809E+01 0.  1.
</event>
<event>
 5   0  0.4494757E-05  0.1781171E+04  0.7818609E-02  0.8716377E-01
       -1   -1    0    0    0  501  0.00000000000E+00  0.00000000000E+00  0.62207524349E+03  0.62207524351E+03  0.50400001928E-02 0. -1.
        1   -1    0    0  501    0  0.00000000000E+00  0.00000000000E+00 -0.12749939619E+04  0.12749939619E+04  0.50400001928E-02 0.  1.
    10030    2    1    2    0    0  0.00000000000E+00  0.00000000000E+00 -0.65291871840E+03  0.18970692054E+04  0.17811706031E+04 0.  0.
        4    1    3    3  502    0 -0.86074680853E+03  0.11136174520E+03 -0.11383454889E+03  0.87535502747E+03  0.12699999809E+01 0.  1.
       -4    1    3    3    0  502  0.86074680853E+03 -0.11136174520E+03 -0.53908416951E+03  0.10217141779E+04  0.12699999809E+01 0. -1.
</event>
<event>
 5   0  0.4494757E-05  0.1802321E+04  0.7818609E-02  0.8705066E-01
       -1   -1    0    0    0  501  0.00000000000E+00  0.00000000000E+00  0.11330264376E+04  0.11330264376E+04  0.50400001928E-02 0. -1.
        1   -1    0    0  501    0  0.00000000000E+00  0.00000000000E+00 -0.71674396813E+03  0.71674396814E+03  0.50400001928E-02 0.  1.
    10030    2    1    2    0    0  0.00000000000E+00  0.00000000000E+00  0.41628246944E+03  0.18497704057E+04  0.18023205762E+04 0.  0.
        4    1    3    3  502    0 -0.46912571522E+03  0.70645023057E+03  0.52102354884E+03  0.99529795353E+03  0.12699999809E+01 0.  1.
       -4    1    3    3    0  502  0.46912571522E+03 -0.70645023057E+03 -0.10474107939E+03  0.85447245220E+03  0.12699999809E+01 0. -1.
</event>
<event>
 5   0  0.9184414E-05  0.1806086E+04  0.7818609E-02  0.8703070E-01
        2   -1    0    0  501    0  0.00000000000E+00  0.00000000000E+00  0.58682786617E+03  0.58682786618E+03  0.25500000920E-02 0. -1.
       -2   -1    0    0    0  501  0.00000000000E+00  0.00000000000E+00 -0.13896527608E+04  0.13896527608E+04  0.25500000920E-02 0.  1.
    10030    2    1    2    0    0  0.00000000000E+00  0.00000000000E+00 -0.80282489464E+03  0.19764806270E+04  0.18060863372E+04 0.  0.
        5    1    3    3  502    0 -0.30417287369E+03  0.41566504888E+03 -0.12131227318E+04  0.13179481865E+04  0.46999998093E+01 0.  1.
       -5    1    3    3    0  502  0.30417287369E+03 -0.41566504888E+03  0.41029783717E+03  0.65853244046E+03  0.46999998093E+01 0. -1.
</event>
<event>
 5   0  0.4494757E-05  0.1798527E+04  0.7818609E-02  0.8707083E-01
        1   -1    0    0  501    0  0.00000000000E+00  0.00000000000E+00  0.95367398257E+03  0.95367398258E+03  0.50400001928E-02 0.  1.
       -1   -1    0    0    0  501  0.00000000000E+00  0.00000000000E+00 -0.84795747499E+03  0.84795747500E+03  0.50400001928E-02 0. -1.
    10030    2    1    2    0    0  0.00000000000E+00  0.00000000000E+00  0.10571650758E+03  0.18016314576E+04  0.17985271555E+04 0.  0.
        4    1    3    3  502    0 -0.55198430792E+03 -0.91216424914E+02  0.75810912968E+03  0.94219858723E+03  0.12699999809E+01 0.  1.
       -4    1    3    3    0  502  0.55198430792E+03  0.91216424914E+02 -0.65239262211E+03  0.85943287035E+03  0.12699999809E+01 0. -1.
</event>
<event>
 5   0  0.9147432E-05  0.1812457E+04  0.7818609E-02  0.8699703E-01
        2   -1    0    0  501    0  0.00000000000E+00  0.00000000000E+00  0.76562839685E+03  0.76562839685E+03  0.25500000920E-02 0. -1.
       -2   -1    0    0    0  501  0.00000000000E+00  0.00000000000E+00 -0.10726487351E+04  0.10726487351E+04  0.25500000920E-02 0.  1.
    10030    2    1    2    0    0  0.00000000000E+00  0.00000000000E+00 -0.30702033827E+03  0.18382771320E+04  0.18124572618E+04 0.  0.
        3    1    3    3  502    0  0.60375634167E+03 -0.11308436146E+03 -0.82929059368E+03  0.10320042112E+04  0.10100000352E+00 0.  1.
       -3    1    3    3    0  502 -0.60375634167E+03  0.11308436146E+03  0.52227025541E+03  0.80627292080E+03  0.10100000352E+00 0. -1.
</event>
<event>
 5   0  0.9147432E-05  0.1795410E+04  0.7818609E-02  0.8708744E-01
       -2   -1    0    0    0  501  0.00000000000E+00  0.00000000000E+00  0.56922902803E+03  0.56922902804E+03  0.25500000920E-02 0. -1.
        2   -1    0    0  501    0  0.00000000000E+00  0.00000000000E+00 -0.14157293697E+04  0.14157293697E+04  0.25500000920E-02 0.  1.
    10030    2    1    2    0    0  0.00000000000E+00  0.00000000000E+00 -0.84650034170E+03  0.19849583978E+04  0.17954099845E+04 0.  0.
        3    1    3    3  502    0  0.21768495114E+03 -0.71808524905E+03 -0.96806491317E+03  0.12248195170E+04  0.10100000352E+00 0.  1.
       -3    1    3    3    0  502 -0.21768495114E+03  0.71808524905E+03  0.12156457147E+03  0.76013888079E+03  0.10100000352E+00 0. -1.
</event>
<event>
 5   0  0.4494757E-05  0.1800362E+04  0.7818609E-02  0.8706107E-01
       -1   -1    0    0    0  501  0.00000000000E+00  0.00000000000E+00  0.48129163538E+03  0.48129163540E+03  0.50400001928E-02 0.  1.
        1   -1    0    0  501    0  0.00000000000E+00  0.00000000000E+00 -0.16836486600E+04  0.16836486600E+04  0.50400001928E-02 0. -1.
    10030    2    1    2    0    0  0.00000000000E+00  0.00000000000E+00 -0.12023570246E+04  0.21649402954E+04  0.18003622047E+04 0.  0.
        4    1    3    3  502    0 -0.34787936354E+03  0.87404379177E+01 -0.15994932432E+04  0.16369107168E+04  0.12699999809E+01 0. -1.
       -4    1    3    3    0  502  0.34787936354E+03 -0.87404379177E+01  0.39713621860E+03  0.52802957858E+03  0.12699999809E+01 0.  1.
</event>
<event>
 5   0  0.4335117E-05  0.1796590E+04  0.7818609E-02  0.8708115E-01
       -1   -1    0    0    0  501  0.00000000000E+00  0.00000000000E+00  0.88027698998E+03  0.88027699000E+03  0.50400001928E-02 0.  1.
        1   -1    0    0  501    0  0.00000000000E+00  0.00000000000E+00 -0.91668180285E+03  0.91668180287E+03  0.50400001928E-02 0. -1.
    10030    2    1    2    0    0  0.00000000000E+00  0.00000000000E+00 -0.36404812872E+02  0.17969587929E+04  0.17965899902E+04 0.  0.
        3    1    3    3  502    0  0.41395406802E+03  0.69132686892E+03 -0.41532682804E+03  0.90652478974E+03  0.10100000352E+00 0. -1.
       -3    1    3    3    0  502 -0.41395406802E+03 -0.69132686892E+03  0.37892201517E+03  0.89043400312E+03  0.10100000352E+00 0.  1.
</event>
<event>
 5   0  0.4494757E-05  0.1801827E+04  0.7818609E-02  0.8705328E-01
        1   -1    0    0  501    0  0.00000000000E+00  0.00000000000E+00  0.12565090710E+04  0.12565090710E+04  0.50400001928E-02 0. -1.
       -1   -1    0    0    0  501  0.00000000000E+00  0.00000000000E+00 -0.64595253358E+03  0.64595253360E+03  0.50400001928E-02 0.  1.
    10030    2    1    2    0    0  0.00000000000E+00  0.00000000000E+00  0.61055653739E+03  0.19024616046E+04  0.18018270926E+04 0.  0.
        4    1    3    3  502    0  0.13163779631E+03 -0.37005143398E+03 -0.55079325493E+03  0.67649197762E+03  0.12699999809E+01 0.  1.
       -4    1    3    3    0  502 -0.13163779631E+03  0.37005143398E+03  0.11613497923E+04  0.12259696270E+04  0.12699999809E+01 0. -1.
</event>
<event>
 5   0  0.9184414E-05  0.1794383E+04  0.7818609E-02  0.8709292E-01
       -2   -1    0    0    0  501  0.00000000000E+00  0.00000000000E+00  0.43339444386E+03  0.43339444387E+03  0.25500000920E-02 0.  1.
        2   -1    0    0  501    0  0.00000000000E+00  0.00000000000E+00 -0.18573217932E+04  0.18573217932E+04  0.25500000920E-02 0. -1.
    10030    2    1    2    0    0  0.00000000000E+00  0.00000000000E+00 -0.14239273493E+04  0.22907162370E+04  0.17943833990E+04 0.  0.
        5    1    3    3  502    0 -0.77782658559E+03 -0.31649921256E+03 -0.11151459357E+04  0.13959794041E+04  0.46999998093E+01 0. -1.
       -5    1    3    3    0  502  0.77782658559E+03  0.31649921256E+03 -0.30878141361E+03  0.89473683292E+03  0.46999998093E+01 0.  1.
</event>
<event>
 5   0  0.4494757E-05  0.1798174E+04  0.7818609E-02  0.8707271E-01
       -1   -1    0    0    0  501  0.00000000000E+00  0.00000000000E+00  0.65358055809E+03  0.65358055810E+03  0.50400001928E-02 0. -1.
        1   -1    0    0  501    0  0.00000000000E+00  0.00000000000E+00 -0.12368141337E+04  0.12368141337E+04  0.50400001928E-02 0.  1.
    10030    2    1    2    0    0  0.00000000000E+00  0.00000000000E+00 -0.58323357557E+03  0.18903946918E+04  0.17981742649E+04 0.  0.
        4    1    3    3  502    0 -0.33845556254E+03 -0.47017934269E+03  0.43120247393E+03  0.72218970397E+03  0.12699999809E+01 0. -1.
       -4    1    3    3    0  502  0.33845556254E+03  0.47017934269E+03 -0.10144360495E+04  0.11682049878E+04  0.12699999809E+01 0.  1.
</event>
<event>
 5   0  0.3270375E-05  0.1781403E+04  0.7818609E-02  0.8716252E-01
       -3   -1    0    0    0  501  0.00000000000E+00  0.00000000000E+00  0.15029970182E+04  0.15029970215E+04  0.10100000352E+00 0.  1.
        3   -1    0    0  501    0  0.00000000000E+00  0.00000000000E+00 -0.52784465937E+03  0.52784466904E+03  0.10100000352E+00 0. -1.
    10030    2    1    2    0    0  0.00000000000E+00  0.00000000000E+00  0.97515235878E+03  0.20308416906E+04  0.17814027757E+04 0.  0.
        5    1    3    3  502    0 -0.36542953313E+03  0.30854052677E+03 -0.36902934689E+03  0.60410326039E+03  0.46999998093E+01 0. -1.
       -5    1    3    3    0  502  0.36542953313E+03 -0.30854052677E+03  0.13441817057E+04  0.14267384302E+04  0.46999998093E+01 0.  1.
</event>
<event>
 5   0  0.4578107E-05  0.1777415E+04  0.7818609E-02  0.8718403E-01
       -1   -1    0    0    0  501  0.00000000000E+00  0.00000000000E+00  0.18021718232E+04  0.18021718232E+04  0.50400001928E-02 0. -1.
        1   -1    0    0  501    0  0.00000000000E+00  0.00000000000E+00 -0.43824937684E+03  0.43824937687E+03  0.50400001928E-02 0.  1.
    10030    2    1    2    0    0  0.00000000000E+00  0.00000000000E+00  0.13639224464E+04  0.22404212001E+04  0.17774146151E+04 0.  0.
        2    1    3    3  502    0 -0.21026775219E+02 -0.60608677826E+03 -0.13689205155E+03  0.62170953173E+03  0.25500000920E-02 0.  1.
       -2    1    3    3    0  502  0.21026775219E+02  0.60608677826E+03  0.15008144979E+04  0.16187116683E+04  0.25500000920E-02 0. -1.
</event>
<event>
 5   0  0.4623665E-05  0.1801487E+04  0.7818609E-02  0.8705509E-01
       -1   -1    0    0    0  501  0.00000000000E+00  0.00000000000E+00  0.73633604430E+03  0.73633604432E+03  0.50400001928E-02 0. -1.
        1   -1    0    0  501    0  0.00000000000E+00  0.00000000000E+00 -0.11018589018E+04  0.11018589018E+04  0.50400001928E-02 0.  1.
    10030    2    1    2    0    0  0.00000000000E+00  0.00000000000E+00 -0.36552285746E+03  0.18381949461E+04  0.18014865252E+04 0.  0.
        5    1    3    3  502    0 -0.36394328117E+03  0.60673398765E+03  0.38603384592E+03  0.80599321577E+03  0.46999998093E+01 0. -1.
       -5    1    3    3    0  502  0.36394328117E+03 -0.60673398765E+03 -0.75155670338E+03  0.10322017303E+04  0.46999998093E+01 0.  1.
</event>
<event>
 5   0  0.8802655E-05  0.1801337E+04  0.7818609E-02  0.8705589E-01
        2   -1    0    0  501    0  0.00000000000E+00  0.00000000000E+00  0.16166419151E+04  0.16166419151E+04  0.25500000920E-02 0. -1.
       -2   -1    0    0    0  501  0.00000000000E+00  0.00000000000E+00 -0.50178310549E+03  0.50178310550E+03  0.25500000920E-02 0.  1.
    10030    2    1    2    0    0  0.00000000000E+00  0.00000000000E+00  0.11148588096E+04  0.21184250206E+04  0.18013368376E+04 0.  0.
        2    1    3    3  502    0  0.51033099138E+03  0.72738655246E+03  0.73056826158E+03  0.11503299102E+04  0.25500000920E-02 0. -1.
       -2    1    3    3    0  502 -0.51033099138E+03 -0.72738655246E+03  0.38429054803E+03  0.96809511040E+03  0.25500000920E-02 0.  1.
</event>
<event>
 5   0  0.8892280E-05  0.1802378E+04  0.7818609E-02  0.8705036E-01
       -2   -1    0    0    0  501  0.00000000000E+00  0.00000000000E+00  0.50923689320E+03  0.50923689320E+03  0.25500000920E-02 0.  1.
        2   -1    0    0  501    0  0.00000000000E+00  0.00000000000E+00 -0.15948211486E+04  0.15948211486E+04  0.25500000920E-02 0. -1.
    10030    2    1    2    0    0  0.00000000000E+00  0.00000000000E+00 -0.10855842554E+04  0.21040580418E+04  0.18023781700E+04 0.  0.
        4    1    3    3  502    0 -0.59788367734E+03 -0.22000310264E+03 -0.12868749135E+04  0.14359369459E+04  0.12699999809E+01 0. -1.
       -4    1    3    3    0  502  0.59788367734E+03  0.22000310264E+03  0.20129065810E+03  0.66812109586E+03  0.12699999809E+01 0.  1.
</event>
<event>
 5   0  0.9147432E-05  0.1797210E+04  0.7818609E-02  0.8707784E-01
        2   -1    0    0  501    0  0.00000000000E+00  0.00000000000E+00  0.11372481233E+04  0.11372481233E+04  0.25500000920E-02 0. -1.
       -2   -1    0    0    0  501  0.00000000000E+00  0.00000000000E+00 -0.71003952479E+03  0.71003952480E+03  0.25500000920E-02 0.  1.
    10030    2    1    2    0    0  0.00000000000E+00  0.00000000000E+00  0.42720859850E+03  0.18472876481E+04  0.17972101903E+04 0.  0.
        3    1    3    3  502    0 -0.49551424529E+03  0.57349239842E+03  0.70982229972E+03  0.10384005035E+04  0.10100000352E+00 0.  1.
       -3    1    3    3    0  502  0.49551424529E+03 -0.57349239842E+03 -0.28261370122E+03  0.80888714457E+03  0.10100000352E+00 0. -1.
</event>
<event>
 5   0  0.4535100E-05  0.1803748E+04  0.7818609E-02  0.8704309E-01
       -1   -1    0    0    0  501  0.00000000000E+00  0.00000000000E+00  0.76399803691E+03  0.76399803693E+03  0.50400001928E-02 0.  1.
        1   -1    0    0  501    0  0.00000000000E+00  0.00000000000E+00 -0.10646323965E+04  0.10646323966E+04  0.50400001928E-02 0. -1.
    10030    2    1    2    0    0  0.00000000000E+00  0.00000000000E+00 -0.30063435964E+03  0.18286304335E+04  0.18037483871E+04 0.  0.
        1    1    3    3  502    0  0.39283556999E+03 -0.64977609394E+03 -0.64370125402E+03  0.99542958654E+03  0.50400001928E-02 0. -1.
       -1    1    3    3    0  502 -0.39283556999E+03  0.64977609394E+03  0.34306689438E+03  0.83320084695E+03  0.50400001928E-02 0.  1.
</event>
<event>
 5   0  0.4335117E-05  0.1752980E+04  0.7818609E-02  0.8731712E-01
        1   -1    0    0  501    0  0.00000000000E+00  0.00000000000E+00  0.10732008059E+04  0.10732008059E+04  0.50400001928E-02 0.  1.
       -1   -1    0    0    0  501  0.00000000000E+00  0.00000000000E+00 -0.71583507887E+03  0.71583507889E+03  0.50400001928E-02 0. -1.
    10030    2    1    2    0    0  0.00000000000E+00  0.00000000000E+00  0.35736572702E+03  0.17890358848E+04  0.17529800724E+04 0.  0.
        3    1    3    3  502    0 -0.86105863929E+03  0.14454465852E+03  0.10016119341E+03  0.87883298383E+03  0.10100000352E+00 0. -1.
       -3    1    3    3    0  502  0.86105863929E+03 -0.14454465852E+03  0.25720453360E+03  0.91020290096E+03  0.10100000352E+00 0.  1.
</event>
<event>
 5   0  0.4623665E-05  0.1807715E+04  0.7818609E-02  0.8702207E-01
        1   -1    0    0  501    0  0.00000000000E+00  0.00000000000E+00  0.71049501286E+03  0.71049501288E+03  0.50400001928E-02 0.  1.
       -1   -1    0    0    0  501  0.00000000000E+00  0.00000000000E+00 -0.11498444320E+04  0.11498444320E+04  0.50400001928E-02 0. -1.
    10030    2    1    2    0    0  0.00000000000E+00  0.00000000000E+00 -0.43934941912E+03  0.18603394449E+04  0.18077153919E+04 0.  0.
        5    1    3    3  502    0 -0.47370601437E+03  0.70603601949E+03  0.95932612140E+02  0.85563391993E+03  0.46999998093E+01 0.  1.
       -5    1    3    3    0  502  0.47370601437E+03 -0.70603601949E+03 -0.53528203126E+03  0.10047055249E+04  0.46999998093E+01 0. -1.
</event>
<event>
 5   0  0.4623665E-05  0.1795584E+04  0.7818609E-02  0.8708651E-01
       -1   -1    0    0    0  501  0.00000000000E+00  0.00000000000E+00  0.49254184964E+03  0.49254184966E+03  0.50400001928E-02 0. -1.
        1   -1    0    0  501    0  0.00000000000E+00  0.00000000000E+00 -0.16364716869E+04  0.16364716869E+04  0.50400001928E-02 0.  1.
    10030    2    1    2    0    0  0.00000000000E+00  0.00000000000E+00 -0.11439298373E+04  0.21290135366E+04  0.17955843523E+04 0.  0.
        5    1    3    3  502    0  0.25544672949E+03 -0.57199730057E+03 -0.13344820808E+04  0.14742111306E+04  0.46999998093E+01 0.  1.
       -5    1    3    3    0  502 -0.25544672949E+03  0.57199730057E+03  0.19055224350E+03  0.65480240605E+03  0.46999998093E+01 0. -1.
</event>
<event>
 5   0  0.8802655E-05  0.1791051E+04  0.7818609E-02  0.8711073E-01
        2   -1    0    0  501    0  0.00000000000E+00  0.00000000000E+00  0.15796614278E+04  0.15796614278E+04  0.25500000920E-02 0.  1.
       -2   -1    0    0    0  501  0.00000000000E+00  0.00000000000E+00 -0.50768208306E+03  0.50768208307E+03  0.25500000920E-02 0. -1.
    10030    2    1    2    0    0  0.00000000000E+00  0.00000000000E+00  0.10719793448E+04  0.20873435109E+04  0.17910508694E+04 0.  0.
        2    1    3    3  502    0 -0.92587181935E+02 -0.88615182813E+03  0.64106175705E+03  0.10976327369E+04  0.25500000920E-02 0. -1.
       -2    1    3    3    0  502  0.92587181935E+02  0.88615182813E+03  0.43091758772E+03  0.98971077400E+03  0.25500000920E-02 0.  1.
</event>
<event>
 5   0  0.8802655E-05  0.1796677E+04  0.7818609E-02  0.8708068E-01
        2   -1    0    0  501    0  0.00000000000E+00  0.00000000000E+00  0.11809973011E+04  0.11809973011E+04  0.25500000920E-02 0.  1.
       -2   -1    0    0    0  501  0.00000000000E+00  0.00000000000E+00 -0.68333128686E+03  0.68333128687E+03  0.25500000920E-02 0. -1.
    10030    2    1    2    0    0  0.00000000000E+00  0.00000000000E+00  0.49766601424E+03  0.18643285880E+04  0.17966773840E+04 0.  0.
        2    1    3    3  502    0  0.86174379523E+03 -0.25092277699E+03  0.20935036739E+03  0.92162475279E+03  0.25500000920E-02 0. -1.
       -2    1    3    3    0  502 -0.86174379523E+03  0.25092277699E+03  0.28831564685E+03  0.94270383518E+03  0.25500000920E-02 0.  1.
</event>
<event>
 5   0  0.4335117E-05  0.1818632E+04  0.7818609E-02  0.8696454E-01
       -1   -1    0    0    0  501  0.00000000000E+00  0.00000000000E+00  0.50413649628E+03  0.50413649631E+03  0.50400001928E-02 0. -1.
        1   -1    0    0  501    0  0.00000000000E+00  0.00000000000E+00 -0.16401420586E+04  0.16401420586E+04  0.50400001928E-02 0.  1.
    10030    2    1    2    0    0  0.00000000000E+00  0.00000000000E+00 -0.11360055623E+04  0.21442785549E+04  0.18186318713E+04 0.  0.
        3    1    3    3  502    0  0.80377900630E+03  0.15146467920E+03 -0.10364526568E+04  0.13203167650E+04  0.10100000352E+00 0.  1.
       -3    1    3    3    0  502 -0.80377900630E+03 -0.15146467920E+03 -0.99552905524E+02  0.82396178990E+03  0.10100000352E+00 0. -1.
</event>
<event>
 5   0  0.4535100E-05  0.1803853E+04  0.7818609E-02  0.8704253E-01
       -1   -1    0    0    0  501  0.00000000000E+00  0.00000000000E+00  0.51870857549E+03  0.51870857552E+03  0.50400001928E-02 0.  1.
        1   -1    0    0  501    0  0.00000000000E+00  0.00000000000E+00 -0.15682622961E+04  0.15682622961E+04  0.50400001928E-02 0. -1.
    10030    2    1    2    0    0  0.00000000000E+00  0.00000000000E+00 -0.10495537206E+04  0.20869708716E+04  0.18038526565E+04 0.  0.
        1    1    3    3  502    0 -0.63992699049E+03 -0.61041304508E+03 -0.31989356103E+03  0.94044804704E+03  0.50400001928E-02 0.  1.
       -1    1    3    3    0  502  0.63992699049E+03  0.61041304508E+03 -0.72966015954E+03  0.11465228245E+04  0.50400001928E-02 0. -1.
</event>
<event>
 5   0  0.8893075E-05  0.1807143E+04  0.7818609E-02  0.8702510E-01
       -2   -1    0    0    0  501  0.00000000000E+00  0.00000000000E+00  0.37413142901E+03  0.37413142902E+03  0.25500000920E-02 0.  1.
        2   -1    0    0  501    0  0.00000000000E+00  0.00000000000E+00 -0.21822314847E+04  0.21822314847E+04  0.25500000920E-02 0. -1.
    10030    2    1    2    0    0  0.00000000000E+00  0.00000000000E+00 -0.18081000556E+04  0.25563629137E+04  0.18071429205E+04 0.  0.
        1    1    3    3  502    0 -0.62015662868E+03 -0.45126778863E+03 -0.22829057231E+03  0.80022087363E+03  0.50400001928E-02 0. -1.
       -1    1    3    3    0  502  0.62015662868E+03  0.45126778863E+03 -0.15798094833E+04  0.17561420400E+04  0.50400001928E-02 0.  1.
</event>
<event>
 5   0  0.9184414E-05  0.1791946E+04  0.7818609E-02  0.8710594E-01
        2   -1    0    0  501    0  0.00000000000E+00  0.00000000000E+00  0.13434608631E+04  0.13434608631E+04  0.25500000920E-02 0.  1.
       -2   -1    0    0    0  501  0.00000000000E+00  0.00000000000E+00 -0.59753725907E+03  0.59753725907E+03  0.25500000920E-02 0. -1.
    10030    2    1    2    0    0  0.00000000000E+00  0.00000000000E+00  0.74592360401E+03  0.19409981222E+04  0.17919463405E+04 0.  0.
        5    1    3    3  502    0  0.14169145325E+03 -0.65492440799E+03  0.10171967456E+04  0.12180778946E+04  0.46999998093E+01 0.  1.
       -5    1    3    3    0  502 -0.14169145325E+03  0.65492440799E+03 -0.27127314155E+03  0.72292022757E+03  0.46999998093E+01 0. -1.
</event>
<event>
 5   0  0.4578107E-05  0.1813293E+04  0.7818609E-02  0.8699262E-01
        1   -1    0    0  501    0  0.00000000000E+00  0.00000000000E+00  0.65337544971E+03  0.65337544973E+03  0.50400001928E-02 0.  1.
       -1   -1    0    0    0  501  0.00000000000E+00  0.00000000000E+00 -0.12580942047E+04  0.12580942047E+04  0.50400001928E-02 0. -1.
    10030    2    1    2    0    0  0.00000000000E+00  0.00000000000E+00 -0.60471875498E+03  0.19114696544E+04  0.18132929899E+04 0.  0.
        2    1    3    3  502    0 -0.62675715730E+03 -0.52258826521E+03  0.11410684495E+03  0.82398021896E+03  0.25500000920E-02 0.  1.
       -2    1    3    3    0  502  0.62675715730E+03  0.52258826521E+03 -0.71882559993E+03  0.10874894355E+04  0.25500000920E-02 0. -1.
</event>
<event>
 5   0  0.4578107E-05  0.1814995E+04  0.7818609E-02  0.8698366E-01
       -1   -1    0    0    0  501  0.00000000000E+00  0.00000000000E+00  0.73583206023E+03  0.73583206025E+03  0.50400001928E-02 0.  1.
        1   -1    0    0  501    0  0.00000000000E+00  0.00000000000E+00 -0.11192116945E+04  0.11192116945E+04  0.50400001928E-02 0. -1.
    10030    2    1    2    0    0  0.00000000000E+00  0.00000000000E+00 -0.38337963423E+03  0.18550437547E+04  0.18149951482E+04 0.  0.
        2    1    3    3  502    0 -0.14514453557E+03 -0.91577814109E+02  0.71909515007E+03  0.73929105710E+03  0.25500000920E-02 0.  1.
       -2    1    3    3    0  502  0.14514453557E+03  0.91577814109E+02 -0.11024747843E+04  0.11157526976E+04  0.25500000920E-02 0. -1.
</event>
<event>
 5   0  0.4335117E-05  0.1780631E+04  0.7818609E-02  0.8716668E-01
        1   -1    0    0  501    0  0.00000000000E+00  0.00000000000E+00  0.63692414958E+03  0.63692414960E+03  0.50400001928E-02 0. -1.
       -1   -1    0    0    0  501  0.00000000000E+00  0.00000000000E+00 -0.12445156207E+04  0.12445156207E+04  0.50400001928E-02 0.  1.
    10030    2    1    2    0    0  0.00000000000E+00  0.00000000000E+00 -0.60759147108E+03  0.18814397703E+04  0.17806314086E+04 0.  0.
        3    1    3    3  502    0  0.31321555893E+03 -0.37053121237E+02 -0.11835085274E+04  0.12248140123E+04  0.10100000352E+00 0.  1.
       -3    1    3    3    0  502 -0.31321555893E+03  0.37053121237E+02  0.57591705628E+03  0.65662575800E+03  0.10100000352E+00 0. -1.
</event>
<event>
 5   0  0.9147432E-05  0.1799020E+04  0.7818609E-02  0.8706821E-01
       -2   -1    0    0    0  501  0.00000000000E+00  0.00000000000E+00  0.71696535736E+03  0.71696535737E+03  0.25500000920E-02 0. -1.
        2   -1    0    0  501    0  0.00000000000E+00  0.00000000000E+00 -0.11285322103E+04  0.11285322103E+04  0.25500000920E-02 0.  1.
    10030    2    1    2    0    0  0.00000000000E+00  0.00000000000E+00 -0.41156685291E+03  0.18454975676E+04  0.17990202883E+04 0.  0.
        3    1    3    3  502    0  0.84586381129E+03 -0.72774873445E+02 -0.51067684538E+03  0.99074346834E+03  0.10100000352E+00 0.  1.
       -3    1    3    3    0  502 -0.84586381129E+03  0.72774873445E+02  0.99109992479E+02  0.85475409930E+03  0.10100000352E+00 0. -1.
</event>
<event>
 5   0  0.4623665E-05  0.1801813E+04  0.7818609E-02  0.8705336E-01
       -1   -1    0    0    0  501  0.00000000000E+00  0.00000000000E+00  0.51922091213E+03  0.51922091215E+03  0.50400001928E-02 0. -1.
        1   -1    0    0  501    0  0.00000000000E+00  0.00000000000E+00 -0.15631741446E+04  0.15631741446E+04  0.50400001928E-02 0.  1.
    10030    2    1    2    0    0  0.00000000000E+00  0.00000000000E+00 -0.10439532325E+04  0.20823950568E+04  0.18018132037E+04 0.  0.
        5    1    3    3  502    0  0.47121224687E+03  0.69709788633E+03 -0.14994153607E+03  0.85468766165E+03  0.46999998093E+01 0. -1.
       -5    1    3    3    0  502 -0.47121224687E+03 -0.69709788633E+03 -0.89401169642E+03  0.12277073951E+04  0.46999998093E+01 0.  1.
</event>
<event>
 5   0  0.4578107E-05  0.1798827E+04  0.7818609E-02  0.8706924E-01
        1   -1    0    0  501    0  0.00000000000E+00  0.00000000000E+00  0.17513295873E+04  0.17513295873E+04  0.50400001928E-02 0. -1.
       -1   -1    0    0    0  501  0.00000000000E+00  0.00000000000E+00 -0.46190294854E+03  0.46190294857E+03  0.50400001928E-02 0.  1.
    10030    2    1    2    0    0  0.00000000000E+00  0.00000000000E+00  0.12894266387E+04  0.22132325359E+04  0.17988266178E+04 0.  0.
        2    1    3    3  502    0  0.43264284616E+03  0.22772125071E+03 -0.28412457820E+03  0.56547641534E+03  0.25500000920E-02 0.  1.
       -2    1    3    3    0  502 -0.43264284616E+03 -0.22772125071E+03  0.15735512169E+04  0.16477561205E+04  0.25500000920E-02 0. -1.
</event>
<event>
 5   0  0.9147432E-05  0.1793651E+04  0.7818609E-02  0.8709683E-01
        2   -1    0    0  501    0  0.00000000000E+00  0.00000000000E+00  0.59208450299E+03  0.59208450299E+03  0.25500000920E-02 0. -1.
       -2   -1    0    0    0  501  0.00000000000E+00  0.00000000000E+00 -0.13584141197E+04  0.13584141197E+04  0.25500000920E-02 0.  1.
    10030    2    1    2    0    0  0.00000000000E+00  0.00000000000E+00 -0.76632961675E+03  0.19504986227E+04  0.17936509682E+04 0.  0.
        3    1    3    3  502    0  0.41940660089E+03  0.77861545554E+03 -0.54501541181E+03  0.10388386467E+04  0.10100000352E+00 0.  1.
       -3    1    3    3    0  502 -0.41940660089E+03 -0.77861545554E+03 -0.22131420494E+03  0.91165997608E+03  0.10100000352E+00 0. -1.
</event>
<event>
 5   0  0.9184414E-05  0.1808845E+04  0.7818609E-02  0.8701610E-01
        2   -1    0    0  501    0  0.00000000000E+00  0.00000000000E+00  0.89688123267E+03  0.89688123267E+03  0.25500000920E-02 0.  1.
       -2   -1    0    0    0  501  0.00000000000E+00  0.00000000000E+00 -0.91202716178E+03  0.91202716178E+03  0.25500000920E-02 0. -1.
    10030    2    1    2    0    0  0.00000000000E+00  0.00000000000E+00 -0.15145929109E+02  0.18089083945E+04  0.18088449852E+04 0.  0.
        5    1    3    3  502    0  0.90742914669E+02  0.54083437629E+03 -0.72677955459E+03  0.91047608980E+03  0.46999998093E+01 0. -1.
       -5    1    3    3    0  502 -0.90742914669E+02 -0.54083437629E+03  0.71163362548E+03  0.89843230466E+03  0.46999998093E+01 0.  1.
</event>
<event>
 5   0  0.9184414E-05  0.1784203E+04  0.7818609E-02  0.8714745E-01
        2   -1    0    0  501    0  0.00000000000E+00  0.00000000000E+00  0.15896077743E+04  0.15896077744E+04  0.25500000920E-02 0. -1.
       -2   -1    0    0    0  501  0.00000000000E+00  0.00000000000E+00 -0.50065516680E+03  0.50065516680E+03  0.25500000920E-02 0.  1.
    10030    2    1    2    0    0  0.00000000000E+00  0.00000000000E+00  0.10889526076E+04  0.20902629412E+04  0.17842032905E+04 0.  0.
        5    1    3    3  502    0 -0.67872178057E+03  0.44261316842E+03  0.10729681856E+03  0.81737651639E+03  0.46999998093E+01 0.  1.
       -5    1    3    3    0  502  0.67872178057E+03 -0.44261316842E+03  0.98165578899E+03  0.12728864248E+04  0.46999998093E+01 0. -1.
</event>
<event>
 5   0  0.9184414E-05  0.1757838E+04  0.7818609E-02  0.8729048E-01
       -2   -1    0    0    0  501  0.00000000000E+00  0.00000000000E+00  0.50102237932E+03  0.50102237933E+03  0.25500000920E-02 0.  1.
        2   -1    0    0  501    0  0.00000000000E+00  0.00000000000E+00 -0.15418439778E+04  0.15418439778E+04  0.25500000920E-02 0. -1.
    10030    2    1    2    0    0  0.00000000000E+00  0.00000000000E+00 -0.10408215984E+04  0.20428663571E+04  0.17578376925E+04 0.  0.
        5    1    3    3  502    0 -0.15841641668E+03  0.47706656025E+03  0.31745468805E+03  0.59454842776E+03  0.46999998093E+01 0.  1.
       -5    1    3    3    0  502  0.15841641668E+03 -0.47706656025E+03 -0.13582762865E+04  0.14483179293E+04  0.46999998093E+01 0. -1.
</event>
<event>
 5   0  0.8802655E-05  0.1799884E+04  0.7818609E-02  0.8706361E-01
        2   -1    0    0  501    0  0.00000000000E+00  0.00000000000E+00  0.10109880015E+04  0.10109880015E+04  0.25500000920E-02 0.  1.
       -2   -1    0    0    0  501  0.00000000000E+00  0.00000000000E+00 -0.80109347196E+03  0.80109347196E+03  0.25500000920E-02 0. -1.
    10030    2    1    2    0    0  0.00000000000E+00  0.00000000000E+00  0.20989452956E+03  0.18120814735E+04  0.17998843166E+04 0.  0.
        2    1    3    3  502    0 -0.26271873185E+03 -0.61665408463E+03  0.70952689897E+03  0.97606957361E+03  0.25500000920E-02 0.  1.
       -2    1    3    3    0  502  0.26271873185E+03  0.61665408463E+03 -0.49963236941E+03  0.83601189987E+03  0.25500000920E-02 0. -1.
</event>
<event>
 5   0  0.8892280E-05  0.1783635E+04  0.7818609E-02  0.8715051E-01
        2   -1    0    0  501    0  0.00000000000E+00  0.00000000000E+00  0.56801818666E+03  0.56801818667E+03  0.25500000920E-02 0. -1.
       -2   -1    0    0    0  501  0.00000000000E+00  0.00000000000E+00 -0.14001982581E+04  0.14001982581E+04  0.25500000920E-02 0.  1.
    10030    2    1    2    0    0  0.00000000000E+00  0.00000000000E+00 -0.83218007140E+03  0.19682164447E+04  0.17836345764E+04 0.  0.
        4    1    3    3  502    0  0.44499332971E+03 -0.51011404297E+03  0.22459861949E+03  0.71321914802E+03  0.12699999809E+01 0. -1.
       -4    1    3    3    0  502 -0.44499332971E+03  0.51011404297E+03 -0.10567786909E+04  0.12549972967E+04  0.12699999809E+01 0.  1.
</event>
<event>
 5   0  0.9147432E-05  0.1802632E+04  0.7818609E-02  0.8704901E-01
       -2   -1    0    0    0  501  0.00000000000E+00  0.00000000000E+00  0.76778290884E+03  0.76778290885E+03  0.25500000920E-02 0.  1.
        2   -1    0    0  501    0  0.00000000000E+00  0.00000000000E+00 -0.10580735762E+04  0.10580735762E+04  0.25500000920E-02 0. -1.
    10030    2    1    2    0    0  0.00000000000E+00  0.00000000000E+00 -0.29029066734E+03  0.18258564850E+04  0.18026323065E+04 0.  0.
        3    1    3    3  502    0  0.54641464285E+03  0.14884418044E+03  0.56506386590E+03  0.80001295909E+03  0.10100000352E+00 0.  1.
       -3    1    3    3    0  502 -0.54641464285E+03 -0.14884418044E+03 -0.85535453324E+03  0.10258435259E+04  0.10100000352E+00 0. -1.
</event>
<event>
 5   0  0.9184414E-05  0.1797858E+04  0.7818609E-02  0.8707439E-01
        2   -1    0    0  501    0  0.00000000000E+00  0.00000000000E+00  0.96614818334E+03  0.96614818335E+03  0.25500000920E-02 0.  1.
       -2   -1    0    0    0  501  0.00000000000E+00  0.00000000000E+00 -0.83638649898E+03  0.83638649899E+03  0.25500000920E-02 0. -1.
    10030    2    1    2    0    0  0.00000000000E+00  0.00000000000E+00  0.12976168436E+03  0.18025346823E+04  0.17978579439E+04 0.  0.
        5    1    3    3  502    0  0.11695225976E+03  0.19514611446E+03  0.93679319090E+03  0.96403496283E+03  0.46999998093E+01 0.  1.
       -5    1    3    3    0  502 -0.11695225976E+03 -0.19514611446E+03 -0.80703150654E+03  0.83849971950E+03  0.46999998093E+01 0. -1.
</event>
<event>
 5   0  0.8892280E-05  0.1837397E+04  0.7818609E-02  0.8686661E-01
       -2   -1    0    0    0  501  0.00000000000E+00  0.00000000000E+00  0.58886543920E+03  0.58886543920E+03  0.25500000920E-02 0. -1.
        2   -1    0    0  501    0  0.00000000000E+00  0.00000000000E+00 -0.14332768781E+04  0.14332768781E+04  0.25500000920E-02 0.  1.
    10030    2    1    2    0    0  0.00000000000E+00  0.00000000000E+00 -0.84441143888E+03  0.20221423173E+04  0.18373973096E+04 0.  0.
        4    1    3    3  502    0 -0.39848246708E+02 -0.89995452995E+03 -0.62060835036E+03  0.10939206444E+04  0.12699999809E+01 0.  1.
       -4    1    3    3    0  502  0.39848246708E+02  0.89995452995E+03 -0.22380308852E+03  0.92822167292E+03  0.12699999809E+01 0. -1.
</event>
<event>
 5   0  0.3270375E-05  0.1799512E+04  0.7818609E-02  0.8706559E-01
       -3   -1    0    0    0  501  0.00000000000E+00  0.00000000000E+00  0.10390828826E+04  0.10390828875E+04  0.10100000352E+00 0.  1.
        3   -1    0    0  501    0  0.00000000000E+00  0.00000000000E+00 -0.77911096718E+03  0.77911097372E+03  0.10100000352E+00 0. -1.
    10030    2    1    2    0    0  0.00000000000E+00  0.00000000000E+00  0.25997191546E+03  0.18181938613E+04  0.17995120228E+04 0.  0.
        1    1    3    3  502    0  0.77144276774E+03 -0.30552884620E+03 -0.22160515520E+03  0.85882516532E+03  0.50400001928E-02 0.  1.
       -1    1    3    3    0  502 -0.77144276774E+03  0.30552884620E+03  0.48157707066E+03  0.95936869595E+03  0.50400001928E-02 0. -1.
</event>
<event>
 5   0  0.8893075E-05  0.1800352E+04  0.7818609E-02  0.8706112E-01
        2   -1    0    0  501    0  0.00000000000E+00  0.00000000000E+00  0.14963446381E+04  0.14963446381E+04  0.25500000920E-02 0.  1.
       -2   -1    0    0    0  501  0.00000000000E+00  0.00000000000E+00 -0.54153099609E+03  0.54153099609E+03  0.25500000920E-02 0. -1.
    10030    2    1    2    0    0  0.00000000000E+00  0.00000000000E+00  0.95481364206E+03  0.20378756342E+04  0.18003521904E+04 0.  0.
        1    1    3    3  502    0  0.66235546052E+03  0.10632745249E+03  0.11568456444E+04  0.13372778800E+04  0.50400001928E-02 0. -1.
       -1    1    3    3    0  502 -0.66235546052E+03 -0.10632745249E+03 -0.20203200239E+03  0.70059775424E+03  0.50400001928E-02 0.  1.
</event>
<event>
 5   0  0.4578107E-05  0.1796079E+04  0.7818609E-02  0.8708387E-01
        1   -1    0    0  501    0  0.00000000000E+00  0.00000000000E+00  0.12303242962E+04  0.12303242962E+04  0.50400001928E-02 0. -1.
       -1   -1    0    0    0  501  0.00000000000E+00  0.00000000000E+00 -0.65549809038E+03  0.65549809040E+03  0.50400001928E-02 0.  1.
    10030    2    1    2    0    0  0.00000000000E+00  0.00000000000E+00  0.57482620579E+03  0.18858223866E+04  0.17960793153E+04 0.  0.
        2    1    3    3  502    0 -0.42511130265E+03 -0.83547145136E+02 -0.53851420214E+03  0.69115648808E+03  0.25500000920E-02 0.  1.
       -2    1    3    3    0  502  0.42511130265E+03  0.83547145136E+02  0.11133404079E+04  0.11946658985E+04  0.25500000920E-02 0. -1.
</event>
<event>
 5   0  0.9147432E-05  0.1797875E+04  0.7818609E-02  0.8707430E-01
       -2   -1    0    0    0  501  0.00000000000E+00  0.00000000000E+00  0.60212017262E+03  0.60212017262E+03  0.25500000920E-02 0. -1.
        2   -1    0    0  501    0  0.00000000000E+00  0.00000000000E+00 -0.13420722845E+04  0.13420722845E+04  0.25500000920E-02 0.  1.
    10030    2    1    2    0    0  0.00000000000E+00  0.00000000000E+00 -0.73995211184E+03  0.19441924571E+04  0.17978751854E+04 0.  0.
        3    1    3    3  502    0  0.83145961316E+02  0.87175449376E+03 -0.15042688693E+03  0.88853666598E+03  0.10100000352E+00 0. -1.
       -3    1    3    3    0  502 -0.83145961316E+02 -0.87175449376E+03 -0.58952522491E+03  0.10556557911E+04  0.10100000352E+00 0.  1.
</event>
<event>
 5   0  0.4494757E-05  0.1835137E+04  0.7818609E-02  0.8687834E-01
        1   -1    0    0  501    0  0.00000000000E+00  0.00000000000E+00  0.87509589691E+03  0.87509589692E+03  0.50400001928E-02 0.  1.
       -1   -1    0    0    0  501  0.00000000000E+00  0.00000000000E+00 -0.96210265829E+03  0.96210265831E+03  0.50400001928E-02 0. -1.
    10030    2    1    2    0    0  0.00000000000E+00  0.00000000000E+00 -0.87006761387E+02  0.18371985552E+04  0.18351371488E+04 0.  0.
        4    1    3    3  502    0 -0.79622164424E+03  0.40080893681E+03  0.17425823178E+03  0.90828643875E+03  0.12699999809E+01 0. -1.
       -4    1    3    3    0  502  0.79622164424E+03 -0.40080893681E+03 -0.26126499317E+03  0.92891211648E+03  0.12699999809E+01 0.  1.
</event>
<event>
 5   0  0.4535100E-05  0.1792975E+04  0.7818609E-02  0.8710044E-01
        1   -1    0    0  501    0  0.00000000000E+00  0.00000000000E+00  0.81580272115E+03  0.81580272116E+03  0.50400001928E-02 0. -1.
       -1   -1    0    0    0  501  0.00000000000E+00  0.00000000000E+00 -0.98515204499E+03  0.98515204500E+03  0.50400001928E-02 0.  1.
    10030    2    1    2    0    0  0.00000000000E+00  0.00000000000E+00 -0.16934932384E+03  0.18009547662E+04  0.17929748677E+04 0.  0.
        1    1    3    3  502    0 -0.14348618985E+03  0.76987631613E+03  0.35360652157E+03  0.85926445344E+03  0.50400001928E-02 0. -1.
       -1    1    3    3    0  502  0.14348618985E+03 -0.76987631613E+03 -0.52295584541E+03  0.94169031273E+03  0.50400001928E-02 0.  1.
</event>
<event>
 5   0  0.4623665E-05  0.1795551E+04  0.7818609E-02  0.8708669E-01
       -1   -1    0    0    0  501  0.00000000000E+00  0.00000000000E+00  0.37082012395E+03  0.37082012399E+03  0.50400001928E-02 0. -1.
        1   -1    0    0  501    0  0.00000000000E+00  0.00000000000E+00 -0.21735622553E+04  0.21735622553E+04  0.50400001928E-02 0.  1.
    10030    2    1    2    0    0  0.00000000000E+00  0.00000000000E+00 -0.18027421313E+04  0.25443823792E+04  0.17955507511E+04 0.  0.
        5    1    3    3  502    0 -0.65696528962E+03 -0.56534578204E+03 -0.56977177081E+03  0.10372469358E+04  0.46999998093E+01 0. -1.
       -5    1    3    3    0  502  0.65696528962E+03  0.56534578204E+03 -0.12329703605E+04  0.15071354434E+04  0.46999998093E+01 0.  1.
</event>
<event>
 5   0  0.8892280E-05  0.1795734E+04  0.7818609E-02  0.8708572E-01
       -2   -1    0    0    0  501  0.00000000000E+00  0.00000000000E+00  0.56417804214E+03  0.56417804214E+03  0.25500000920E-02 0. -1.
        2   -1    0    0  501    0  0.00000000000E+00  0.00000000000E+00 -0.14289190452E+04  0.14289190452E+04  0.25500000920E-02 0.  1.
    10030    2    1    2    0    0  0.00000000000E+00  0.00000000000E+00 -0.86474100302E+03  0.19930970873E+04  0.17957335540E+04 0.  0.
        4    1    3    3  502    0 -0.82123083058E+03 -0.16152958325E+03 -0.79313507410E+03  0.11530727393E+04  0.12699999809E+01 0.  1.
       -4    1    3    3    0  502  0.82123083058E+03  0.16152958325E+03 -0.71605928924E+02  0.84002434805E+03  0.12699999809E+01 0. -1.
</event>
<event>
 5   0  0.4578107E-05  0.1797622E+04  0.7818609E-02  0.8707565E-01
        1   -1    0    0  501    0  0.00000000000E+00  0.00000000000E+00  0.16217295864E+04  0.16217295864E+04  0.50400001928E-02 0. -1.
       -1   -1    0    0    0  501  0.00000000000E+00  0.00000000000E+00 -0.49814766353E+03  0.49814766355E+03  0.50400001928E-02 0.  1.
    10030    2    1    2    0    0  0.00000000000E+00  0.00000000000E+00  0.11235819229E+04  0.21198772500E+04  0.17976215446E+04 0.  0.
        2    1    3    3  502    0  0.14467583817E+03 -0.72360401388E+03  0.11669368593E+04  0.13806793620E+04  0.25500000920E-02 0. -1.
       -2    1    3    3    0  502 -0.14467583817E+03  0.72360401388E+03 -0.43354936432E+02  0.73919788796E+03  0.25500000920E-02 0.  1.
</event>
<event>
 5   0  0.8802655E-05  0.1807398E+04  0.7818609E-02  0.8702375E-01
        2   -1    0    0  501    0  0.00000000000E+00  0.00000000000E+00  0.14547207840E+04  0.14547207840E+04  0.25500000920E-02 0. -1.
       -2   -1    0    0    0  501  0.00000000000E+00  0.00000000000E+00 -0.56139450692E+03  0.56139450693E+03  0.25500000920E-02 0.  1.
    10030    2    1    2    0    0  0.00000000000E+00  0.00000000000E+00  0.89332627703E+03  0.20161152909E+04  0.18073984145E+04 0.  0.
        2    1    3    3  502    0 -0.59858647997E+03  0.33201542585E+03 -0.21150005091E+03  0.71643023983E+03  0.25500000920E-02 0.  1.
       -2    1    3    3    0  502  0.59858647997E+03 -0.33201542585E+03  0.11048263279E+04  0.12996850510E+04  0.25500000920E-02 0. -1.
</event>
<event>
 5   0  0.8893075E-05  0.1801874E+04  0.7818609E-02  0.8705304E-01
       -2   -1    0    0    0  501  0.00000000000E+00  0.00000000000E+00  0.53239317114E+03  0.53239317115E+03  0.25500000920E-02 0.  1.
        2   -1    0    0  501    0  0.00000000000E+00  0.00000000000E+00 -0.15246014393E+04  0.15246014393E+04  0.25500000920E-02 0. -1.
    10030    2    1    2    0    0  0.00000000000E+00  0.00000000000E+00 -0.99220826814E+03  0.20569946104E+04  0.18018739079E+04 0.  0.
        1    1    3    3  502    0  0.30284077217E+03 -0.77705652152E+03 -0.10702909914E+03  0.84082376216E+03  0.50400001928E-02 0.  1.
       -1    1    3    3    0  502 -0.30284077217E+03  0.77705652152E+03 -0.88517916900E+03  0.12161708483E+04  0.50400001928E-02 0. -1.
</event>
<event>
 5   0  0.9184414E-05  0.1801977E+04  0.7818609E-02  0.8705249E-01
       -2   -1    0    0    0  501  0.00000000000E+00  0.00000000000E+00  0.52981393684E+03  0.52981393685E+03  0.25500000920E-02 0. -1.
        2   -1    0    0  501    0  0.00000000000E+00  0.00000000000E+00 -0.15321983269E+04  0.15321983269E+04  0.25500000920E-02 0.  1.
    10030    2    1    2    0    0  0.00000000000E+00  0.00000000000E+00 -0.10023843900E+04  0.20620122637E+04  0.18019767230E+04 0.  0.
        5    1    3    3  502    0 -0.69063115086E+03  0.33982724824E+03  0.34685075005E+02  0.77050573626E+03  0.46999998093E+01 0. -1.
       -5    1    3    3    0  502  0.69063115086E+03 -0.33982724824E+03 -0.10370694650E+04  0.12915065275E+04  0.46999998093E+01 0.  1.
</event>
<event>
 5   0  0.4578107E-05  0.1790088E+04  0.7818609E-02  0.8711588E-01
        1   -1    0    0  501    0  0.00000000000E+00  0.00000000000E+00  0.13277385167E+04  0.13277385167E+04  0.50400001928E-02 0. -1.
       -1   -1    0    0    0  501  0.00000000000E+00  0.00000000000E+00 -0.60335970660E+03  0.60335970662E+03  0.50400001928E-02 0.  1.
    10030    2    1    2    0    0  0.00000000000E+00  0.00000000000E+00  0.72437881008E+03  0.19310982233E+04  0.17900881787E+04 0.  0.
        2    1    3    3  502    0  0.38468330394E+03 -0.41717834546E+03 -0.38449345729E+03  0.68545914172E+03  0.25500000920E-02 0.  1.
       -2    1    3    3    0  502 -0.38468330394E+03  0.41717834546E+03  0.11088722674E+04  0.12456390816E+04  0.25500000920E-02 0. -1.
</event>
<event>
 5   0  0.4494757E-05  0.1781450E+04  0.7818609E-02  0.8716227E-01
       -1   -1    0    0    0  501  0.00000000000E+00  0.00000000000E+00  0.51422126036E+03  0.51422126039E+03  0.50400001928E-02 0. -1.
        1   -1    0    0  501    0  0.00000000000E+00  0.00000000000E+00 -0.15428978390E+04  0.15428978391E+04  0.50400001928E-02 0.  1.
    10030    2    1    2    0    0  0.00000000000E+00  0.00000000000E+00 -0.10286765787E+04  0.20571190994E+04  0.17814498269E+04 0.  0.
        4    1    3    3  502    0  0.87112789808E+03 -0.14877569023E+03 -0.38579684204E+03  0.96428151338E+03  0.12699999809E+01 0. -1.
       -4    1    3    3    0  502 -0.87112789808E+03  0.14877569023E+03 -0.64287973664E+03  0.10928375861E+04  0.12699999809E+01 0.  1.
</event>
<event>
 5   0  0.8892280E-05  0.1793179E+04  0.7818609E-02  0.8709935E-01
        2   -1    0    0  501    0  0.00000000000E+00  0.00000000000E+00  0.26428343028E+04  0.26428343028E+04  0.25500000920E-02 0.  1.
       -2   -1    0    0    0  501  0.00000000000E+00  0.00000000000E+00 -0.30417083815E+03  0.30417083816E+03  0.25500000920E-02 0. -1.
    10030    2    1    2    0    0  0.00000000000E+00  0.00000000000E+00  0.23386634646E+04  0.29470051409E+04  0.17931794389E+04 0.  0.
        4    1    3    3  502    0  0.30317364372E+03  0.69489262081E+03  0.38273497542E+03  0.84928068800E+03  0.12699999809E+01 0. -1.
       -4    1    3    3    0  502 -0.30317364372E+03 -0.69489262081E+03  0.19559284892E+04  0.20977244529E+04  0.12699999809E+01 0.  1.
</event>
<event>
 5   0  0.9147432E-05  0.1799188E+04  0.7818609E-02  0.8706731E-01
       -2   -1    0    0    0  501  0.00000000000E+00  0.00000000000E+00  0.57625329553E+03  0.57625329554E+03  0.25500000920E-02 0.  1.
        2   -1    0    0  501    0  0.00000000000E+00  0.00000000000E+00 -0.14043640080E+04  0.14043640080E+04  0.25500000920E-02 0. -1.
    10030    2    1    2    0    0  0.00000000000E+00  0.00000000000E+00 -0.82811071247E+03  0.19806173035E+04  0.17991880255E+04 0.  0.
        3    1    3    3  502    0  0.42113163845E+02 -0.33550361966E+03 -0.13317443877E+04  0.13740012088E+04  0.10100000352E+00 0. -1.
       -3    1    3    3    0  502 -0.42113163845E+02  0.33550361966E+03  0.50363367524E+03  0.60661609475E+03  0.10100000352E+00 0.  1.
</event>
<event>
 5   0  0.4535100E-05  0.1852300E+04  0.7818609E-02  0.8678971E-01
        1   -1    0    0  501    0  0.00000000000E+00  0.00000000000E+00  0.16391375598E+04  0.16391375598E+04  0.50400001928E-02 0. -1.
       -1   -1    0    0    0  501  0.00000000000E+00  0.00000000000E+00 -0.52329561556E+03  0.52329561559E+03  0.50400001928E-02 0.  1.
    10030    2    1    2    0    0  0.00000000000E+00  0.00000000000E+00  0.11158419442E+04  0.21624331753E+04  0.18522996500E+04 0.  0.
        1    1    3    3  502    0  0.15033976107E+03 -0.78984147291E+03  0.10945611122E+04  0.13581294579E+04  0.50400001928E-02 0. -1.
       -1    1    3    3    0  502 -0.15033976107E+03  0.78984147291E+03  0.21280832035E+02  0.80430371747E+03  0.50400001928E-02 0.  1.
</event>
<event>
 5   0  0.4335117E-05  0.1890315E+04  0.7818609E-02  0.8659692E-01
        1   -1    0    0  501    0  0.00000000000E+00  0.00000000000E+00  0.15092231677E+04  0.15092231677E+04  0.50400001928E-02 0.  1.
       -1   -1    0    0    0  501  0.00000000000E+00  0.00000000000E+00 -0.59190924670E+03  0.59190924672E+03  0.50400001928E-02 0. -1.
    10030    2    1    2    0    0  0.00000000000E+00  0.00000000000E+00  0.91731392103E+03  0.21011324145E+04  0.18903154746E+04 0.  0.
        3    1    3    3  502    0 -0.26335932662E+03 -0.63140719746E+03 -0.26621565867E+03  0.73410079079E+03  0.10100000352E+00 0. -1.
       -3    1    3    3    0  502  0.26335932662E+03  0.63140719746E+03  0.11835295797E+04  0.13670316237E+04  0.10100000352E+00 0.  1.
</event>
<event>
 5   0  0.4578107E-05  0.1798435E+04  0.7818609E-02  0.8707132E-01
        1   -1    0    0  501    0  0.00000000000E+00  0.00000000000E+00  0.37081056869E+03  0.37081056872E+03  0.50400001928E-02 0.  1.
       -1   -1    0    0    0  501  0.00000000000E+00  0.00000000000E+00 -0.21806062713E+04  0.21806062713E+04  0.50400001928E-02 0. -1.
    10030    2    1    2    0    0  0.00000000000E+00  0.00000000000E+00 -0.18097957026E+04  0.25514168400E+04  0.17984347101E+04 0.  0.
        2    1    3    3  502    0  0.51026255182E+03 -0.12091122263E+03 -0.19412240217E+04  0.20108053357E+04  0.25500000920E-02 0. -1.
       -2    1    3    3    0  502 -0.51026255182E+03  0.12091122263E+03  0.13142831911E+03  0.54061150433E+03  0.25500000920E-02 0.  1.
</event>
<event>
 5   0  0.4578107E-05  0.1802406E+04  0.7818609E-02  0.8705021E-01
        1   -1    0    0  501    0  0.00000000000E+00  0.00000000000E+00  0.21528010035E+04  0.21528010035E+04  0.50400001928E-02 0. -1.
       -1   -1    0    0    0  501  0.00000000000E+00  0.00000000000E+00 -0.37726032558E+03  0.37726032561E+03  0.50400001928E-02 0.  1.
    10030    2    1    2    0    0  0.00000000000E+00  0.00000000000E+00  0.17755406779E+04  0.25300613291E+04  0.18024055121E+04 0.  0.
        2    1    3    3  502    0 -0.62604347862E+03  0.57217234849E+03  0.46002955555E+03  0.96485171166E+03  0.25500000920E-02 0.  1.
       -2    1    3    3    0  502  0.62604347862E+03 -0.57217234849E+03  0.13155111223E+04  0.15652096174E+04  0.25500000920E-02 0. -1.
</event>
<event>
 5   0  0.9184414E-05  0.1801603E+04  0.7818609E-02  0.8705447E-01
       -2   -1    0    0    0  501  0.00000000000E+00  0.00000000000E+00  0.46017376202E+03  0.46017376203E+03  0.25500000920E-02 0.  1.
        2   -1    0    0  501    0  0.00000000000E+00  0.00000000000E+00 -0.17633417025E+04  0.17633417025E+04  0.25500000920E-02 0. -1.
    10030    2    1    2    0    0  0.00000000000E+00  0.00000000000E+00 -0.13031679405E+04  0.22235154645E+04  0.18016032693E+04 0.  0.
        5    1    3    3  502    0  0.27218595970E+03  0.54951917754E+03  0.16275971886E+03  0.63448352163E+03  0.46999998093E+01 0.  1.
       -5    1    3    3    0  502 -0.27218595970E+03 -0.54951917754E+03 -0.14659276593E+04  0.15890319429E+04  0.46999998093E+01 0. -1.
</event>
<event>
 5   0  0.4623665E-05  0.1803202E+04  0.7818609E-02  0.8704599E-01
        1   -1    0    0  501    0  0.00000000000E+00  0.00000000000E+00  0.14450319045E+04  0.14450319045E+04  0.50400001928E-02 0. -1.
       -1   -1    0    0    0  501  0.00000000000E+00  0.00000000000E+00 -0.56253716957E+03  0.56253716959E+03  0.50400001928E-02 0.  1.
    10030    2    1    2    0    0  0.00000000000E+00  0.00000000000E+00  0.88249473495E+03  0.20075690741E+04  0.18032017719E+04 0.  0.
        5    1    3    3  502    0  0.15772958447E+03  0.64549017907E+03 -0.23718065426E+03  0.70555860554E+03  0.46999998093E+01 0.  1.
       -5    1    3    3    0  502 -0.15772958447E+03 -0.64549017907E+03  0.11196753892E+04  0.13020104686E+04  0.46999998093E+01 0. -1.
</event>
<event>
 5   0  0.4335117E-05  0.1804458E+04  0.7818609E-02  0.8703933E-01
       -1   -1    0    0    0  501  0.00000000000E+00  0.00000000000E+00  0.79515416972E+03  0.79515416973E+03  0.50400001928E-02 0. -1.
        1   -1    0    0  501    0  0.00000000000E+00  0.00000000000E+00 -0.10237220746E+04  0.10237220746E+04  0.50400001928E-02 0.  1.
    10030    2    1    2    0    0  0.00000000000E+00  0.00000000000E+00 -0.22856790488E+03  0.18188762443E+04  0.18044576762E+04 0.  0.
        3    1    3    3  502    0  0.15851625905E+03  0.74469379523E+02  0.77785530128E+03  0.79732802083E+03  0.10100000352E+00 0. -1.
       -3    1    3    3    0  502 -0.15851625905E+03 -0.74469379523E+02 -0.10064232062E+04  0.10215482235E+04  0.10100000352E+00 0.  1.
</event>
<event>
 5   0  0.4623665E-05  0.1791988E+04  0.7818609E-02  0.8710572E-01
       -1   -1    0    0    0  501  0.00000000000E+00  0.00000000000E+00  0.70563745339E+03  0.70563745341E+03  0.50400001928E-02 0. -1.
        1   -1    0    0  501    0  0.00000000000E+00  0.00000000000E+00 -0.11377020446E+04  0.11377020446E+04  0.50400001928E-02 0.  1.
    10030    2    1    2    0    0  0.00000000000E+00  0.00000000000E+00 -0.43206459124E+03  0.18433394981E+04  0.17919879168E+04 0.  0.
        5    1    3    3  502    0  0.43685976854E+03 -0.30158470274E+03  0.52644324354E+03  0.74763919705E+03  0.46999998093E+01 0. -1.
       -5    1    3    3    0  502 -0.43685976854E+03  0.30158470274E+03 -0.95850783478E+03  0.10957003010E+04  0.46999998093E+01 0.  1.
</event>
<event>
 5   0  0.4535100E-05  0.1801889E+04  0.7818609E-02  0.8705296E-01
       -1   -1    0    0    0  501  0.00000000000E+00  0.00000000000E+00  0.10755321919E+04  0.10755321919E+04  0.50400001928E-02 0.  1.
        1   -1    0    0  501    0  0.00000000000E+00  0.00000000000E+00 -0.75469667023E+03  0.75469667025E+03  0.50400001928E-02 0. -1.
    10030    2    1    2    0    0  0.00000000000E+00  0.00000000000E+00  0.32083552171E+03  0.18302288622E+04  0.18018885249E+04 0.  0.
        1    1    3    3  502    0  0.61419302192E+03 -0.31556877416E+03  0.74821098946E+03  0.10181534286E+04  0.50400001928E-02 0.  1.
       -1    1    3    3    0  502 -0.61419302192E+03  0.31556877416E+03 -0.42737546775E+03  0.81207543360E+03  0.50400001928E-02 0. -1.
</event>
<event>
 5   0  0.8802655E-05  0.1799033E+04  0.7818609E-02  0.8706814E-01
        2   -1    0    0  501    0  0.00000000000E+00  0.00000000000E+00  0.89634032379E+03  0.89634032380E+03  0.25500000920E-02 0.  1.
       -2   -1    0    0    0  501  0.00000000000E+00  0.00000000000E+00 -0.90270387309E+03  0.90270387309E+03  0.25500000920E-02 0. -1.
    10030    2    1    2    0    0  0.00000000000E+00  0.00000000000E+00 -0.63635492954E+01  0.17990441969E+04  0.17990329423E+04 0.  0.
        2    1    3    3  502    0  0.51923998368E+03  0.31599549096E+03 -0.66625950159E+03  0.90186752598E+03  0.25500000920E-02 0. -1.
       -2    1    3    3    0  502 -0.51923998368E+03 -0.31599549096E+03  0.65989595229E+03  0.89717667090E+03  0.25500000920E-02 0.  1.
</event>
<event>
 5   0  0.8893075E-05  0.1790163E+04  0.7818609E-02  0.8711548E-01
        2   -1    0    0  501    0  0.00000000000E+00  0.00000000000E+00  0.19472253687E+04  0.19472253687E+04  0.25500000920E-02 0. -1.
       -2   -1    0    0    0  501  0.00000000000E+00  0.00000000000E+00 -0.41144229397E+03  0.41144229398E+03  0.25500000920E-02 0.  1.
    10030    2    1    2    0    0  0.00000000000E+00  0.00000000000E+00  0.15357830747E+04  0.23586676627E+04  0.17901629787E+04 0.  0.
        1    1    3    3  502    0 -0.38943697912E+03 -0.13985205179E+03  0.18136408940E+04  0.18602454272E+04  0.50400001928E-02 0. -1.
       -1    1    3    3    0  502  0.38943697912E+03  0.13985205179E+03 -0.27785781924E+03  0.49842223549E+03  0.50400001928E-02 0.  1.
</event>
<event>
 5   0  0.4623665E-05  0.1805023E+04  0.7818609E-02  0.8703633E-01
        1   -1    0    0  501    0  0.00000000000E+00  0.00000000000E+00  0.64928577841E+03  0.64928577843E+03  0.50400001928E-02 0. -1.
       -1   -1    0    0    0  501  0.00000000000E+00  0.00000000000E+00 -0.12544974951E+04  0.12544974951E+04  0.50400001928E-02 0.  1.
    10030    2    1    2    0    0  0.00000000000E+00  0.00000000000E+00 -0.60521171670E+03  0.19037832736E+04  0.18050234155E+04 0.  0.
        5    1    3    3  502    0 -0.29818083991E+03 -0.59028353457E+03  0.34512830795E+03  0.74597728077E+03  0.46999998093E+01 0. -1.
       -5    1    3    3    0  502  0.29818083991E+03  0.59028353457E+03 -0.95034002465E+03  0.11578059928E+04  0.46999998093E+01 0.  1.
</event>
<event>
 5   0  0.4578107E-05  0.1802073E+04  0.7818609E-02  0.8705198E-01
        1   -1    0    0  501    0  0.00000000000E+00  0.00000000000E+00  0.89296805697E+03  0.89296805699E+03  0.50400001928E-02 0. -1.
       -1   -1    0    0    0  501  0.00000000000E+00  0.00000000000E+00 -0.90917772969E+03  0.90917772971E+03  0.50400001928E-02 0.  1.
    10030    2    1    2    0    0  0.00000000000E+00  0.00000000000E+00 -0.16209672721E+02  0.18021457867E+04  0.18020728850E+04 0.  0.
        2    1    3    3  502    0 -0.25544199711E+03  0.73579606154E+03  0.44492586581E+03  0.89699804021E+03  0.25500000920E-02 0. -1.
       -2    1    3    3    0  502  0.25544199711E+03 -0.73579606154E+03 -0.46113553853E+03  0.90514774648E+03  0.25500000920E-02 0.  1.
</event>
<event>
 5   0  0.4335117E-05  0.1786854E+04  0.7818609E-02  0.8713322E-01
       -1   -1    0    0    0  501  0.00000000000E+00  0.00000000000E+00  0.14951558621E+04  0.14951558621E+04  0.50400001928E-02 0. -1.
        1   -1    0    0  501    0  0.00000000000E+00  0.00000000000E+00 -0.53386535105E+03  0.53386535107E+03  0.50400001928E-02 0.  1.
    10030    2    1    2    0    0  0.00000000000E+00  0.00000000000E+00  0.96129051109E+03  0.20290212132E+04  0.17868541174E+04 0.  0.
        3    1    3    3  502    0 -0.11317569839E+02 -0.74535206019E+03 -0.78576309690E+02  0.74956789396E+03  0.10100000352E+00 0.  1.
       -3    1    3    3    0  502  0.11317569839E+02  0.74535206019E+03  0.10398668208E+04  0.12794533193E+04  0.10100000352E+00 0. -1.
</event>
<event>
 5   0  0.8802655E-05  0.1797609E+04  0.7818609E-02  0.8707572E-01
        2   -1    0    0  501    0  0.00000000000E+00  0.00000000000E+00  0.16808087798E+04  0.16808087798E+04  0.25500000920E-02 0. -1.
       -2   -1    0    0    0  501  0.00000000000E+00  0.00000000000E+00 -0.48063158891E+03  0.48063158892E+03  0.25500000920E-02 0.  1.
    10030    2    1    2    0    0  0.00000000000E+00  0.00000000000E+00  0.12001771909E+04  0.21614403687E+04  0.17976092951E+04 0.  0.
        2    1    3    3  502    0 -0.41210840341E+03  0.17000343740E+03  0.15385095651E+04  0.16017946769E+04  0.25500000920E-02 0. -1.
       -2    1    3    3    0  502  0.41210840341E+03 -0.17000343740E+03 -0.33833237427E+03  0.55964569182E+03  0.25500000920E-02 0.  1.
</event>
<event>
 5   0  0.8893075E-05  0.1804393E+04  0.7818609E-02  0.8703967E-01
       -2   -1    0    0    0  501  0.00000000000E+00  0.00000000000E+00  0.96998324096E+03  0.96998324096E+03  0.25500000920E-02 0.  1.
        2   -1    0    0  501    0  0.00000000000E+00  0.00000000000E+00 -0.83914699359E+03  0.83914699359E+03  0.25500000920E-02 0. -1.
    10030    2    1    2    0    0  0.00000000000E+00  0.00000000000E+00  0.13083624737E+03  0.18091302346E+04  0.18043929954E+04 0.  0.
        1    1    3    3  502    0 -0.19197872581E+03  0.96897266374E+02  0.94391115107E+03  0.96809770816E+03  0.50400001928E-02 0.  1.
       -1    1    3    3    0  502  0.19197872581E+03 -0.96897266374E+02 -0.81307490370E+03  0.84103252639E+03  0.50400001928E-02 0. -1.
</event>
<event>
 5   0  0.4535100E-05  0.1793596E+04  0.7818609E-02  0.8709712E-01
       -1   -1    0    0    0  501  0.00000000000E+00  0.00000000000E+00  0.53860402064E+03  0.53860402067E+03  0.50400001928E-02 0.  1.
        1   -1    0    0  501    0  0.00000000000E+00  0.00000000000E+00 -0.14932065058E+04  0.14932065059E+04  0.50400001928E-02 0. -1.
    10030    2    1    2    0    0  0.00000000000E+00  0.00000000000E+00 -0.95460248520E+03  0.20318105265E+04  0.17935964181E+04 0.  0.
        1    1    3    3  502    0  0.62209506135E+03  0.22256685424E+03 -0.11642280496E+04  0.13386430523E+04  0.50400001928E-02 0. -1.
       -1    1    3    3    0  502 -0.62209506135E+03 -0.22256685424E+03  0.20962556444E+03  0.69316747418E+03  0.50400001928E-02 0.  1.
</event>
<event>
 5   0  0.8802655E-05  0.1789686E+04  0.7818609E-02  0.8711804E-01
       -2   -1    0    0    0  501  0.00000000000E+00  0.00000000000E+00  0.33884417192E+03  0.33884417193E+03  0.25500000920E-02 0.  1.
        2   -1    0    0  501    0  0.00000000000E+00  0.00000000000E+00 -0.23631635634E+04  0.23631635634E+04  0.25500000920E-02 0. -1.
    10030    2    1    2    0    0  0.00000000000E+00  0.00000000000E+00 -0.20243193915E+04  0.27020077353E+04  0.17896862303E+04 0.  0.
        2    1    3    3  502    0  0.66487982518E+03 -0.10668950156E+03 -0.19018929292E+04  0.20175838386E+04  0.25500000920E-02 0.  1.
       -2    1    3    3    0  502 -0.66487982518E+03  0.10668950156E+03 -0.12242646224E+03  0.68442389668E+03  0.25500000920E-02 0. -1.
</event>
<event>
 5   0  0.4494757E-05  0.1795474E+04  0.7818609E-02  0.8708710E-01
       -1   -1    0    0    0  501  0.00000000000E+00  0.00000000000E+00  0.45589606771E+03  0.45589606774E+03  0.50400001928E-02 0. -1.
        1   -1    0    0  501    0  0.00000000000E+00  0.00000000000E+00 -0.17677974266E+04  0.17677974266E+04  0.50400001928E-02 0.  1.
    10030    2    1    2    0    0  0.00000000000E+00  0.00000000000E+00 -0.13119013588E+04  0.22236934943E+04  0.17954741940E+04 0.  0.
        4    1    3    3  502    0  0.52792109069E+03 -0.58207703110E+03 -0.11835648245E+03  0.79468498033E+03  0.12699999809E+01 0. -1.
       -4    1    3    3    0  502 -0.52792109069E+03  0.58207703110E+03 -0.11935448764E+04  0.14290085140E+04  0.12699999809E+01 0.  1.
</event>
<event>
 5   0  0.4335117E-05  0.1800671E+04  0.7818609E-02  0.8705943E-01
       -1   -1    0    0    0  501  0.00000000000E+00  0.00000000000E+00  0.55211809816E+03  0.55211809819E+03  0.50400001928E-02 0. -1.
        1   -1    0    0  501    0  0.00000000000E+00  0.00000000000E+00 -0.14681720115E+04  0.14681720115E+04  0.50400001928E-02 0.  1.
    10030    2    1    2    0    0  0.00000000000E+00  0.00000000000E+00 -0.91605391332E+03  0.20202901097E+04  0.18006713623E+04 0.  0.
        3    1    3    3  502    0 -0.74453127667E+02 -0.79913172921E+03 -0.28515001093E+00  0.80259259925E+03  0.10100000352E+00 0. -1.
       -3    1    3    3    0  502  0.74453127667E+02  0.79913172921E+03 -0.91576876331E+03  0.12176975104E+04  0.10100000352E+00 0.  1.
</event>
<event>
 5   0  0.9184414E-05  0.1786823E+04  0.7818609E-02  0.8713338E-01
        2   -1    0    0  501    0  0.00000000000E+00  0.00000000000E+00  0.10459871531E+04  0.10459871531E+04  0.25500000920E-02 0.  1.
       -2   -1    0    0    0  501  0.00000000000E+00  0.00000000000E+00 -0.76309165452E+03  0.76309165453E+03  0.25500000920E-02 0. -1.
    10030    2    1    2    0    0  0.00000000000E+00  0.00000000000E+00  0.28289549862E+03  0.18090788077E+04  0.17868229541E+04 0.  0.
        5    1    3    3  502    0 -0.46819903854E+03 -0.74808262000E+03  0.70538928656E+00  0.88253075504E+03  0.46999998093E+01 0. -1.
       -5    1    3    3    0  502  0.46819903854E+03  0.74808262000E+03  0.28219010934E+03  0.92654805263E+03  0.46999998093E+01 0.  1.
</event>
<event>
 5   0  0.8802655E-05  0.1794485E+04  0.7818609E-02  0.8709238E-01
       -2   -1    0    0    0  501  0.00000000000E+00  0.00000000000E+00  0.65261037934E+03  0.65261037934E+03  0.25500000920E-02 0. -1.
        2   -1    0    0  501    0  0.00000000000E+00  0.00000000000E+00 -0.12335759318E+04  0.12335759318E+04  0.25500000920E-02 0.  1.
    10030    2    1    2    0    0  0.00000000000E+00  0.00000000000E+00 -0.58096555242E+03  0.18861863111E+04  0.17944853934E+04 0.  0.
        2    1    3    3  502    0 -0.48129138524E+03  0.17979804592E+03  0.48268489217E+03  0.70494924637E+03  0.25500000920E-02 0. -1.
       -2    1    3    3    0  502  0.48129138524E+03 -0.17979804592E+03 -0.10636504446E+04  0.11812370647E+04  0.25500000920E-02 0.  1.
</event>
<event>
 5   0  0.3270375E-05  0.1801144E+04  0.7818609E-02  0.8705691E-01
       -3   -1    0    0    0  501  0.00000000000E+00  0.00000000000E+00  0.11435358655E+04  0.11435358700E+04  0.10100000352E+00 0.  1.
        3   -1    0    0  501    0  0.00000000000E+00  0.00000000000E+00 -0.70923001025E+03  0.70923001744E+03  0.10100000352E+00 0. -1.
    10030    2    1    2    0    0  0.00000000000E+00  0.00000000000E+00  0.43430585529E+03  0.18527658874E+04  0.18011440414E+04 0.  0.
        4    1    3    3  502    0 -0.74707701772E+03  0.44836811098E+03 -0.17125098500E+02  0.87146595760E+03  0.12699999809E+01 0. -1.
       -4    1    3    3    0  502  0.74707701772E+03 -0.44836811098E+03  0.45143095379E+03  0.98129992984E+03  0.12699999809E+01 0.  1.
</event>
<event>
 5   0  0.4623665E-05  0.1800091E+04  0.7818609E-02  0.8706251E-01
        1   -1    0    0  501    0  0.00000000000E+00  0.00000000000E+00  0.84321772780E+03  0.84321772781E+03  0.50400001928E-02 0.  1.
       -1   -1    0    0    0  501  0.00000000000E+00  0.00000000000E+00 -0.96070363765E+03  0.96070363767E+03  0.50400001928E-02 0. -1.
    10030    2    1    2    0    0  0.00000000000E+00  0.00000000000E+00 -0.11748590985E+03  0.18039213655E+04  0.18000914848E+04 0.  0.
        5    1    3    3  502    0  0.29873023139E+03 -0.38562101142E+03  0.69925044771E+03  0.85259403834E+03  0.46999998093E+01 0.  1.
       -5    1    3    3    0  502 -0.29873023139E+03  0.38562101142E+03 -0.81673635757E+03  0.95132732714E+03  0.46999998093E+01 0. -1.
</event>
<event>
 5   0  0.4578107E-05  0.1798456E+04  0.7818609E-02  0.8707121E-01
        1   -1    0    0  501    0  0.00000000000E+00  0.00000000000E+00  0.20018277558E+04  0.20018277558E+04  0.50400001928E-02 0.  1.
       -1   -1    0    0    0  501  0.00000000000E+00  0.00000000000E+00 -0.40393618114E+03  0.40393618117E+03  0.50400001928E-02 0. -1.
    10030    2    1    2    0    0  0.00000000000E+00  0.00000000000E+00  0.15978915746E+04  0.24057639370E+04  0.17984556253E+04 0.  0.
        2    1    3    3  502    0 -0.74410679444E+02 -0.89547399797E+03  0.84528504902E+03  0.12336601819E+04  0.25500000920E-02 0. -1.
       -2    1    3    3    0  502  0.74410679444E+02  0.89547399797E+03  0.75260652562E+03  0.11721037551E+04  0.25500000920E-02 0.  1.
</event>
<event>
 5   0  0.4535100E-05  0.1801069E+04  0.7818609E-02  0.8705731E-01
       -1   -1    0    0    0  501  0.00000000000E+00  0.00000000000E+00  0.12595103127E+04  0.12595103127E+04  0.50400001928E-02 0. -1.
        1   -1    0    0  501    0  0.00000000000E+00  0.00000000000E+00 -0.64387142469E+03  0.64387142471E+03  0.50400001928E-02 0.  1.
    10030    2    1    2    0    0  0.00000000000E+00  0.00000000000E+00  0.61563888797E+03  0.19033817374E+04  0.18010693484E+04 0.  0.
        1    1    3    3  502    0 -0.11609100223E+03  0.84916109788E+03  0.59994760755E+03  0.10461781984E+04  0.50400001928E-02 0. -1.
       -1    1    3    3    0  502  0.11609100223E+03 -0.84916109788E+03  0.15691280418E+02  0.85720353899E+03  0.50400001928E-02 0.  1.
</event>
<event>
 5   0  0.8802655E-05  0.1800867E+04  0.7818609E-02  0.8705838E-01
       -2   -1    0    0    0  501  0.00000000000E+00  0.00000000000E+00  0.53347752548E+03  0.53347752548E+03  0.25500000920E-02 0.  1.
        2   -1    0    0  501    0  0.00000000000E+00  0.00000000000E+00 -0.15198032673E+04  0.15198032673E+04  0.25500000920E-02 0. -1.
    10030    2    1    2    0    0  0.00000000000E+00  0.00000000000E+00 -0.98632574185E+03  0.20532807928E+04  0.18008674424E+04 0.  0.
        2    1    3    3  502    0  0.24109076392E+03 -0.50095831581E+03  0.31442038311E+03  0.63870507118E+03  0.25500000920E-02 0.  1.
       -2    1    3    3    0  502 -0.24109076392E+03  0.50095831581E+03 -0.13007461250E+04  0.14145757216E+04  0.25500000920E-02 0. -1.
</event>
<event>
 5   0  0.4535100E-05  0.1821491E+04  0.7818609E-02  0.8694954E-01
       -1   -1    0    0    0  501  0.00000000000E+00  0.00000000000E+00  0.13007669374E+04  0.13007669375E+04  0.50400001928E-02 0.  1.
        1   -1    0    0  501    0  0.00000000000E+00  0.00000000000E+00 -0.63766795616E+03  0.63766795618E+03  0.50400001928E-02 0. -1.
    10030    2    1    2    0    0  0.00000000000E+00  0.00000000000E+00  0.66309898128E+03  0.19384348936E+04  0.18214910315E+04 0.  0.
        1    1    3    3  502    0 -0.66417509516E+03 -0.48887476024E+03 -0.79693169264E+02  0.82853973320E+03  0.50400001928E-02 0. -1.
       -1    1    3    3    0  502  0.66417509516E+03  0.48887476024E+03  0.74279215054E+03  0.11098951604E+04  0.50400001928E-02 0.  1.
</event>
<event>
 5   0  0.9184414E-05  0.1800433E+04  0.7818609E-02  0.8706069E-01
       -2   -1    0    0    0  501  0.00000000000E+00  0.00000000000E+00  0.61627471060E+03  0.61627471061E+03  0.25500000920E-02 0. -1.
        2   -1    0    0  501    0  0.00000000000E+00  0.00000000000E+00 -0.13149807148E+04  0.13149807148E+04  0.25500000920E-02 0.  1.
    10030    2    1    2    0    0  0.00000000000E+00  0.00000000000E+00 -0.69870600417E+03  0.19312554254E+04  0.18004325696E+04 0.  0.
        5    1    3    3  502    0 -0.33868808213E+03 -0.13931925381E+03  0.53274286672E+03  0.64649557114E+03  0.46999998093E+01 0. -1.
       -5    1    3    3    0  502  0.33868808213E+03  0.13931925381E+03 -0.12314488709E+04  0.12847598542E+04  0.46999998093E+01 0.  1.
</event>
<event>
 5   0  0.4335117E-05  0.1760149E+04  0.7818609E-02  0.8727783E-01
       -1   -1    0    0    0  501  0.00000000000E+00  0.00000000000E+00  0.13718306192E+04  0.13718306193E+04  0.50400001928E-02 0.  1.
        1   -1    0    0  501    0  0.00000000000E+00  0.00000000000E+00 -0.56459704215E+03  0.56459704217E+03  0.50400001928E-02 0. -1.
    10030    2    1    2    0    0  0.00000000000E+00  0.00000000000E+00  0.80723357710E+03  0.19364276614E+04  0.17601494368E+04 0.  0.
        3    1    3    3  502    0 -0.66404090003E+03 -0.38157907726E+01 -0.23177709612E+03  0.70333882990E+03  0.10100000352E+00 0. -1.
       -3    1    3    3    0  502  0.66404090003E+03  0.38157907726E+01  0.10390106732E+04  0.12330888315E+04  0.10100000352E+00 0.  1.
</event>
<event>
 5   0  0.3270375E-05  0.1808800E+04  0.7818609E-02  0.8701634E-01
        3   -1    0    0  501    0  0.00000000000E+00  0.00000000000E+00  0.17896245237E+04  0.17896245265E+04  0.10100000352E+00 0.  1.
       -3   -1    0    0    0  501  0.00000000000E+00  0.00000000000E+00 -0.45704527233E+03  0.45704528349E+03  0.10100000352E+00 0. -1.
    10030    2    1    2    0    0  0.00000000000E+00  0.00000000000E+00  0.13325792514E+04  0.22466698100E+04  0.18088000924E+04 0.  0.
        2    1    3    3  502    0 -0.62632801614E+03 -0.59544604062E+02 -0.14068523670E+03  0.64468959934E+03  0.25500000920E-02 0. -1.
       -2    1    3    3    0  502  0.62632801614E+03  0.59544604062E+02  0.14732644881E+04  0.16019802107E+04  0.25500000920E-02 0.  1.
</event>
<event>
 5   0  0.4623665E-05  0.1801739E+04  0.7818609E-02  0.8705375E-01
       -1   -1    0    0    0  501  0.00000000000E+00  0.00000000000E+00  0.59076979625E+03  0.59076979627E+03  0.50400001928E-02 0. -1.
        1   -1    0    0  501    0  0.00000000000E+00  0.00000000000E+00 -0.13737432169E+04  0.13737432169E+04  0.50400001928E-02 0.  1.
    10030    2    1    2    0    0  0.00000000000E+00  0.00000000000E+00 -0.78297342063E+03  0.19645130132E+04  0.18017391602E+04 0.  0.
        5    1    3    3  502    0  0.52154445455E+03  0.14494760768E+03  0.39365499076E+03  0.66933158359E+03  0.46999998093E+01 0. -1.
       -5    1    3    3    0  502 -0.52154445455E+03 -0.14494760768E+03 -0.11766284114E+04  0.12951814296E+04  0.46999998093E+01 0.  1.
</event>
<event>
 5   0  0.8802655E-05  0.1800054E+04  0.7818609E-02  0.8706271E-01
       -2   -1    0    0    0  501  0.00000000000E+00  0.00000000000E+00  0.51318617406E+03  0.51318617407E+03  0.25500000920E-02 0.  1.
        2   -1    0    0  501    0  0.00000000000E+00  0.00000000000E+00 -0.15784688708E+04  0.15784688709E+04  0.25500000920E-02 0. -1.
    10030    2    1    2    0    0  0.00000000000E+00  0.00000000000E+00 -0.10652826968E+04  0.20916550449E+04  0.18000537778E+04 0.  0.
        2    1    3    3  502    0 -0.76264356580E+03  0.44510057908E+03 -0.33034502092E+03  0.94279773377E+03  0.25500000920E-02 0.  1.
       -2    1    3    3    0  502  0.76264356580E+03 -0.44510057908E+03 -0.73493767587E+03  0.11488573111E+04  0.25500000920E-02 0. -1.
</event>
<event>
 5   0  0.3270375E-05  0.1802367E+04  0.7818609E-02  0.8705042E-01
        3   -1    0    0  501    0  0.00000000000E+00  0.00000000000E+00  0.57142999025E+03  0.57142999918E+03  0.10100000352E+00 0. -1.
       -3   -1    0    0    0  501  0.00000000000E+00  0.00000000000E+00 -0.14212275969E+04  0.14212276005E+04  0.10100000352E+00 0.  1.
    10030    2    1    2    0    0  0.00000000000E+00  0.00000000000E+00 -0.84979760665E+03  0.19926575997E+04  0.18023674257E+04 0.  0.
        4    1    3    3  502    0 -0.75241963705E+03  0.20242671835E+03  0.75695572347E+02  0.78284309992E+03  0.12699999809E+01 0. -1.
       -4    1    3    3    0  502  0.75241963705E+03 -0.20242671835E+03 -0.92549317900E+03  0.12098144997E+04  0.12699999809E+01 0.  1.
</event>
<event>
 5   0  0.4535100E-05  0.1798671E+04  0.7818609E-02  0.8707007E-01
        1   -1    0    0  501    0  0.00000000000E+00  0.00000000000E+00  0.88267451390E+03  0.88267451392E+03  0.50400001928E-02 0.  1.
       -1   -1    0    0    0  501  0.00000000000E+00  0.00000000000E+00 -0.91631089997E+03  0.91631089999E+03  0.50400001928E-02 0. -1.
    10030    2    1    2    0    0  0.00000000000E+00  0.00000000000E+00 -0.33636386070E+02  0.17989854139E+04  0.17986709296E+04 0.  0.
        1    1    3    3  502    0  0.92678742158E+01  0.53586240097E+03 -0.73914240914E+03  0.91299830628E+03  0.50400001928E-02 0. -1.
       -1    1    3    3    0  502 -0.92678742158E+01 -0.53586240097E+03  0.70550602306E+03  0.88598710762E+03  0.50400001928E-02 0.  1.
</event>
<event>
 5   0  0.8802655E-05  0.1791747E+04  0.7818609E-02  0.8710701E-01
       -2   -1    0    0    0  501  0.00000000000E+00  0.00000000000E+00  0.40143310154E+03  0.40143310155E+03  0.25500000920E-02 0.  1.
        2   -1    0    0  501    0  0.00000000000E+00  0.00000000000E+00 -0.19993096977E+04  0.19993096977E+04  0.25500000920E-02 0. -1.
    10030    2    1    2    0    0  0.00000000000E+00  0.00000000000E+00 -0.15978765962E+04  0.24007427993E+04  0.17917467376E+04 0.  0.
        2    1    3    3  502    0  0.78742494798E+03 -0.87914012334E+02 -0.23870713024E+03  0.82749502494E+03  0.25500000920E-02 0. -1.
       -2    1    3    3    0  502 -0.78742494798E+03  0.87914012334E+02 -0.13591694660E+04  0.15732477744E+04  0.25500000920E-02 0.  1.
</event>
<event>
 5   0  0.4578107E-05  0.1774281E+04  0.7818609E-02  0.8720098E-01
       -1   -1    0    0    0  501  0.00000000000E+00  0.00000000000E+00  0.12810732450E+04  0.12810732450E+04  0.50400001928E-02 0.  1.
        1   -1    0    0  501    0  0.00000000000E+00  0.00000000000E+00 -0.61434271611E+03  0.61434271613E+03  0.50400001928E-02 0. -1.
    10030    2    1    2    0    0  0.00000000000E+00  0.00000000000E+00  0.66673052889E+03  0.18954159611E+04  0.17742807184E+04 0.  0.
        2    1    3    3  502    0 -0.44445494196E+03 -0.10720035942E+03 -0.47879329191E+03  0.66202351082E+03  0.25500000920E-02 0. -1.
       -2    1    3    3    0  502  0.44445494196E+03  0.10720035942E+03  0.11455238208E+04  0.12333924503E+04  0.25500000920E-02 0.  1.
</event>
<event>
 5   0  0.4578107E-05  0.1800243E+04  0.7818609E-02  0.8706170E-01
       -1   -1    0    0    0  501  0.00000000000E+00  0.00000000000E+00  0.17253358231E+04  0.17253358231E+04  0.50400001928E-02 0.  1.
        1   -1    0    0  501    0  0.00000000000E+00  0.00000000000E+00 -0.46960057838E+03  0.46960057841E+03  0.50400001928E-02 0. -1.
    10030    2    1    2    0    0  0.00000000000E+00  0.00000000000E+00  0.12557352448E+04  0.21949364016E+04  0.18002429841E+04 0.  0.
        2    1    3    3  502    0 -0.83751744156E+03 -0.84682791172E+01  0.10298699851E+04  0.13274559740E+04  0.25500000920E-02 0.  1.
       -2    1    3    3    0  502  0.83751744156E+03  0.84682791172E+01  0.22586525963E+03  0.86748042755E+03  0.25500000920E-02 0. -1.
</event>
<event>
 5   0  0.4494757E-05  0.1799079E+04  0.7818609E-02  0.8706789E-01
       -1   -1    0    0    0  501  0.00000000000E+00  0.00000000000E+00  0.89343199588E+03  0.89343199589E+03  0.50400001928E-02 0. -1.
        1   -1    0    0  501    0  0.00000000000E+00  0.00000000000E+00 -0.90568883191E+03  0.90568883192E+03  0.50400001928E-02 0.  1.
    10030    2    1    2    0    0  0.00000000000E+00  0.00000000000E+00 -0.12256836027E+02  0.17991208278E+04  0.17990790764E+04 0.  0.
        4    1    3    3  502    0  0.24670722875E+02  0.18991988143E+03  0.87280697037E+03  0.89357250761E+03  0.12699999809E+01 0. -1.
       -4    1    3    3    0  502 -0.24670722875E+02 -0.18991988143E+03 -0.88506380640E+03  0.90554832020E+03  0.12699999809E+01 0.  1.
</event>
<event>
 5   0  0.4494757E-05  0.1798618E+04  0.7818609E-02  0.8707035E-01
       -1   -1    0    0    0  501  0.00000000000E+00  0.00000000000E+00  0.89967816734E+03  0.89967816735E+03  0.50400001928E-02 0.  1.
        1   -1    0    0  501    0  0.00000000000E+00  0.00000000000E+00 -0.89894024335E+03  0.89894024336E+03  0.50400001928E-02 0. -1.
    10030    2    1    2    0    0  0.00000000000E+00  0.00000000000E+00  0.73792398883E+00  0.17986184107E+04  0.17986182593E+04 0.  0.
        4    1    3    3  502    0  0.53767728588E+03 -0.55552372728E+03 -0.45903484514E+03  0.89912072453E+03  0.12699999809E+01 0.  1.
       -4    1    3    3    0  502 -0.53767728588E+03  0.55552372728E+03  0.45977276913E+03  0.89949768619E+03  0.12699999809E+01 0. -1.
</event>
<event>
 5   0  0.4623665E-05  0.1806581E+04  0.7818609E-02  0.8702807E-01
       -1   -1    0    0    0  501  0.00000000000E+00  0.00000000000E+00  0.44840956562E+03  0.44840956564E+03  0.50400001928E-02 0.  1.
        1   -1    0    0  501    0  0.00000000000E+00  0.00000000000E+00 -0.18196178025E+04  0.18196178025E+04  0.50400001928E-02 0. -1.
    10030    2    1    2    0    0  0.00000000000E+00  0.00000000000E+00 -0.13712082368E+04  0.22680273681E+04  0.18065813333E+04 0.  0.
        5    1    3    3  502    0  0.32227213747E+03 -0.84219403009E+03 -0.75158053657E+03  0.11739018306E+04  0.46999998093E+01 0. -1.
       -5    1    3    3    0  502 -0.32227213747E+03  0.84219403009E+03 -0.61962770028E+03  0.10941255375E+04  0.46999998093E+01 0.  1.
</event>
<event>
 5   0  0.4335117E-05  0.1800318E+04  0.7818609E-02  0.8706130E-01
        1   -1    0    0  501    0  0.00000000000E+00  0.00000000000E+00  0.12826254151E+04  0.12826254151E+04  0.50400001928E-02 0.  1.
       -1   -1    0    0    0  501  0.00000000000E+00  0.00000000000E+00 -0.63174034505E+03  0.63174034507E+03  0.50400001928E-02 0. -1.
    10030    2    1    2    0    0  0.00000000000E+00  0.00000000000E+00  0.65088507003E+03  0.19143657602E+04  0.18003179967E+04 0.  0.
        3    1    3    3  502    0  0.10638724731E+03 -0.79988609368E+02 -0.62121839125E+03  0.63531781327E+03  0.10100000352E+00 0. -1.
       -3    1    3    3    0  502 -0.10638724731E+03  0.79988609368E+02  0.12721034613E+04  0.12790479469E+04  0.10100000352E+00 0.  1.
</event>
<event>
 5   0  0.9184414E-05  0.1807294E+04  0.7818609E-02  0.8702430E-01
        2   -1    0    0  501    0  0.00000000000E+00  0.00000000000E+00  0.93999330873E+03  0.93999330873E+03  0.25500000920E-02 0.  1.
       -2   -1    0    0    0  501  0.00000000000E+00  0.00000000000E+00 -0.86870637701E+03  0.86870637702E+03  0.25500000920E-02 0. -1.
    10030    2    1    2    0    0  0.00000000000E+00  0.00000000000E+00  0.71286931714E+02  0.18086996857E+04  0.18072943110E+04 0.  0.
        5    1    3    3  502    0 -0.68937616314E+03  0.25354176536E+03 -0.49110522851E+03  0.88358890699E+03  0.46999998093E+01 0. -1.
       -5    1    3    3    0  502  0.68937616314E+03 -0.25354176536E+03  0.56239216023E+03  0.92511077876E+03  0.46999998093E+01 0.  1.
</event>
<event>
 5   0  0.4623665E-05  0.1796464E+04  0.7818609E-02  0.8708182E-01
       -1   -1    0    0    0  501  0.00000000000E+00  0.00000000000E+00  0.35180297019E+03  0.35180297022E+03  0.50400001928E-02 0.  1.
        1   -1    0    0  501    0  0.00000000000E+00  0.00000000000E+00 -0.22933876908E+04  0.22933876908E+04  0.50400001928E-02 0. -1.
    10030    2    1    2    0    0  0.00000000000E+00  0.00000000000E+00 -0.19415847206E+04  0.26451906610E+04  0.17964638616E+04 0.  0.
        5    1    3    3  502    0 -0.72939969724E+03 -0.16855550300E+02 -0.19935238171E+03  0.75635407714E+03  0.46999998093E+01 0.  1.
       -5    1    3    3    0  502  0.72939969724E+03  0.16855550300E+02 -0.17422323389E+04  0.18888365839E+04  0.46999998093E+01 0. -1.
</event>
<event>
 5   0  0.8893075E-05  0.1808467E+04  0.7818609E-02  0.8701810E-01
        2   -1    0    0  501    0  0.00000000000E+00  0.00000000000E+00  0.74813919288E+03  0.74813919289E+03  0.25500000920E-02 0. -1.
       -2   -1    0    0    0  501  0.00000000000E+00  0.00000000000E+00 -0.10928961175E+04  0.10928961175E+04  0.25500000920E-02 0.  1.
    10030    2    1    2    0    0  0.00000000000E+00  0.00000000000E+00 -0.34475692466E+03  0.18410353104E+04  0.18084672176E+04 0.  0.
        1    1    3    3  502    0 -0.61575818432E+03  0.24159072468E+03 -0.80001544259E+03  0.10380505422E+04  0.50400001928E-02 0.  1.
       -1    1    3    3    0  502  0.61575818432E+03 -0.24159072468E+03  0.45525851793E+03  0.80298476821E+03  0.50400001928E-02 0. -1.
</event>
<event>
 5   0  0.4335117E-05  0.1791904E+04  0.7818609E-02  0.8710616E-01
       -1   -1    0    0    0  501  0.00000000000E+00  0.00000000000E+00  0.50028001735E+03  0.50028001737E+03  0.50400001928E-02 0. -1.
        1   -1    0    0  501    0  0.00000000000E+00  0.00000000000E+00 -0.16045620977E+04  0.16045620977E+04  0.50400001928E-02 0.  1.
    10030    2    1    2    0    0  0.00000000000E+00  0.00000000000E+00 -0.11042820803E+04  0.21048421151E+04  0.17919044105E+04 0.  0.
        3    1    3    3  502    0 -0.11826711953E+03 -0.87993947129E+03 -0.69334113597E+03  0.11265001224E+04  0.10100000352E+00 0.  1.
       -3    1    3    3    0  502  0.11826711953E+03  0.87993947129E+03 -0.41094094436E+03  0.97834199268E+03  0.10100000352E+00 0. -1.
</event>
<event>
 5   0  0.4494757E-05  0.1796745E+04  0.7818609E-02  0.8708032E-01
        1   -1    0    0  501    0  0.00000000000E+00  0.00000000000E+00  0.24335022900E+04  0.24335022900E+04  0.50400001928E-02 0. -1.
       -1   -1    0    0    0  501  0.00000000000E+00  0.00000000000E+00 -0.33165092626E+03  0.33165092630E+03  0.50400001928E-02 0.  1.
    10030    2    1    2    0    0  0.00000000000E+00  0.00000000000E+00  0.21018513638E+04  0.27651532163E+04  0.17967451557E+04 0.  0.
        4    1    3    3  502    0 -0.57197984576E+03 -0.10952367748E+03 -0.18027172888E+01  0.58237551681E+03  0.12699999809E+01 0.  1.
       -4    1    3    3    0  502  0.57197984576E+03  0.10952367748E+03  0.21036540811E+04  0.21827776995E+04  0.12699999809E+01 0. -1.
</event>
<event>
 5   0  0.8893075E-05  0.1799001E+04  0.7818609E-02  0.8706831E-01
       -2   -1    0    0    0  501  0.00000000000E+00  0.00000000000E+00  0.58264396730E+03  0.58264396731E+03  0.25500000920E-02 0. -1.
        2   -1    0    0  501    0  0.00000000000E+00  0.00000000000E+00 -0.13886711989E+04  0.13886711989E+04  0.25500000920E-02 0.  1.
    10030    2    1    2    0    0  0.00000000000E+00  0.00000000000E+00 -0.80602723160E+03  0.19713151662E+04  0.17990007189E+04 0.  0.
        1    1    3    3  502    0  0.66009972875E+03  0.52536046480E+03 -0.74493601966E+03  0.11254621021E+04  0.50400001928E-02 0.  1.
       -1    1    3    3    0  502 -0.66009972875E+03 -0.52536046480E+03 -0.61091211945E+02  0.84585306411E+03  0.50400001928E-02 0. -1.
</event>
<event>
 5   0  0.9147432E-05  0.1806656E+04  0.7818609E-02  0.8702768E-01
        2   -1    0    0  501    0  0.00000000000E+00  0.00000000000E+00  0.12868037838E+04  0.12868037839E+04  0.25500000920E-02 0.  1.
       -2   -1    0    0    0  501  0.00000000000E+00  0.00000000000E+00 -0.63413078231E+03  0.63413078231E+03  0.25500000920E-02 0. -1.
    10030    2    1    2    0    0  0.00000000000E+00  0.00000000000E+00  0.65267300154E+03  0.19209345662E+04  0.18066564589E+04 0.  0.
        3    1    3    3  502    0 -0.82444879492E+03  0.24079324255E+03  0.28806440805E+02  0.85937594936E+03  0.10100000352E+00 0.  1.
       -3    1    3    3    0  502  0.82444879492E+03 -0.24079324255E+03  0.62386656074E+03  0.10615586168E+04  0.10100000352E+00 0. -1.
</event>
<event>
 5   0  0.8893075E-05  0.1821019E+04  0.7818609E-02  0.8695201E-01
        2   -1    0    0  501    0  0.00000000000E+00  0.00000000000E+00  0.57565686179E+03  0.57565686180E+03  0.25500000920E-02 0. -1.
       -2   -1    0    0    0  501  0.00000000000E+00  0.00000000000E+00 -0.14401411779E+04  0.14401411779E+04  0.25500000920E-02 0.  1.
    10030    2    1    2    0    0  0.00000000000E+00  0.00000000000E+00 -0.86448431615E+03  0.20157980397E+04  0.18210185623E+04 0.  0.
        1    1    3    3  502    0  0.96355770809E+02 -0.18716243952E+03 -0.14128334953E+04  0.14284301519E+04  0.50400001928E-02 0.  1.
       -1    1    3    3    0  502 -0.96355770809E+02  0.18716243952E+03  0.54834917917E+03  0.58736788783E+03  0.50400001928E-02 0. -1.
</event>
<event>
 5   0  0.9147432E-05  0.1823659E+04  0.7818609E-02  0.8693818E-01
        2   -1    0    0  501    0  0.00000000000E+00  0.00000000000E+00  0.14599571704E+04  0.14599571704E+04  0.25500000920E-02 0.  1.
       -2   -1    0    0    0  501  0.00000000000E+00  0.00000000000E+00 -0.56949132100E+03  0.56949132100E+03  0.25500000920E-02 0. -1.
    10030    2    1    2    0    0  0.00000000000E+00  0.00000000000E+00  0.89046584943E+03  0.20294484914E+04  0.18236588909E+04 0.  0.
        3    1    3    3  502    0 -0.15784489433E+03  0.10097441604E+03  0.14383005066E+04  0.14504548255E+04  0.10100000352E+00 0.  1.
       -3    1    3    3    0  502  0.15784489433E+03 -0.10097441604E+03 -0.54783465718E+03  0.57899366591E+03  0.10100000352E+00 0. -1.
</event>
<event>
 5   0  0.8802655E-05  0.1786809E+04  0.7818609E-02  0.8713346E-01
       -2   -1    0    0    0  501  0.00000000000E+00  0.00000000000E+00  0.73746868247E+03  0.73746868247E+03  0.25500000920E-02 0.  1.
        2   -1    0    0  501    0  0.00000000000E+00  0.00000000000E+00 -0.10823130290E+04  0.10823130290E+04  0.25500000920E-02 0. -1.
    10030    2    1    2    0    0  0.00000000000E+00  0.00000000000E+00 -0.34484434655E+03  0.18197817115E+04  0.17868094062E+04 0.  0.
        2    1    3    3  502    0  0.84834048602E+03 -0.10342450199E+03  0.92754863369E+02  0.85964043211E+03  0.25500000920E-02 0.  1.
       -2    1    3    3    0  502 -0.84834048602E+03  0.10342450199E+03 -0.43759920992E+03  0.96014127938E+03  0.25500000920E-02 0. -1.
</event>
<event>
 5   0  0.8893075E-05  0.1820271E+04  0.7818609E-02  0.8695593E-01
       -2   -1    0    0    0  501  0.00000000000E+00  0.00000000000E+00  0.10814640531E+04  0.10814640531E+04  0.25500000920E-02 0. -1.
        2   -1    0    0  501    0  0.00000000000E+00  0.00000000000E+00 -0.76594921945E+03  0.76594921945E+03  0.25500000920E-02 0.  1.
    10030    2    1    2    0    0  0.00000000000E+00  0.00000000000E+00  0.31551483366E+03  0.18474132726E+04  0.18202709110E+04 0.  0.
        1    1    3    3  502    0  0.33112548734E+03  0.82014580642E+02 -0.69861117021E+03  0.77744970704E+03  0.50400001928E-02 0.  1.
       -1    1    3    3    0  502 -0.33112548734E+03 -0.82014580642E+02  0.10141260039E+04  0.10699635655E+04  0.50400001928E-02 0. -1.
</event>
<event>
 5   0  0.4623665E-05  0.1809790E+04  0.7818609E-02  0.8701111E-01
       -1   -1    0    0    0  501  0.00000000000E+00  0.00000000000E+00  0.66293261961E+03  0.66293261963E+03  0.50400001928E-02 0. -1.
        1   -1    0    0  501    0  0.00000000000E+00  0.00000000000E+00 -0.12351704033E+04  0.12351704033E+04  0.50400001928E-02 0.  1.
    10030    2    1    2    0    0  0.00000000000E+00  0.00000000000E+00 -0.57223778366E+03  0.18981030229E+04  0.18097897681E+04 0.  0.
        5    1    3    3  502    0  0.63468950991E+03 -0.18798193345E+03 -0.93318929296E+03  0.11441295066E+04  0.46999998093E+01 0.  1.
       -5    1    3    3    0  502 -0.63468950991E+03  0.18798193345E+03  0.36095150930E+03  0.75397351635E+03  0.46999998093E+01 0. -1.
</event>
<event>
 5   0  0.4623665E-05  0.1823353E+04  0.7818609E-02  0.8693979E-01
       -1   -1    0    0    0  501  0.00000000000E+00  0.00000000000E+00  0.11757930997E+04  0.11757930997E+04  0.50400001928E-02 0.  1.
        1   -1    0    0  501    0  0.00000000000E+00  0.00000000000E+00 -0.70688766681E+03  0.70688766683E+03  0.50400001928E-02 0. -1.
    10030    2    1    2    0    0  0.00000000000E+00  0.00000000000E+00  0.46890543286E+03  0.18826807665E+04  0.18233525615E+04 0.  0.
        5    1    3    3  502    0 -0.35191208799E+01 -0.48241938397E+03  0.10331798787E+04  0.11402734750E+04  0.46999998093E+01 0.  1.
       -5    1    3    3    0  502  0.35191208799E+01  0.48241938397E+03 -0.56427444579E+03  0.74240729147E+03  0.46999998093E+01 0. -1.
</event>
<event>
 5   0  0.8802655E-05  0.1803674E+04  0.7818609E-02  0.8704348E-01
        2   -1    0    0  501    0  0.00000000000E+00  0.00000000000E+00  0.19175674055E+04  0.19175674055E+04  0.25500000920E-02 0.  1.
       -2   -1    0    0    0  501  0.00000000000E+00  0.00000000000E+00 -0.42413610966E+03  0.42413610967E+03  0.25500000920E-02 0. -1.
    10030    2    1    2    0    0  0.00000000000E+00  0.00000000000E+00  0.14934312959E+04  0.23417035152E+04  0.18036735618E+04 0.  0.
        2    1    3    3  502    0  0.30390523200E+03  0.58654933076E+03  0.15437800548E+04  0.16791829457E+04  0.25500000920E-02 0.  1.
       -2    1    3    3    0  502 -0.30390523200E+03 -0.58654933076E+03 -0.50348758963E+02  0.66252056949E+03  0.25500000920E-02 0. -1.
</event>
<event>
 5   0  0.4335117E-05  0.1751448E+04  0.7818609E-02  0.8732554E-01
        1   -1    0    0  501    0  0.00000000000E+00  0.00000000000E+00  0.14296501750E+04  0.14296501750E+04  0.50400001928E-02 0.  1.
       -1   -1    0    0    0  501  0.00000000000E+00  0.00000000000E+00 -0.53641965058E+03  0.53641965060E+03  0.50400001928E-02 0. -1.
    10030    2    1    2    0    0  0.00000000000E+00  0.00000000000E+00  0.89323052441E+03  0.19660698256E+04  0.17514479123E+04 0.  0.
        3    1    3    3  502    0 -0.26156816298E+03 -0.39824928546E+03 -0.37818184633E+03  0.60831070708E+03  0.10100000352E+00 0. -1.
       -3    1    3    3    0  502  0.26156816298E+03  0.39824928546E+03  0.12714123707E+04  0.13577591185E+04  0.10100000352E+00 0.  1.
</event>
<event>
 5   0  0.4623665E-05  0.1793801E+04  0.7818609E-02  0.8709603E-01
       -1   -1    0    0    0  501  0.00000000000E+00  0.00000000000E+00  0.56552192869E+03  0.56552192871E+03  0.50400001928E-02 0. -1.
        1   -1    0    0  501    0  0.00000000000E+00  0.00000000000E+00 -0.14224573590E+04  0.14224573591E+04  0.50400001928E-02 0.  1.
    10030    2    1    2    0    0  0.00000000000E+00  0.00000000000E+00 -0.85693543035E+03  0.19879792878E+04  0.17938013593E+04 0.  0.
        5    1    3    3  502    0 -0.47089816961E+03 -0.43263316560E+03 -0.11254254885E+04  0.12944192374E+04  0.46999998093E+01 0.  1.
       -5    1    3    3    0  502  0.47089816961E+03  0.43263316560E+03  0.26849005812E+03  0.69356005034E+03  0.46999998093E+01 0. -1.
</event>
<event>
 5   0  0.9184414E-05  0.1811401E+04  0.7818609E-02  0.8700260E-01
       -2   -1    0    0    0  501  0.00000000000E+00  0.00000000000E+00  0.84335607558E+03  0.84335607558E+03  0.25500000920E-02 0. -1.
        2   -1    0    0  501    0  0.00000000000E+00  0.00000000000E+00 -0.97265384375E+03  0.97265384376E+03  0.25500000920E-02 0.  1.
    10030    2    1    2    0    0  0.00000000000E+00  0.00000000000E+00 -0.12929776818E+03  0.18160099193E+04  0.18114011467E+04 0.  0.
        5    1    3    3  502    0 -0.62016335002E+03 -0.56129340544E+03  0.28353660477E+03  0.88321456280E+03  0.46999998093E+01 0. -1.
       -5    1    3    3    0  502  0.62016335002E+03  0.56129340544E+03 -0.41283437295E+03  0.93279535654E+03  0.46999998093E+01 0.  1.
</event>
<event>
 5   0  0.9147432E-05  0.1792287E+04  0.7818609E-02  0.8710412E-01
        2   -1    0    0  501    0  0.00000000000E+00  0.00000000000E+00  0.18998746683E+04  0.18998746683E+04  0.25500000920E-02 0.  1.
       -2   -1    0    0    0  501  0.00000000000E+00  0.00000000000E+00 -0.42269787697E+03  0.42269787698E+03  0.25500000920E-02 0. -1.
    10030    2    1    2    0    0  0.00000000000E+00  0.00000000000E+00  0.14771767913E+04  0.23225725453E+04  0.17922867949E+04 0.  0.
        3    1    3    3  502    0  0.18057913751E+03  0.87757785922E+03  0.71536174798E+03  0.11465139182E+04  0.10100000352E+00 0. -1.
       -3    1    3    3    0  502 -0.18057913751E+03 -0.87757785922E+03  0.76181504333E+03  0.11760586271E+04  0.10100000352E+00 0.  1.
</event>
<event>
 5   0  0.4623665E-05  0.1800044E+04  0.7818609E-02  0.8706276E-01
       -1   -1    0    0    0  501  0.00000000000E+00  0.00000000000E+00  0.14625104229E+04  0.14625104229E+04  0.50400001928E-02 0. -1.
        1   -1    0    0  501    0  0.00000000000E+00  0.00000000000E+00 -0.55386902282E+03  0.55386902285E+03  0.50400001928E-02 0.  1.
    10030    2    1    2    0    0  0.00000000000E+00  0.00000000000E+00  0.90864140006E+03  0.20163794457E+04  0.18000435759E+04 0.  0.
        5    1    3    3  502    0  0.46607832244E+03 -0.68778781043E+03  0.84193671627E+03  0.11828611918E+04  0.46999998093E+01 0. -1.
       -5    1    3    3    0  502 -0.46607832244E+03  0.68778781043E+03  0.66704683792E+02  0.83351825395E+03  0.46999998093E+01 0.  1.
</event>
<event>
 5   0  0.8802655E-05  0.1808165E+04  0.7818609E-02  0.8701970E-01
       -2   -1    0    0    0  501  0.00000000000E+00  0.00000000000E+00  0.92505063899E+03  0.92505063899E+03  0.25500000920E-02 0. -1.
        2   -1    0    0  501    0  0.00000000000E+00  0.00000000000E+00 -0.88358923203E+03  0.88358923203E+03  0.25500000920E-02 0.  1.
    10030    2    1    2    0    0  0.00000000000E+00  0.00000000000E+00  0.41461406956E+02  0.18086398710E+04  0.18081645762E+04 0.  0.
        2    1    3    3  502    0  0.48685625343E+03  0.71223719746E+03  0.29108668688E+03  0.91051759798E+03  0.25500000920E-02 0. -1.
       -2    1    3    3    0  502 -0.48685625343E+03 -0.71223719746E+03 -0.24962527992E+03  0.89812227304E+03  0.25500000920E-02 0.  1.
</event>
<event>
 5   0  0.4535100E-05  0.1802012E+04  0.7818609E-02  0.8705230E-01
       -1   -1    0    0    0  501  0.00000000000E+00  0.00000000000E+00  0.10469583848E+04  0.10469583848E+04  0.50400001928E-02 0. -1.
        1   -1    0    0  501    0  0.00000000000E+00  0.00000000000E+00 -0.77540012310E+03  0.77540012311E+03  0.50400001928E-02 0.  1.
    10030    2    1    2    0    0  0.00000000000E+00  0.00000000000E+00  0.27155826167E+03  0.18223585079E+04  0.18020118318E+04 0.  0.
        1    1    3    3  502    0  0.54826245779E+03 -0.30951032584E+03 -0.51603174716E+03  0.81404983172E+03  0.50400001928E-02 0.  1.
       -1    1    3    3    0  502 -0.54826245779E+03  0.30951032584E+03  0.78759000883E+03  0.10083086762E+04  0.50400001928E-02 0. -1.
</event>
<event>
 5   0  0.3270375E-05  0.1802151E+04  0.7818609E-02  0.8705156E-01
       -3   -1    0    0    0  501  0.00000000000E+00  0.00000000000E+00  0.15180064506E+04  0.15180064540E+04  0.10100000352E+00 0.  1.
        3   -1    0    0  501    0  0.00000000000E+00  0.00000000000E+00 -0.53487062873E+03  0.53487063826E+03  0.10100000352E+00 0. -1.
    10030    2    1    2    0    0  0.00000000000E+00  0.00000000000E+00  0.98313582191E+03  0.20528770923E+04  0.18021510235E+04 0.  0.
        5    1    3    3  502    0  0.14859686439E+03 -0.54705286059E+03 -0.30628160751E+03  0.64434336613E+03  0.46999998093E+01 0. -1.
       -5    1    3    3    0  502 -0.14859686439E+03  0.54705286059E+03  0.12894174294E+04  0.14085337261E+04  0.46999998093E+01 0.  1.
</event>
<event>
 5   0  0.8893075E-05  0.1798656E+04  0.7818609E-02  0.8707014E-01
        2   -1    0    0  501    0  0.00000000000E+00  0.00000000000E+00  0.55671306648E+03  0.55671306649E+03  0.25500000920E-02 0.  1.
       -2   -1    0    0    0  501  0.00000000000E+00  0.00000000000E+00 -0.14527967283E+04  0.14527967283E+04  0.25500000920E-02 0. -1.
    10030    2    1    2    0    0  0.00000000000E+00  0.00000000000E+00 -0.89608366179E+03  0.20095097948E+04  0.17986560778E+04 0.  0.
        1    1    3    3  502    0  0.53592890754E+03 -0.15518096919E+03 -0.12360562660E+04  0.13561474919E+04  0.50400001928E-02 0. -1.
       -1    1    3    3    0  502 -0.53592890754E+03  0.15518096919E+03  0.33997260420E+03  0.65336230284E+03  0.50400001928E-02 0.  1.
</event>
<event>
 5   0  0.4578107E-05  0.1840922E+04  0.7818609E-02  0.8684835E-01
        1   -1    0    0  501    0  0.00000000000E+00  0.00000000000E+00  0.17045736042E+04  0.17045736042E+04  0.50400001928E-02 0. -1.
       -1   -1    0    0    0  501  0.00000000000E+00  0.00000000000E+00 -0.49704419474E+03  0.49704419476E+03  0.50400001928E-02 0.  1.
    10030    2    1    2    0    0  0.00000000000E+00  0.00000000000E+00  0.12075294094E+04  0.22016177990E+04  0.18409219587E+04 0.  0.
        2    1    3    3  502    0 -0.67565483364E+03  0.19735366066E+03  0.13130951470E+04  0.14898579753E+04  0.25500000920E-02 0. -1.
       -2    1    3    3    0  502  0.67565483364E+03 -0.19735366066E+03 -0.10556573753E+03  0.71175982364E+03  0.25500000920E-02 0.  1.
</event>
<event>
 5   0  0.4335117E-05  0.1801156E+04  0.7818609E-02  0.8705685E-01
       -1   -1    0    0    0  501  0.00000000000E+00  0.00000000000E+00  0.63488980941E+03  0.63488980943E+03  0.50400001928E-02 0.  1.
        1   -1    0    0  501    0  0.00000000000E+00  0.00000000000E+00 -0.12774504804E+04  0.12774504804E+04  0.50400001928E-02 0. -1.
    10030    2    1    2    0    0  0.00000000000E+00  0.00000000000E+00 -0.64256067101E+03  0.19123402899E+04  0.18011555092E+04 0.  0.
        3    1    3    3  502    0  0.48204690765E+03 -0.42837113507E+03  0.34614935965E+03  0.73190876475E+03  0.10100000352E+00 0.  1.
       -3    1    3    3    0  502 -0.48204690765E+03  0.42837113507E+03 -0.98871003065E+03  0.11804315251E+04  0.10100000352E+00 0. -1.
</event>
<event>
 5   0  0.4623665E-05  0.1800325E+04  0.7818609E-02  0.8706127E-01
       -1   -1    0    0    0  501  0.00000000000E+00  0.00000000000E+00  0.71440857987E+03  0.71440857989E+03  0.50400001928E-02 0.  1.
        1   -1    0    0  501    0  0.00000000000E+00  0.00000000000E+00 -0.11342140011E+04  0.11342140011E+04  0.50400001928E-02 0. -1.
    10030    2    1    2    0    0  0.00000000000E+00  0.00000000000E+00 -0.41980542122E+03  0.18486225810E+04  0.18003246527E+04 0.  0.
        5    1    3    3  502    0 -0.74201079358E+02 -0.17045943378E+03 -0.11142735152E+04  0.11296856976E+04  0.46999998093E+01 0. -1.
       -5    1    3    3    0  502  0.74201079358E+02  0.17045943378E+03  0.69446809397E+03  0.71893688338E+03  0.46999998093E+01 0.  1.
</event>
<event>
 5   0  0.4578107E-05  0.1794302E+04  0.7818609E-02  0.8709336E-01
       -1   -1    0    0    0  501  0.00000000000E+00  0.00000000000E+00  0.71393614477E+03  0.71393614478E+03  0.50400001928E-02 0.  1.
        1   -1    0    0  501    0  0.00000000000E+00  0.00000000000E+00 -0.11273835480E+04  0.11273835481E+04  0.50400001928E-02 0. -1.
    10030    2    1    2    0    0  0.00000000000E+00  0.00000000000E+00 -0.41344740328E+03  0.18413196928E+04  0.17943019411E+04 0.  0.
        2    1    3    3  502    0  0.41163827023E+03 -0.10281706813E+02 -0.10246848914E+04  0.11043237323E+04  0.25500000920E-02 0. -1.
       -2    1    3    3    0  502 -0.41163827023E+03  0.10281706813E+02  0.61123748811E+03  0.73699596057E+03  0.25500000920E-02 0.  1.
</event>
<event>
 5   0  0.8892280E-05  0.1798964E+04  0.7818609E-02  0.8706851E-01
       -2   -1    0    0    0  501  0.00000000000E+00  0.00000000000E+00  0.14958186350E+04  0.14958186350E+04  0.25500000920E-02 0. -1.
        2   -1    0    0  501    0  0.00000000000E+00  0.00000000000E+00 -0.54088604070E+03  0.54088604070E+03  0.25500000920E-02 0.  1.
    10030    2    1    2    0    0  0.00000000000E+00  0.00000000000E+00  0.95493259431E+03  0.20367046757E+04  0.17989635006E+04 0.  0.
        4    1    3    3  502    0 -0.30038781457E+03 -0.29078319579E+03 -0.42419943948E+03  0.59559590618E+03  0.12699999809E+01 0.  1.
       -4    1    3    3    0  502  0.30038781457E+03  0.29078319579E+03  0.13791320338E+04  0.14411087695E+04  0.12699999809E+01 0. -1.
</event>
<event>
 5   0  0.4494757E-05  0.1808288E+04  0.7818609E-02  0.8701904E-01
       -1   -1    0    0    0  501  0.00000000000E+00  0.00000000000E+00  0.50734383292E+03  0.50734383294E+03  0.50400001928E-02 0.  1.
        1   -1    0    0  501    0  0.00000000000E+00  0.00000000000E+00 -0.16112867988E+04  0.16112867988E+04  0.50400001928E-02 0. -1.
    10030    2    1    2    0    0  0.00000000000E+00  0.00000000000E+00 -0.11039429659E+04  0.21186306318E+04  0.18082880528E+04 0.  0.
        4    1    3    3  502    0 -0.36347027541E+03  0.82087280144E+03 -0.42615424539E+03  0.99375643445E+03  0.12699999809E+01 0.  1.
       -4    1    3    3    0  502  0.36347027541E+03 -0.82087280144E+03 -0.67778872052E+03  0.11248741973E+04  0.12699999809E+01 0. -1.
</event>
<event>
 5   0  0.4623665E-05  0.1795989E+04  0.7818609E-02  0.8708435E-01
       -1   -1    0    0    0  501  0.00000000000E+00  0.00000000000E+00  0.43069184350E+03  0.43069184353E+03  0.50400001928E-02 0. -1.
        1   -1    0    0  501    0  0.00000000000E+00  0.00000000000E+00 -0.18723234534E+04  0.18723234534E+04  0.50400001928E-02 0.  1.
    10030    2    1    2    0    0  0.00000000000E+00  0.00000000000E+00 -0.14416316099E+04  0.23030152970E+04  0.17959893539E+04 0.  0.
        5    1    3    3  502    0 -0.75195805738E+03 -0.10292031958E+03 -0.13362429529E+04  0.15367500875E+04  0.46999998093E+01 0.  1.
       -5    1    3    3    0  502  0.75195805738E+03  0.10292031958E+03 -0.10538865706E+03  0.76626520949E+03  0.46999998093E+01 0. -1.
</event>
<event>
 5   0  0.3270375E-05  0.1811839E+04  0.7818609E-02  0.8700029E-01
       -4   -1    0    0    0  501  0.00000000000E+00  0.00000000000E+00  0.11479798121E+04  0.11479805146E+04  0.12699999809E+01 0.  1.
        4   -1    0    0  501    0  0.00000000000E+00  0.00000000000E+00 -0.71489779899E+03  0.71489892705E+03  0.12699999809E+01 0. -1.
    10030    2    1    2    0    0  0.00000000000E+00  0.00000000000E+00  0.43308201308E+03  0.18628794416E+04  0.18118387853E+04 0.  0.
        5    1    3    3  502    0  0.62743325779E+02  0.48473147442E+03  0.10007639848E+04  0.11137557948E+04  0.46999998093E+01 0.  1.
       -5    1    3    3    0  502 -0.62743325779E+02 -0.48473147442E+03 -0.56768197170E+03  0.74912364681E+03  0.46999998093E+01 0. -1.
</event>
<event>
 5   0  0.8893075E-05  0.1796638E+04  0.7818609E-02  0.8708089E-01
        2   -1    0    0  501    0  0.00000000000E+00  0.00000000000E+00  0.14222638488E+04  0.14222638488E+04  0.25500000920E-02 0.  1.
       -2   -1    0    0    0  501  0.00000000000E+00  0.00000000000E+00 -0.56738928379E+03  0.56738928379E+03  0.25500000920E-02 0. -1.
    10030    2    1    2    0    0  0.00000000000E+00  0.00000000000E+00  0.85487456505E+03  0.19896531326E+04  0.17966382681E+04 0.  0.
        1    1    3    3  502    0  0.80255565800E+03 -0.10647474641E+03 -0.36718857608E+01  0.80959615772E+03  0.50400001928E-02 0.  1.
       -1    1    3    3    0  502 -0.80255565800E+03  0.10647474641E+03  0.85854645082E+03  0.11800569749E+04  0.50400001928E-02 0. -1.
</event>
<event>
 5   0  0.9147432E-05  0.1791229E+04  0.7818609E-02  0.8710978E-01
       -2   -1    0    0    0  501  0.00000000000E+00  0.00000000000E+00  0.65459711924E+03  0.65459711925E+03  0.25500000920E-02 0.  1.
        2   -1    0    0  501    0  0.00000000000E+00  0.00000000000E+00 -0.12253721898E+04  0.12253721898E+04  0.25500000920E-02 0. -1.
    10030    2    1    2    0    0  0.00000000000E+00  0.00000000000E+00 -0.57077507058E+03  0.18799693091E+04  0.17912287464E+04 0.  0.
        3    1    3    3  502    0  0.37900449190E+03  0.74621907668E+03 -0.61998858124E+03  0.10415724489E+04  0.10100000352E+00 0. -1.
       -3    1    3    3    0  502 -0.37900449190E+03 -0.74621907668E+03  0.49213510665E+02  0.83839686015E+03  0.10100000352E+00 0.  1.
</event>
<event>
 5   0  0.9147432E-05  0.1800935E+04  0.7818609E-02  0.8705802E-01
        2   -1    0    0  501    0  0.00000000000E+00  0.00000000000E+00  0.10173585935E+04  0.10173585935E+04  0.25500000920E-02 0.  1.
       -2   -1    0    0    0  501  0.00000000000E+00  0.00000000000E+00 -0.79700704266E+03  0.79700704266E+03  0.25500000920E-02 0. -1.
    10030    2    1    2    0    0  0.00000000000E+00  0.00000000000E+00  0.22035155085E+03  0.18143656362E+04  0.18009352725E+04 0.  0.
        3    1    3    3  502    0  0.18317607313E+03 -0.65160093484E+03 -0.48814258790E+03  0.83451809350E+03  0.10100000352E+00 0. -1.
       -3    1    3    3    0  502 -0.18317607313E+03  0.65160093484E+03  0.70849413874E+03  0.97984754267E+03  0.10100000352E+00 0.  1.
</event>
<event>
 5   0  0.4494757E-05  0.1798866E+04  0.7818609E-02  0.8706903E-01
       -1   -1    0    0    0  501  0.00000000000E+00  0.00000000000E+00  0.63079414432E+03  0.63079414434E+03  0.50400001928E-02 0. -1.
        1   -1    0    0  501    0  0.00000000000E+00  0.00000000000E+00 -0.12824784354E+04  0.12824784354E+04  0.50400001928E-02 0.  1.
    10030    2    1    2    0    0  0.00000000000E+00  0.00000000000E+00 -0.65168429109E+03  0.19132725798E+04  0.17988661843E+04 0.  0.
        4    1    3    3  502    0  0.21174800331E+03  0.80315694270E+03 -0.69286860251E+03  0.10816500380E+04  0.12699999809E+01 0.  1.
       -4    1    3    3    0  502 -0.21174800331E+03 -0.80315694270E+03  0.41184311414E+02  0.83162254173E+03  0.12699999809E+01 0. -1.
</event>
<event>
 5   0  0.8893075E-05  0.1795263E+04  0.7818609E-02  0.8708823E-01
       -2   -1    0    0    0  501  0.00000000000E+00  0.00000000000E+00  0.51800647871E+03  0.51800647871E+03  0.25500000920E-02 0.  1.
        2   -1    0    0  501    0  0.00000000000E+00  0.00000000000E+00 -0.15554669446E+04  0.15554669446E+04  0.25500000920E-02 0. -1.
    10030    2    1    2    0    0  0.00000000000E+00  0.00000000000E+00 -0.10374604659E+04  0.20734734233E+04  0.17952626044E+04 0.  0.
        1    1    3    3  502    0  0.57381707821E+03 -0.68988995687E+03 -0.54526344931E+03  0.10500125814E+04  0.50400001928E-02 0. -1.
       -1    1    3    3    0  502 -0.57381707821E+03  0.68988995687E+03 -0.49219701655E+03  0.10234608419E+04  0.50400001928E-02 0.  1.
</event>
<event>
 5   0  0.4578107E-05  0.1797720E+04  0.7818609E-02  0.8707513E-01
        1   -1    0    0  501    0  0.00000000000E+00  0.00000000000E+00  0.12934957388E+04  0.12934957388E+04  0.50400001928E-02 0.  1.
       -1   -1    0    0    0  501  0.00000000000E+00  0.00000000000E+00 -0.62462451260E+03  0.62462451262E+03  0.50400001928E-02 0. -1.
    10030    2    1    2    0    0  0.00000000000E+00  0.00000000000E+00  0.66887122617E+03  0.19181202514E+04  0.17977198285E+04 0.  0.
        2    1    3    3  502    0  0.22888308810E+03 -0.79596807767E+03  0.70710824608E+03  0.10890154822E+04  0.25500000920E-02 0.  1.
       -2    1    3    3    0  502 -0.22888308810E+03  0.79596807767E+03 -0.38237019910E+02  0.82910476925E+03  0.25500000920E-02 0. -1.
</event>
<event>
 5   0  0.4535100E-05  0.1795072E+04  0.7818609E-02  0.8708924E-01
        1   -1    0    0  501    0  0.00000000000E+00  0.00000000000E+00  0.62960303274E+03  0.62960303276E+03  0.50400001928E-02 0.  1.
       -1   -1    0    0    0  501  0.00000000000E+00  0.00000000000E+00 -0.12794906774E+04  0.12794906774E+04  0.50400001928E-02 0. -1.
    10030    2    1    2    0    0  0.00000000000E+00  0.00000000000E+00 -0.64988764468E+03  0.19090937102E+04  0.17950723784E+04 0.  0.
        1    1    3    3  502    0  0.36605131406E+02  0.83781640026E+03  0.15207677030E+02  0.83875355717E+03  0.50400001928E-02 0.  1.
       -1    1    3    3    0  502 -0.36605131406E+02 -0.83781640026E+03 -0.66509532171E+03  0.10703401530E+04  0.50400001928E-02 0. -1.
</event>
<event>
 5   0  0.4623665E-05  0.1797977E+04  0.7818609E-02  0.8707376E-01
        1   -1    0    0  501    0  0.00000000000E+00  0.00000000000E+00  0.24931430618E+04  0.24931430618E+04  0.50400001928E-02 0.  1.
       -1   -1    0    0    0  501  0.00000000000E+00  0.00000000000E+00 -0.32416114990E+03  0.32416114994E+03  0.50400001928E-02 0. -1.
    10030    2    1    2    0    0  0.00000000000E+00  0.00000000000E+00  0.21689819119E+04  0.28173042117E+04  0.17979767761E+04 0.  0.
        5    1    3    3  502    0 -0.61430239966E+03  0.32885809228E+03  0.19444843359E+03  0.72342751289E+03  0.46999998093E+01 0. -1.
       -5    1    3    3    0  502  0.61430239966E+03 -0.32885809228E+03  0.19745334783E+04  0.20938766989E+04  0.46999998093E+01 0.  1.
</event>
<event>
 5   0  0.8802655E-05  0.1798654E+04  0.7818609E-02  0.8707015E-01
       -2   -1    0    0    0  501  0.00000000000E+00  0.00000000000E+00  0.63135390947E+03  0.63135390947E+03  0.25500000920E-02 0. -1.
        2   -1    0    0  501    0  0.00000000000E+00  0.00000000000E+00 -0.12810396589E+04  0.12810396589E+04  0.25500000920E-02 0.  1.
    10030    2    1    2    0    0  0.00000000000E+00  0.00000000000E+00 -0.64968574940E+03  0.19123935683E+04  0.17986543824E+04 0.  0.
        2    1    3    3  502    0 -0.34622561378E+03 -0.43833236033E+03 -0.10742407611E+04  0.12107851364E+04  0.25500000920E-02 0.  1.
       -2    1    3    3    0  502  0.34622561378E+03  0.43833236033E+03  0.42455501171E+03  0.70160843191E+03  0.25500000920E-02 0. -1.
</event>
<event>
 5   0  0.8893075E-05  0.1802802E+04  0.7818609E-02  0.8704811E-01
       -2   -1    0    0    0  501  0.00000000000E+00  0.00000000000E+00  0.41245409816E+03  0.41245409816E+03  0.25500000920E-02 0. -1.
        2   -1    0    0  501    0  0.00000000000E+00  0.00000000000E+00 -0.19699736212E+04  0.19699736212E+04  0.25500000920E-02 0.  1.
    10030    2    1    2    0    0  0.00000000000E+00  0.00000000000E+00 -0.15575195231E+04  0.23824277194E+04  0.18028019229E+04 0.  0.
        1    1    3    3  502    0 -0.53986944622E+03 -0.61012423982E+03 -0.26896862217E+03  0.85793631856E+03  0.50400001928E-02 0. -1.
       -1    1    3    3    0  502  0.53986944622E+03  0.61012423982E+03 -0.12885509009E+04  0.15244914008E+04  0.50400001928E-02 0.  1.
</event>
<event>
 5   0  0.9184414E-05  0.1800784E+04  0.7818609E-02  0.8705882E-01
        2   -1    0    0  501    0  0.00000000000E+00  0.00000000000E+00  0.10700796137E+04  0.10700796137E+04  0.25500000920E-02 0.  1.
       -2   -1    0    0    0  501  0.00000000000E+00  0.00000000000E+00 -0.75761281899E+03  0.75761281899E+03  0.25500000920E-02 0. -1.
    10030    2    1    2    0    0  0.00000000000E+00  0.00000000000E+00  0.31246679473E+03  0.18276924327E+04  0.18007843099E+04 0.  0.
        5    1    3    3  502    0 -0.71511360989E+03  0.47359425553E+03  0.43419600362E+03  0.96136738736E+03  0.46999998093E+01 0.  1.
       -5    1    3    3    0  502  0.71511360989E+03 -0.47359425553E+03 -0.12172920889E+03  0.86632504536E+03  0.46999998093E+01 0. -1.
</event>
<event>
 5   0  0.3270375E-05  0.1797019E+04  0.7818609E-02  0.8707886E-01
       -3   -1    0    0    0  501  0.00000000000E+00  0.00000000000E+00  0.55623254346E+03  0.55623255263E+03  0.10100000352E+00 0.  1.
        3   -1    0    0  501    0  0.00000000000E+00  0.00000000000E+00 -0.14514058843E+04  0.14514058878E+04  0.10100000352E+00 0. -1.
    10030    2    1    2    0    0  0.00000000000E+00  0.00000000000E+00 -0.89517334086E+03  0.20076384405E+04  0.17970188640E+04 0.  0.
        1    1    3    3  502    0 -0.71068337209E+03 -0.85757095817E+02  0.15910199629E+03  0.73330660715E+03  0.50400001928E-02 0.  1.
       -1    1    3    3    0  502  0.71068337209E+03  0.85757095817E+02 -0.10542753371E+04  0.12743318333E+04  0.50400001928E-02 0. -1.
</event>
<event>
 5   0  0.3270375E-05  0.1789201E+04  0.7818609E-02  0.8712064E-01
        4   -1    0    0  501    0  0.00000000000E+00  0.00000000000E+00  0.38216058195E+03  0.38216269218E+03  0.12699999809E+01 0. -1.
       -4   -1    0    0    0  501  0.00000000000E+00  0.00000000000E+00 -0.20941635913E+04  0.20941639764E+04  0.12699999809E+01 0.  1.
    10030    2    1    2    0    0  0.00000000000E+00  0.00000000000E+00 -0.17120030094E+04  0.24763266686E+04  0.17892007896E+04 0.  0.
        3    1    3    3  502    0 -0.62302493973E+03 -0.16700445284E+03  0.19466480876E+01  0.64502276118E+03  0.10100000352E+00 0. -1.
       -3    1    3    3    0  502  0.62302493973E+03  0.16700445284E+03 -0.17139496575E+04  0.18313039074E+04  0.10100000352E+00 0.  1.
</event>
<event>
 5   0  0.8892280E-05  0.1793243E+04  0.7818609E-02  0.8709901E-01
        2   -1    0    0  501    0  0.00000000000E+00  0.00000000000E+00  0.85015774913E+03  0.85015774913E+03  0.25500000920E-02 0. -1.
       -2   -1    0    0    0  501  0.00000000000E+00  0.00000000000E+00 -0.94562511808E+03  0.94562511808E+03  0.25500000920E-02 0.  1.
    10030    2    1    2    0    0  0.00000000000E+00  0.00000000000E+00 -0.95467368949E+02  0.17957828672E+04  0.17932434547E+04 0.  0.
        4    1    3    3  502    0 -0.53201271005E+03 -0.37729211915E+03 -0.66386265496E+03  0.93064606827E+03  0.12699999809E+01 0.  1.
       -4    1    3    3    0  502  0.53201271005E+03  0.37729211915E+03  0.56839528601E+03  0.86513679895E+03  0.12699999809E+01 0. -1.
</event>
<event>
 5   0  0.8893075E-05  0.1798456E+04  0.7818609E-02  0.8707121E-01
       -2   -1    0    0    0  501  0.00000000000E+00  0.00000000000E+00  0.76673553408E+03  0.76673553408E+03  0.25500000920E-02 0. -1.
        2   -1    0    0  501    0  0.00000000000E+00  0.00000000000E+00 -0.10546154438E+04  0.10546154438E+04  0.25500000920E-02 0.  1.
    10030    2    1    2    0    0  0.00000000000E+00  0.00000000000E+00 -0.28787990971E+03  0.18213509779E+04  0.17984561552E+04 0.  0.
        1    1    3    3  502    0  0.49699144398E+03  0.55534207990E+03 -0.65354137056E+03  0.99122229805E+03  0.50400001928E-02 0.  1.
       -1    1    3    3    0  502 -0.49699144398E+03 -0.55534207990E+03  0.36566146084E+03  0.83012867983E+03  0.50400001928E-02 0. -1.
</event>
<event>
 5   0  0.4535100E-05  0.1774553E+04  0.7818609E-02  0.8719950E-01
       -1   -1    0    0    0  501  0.00000000000E+00  0.00000000000E+00  0.66414868116E+03  0.66414868118E+03  0.50400001928E-02 0. -1.
        1   -1    0    0  501    0  0.00000000000E+00  0.00000000000E+00 -0.11853668980E+04  0.11853668980E+04  0.50400001928E-02 0.  1.
    10030    2    1    2    0    0  0.00000000000E+00  0.00000000000E+00 -0.52121821685E+03  0.18495155792E+04  0.17745533095E+04 0.  0.
        1    1    3    3  502    0 -0.45411086473E+03  0.72461174006E+03 -0.14011244137E+02  0.85526321462E+03  0.50400001928E-02 0. -1.
       -1    1    3    3    0  502  0.45411086473E+03 -0.72461174006E+03 -0.50720697272E+03  0.99425236459E+03  0.50400001928E-02 0.  1.
</event>
<event>
 5   0  0.4623665E-05  0.1798059E+04  0.7818609E-02  0.8707332E-01
       -1   -1    0    0    0  501  0.00000000000E+00  0.00000000000E+00  0.63202439965E+03  0.63202439967E+03  0.50400001928E-02 0.  1.
        1   -1    0    0  501    0  0.00000000000E+00  0.00000000000E+00 -0.12788338875E+04  0.12788338875E+04  0.50400001928E-02 0. -1.
    10030    2    1    2    0    0  0.00000000000E+00  0.00000000000E+00 -0.64680948788E+03  0.19108582872E+04  0.17980591982E+04 0.  0.
        5    1    3    3  502    0 -0.76380289033E+01 -0.51275426080E+03 -0.11081434294E+04  0.12210566005E+04  0.46999998093E+01 0. -1.
       -5    1    3    3    0  502  0.76380289033E+01  0.51275426080E+03  0.46133394150E+03  0.68980168674E+03  0.46999998093E+01 0.  1.
</event>
<event>
 5   0  0.9184414E-05  0.1782179E+04  0.7818609E-02  0.8715834E-01
       -2   -1    0    0    0  501  0.00000000000E+00  0.00000000000E+00  0.52367646436E+03  0.52367646437E+03  0.25500000920E-02 0. -1.
        2   -1    0    0  501    0  0.00000000000E+00  0.00000000000E+00 -0.15162802592E+04  0.15162802592E+04  0.25500000920E-02 0.  1.
    10030    2    1    2    0    0  0.00000000000E+00  0.00000000000E+00 -0.99260379480E+03  0.20399567235E+04  0.17821787622E+04 0.  0.
        5    1    3    3  502    0  0.69861713270E+03  0.48161058810E+03 -0.80768563919E+03  0.11714917150E+04  0.46999998093E+01 0.  1.
       -5    1    3    3    0  502 -0.69861713270E+03 -0.48161058810E+03 -0.18491815561E+03  0.86846500848E+03  0.46999998093E+01 0. -1.
</event>
<event>
 5   0  0.9184414E-05  0.1788445E+04  0.7818609E-02  0.8712468E-01
        2   -1    0    0  501    0  0.00000000000E+00  0.00000000000E+00  0.18395752609E+04  0.18395752609E+04  0.25500000920E-02 0. -1.
       -2   -1    0    0    0  501  0.00000000000E+00  0.00000000000E+00 -0.43468419915E+03  0.43468419916E+03  0.25500000920E-02 0.  1.
    10030    2    1    2    0    0  0.00000000000E+00  0.00000000000E+00  0.14048910617E+04  0.22742594600E+04  0.17884454692E+04 0.  0.
        5    1    3    3  502    0  0.20077322359E+03  0.67420737890E+01 -0.40560271650E+03  0.45264886667E+03  0.46999998093E+01 0.  1.
       -5    1    3    3    0  502 -0.20077322359E+03 -0.67420737890E+01  0.18104937782E+04  0.18216105933E+04  0.46999998093E+01 0. -1.
</event>
<event>
 5   0  0.9184414E-05  0.1763968E+04  0.7818609E-02  0.8725699E-01
       -2   -1    0    0    0  501  0.00000000000E+00  0.00000000000E+00  0.47425792696E+03  0.47425792697E+03  0.25500000920E-02 0. -1.
        2   -1    0    0  501    0  0.00000000000E+00  0.00000000000E+00 -0.16402377935E+04  0.16402377935E+04  0.25500000920E-02 0.  1.
    10030    2    1    2    0    0  0.00000000000E+00  0.00000000000E+00 -0.11659798666E+04  0.21144957205E+04  0.17639679994E+04 0.  0.
        5    1    3    3  502    0 -0.47662066740E+03  0.71750885422E+03 -0.81007445052E+03  0.11824673027E+04  0.46999998093E+01 0. -1.
       -5    1    3    3    0  502  0.47662066740E+03 -0.71750885422E+03 -0.35590541605E+03  0.93202841784E+03  0.46999998093E+01 0.  1.
</event>
<event>
 5   0  0.8892280E-05  0.1802479E+04  0.7818609E-02  0.8704983E-01
       -2   -1    0    0    0  501  0.00000000000E+00  0.00000000000E+00  0.10363857548E+04  0.10363857549E+04  0.25500000920E-02 0. -1.
        2   -1    0    0  501    0  0.00000000000E+00  0.00000000000E+00 -0.78371608476E+03  0.78371608476E+03  0.25500000920E-02 0.  1.
    10030    2    1    2    0    0  0.00000000000E+00  0.00000000000E+00  0.25266967009E+03  0.18201018396E+04  0.18024785004E+04 0.  0.
        4    1    3    3  502    0  0.33136990215E+03 -0.82314014100E+03 -0.32892888763E+02  0.88794665313E+03  0.12699999809E+01 0.  1.
       -4    1    3    3    0  502 -0.33136990215E+03  0.82314014100E+03  0.28556255885E+03  0.93215518648E+03  0.12699999809E+01 0. -1.
</event>
<event>
 5   0  0.8892280E-05  0.1795913E+04  0.7818609E-02  0.8708476E-01
       -2   -1    0    0    0  501  0.00000000000E+00  0.00000000000E+00  0.35685178702E+03  0.35685178703E+03  0.25500000920E-02 0.  1.
        2   -1    0    0  501    0  0.00000000000E+00  0.00000000000E+00 -0.22595532157E+04  0.22595532157E+04  0.25500000920E-02 0. -1.
    10030    2    1    2    0    0  0.00000000000E+00  0.00000000000E+00 -0.19027014287E+04  0.26164050027E+04  0.17959126960E+04 0.  0.
        4    1    3    3  502    0  0.69169061979E+03 -0.38017673156E+03 -0.32752305880E+03  0.85454270090E+03  0.12699999809E+01 0.  1.
       -4    1    3    3    0  502 -0.69169061979E+03  0.38017673156E+03 -0.15751783699E+04  0.17618623018E+04  0.12699999809E+01 0. -1.
</event>
<event>
 5   0  0.4623665E-05  0.1804223E+04  0.7818609E-02  0.8704057E-01
       -1   -1    0    0    0  501  0.00000000000E+00  0.00000000000E+00  0.94468884810E+03  0.94468884811E+03  0.50400001928E-02 0.  1.
        1   -1    0    0  501    0  0.00000000000E+00  0.00000000000E+00 -0.86145299736E+03  0.86145299738E+03  0.50400001928E-02 0. -1.
    10030    2    1    2    0    0  0.00000000000E+00  0.00000000000E+00  0.83235850735E+02  0.18061418455E+04  0.18042228685E+04 0.  0.
        5    1    3    3  502    0  0.21743308179E+03  0.62807802644E+03  0.65220419250E+03  0.93120972453E+03  0.46999998093E+01 0.  1.
       -5    1    3    3    0  502 -0.21743308179E+03 -0.62807802644E+03 -0.56896834176E+03  0.87493212095E+03  0.46999998093E+01 0. -1.
</event>
<event>
 5   0  0.9147432E-05  0.1800254E+04  0.7818609E-02  0.8706164E-01
       -2   -1    0    0    0  501  0.00000000000E+00  0.00000000000E+00  0.77627931281E+03  0.77627931281E+03  0.25500000920E-02 0.  1.
        2   -1    0    0  501    0  0.00000000000E+00  0.00000000000E+00 -0.10437336054E+04  0.10437336054E+04  0.25500000920E-02 0. -1.
    10030    2    1    2    0    0  0.00000000000E+00  0.00000000000E+00 -0.26745429261E+03  0.18200129182E+04  0.18002542109E+04 0.  0.
        3    1    3    3  502    0 -0.37725746085E+03  0.53327677774E+03 -0.75981529459E+03  0.10020112801E+04  0.10100000352E+00 0. -1.
       -3    1    3    3    0  502  0.37725746085E+03 -0.53327677774E+03  0.49236100198E+03  0.81800163809E+03  0.10100000352E+00 0.  1.
</event>
<event>
 5   0  0.8802655E-05  0.1798288E+04  0.7818609E-02  0.8707210E-01
       -2   -1    0    0    0  501  0.00000000000E+00  0.00000000000E+00  0.13484192343E+04  0.13484192343E+04  0.25500000920E-02 0. -1.
        2   -1    0    0  501    0  0.00000000000E+00  0.00000000000E+00 -0.59956153859E+03  0.59956153860E+03  0.25500000920E-02 0.  1.
    10030    2    1    2    0    0  0.00000000000E+00  0.00000000000E+00  0.74885769570E+03  0.19479807729E+04  0.17982884205E+04 0.  0.
        2    1    3    3  502    0 -0.33356941516E+03 -0.42812277909E+03  0.11509722667E+04  0.12725151580E+04  0.25500000920E-02 0. -1.
       -2    1    3    3    0  502  0.33356941516E+03  0.42812277909E+03 -0.40211457097E+03  0.67546561489E+03  0.25500000920E-02 0.  1.
</event>
<event>
 5   0  0.4335117E-05  0.1795058E+04  0.7818609E-02  0.8708932E-01
        1   -1    0    0  501    0  0.00000000000E+00  0.00000000000E+00  0.10448532452E+04  0.10448532452E+04  0.50400001928E-02 0. -1.
       -1   -1    0    0    0  501  0.00000000000E+00  0.00000000000E+00 -0.77097713275E+03  0.77097713277E+03  0.50400001928E-02 0.  1.
    10030    2    1    2    0    0  0.00000000000E+00  0.00000000000E+00  0.27387611249E+03  0.18158303780E+04  0.17950576138E+04 0.  0.
        3    1    3    3  502    0  0.23799817999E+03  0.74674927212E+03  0.57935530696E+03  0.97464362256E+03  0.10100000352E+00 0. -1.
       -3    1    3    3    0  502 -0.23799817999E+03 -0.74674927212E+03 -0.30547919447E+03  0.84118675545E+03  0.10100000352E+00 0.  1.
</event>
<event>
 5   0  0.9184414E-05  0.1787108E+04  0.7818609E-02  0.8713186E-01
        2   -1    0    0  501    0  0.00000000000E+00  0.00000000000E+00  0.64230360220E+03  0.64230360220E+03  0.25500000920E-02 0. -1.
       -2   -1    0    0    0  501  0.00000000000E+00  0.00000000000E+00 -0.12430858344E+04  0.12430858345E+04  0.25500000920E-02 0.  1.
    10030    2    1    2    0    0  0.00000000000E+00  0.00000000000E+00 -0.60078223225E+03  0.18853894367E+04  0.17871077296E+04 0.  0.
        5    1    3    3  502    0  0.16030785137E+03  0.82233498559E+03  0.27308323499E+02  0.83827278988E+03  0.46999998093E+01 0. -1.
       -5    1    3    3    0  502 -0.16030785137E+03 -0.82233498559E+03 -0.62809055575E+03  0.10471166468E+04  0.46999998093E+01 0.  1.
</event>
<event>
 5   0  0.8802655E-05  0.1804190E+04  0.7818609E-02  0.8704074E-01
       -2   -1    0    0    0  501  0.00000000000E+00  0.00000000000E+00  0.68343544692E+03  0.68343544692E+03  0.25500000920E-02 0.  1.
        2   -1    0    0  501    0  0.00000000000E+00  0.00000000000E+00 -0.11907130354E+04  0.11907130354E+04  0.25500000920E-02 0. -1.
    10030    2    1    2    0    0  0.00000000000E+00  0.00000000000E+00 -0.50727758852E+03  0.18741484824E+04  0.18041901181E+04 0.  0.
        2    1    3    3  502    0 -0.76114748147E+03  0.47929729422E+03 -0.32488479051E+03  0.95635846413E+03  0.25500000920E-02 0. -1.
       -2    1    3    3    0  502  0.76114748147E+03 -0.47929729422E+03 -0.18239279801E+03  0.91779001824E+03  0.25500000920E-02 0.  1.
</event>
<event>
 5   0  0.4535100E-05  0.1797089E+04  0.7818609E-02  0.8707849E-01
       -1   -1    0    0    0  501  0.00000000000E+00  0.00000000000E+00  0.73104589617E+03  0.73104589619E+03  0.50400001928E-02 0. -1.
        1   -1    0    0  501    0  0.00000000000E+00  0.00000000000E+00 -0.11044206645E+04  0.11044206645E+04  0.50400001928E-02 0.  1.
    10030    2    1    2    0    0  0.00000000000E+00  0.00000000000E+00 -0.37337476831E+03  0.18354665607E+04  0.17970889732E+04 0.  0.
        1    1    3    3  502    0 -0.16544760406E+03 -0.87475507924E+03 -0.62380263888E+02  0.89244644416E+03  0.50400001928E-02 0.  1.
       -1    1    3    3    0  502  0.16544760406E+03  0.87475507924E+03 -0.31099450442E+03  0.94302011651E+03  0.50400001928E-02 0. -1.
</event>
<event>
 5   0  0.9184414E-05  0.1795818E+04  0.7818609E-02  0.8708527E-01
       -2   -1    0    0    0  501  0.00000000000E+00  0.00000000000E+00  0.84453419619E+03  0.84453419620E+03  0.25500000920E-02 0. -1.
        2   -1    0    0  501    0  0.00000000000E+00  0.00000000000E+00 -0.95465709179E+03  0.95465709179E+03  0.25500000920E-02 0.  1.
    10030    2    1    2    0    0  0.00000000000E+00  0.00000000000E+00 -0.11012289560E+03  0.17991912880E+04  0.17958179859E+04 0.  0.
        5    1    3    3  502    0 -0.70120439482E+03 -0.41406455431E+03 -0.43403301703E+03  0.92279131353E+03  0.46999998093E+01 0.  1.
       -5    1    3    3    0  502  0.70120439482E+03  0.41406455431E+03  0.32391012144E+03  0.87639997446E+03  0.46999998093E+01 0. -1.
</event>
<event>
 5   0  0.9184414E-05  0.1790496E+04  0.7818609E-02  0.8711370E-01
        2   -1    0    0  501    0  0.00000000000E+00  0.00000000000E+00  0.12778225740E+04  0.12778225740E+04  0.25500000920E-02 0. -1.
       -2   -1    0    0    0  501  0.00000000000E+00  0.00000000000E+00 -0.62721458694E+03  0.62721458695E+03  0.25500000920E-02 0.  1.
    10030    2    1    2    0    0  0.00000000000E+00  0.00000000000E+00  0.65060798709E+03  0.19050371610E+04  0.17904959737E+04 0.  0.
        5    1    3    3  502    0 -0.10346338474E+03 -0.52961922499E+03 -0.43470681388E+03  0.69295981087E+03  0.46999998093E+01 0.  1.
       -5    1    3    3    0  502  0.10346338474E+03  0.52961922499E+03  0.10853148010E+04  0.12120773501E+04  0.46999998093E+01 0. -1.
</event>
<event>
 5   0  0.9147432E-05  0.1797977E+04  0.7818609E-02  0.8707376E-01
        2   -1    0    0  501    0  0.00000000000E+00  0.00000000000E+00  0.14206893961E+04  0.14206893961E+04  0.25500000920E-02 0. -1.
       -2   -1    0    0    0  501  0.00000000000E+00  0.00000000000E+00 -0.56886469035E+03  0.56886469035E+03  0.25500000920E-02 0.  1.
    10030    2    1    2    0    0  0.00000000000E+00  0.00000000000E+00  0.85182470576E+03  0.19895540865E+04  0.17979766777E+04 0.  0.
        3    1    3    3  502    0  0.38633401578E+03 -0.80278751893E+03  0.29285785061E+03  0.93780995045E+03  0.10100000352E+00 0.  1.
       -3    1    3    3    0  502 -0.38633401578E+03  0.80278751893E+03  0.55896685515E+03  0.10517441360E+04  0.10100000352E+00 0. -1.
</event>
<event>
 5   0  0.4578107E-05  0.1794024E+04  0.7818609E-02  0.8709484E-01
       -1   -1    0    0    0  501  0.00000000000E+00  0.00000000000E+00  0.11746958241E+04  0.11746958241E+04  0.50400001928E-02 0. -1.
        1   -1    0    0  501    0  0.00000000000E+00  0.00000000000E+00 -0.68496914468E+03  0.68496914470E+03  0.50400001928E-02 0.  1.
    10030    2    1    2    0    0  0.00000000000E+00  0.00000000000E+00  0.48972667939E+03  0.18596649688E+04  0.17940238503E+04 0.  0.
        2    1    3    3  502    0  0.22984414683E+03 -0.56340455514E+03 -0.43832444586E+03  0.74992089212E+03  0.25500000920E-02 0.  1.
       -2    1    3    3    0  502 -0.22984414683E+03  0.56340455514E+03  0.92805112525E+03  0.11097440767E+04  0.25500000920E-02 0. -1.
</event>
<event>
 5   0  0.4623665E-05  0.1793181E+04  0.7818609E-02  0.8709934E-01
        1   -1    0    0  501    0  0.00000000000E+00  0.00000000000E+00  0.89189058913E+03  0.89189058914E+03  0.50400001928E-02 0.  1.
       -1   -1    0    0    0  501  0.00000000000E+00  0.00000000000E+00 -0.90131554523E+03  0.90131554525E+03  0.50400001928E-02 0. -1.
    10030    2    1    2    0    0  0.00000000000E+00  0.00000000000E+00 -0.94249561053E+01  0.17932061344E+04  0.17931813658E+04 0.  0.
        5    1    3    3  502    0 -0.16180060625E+03  0.39599631987E+03 -0.79267021340E+03  0.90074451358E+03  0.46999998093E+01 0. -1.
       -5    1    3    3    0  502  0.16180060625E+03 -0.39599631987E+03  0.78324525730E+03  0.89246162080E+03  0.46999998093E+01 0.  1.
</event>
<event>
 5   0  0.8802655E-05  0.1798029E+04  0.7818609E-02  0.8707348E-01
        2   -1    0    0  501    0  0.00000000000E+00  0.00000000000E+00  0.19934936586E+04  0.19934936586E+04  0.25500000920E-02 0.  1.
       -2   -1    0    0    0  501  0.00000000000E+00  0.00000000000E+00 -0.40543244681E+03  0.40543244682E+03  0.25500000920E-02 0. -1.
    10030    2    1    2    0    0  0.00000000000E+00  0.00000000000E+00  0.15880612118E+04  0.23989261054E+04  0.17980289338E+04 0.  0.
        2    1    3    3  502    0  0.78855181125E+02 -0.83176968358E+03  0.12368718440E+04  0.14926188075E+04  0.25500000920E-02 0.  1.
       -2    1    3    3    0  502 -0.78855181125E+02  0.83176968358E+03  0.35118936777E+03  0.90630729786E+03  0.25500000920E-02 0. -1.
</event>
<event>
 5   0  0.8893075E-05  0.1800222E+04  0.7818609E-02  0.8706182E-01
       -2   -1    0    0    0  501  0.00000000000E+00  0.00000000000E+00  0.11220535428E+04  0.11220535428E+04  0.25500000920E-02 0. -1.
        2   -1    0    0  501    0  0.00000000000E+00  0.00000000000E+00 -0.72206843523E+03  0.72206843523E+03  0.25500000920E-02 0.  1.
    10030    2    1    2    0    0  0.00000000000E+00  0.00000000000E+00  0.39998510761E+03  0.18441219781E+04  0.18002215930E+04 0.  0.
        1    1    3    3  502    0 -0.81400070748E+03 -0.12603097814E+03  0.57177342725E+03  0.10026992627E+04  0.50400001928E-02 0. -1.
       -1    1    3    3    0  502  0.81400070748E+03  0.12603097814E+03 -0.17178831963E+03  0.84142271541E+03  0.50400001928E-02 0.  1.
</event>
<event>
 5   0  0.4578107E-05  0.1796880E+04  0.7818609E-02  0.8707960E-01
       -1   -1    0    0    0  501  0.00000000000E+00  0.00000000000E+00  0.51663225565E+03  0.51663225567E+03  0.50400001928E-02 0. -1.
        1   -1    0    0  501    0  0.00000000000E+00  0.00000000000E+00 -0.15624164114E+04  0.15624164114E+04  0.50400001928E-02 0.  1.
    10030    2    1    2    0    0  0.00000000000E+00  0.00000000000E+00 -0.10457841557E+04  0.20790486671E+04  0.17968803131E+04 0.  0.
        2    1    3    3  502    0 -0.14643453046E+03 -0.41138529354E+03  0.38559112162E+03  0.58254737535E+03  0.25500000920E-02 0. -1.
       -2    1    3    3    0  502  0.14643453046E+03  0.41138529354E+03 -0.14313752773E+04  0.14965012917E+04  0.25500000920E-02 0.  1.
</event>
<event>
 5   0  0.4335117E-05  0.1803401E+04  0.7818609E-02  0.8704493E-01
        1   -1    0    0  501    0  0.00000000000E+00  0.00000000000E+00  0.82146440282E+03  0.82146440283E+03  0.50400001928E-02 0.  1.
       -1   -1    0    0    0  501  0.00000000000E+00  0.00000000000E+00 -0.98977355540E+03  0.98977355541E+03  0.50400001928E-02 0. -1.
    10030    2    1    2    0    0  0.00000000000E+00  0.00000000000E+00 -0.16830915258E+03  0.18112379582E+04  0.18034009456E+04 0.  0.
        3    1    3    3  502    0 -0.76833061923E+03 -0.46172266194E+03  0.13963240165E+02  0.89650138832E+03  0.10100000352E+00 0.  1.
       -3    1    3    3    0  502  0.76833061923E+03  0.46172266194E+03 -0.18227239275E+03  0.91473656992E+03  0.10100000352E+00 0. -1.
</event>
<event>
 5   0  0.8802655E-05  0.1798030E+04  0.7818609E-02  0.8707348E-01
       -2   -1    0    0    0  501  0.00000000000E+00  0.00000000000E+00  0.10924796342E+04  0.10924796342E+04  0.25500000920E-02 0.  1.
        2   -1    0    0  501    0  0.00000000000E+00  0.00000000000E+00 -0.73981080434E+03  0.73981080435E+03  0.25500000920E-02 0. -1.
    10030    2    1    2    0    0  0.00000000000E+00  0.00000000000E+00  0.35266882986E+03  0.18322904386E+04  0.17980302966E+04 0.  0.
        2    1    3    3  502    0  0.47333739550E+03  0.76299257592E+03  0.22216100318E+03  0.92496566003E+03  0.25500000920E-02 0.  1.
       -2    1    3    3    0  502 -0.47333739550E+03 -0.76299257592E+03  0.13050782668E+03  0.90732477853E+03  0.25500000920E-02 0. -1.
</event>
<event>
 5   0  0.4535100E-05  0.1827122E+04  0.7818609E-02  0.8692008E-01
       -1   -1    0    0    0  501  0.00000000000E+00  0.00000000000E+00  0.33615559269E+03  0.33615559273E+03  0.50400001928E-02 0.  1.
        1   -1    0    0  501    0  0.00000000000E+00  0.00000000000E+00 -0.24827601078E+04  0.24827601078E+04  0.50400001928E-02 0. -1.
    10030    2    1    2    0    0  0.00000000000E+00  0.00000000000E+00 -0.21466045151E+04  0.28189157006E+04  0.18271219944E+04 0.  0.
        1    1    3    3  502    0  0.66709462909E+03  0.40094449515E+03 -0.33529030310E+03  0.84746169220E+03  0.50400001928E-02 0.  1.
       -1    1    3    3    0  502 -0.66709462909E+03 -0.40094449515E+03 -0.18113142120E+04  0.19714540084E+04  0.50400001928E-02 0. -1.
</event>
<event>
 5   0  0.4535100E-05  0.1793947E+04  0.7818609E-02  0.8709525E-01
       -1   -1    0    0    0  501  0.00000000000E+00  0.00000000000E+00  0.31995720188E+03  0.31995720192E+03  0.50400001928E-02 0. -1.
        1   -1    0    0  501    0  0.00000000000E+00  0.00000000000E+00 -0.25145903133E+04  0.25145903133E+04  0.50400001928E-02 0.  1.
    10030    2    1    2    0    0  0.00000000000E+00  0.00000000000E+00 -0.21946331114E+04  0.28345475152E+04  0.17939468003E+04 0.  0.
        1    1    3    3  502    0  0.74615008348E+03 -0.28431398258E+03 -0.17429936403E+04  0.19171857547E+04  0.50400001928E-02 0.  1.
       -1    1    3    3    0  502 -0.74615008348E+03  0.28431398258E+03 -0.45163947105E+03  0.91736176049E+03  0.50400001928E-02 0. -1.
</event>
<event>
 5   0  0.4578107E-05  0.1788836E+04  0.7818609E-02  0.8712259E-01
        1   -1    0    0  501    0  0.00000000000E+00  0.00000000000E+00  0.10984364519E+04  0.10984364519E+04  0.50400001928E-02 0. -1.
       -1   -1    0    0    0  501  0.00000000000E+00  0.00000000000E+00 -0.72829313184E+03  0.72829313185E+03  0.50400001928E-02 0.  1.
    10030    2    1    2    0    0  0.00000000000E+00  0.00000000000E+00  0.37014332002E+03  0.18267295837E+04  0.17888361844E+04 0.  0.
        2    1    3    3  502    0 -0.36243914109E+03 -0.65295555032E+03  0.68770823349E+03  0.10152121434E+04  0.25500000920E-02 0. -1.
       -2    1    3    3    0  502  0.36243914109E+03  0.65295555032E+03 -0.31756491346E+03  0.81151744033E+03  0.25500000920E-02 0.  1.
</event>
<event>
 5   0  0.8892280E-05  0.1800820E+04  0.7818609E-02  0.8705863E-01
        2   -1    0    0  501    0  0.00000000000E+00  0.00000000000E+00  0.12383756743E+04  0.12383756743E+04  0.25500000920E-02 0.  1.
       -2   -1    0    0    0  501  0.00000000000E+00  0.00000000000E+00 -0.65467904811E+03  0.65467904812E+03  0.25500000920E-02 0. -1.
    10030    2    1    2    0    0  0.00000000000E+00  0.00000000000E+00  0.58369662620E+03  0.18930547224E+04  0.18008204882E+04 0.  0.
        4    1    3    3  502    0  0.12619726874E+03 -0.39532661284E+03 -0.54815840005E+03  0.68752318208E+03  0.12699999809E+01 0. -1.
       -4    1    3    3    0  502 -0.12619726874E+03  0.39532661284E+03  0.11318550262E+04  0.12055315404E+04  0.12699999809E+01 0.  1.
</event>
<event>
 5   0  0.3270375E-05  0.1790671E+04  0.7818609E-02  0.8711277E-01
        4   -1    0    0  501    0  0.00000000000E+00  0.00000000000E+00  0.65403892667E+03  0.65404015970E+03  0.12699999809E+01 0. -1.
       -4   -1    0    0    0  501  0.00000000000E+00  0.00000000000E+00 -0.12256510912E+04  0.12256517492E+04  0.12699999809E+01 0.  1.
    10030    2    1    2    0    0  0.00000000000E+00  0.00000000000E+00 -0.57161216454E+03  0.18796919089E+04  0.17906706022E+04 0.  0.
        2    1    3    3  502    0  0.84277596277E+03 -0.30091384980E+03 -0.25602614001E+03  0.93078990799E+03  0.25500000920E-02 0.  1.
       -2    1    3    3    0  502 -0.84277596277E+03  0.30091384980E+03 -0.31558602453E+03  0.94890200090E+03  0.25500000920E-02 0. -1.
</event>
<event>
 5   0  0.8892280E-05  0.1843069E+04  0.7818609E-02  0.8683725E-01
        2   -1    0    0  501    0  0.00000000000E+00  0.00000000000E+00  0.12635985913E+04  0.12635985913E+04  0.25500000920E-02 0. -1.
       -2   -1    0    0    0  501  0.00000000000E+00  0.00000000000E+00 -0.67206935493E+03  0.67206935493E+03  0.25500000920E-02 0.  1.
    10030    2    1    2    0    0  0.00000000000E+00  0.00000000000E+00  0.59152923636E+03  0.19356679462E+04  0.18430690602E+04 0.  0.
        4    1    3    3  502    0 -0.34098038597E+03  0.21351630684E+03 -0.57496582313E+03  0.70174364805E+03  0.12699999809E+01 0.  1.
       -4    1    3    3    0  502  0.34098038597E+03 -0.21351630684E+03  0.11664950595E+04  0.12339242982E+04  0.12699999809E+01 0. -1.
</event>
<event>
 5   0  0.8893075E-05  0.1814087E+04  0.7818609E-02  0.8698844E-01
       -2   -1    0    0    0  501  0.00000000000E+00  0.00000000000E+00  0.32314245094E+03  0.32314245095E+03  0.25500000920E-02 0. -1.
        2   -1    0    0  501    0  0.00000000000E+00  0.00000000000E+00 -0.25460229165E+04  0.25460229165E+04  0.25500000920E-02 0.  1.
    10030    2    1    2    0    0  0.00000000000E+00  0.00000000000E+00 -0.22228804655E+04  0.28691653674E+04  0.18140871924E+04 0.  0.
        1    1    3    3  502    0  0.31076820457E+03 -0.23052011608E+03 -0.24089442913E+04  0.24398215097E+04  0.50400001928E-02 0.  1.
       -1    1    3    3    0  502 -0.31076820457E+03  0.23052011608E+03  0.18606382571E+03  0.42934385771E+03  0.50400001928E-02 0. -1.
</event>
<event>
 5   0  0.9184414E-05  0.1801060E+04  0.7818609E-02  0.8705736E-01
       -2   -1    0    0    0  501  0.00000000000E+00  0.00000000000E+00  0.84037426217E+03  0.84037426217E+03  0.25500000920E-02 0.  1.
        2   -1    0    0  501    0  0.00000000000E+00  0.00000000000E+00 -0.96499210164E+03  0.96499210164E+03  0.25500000920E-02 0. -1.
    10030    2    1    2    0    0  0.00000000000E+00  0.00000000000E+00 -0.12461783947E+03  0.18053663638E+04  0.18010602715E+04 0.  0.
        5    1    3    3  502    0 -0.17188853202E+02  0.13219232191E+03 -0.95503474007E+03  0.96430478138E+03  0.46999998093E+01 0. -1.
       -5    1    3    3    0  502  0.17188853202E+02 -0.13219232191E+03  0.83041690060E+03  0.84106158244E+03  0.46999998093E+01 0.  1.
</event>
<event>
 5   0  0.9147432E-05  0.1795759E+04  0.7818609E-02  0.8708558E-01
       -2   -1    0    0    0  501  0.00000000000E+00  0.00000000000E+00  0.73954459789E+03  0.73954459790E+03  0.25500000920E-02 0.  1.
        2   -1    0    0  501    0  0.00000000000E+00  0.00000000000E+00 -0.10901136703E+04  0.10901136703E+04  0.25500000920E-02 0. -1.
    10030    2    1    2    0    0  0.00000000000E+00  0.00000000000E+00 -0.35056907238E+03  0.18296582682E+04  0.17957590885E+04 0.  0.
        3    1    3    3  502    0  0.83663755212E+03 -0.16469194543E+03 -0.46184428597E+03  0.96973500772E+03  0.10100000352E+00 0. -1.
       -3    1    3    3    0  502 -0.83663755212E+03  0.16469194543E+03  0.11127521359E+03  0.85992326045E+03  0.10100000352E+00 0.  1.
</event>
<event>
 5   0  0.8892280E-05  0.1801183E+04  0.7818609E-02  0.8705670E-01
       -2   -1    0    0    0  501  0.00000000000E+00  0.00000000000E+00  0.64435455313E+03  0.64435455313E+03  0.25500000920E-02 0. -1.
        2   -1    0    0  501    0  0.00000000000E+00  0.00000000000E+00 -0.12587252622E+04  0.12587252622E+04  0.25500000920E-02 0.  1.
    10030    2    1    2    0    0  0.00000000000E+00  0.00000000000E+00 -0.61437070908E+03  0.19030798153E+04  0.18011833375E+04 0.  0.
        4    1    3    3  502    0 -0.86256129263E+03  0.15675063181E+03 -0.52495454258E+03  0.10218422720E+04  0.12699999809E+01 0.  1.
       -4    1    3    3    0  502  0.86256129263E+03 -0.15675063181E+03 -0.89416166496E+02  0.88123754337E+03  0.12699999809E+01 0. -1.
</event>
<event>
 5   0  0.4335117E-05  0.1806656E+04  0.7818609E-02  0.8702768E-01
        1   -1    0    0  501    0  0.00000000000E+00  0.00000000000E+00  0.91937579035E+03  0.91937579037E+03  0.50400001928E-02 0. -1.
       -1   -1    0    0    0  501  0.00000000000E+00  0.00000000000E+00 -0.88755998396E+03  0.88755998398E+03  0.50400001928E-02 0.  1.
    10030    2    1    2    0    0  0.00000000000E+00  0.00000000000E+00  0.31815806389E+02  0.18069357743E+04  0.18066556526E+04 0.  0.
        3    1    3    3  502    0 -0.76020706415E+03 -0.48460882052E+03 -0.41027738279E+02  0.90246538704E+03  0.10100000352E+00 0.  1.
       -3    1    3    3    0  502  0.76020706415E+03  0.48460882052E+03  0.72843544668E+02  0.90447038730E+03  0.10100000352E+00 0. -1.
</event>
<event>
 5   0  0.4578107E-05  0.1798985E+04  0.7818609E-02  0.8706840E-01
       -1   -1    0    0    0  501  0.00000000000E+00  0.00000000000E+00  0.46767368716E+03  0.46767368719E+03  0.50400001928E-02 0.  1.
        1   -1    0    0  501    0  0.00000000000E+00  0.00000000000E+00 -0.17300235783E+04  0.17300235784E+04  0.50400001928E-02 0. -1.
    10030    2    1    2    0    0  0.00000000000E+00  0.00000000000E+00 -0.12623498912E+04  0.21976972655E+04  0.17989847201E+04 0.  0.
        2    1    3    3  502    0  0.58683194100E+03 -0.18659858977E+03 -0.14321554886E+04  0.15589291530E+04  0.25500000920E-02 0. -1.
       -2    1    3    3    0  502 -0.58683194100E+03  0.18659858977E+03  0.16980559737E+03  0.63876811254E+03  0.25500000920E-02 0.  1.
</event>
<event>
 5   0  0.4623665E-05  0.1785147E+04  0.7818609E-02  0.8714238E-01
       -1   -1    0    0    0  501  0.00000000000E+00  0.00000000000E+00  0.40862346765E+03  0.40862346768E+03  0.50400001928E-02 0. -1.
        1   -1    0    0  501    0  0.00000000000E+00  0.00000000000E+00 -0.19496870438E+04  0.19496870438E+04  0.50400001928E-02 0.  1.
    10030    2    1    2    0    0  0.00000000000E+00  0.00000000000E+00 -0.15410635762E+04  0.23583105115E+04  0.17851474793E+04 0.  0.
        5    1    3    3  502    0 -0.73577840186E+03 -0.49806396917E+03 -0.88284800521E+03  0.12525495057E+04  0.46999998093E+01 0.  1.
       -5    1    3    3    0  502  0.73577840186E+03  0.49806396917E+03 -0.65821557095E+03  0.11057610058E+04  0.46999998093E+01 0. -1.
</event>
<event>
 5   0  0.8892280E-05  0.1798670E+04  0.7818609E-02  0.8707007E-01
        2   -1    0    0  501    0  0.00000000000E+00  0.00000000000E+00  0.21919499629E+04  0.21919499629E+04  0.25500000920E-02 0.  1.
       -2   -1    0    0    0  501  0.00000000000E+00  0.00000000000E+00 -0.36898825690E+03  0.36898825691E+03  0.25500000920E-02 0. -1.
    10030    2    1    2    0    0  0.00000000000E+00  0.00000000000E+00  0.18229617060E+04  0.25609382198E+04  0.17986703934E+04 0.  0.
        4    1    3    3  502    0 -0.67313426697E+03  0.59528082223E+03  0.85949410685E+03  0.12434632006E+04  0.12699999809E+01 0. -1.
       -4    1    3    3    0  502  0.67313426697E+03 -0.59528082223E+03  0.96346759911E+03  0.13174750192E+04  0.12699999809E+01 0.  1.
</event>
<event>
 5   0  0.4535100E-05  0.1798655E+04  0.7818609E-02  0.8707015E-01
        1   -1    0    0  501    0  0.00000000000E+00  0.00000000000E+00  0.16306006384E+04  0.16306006384E+04  0.50400001928E-02 0.  1.
       -1   -1    0    0    0  501  0.00000000000E+00  0.00000000000E+00 -0.49600731836E+03  0.49600731838E+03  0.50400001928E-02 0. -1.
    10030    2    1    2    0    0  0.00000000000E+00  0.00000000000E+00  0.11345933201E+04  0.21266079568E+04  0.17986548863E+04 0.  0.
        1    1    3    3  502    0 -0.14975455772E+03 -0.63299049706E+03  0.13015683515E+04  0.14550544905E+04  0.50400001928E-02 0.  1.
       -1    1    3    3    0  502  0.14975455772E+03  0.63299049706E+03 -0.16697503139E+03  0.67155346627E+03  0.50400001928E-02 0. -1.
</event>
<event>
 5   0  0.4623665E-05  0.1790049E+04  0.7818609E-02  0.8711609E-01
       -1   -1    0    0    0  501  0.00000000000E+00  0.00000000000E+00  0.13295059452E+04  0.13295059452E+04  0.50400001928E-02 0. -1.
        1   -1    0    0  501    0  0.00000000000E+00  0.00000000000E+00 -0.60253153206E+03  0.60253153208E+03  0.50400001928E-02 0.  1.
    10030    2    1    2    0    0  0.00000000000E+00  0.00000000000E+00  0.72697441313E+03  0.19320374773E+04  0.17900494452E+04 0.  0.
        5    1    3    3  502    0  0.45094578723E+03  0.45281340586E+03  0.10398132788E+04  0.12205022853E+04  0.46999998093E+01 0. -1.
       -5    1    3    3    0  502 -0.45094578723E+03 -0.45281340586E+03 -0.31283886570E+03  0.71153519199E+03  0.46999998093E+01 0.  1.
</event>
<event>
 5   0  0.4535100E-05  0.1796861E+04  0.7818609E-02  0.8707970E-01
       -1   -1    0    0    0  501  0.00000000000E+00  0.00000000000E+00  0.59155843292E+03  0.59155843294E+03  0.50400001928E-02 0. -1.
        1   -1    0    0  501    0  0.00000000000E+00  0.00000000000E+00 -0.13644937270E+04  0.13644937270E+04  0.50400001928E-02 0.  1.
    10030    2    1    2    0    0  0.00000000000E+00  0.00000000000E+00 -0.77293529404E+03  0.19560521599E+04  0.17968614536E+04 0.  0.
        1    1    3    3  502    0  0.87778641656E+03  0.13222300746E+03 -0.23568324868E+03  0.91844352604E+03  0.50400001928E-02 0. -1.
       -1    1    3    3    0  502 -0.87778641656E+03 -0.13222300746E+03 -0.53725204536E+03  0.10376086339E+04  0.50400001928E-02 0.  1.
</event>
<event>
 5   0  0.4578107E-05  0.1812786E+04  0.7818609E-02  0.8699529E-01
        1   -1    0    0  501    0  0.00000000000E+00  0.00000000000E+00  0.12925301201E+04  0.12925301201E+04  0.50400001928E-02 0. -1.
       -1   -1    0    0    0  501  0.00000000000E+00  0.00000000000E+00 -0.63561252888E+03  0.63561252890E+03  0.50400001928E-02 0.  1.
    10030    2    1    2    0    0  0.00000000000E+00  0.00000000000E+00  0.65691759120E+03  0.19281426490E+04  0.18127860749E+04 0.  0.
        2    1    3    3  502    0  0.47570319552E+03 -0.26481019566E+03  0.10992312253E+04  0.12266732477E+04  0.25500000920E-02 0. -1.
       -2    1    3    3    0  502 -0.47570319552E+03  0.26481019566E+03 -0.44231363413E+03  0.70146940126E+03  0.25500000920E-02 0.  1.
</event>
<event>
 5   0  0.9184414E-05  0.1802165E+04  0.7818609E-02  0.8705149E-01
        2   -1    0    0  501    0  0.00000000000E+00  0.00000000000E+00  0.78959029022E+03  0.78959029023E+03  0.25500000920E-02 0.  1.
       -2   -1    0    0    0  501  0.00000000000E+00  0.00000000000E+00 -0.10283175460E+04  0.10283175460E+04  0.25500000920E-02 0. -1.
    10030    2    1    2    0    0  0.00000000000E+00  0.00000000000E+00 -0.23872725574E+03  0.18179078362E+04  0.18021648643E+04 0.  0.
        5    1    3    3  502    0 -0.15275256617E+03 -0.67613683268E+03 -0.70009499017E+03  0.98521543240E+03  0.46999998093E+01 0. -1.
       -5    1    3    3    0  502  0.15275256617E+03  0.67613683268E+03  0.46136773443E+03  0.83269240380E+03  0.46999998093E+01 0.  1.
</event>
<event>
 5   0  0.8892280E-05  0.1800781E+04  0.7818609E-02  0.8705884E-01
        2   -1    0    0  501    0  0.00000000000E+00  0.00000000000E+00  0.11365249683E+04  0.11365249683E+04  0.25500000920E-02 0. -1.
       -2   -1    0    0    0  501  0.00000000000E+00  0.00000000000E+00 -0.71331740213E+03  0.71331740214E+03  0.25500000920E-02 0.  1.
    10030    2    1    2    0    0  0.00000000000E+00  0.00000000000E+00  0.42320756617E+03  0.18498423704E+04  0.18007809837E+04 0.  0.
        4    1    3    3  502    0  0.11475434598E+02  0.46529460779E+03  0.10033625511E+04  0.11060600252E+04  0.12699999809E+01 0. -1.
       -4    1    3    3    0  502 -0.11475434598E+02 -0.46529460779E+03 -0.58015498490E+03  0.74378234521E+03  0.12699999809E+01 0.  1.
</event>
<event>
 5   0  0.4335117E-05  0.1796869E+04  0.7818609E-02  0.8707966E-01
       -1   -1    0    0    0  501  0.00000000000E+00  0.00000000000E+00  0.88528933286E+03  0.88528933287E+03  0.50400001928E-02 0.  1.
        1   -1    0    0  501    0  0.00000000000E+00  0.00000000000E+00 -0.91177494023E+03  0.91177494024E+03  0.50400001928E-02 0. -1.
    10030    2    1    2    0    0  0.00000000000E+00  0.00000000000E+00 -0.26485607371E+02  0.17970642731E+04  0.17968690866E+04 0.  0.
        3    1    3    3  502    0 -0.45819677713E+02  0.28525345034E+03  0.83756439048E+03  0.88599271566E+03  0.10100000352E+00 0.  1.
       -3    1    3    3    0  502  0.45819677713E+02 -0.28525345034E+03 -0.86404999785E+03  0.91107155745E+03  0.10100000352E+00 0. -1.
</event>
<event>
 5   0  0.4578107E-05  0.1790613E+04  0.7818609E-02  0.8711308E-01
       -1   -1    0    0    0  501  0.00000000000E+00  0.00000000000E+00  0.47898290751E+03  0.47898290753E+03  0.50400001928E-02 0.  1.
        1   -1    0    0  501    0  0.00000000000E+00  0.00000000000E+00 -0.16734904908E+04  0.16734904908E+04  0.50400001928E-02 0. -1.
    10030    2    1    2    0    0  0.00000000000E+00  0.00000000000E+00 -0.11945075833E+04  0.21524733983E+04  0.17906125667E+04 0.  0.
        2    1    3    3  502    0 -0.43876498140E+03  0.42316862181E+03 -0.13855034698E+04  0.15136731009E+04  0.25500000920E-02 0. -1.
       -2    1    3    3    0  502  0.43876498140E+03 -0.42316862181E+03  0.19099588652E+03  0.63880029748E+03  0.25500000920E-02 0.  1.
</event>
<event>
 5   0  0.8892280E-05  0.1804245E+04  0.7818609E-02  0.8704045E-01
        2   -1    0    0  501    0  0.00000000000E+00  0.00000000000E+00  0.10243927625E+04  0.10243927625E+04  0.25500000920E-02 0. -1.
       -2   -1    0    0    0  501  0.00000000000E+00  0.00000000000E+00 -0.79444664458E+03  0.79444664458E+03  0.25500000920E-02 0.  1.
    10030    2    1    2    0    0  0.00000000000E+00  0.00000000000E+00  0.22994611789E+03  0.18188394071E+04  0.18042454300E+04 0.  0.
        4    1    3    3  502    0  0.20690059209E+03  0.81154942789E+03 -0.22300504389E+03  0.86669094343E+03  0.12699999809E+01 0. -1.
       -4    1    3    3    0  502 -0.20690059209E+03 -0.81154942789E+03  0.45295116179E+03  0.95214846362E+03  0.12699999809E+01 0.  1.
</event>
<event>
 5   0  0.4535100E-05  0.1799164E+04  0.7818609E-02  0.8706744E-01
       -1   -1    0    0    0  501  0.00000000000E+00  0.00000000000E+00  0.52115241764E+03  0.52115241767E+03  0.50400001928E-02 0.  1.
        1   -1    0    0  501    0  0.00000000000E+00  0.00000000000E+00 -0.15528051203E+04  0.15528051203E+04  0.50400001928E-02 0. -1.
    10030    2    1    2    0    0  0.00000000000E+00  0.00000000000E+00 -0.10316527027E+04  0.20739575380E+04  0.17991644090E+04 0.  0.
        1    1    3    3  502    0  0.23910582275E+03  0.61480244918E+03 -0.12208759484E+04  0.13876929514E+04  0.50400001928E-02 0. -1.
       -1    1    3    3    0  502 -0.23910582275E+03 -0.61480244918E+03  0.18922324577E+03  0.68626458655E+03  0.50400001928E-02 0.  1.
</event>
<event>
 5   0  0.8893075E-05  0.1772303E+04  0.7818609E-02  0.8721168E-01
        2   -1    0    0  501    0  0.00000000000E+00  0.00000000000E+00  0.10296362325E+04  0.10296362325E+04  0.25500000920E-02 0. -1.
       -2   -1    0    0    0  501  0.00000000000E+00  0.00000000000E+00 -0.76266229636E+03  0.76266229636E+03  0.25500000920E-02 0.  1.
    10030    2    1    2    0    0  0.00000000000E+00  0.00000000000E+00  0.26697393610E+03  0.17922985288E+04  0.17723032850E+04 0.  0.
        1    1    3    3  502    0 -0.30377412735E+03  0.18370132257E+03 -0.68760920419E+03  0.77384191801E+03  0.50400001928E-02 0.  1.
       -1    1    3    3    0  502  0.30377412735E+03 -0.18370132257E+03  0.95458314029E+03  0.10184566108E+04  0.50400001928E-02 0. -1.
</event>
<event>
 5   0  0.4535100E-05  0.1816224E+04  0.7818609E-02  0.8697719E-01
       -1   -1    0    0    0  501  0.00000000000E+00  0.00000000000E+00  0.95448301480E+03  0.95448301481E+03  0.50400001928E-02 0. -1.
        1   -1    0    0  501    0  0.00000000000E+00  0.00000000000E+00 -0.86399414596E+03  0.86399414598E+03  0.50400001928E-02 0.  1.
    10030    2    1    2    0    0  0.00000000000E+00  0.00000000000E+00  0.90488868838E+02  0.18184771608E+04  0.18162243664E+04 0.  0.
        1    1    3    3  502    0 -0.58407623426E+03 -0.58844004668E+03  0.41619149523E+03  0.92769720097E+03  0.50400001928E-02 0. -1.
       -1    1    3    3    0  502  0.58407623426E+03  0.58844004668E+03 -0.32570262639E+03  0.89077995982E+03  0.50400001928E-02 0.  1.
</event>
<event>
 5   0  0.4535100E-05  0.1795625E+04  0.7818609E-02  0.8708629E-01
        1   -1    0    0  501    0  0.00000000000E+00  0.00000000000E+00  0.85219982117E+03  0.85219982118E+03  0.50400001928E-02 0.  1.
       -1   -1    0    0    0  501  0.00000000000E+00  0.00000000000E+00 -0.94586674860E+03  0.94586674861E+03  0.50400001928E-02 0. -1.
    10030    2    1    2    0    0  0.00000000000E+00  0.00000000000E+00 -0.93666927428E+02  0.17980665698E+04  0.17956252104E+04 0.  0.
        1    1    3    3  502    0  0.27994607909E+03 -0.11046597445E+03 -0.89385285758E+03  0.94315718188E+03  0.50400001928E-02 0. -1.
       -1    1    3    3    0  502 -0.27994607909E+03  0.11046597445E+03  0.80018593015E+03  0.85490938791E+03  0.50400001928E-02 0.  1.
</event>
<event>
 5   0  0.9147432E-05  0.1801840E+04  0.7818609E-02  0.8705321E-01
        2   -1    0    0  501    0  0.00000000000E+00  0.00000000000E+00  0.15662807183E+04  0.15662807183E+04  0.25500000920E-02 0. -1.
       -2   -1    0    0    0  501  0.00000000000E+00  0.00000000000E+00 -0.51820666032E+03  0.51820666032E+03  0.25500000920E-02 0.  1.
    10030    2    1    2    0    0  0.00000000000E+00  0.00000000000E+00  0.10480740580E+04  0.20844873787E+04  0.18018402817E+04 0.  0.
        3    1    3    3  502    0  0.24567226662E+03 -0.17442625064E+03  0.15062683459E+04  0.15361066759E+04  0.10100000352E+00 0. -1.
       -3    1    3    3    0  502 -0.24567226662E+03  0.17442625064E+03 -0.45819428792E+03  0.54838070278E+03  0.10100000352E+00 0.  1.
</event>
<event>
 5   0  0.4623665E-05  0.1801464E+04  0.7818609E-02  0.8705521E-01
       -1   -1    0    0    0  501  0.00000000000E+00  0.00000000000E+00  0.50086541395E+03  0.50086541398E+03  0.50400001928E-02 0. -1.
        1   -1    0    0  501    0  0.00000000000E+00  0.00000000000E+00 -0.16198333067E+04  0.16198333067E+04  0.50400001928E-02 0.  1.
    10030    2    1    2    0    0  0.00000000000E+00  0.00000000000E+00 -0.11189678927E+04  0.21206987207E+04  0.18014643818E+04 0.  0.
        5    1    3    3  502    0 -0.46450869604E+02  0.80932738274E+03 -0.10216456088E+04  0.13042048672E+04  0.46999998093E+01 0. -1.
       -5    1    3    3    0  502  0.46450869604E+02 -0.80932738274E+03 -0.97322283926E+02  0.81649385343E+03  0.46999998093E+01 0.  1.
</event>
<event>
 5   0  0.9147432E-05  0.1797606E+04  0.7818609E-02  0.8707574E-01
       -2   -1    0    0    0  501  0.00000000000E+00  0.00000000000E+00  0.78004040883E+03  0.78004040883E+03  0.25500000920E-02 0. -1.
        2   -1    0    0  501    0  0.00000000000E+00  0.00000000000E+00 -0.10356469990E+04  0.10356469990E+04  0.25500000920E-02 0.  1.
    10030    2    1    2    0    0  0.00000000000E+00  0.00000000000E+00 -0.25560659019E+03  0.18156874079E+04  0.17976056392E+04 0.  0.
        3    1    3    3  502    0  0.77585943314E+03  0.44952743330E+03 -0.65426745300E+02  0.89906253536E+03  0.10100000352E+00 0.  1.
       -3    1    3    3    0  502 -0.77585943314E+03 -0.44952743330E+03 -0.19017984489E+03  0.91662487250E+03  0.10100000352E+00 0. -1.
</event>
<event>
 5   0  0.8892280E-05  0.1916472E+04  0.7818609E-02  0.8646700E-01
        2   -1    0    0  501    0  0.00000000000E+00  0.00000000000E+00  0.13448073578E+04  0.13448073578E+04  0.25500000920E-02 0.  1.
       -2   -1    0    0    0  501  0.00000000000E+00  0.00000000000E+00 -0.68278630447E+03  0.68278630447E+03  0.25500000920E-02 0. -1.
    10030    2    1    2    0    0  0.00000000000E+00  0.00000000000E+00  0.66202105332E+03  0.20275936623E+04  0.19164718063E+04 0.  0.
        4    1    3    3  502    0 -0.64573896199E+03 -0.15106048294E+03 -0.40077109826E+03  0.77486589978E+03  0.12699999809E+01 0. -1.
       -4    1    3    3    0  502  0.64573896199E+03  0.15106048294E+03  0.10627921516E+04  0.12527277625E+04  0.12699999809E+01 0.  1.
</event>
<event>
 5   0  0.9147432E-05  0.1876032E+04  0.7818609E-02  0.8666880E-01
        2   -1    0    0  501    0  0.00000000000E+00  0.00000000000E+00  0.13056221372E+04  0.13056221372E+04  0.25500000920E-02 0. -1.
       -2   -1    0    0    0  501  0.00000000000E+00  0.00000000000E+00 -0.67391173469E+03  0.67391173470E+03  0.25500000920E-02 0.  1.
    10030    2    1    2    0    0  0.00000000000E+00  0.00000000000E+00  0.63171040247E+03  0.19795338719E+04  0.18760320672E+04 0.  0.
        3    1    3    3  502    0 -0.56954291418E+03  0.47725748744E+03  0.91990717043E+03  0.11825324743E+04  0.10100000352E+00 0. -1.
       -3    1    3    3    0  502  0.56954291418E+03 -0.47725748744E+03 -0.28819676796E+03  0.79700139754E+03  0.10100000352E+00 0.  1.
</event>
<event>
 5   0  0.8893075E-05  0.1789231E+04  0.7818609E-02  0.8712048E-01
       -2   -1    0    0    0  501  0.00000000000E+00  0.00000000000E+00  0.97561167597E+03  0.97561167598E+03  0.25500000920E-02 0.  1.
        2   -1    0    0  501    0  0.00000000000E+00  0.00000000000E+00 -0.82034336957E+03  0.82034336957E+03  0.25500000920E-02 0. -1.
    10030    2    1    2    0    0  0.00000000000E+00  0.00000000000E+00  0.15526830641E+03  0.17959550455E+04  0.17892306388E+04 0.  0.
        1    1    3    3  502    0 -0.30681668770E+03  0.53182928796E+03 -0.57547063218E+03  0.84151370750E+03  0.50400001928E-02 0. -1.
       -1    1    3    3    0  502  0.30681668770E+03 -0.53182928796E+03  0.73073893858E+03  0.95444133805E+03  0.50400001928E-02 0.  1.
</event>
<event>
 5   0  0.4578107E-05  0.1813675E+04  0.7818609E-02  0.8699061E-01
       -1   -1    0    0    0  501  0.00000000000E+00  0.00000000000E+00  0.30659188442E+03  0.30659188446E+03  0.50400001928E-02 0. -1.
        1   -1    0    0  501    0  0.00000000000E+00  0.00000000000E+00 -0.26822448172E+04  0.26822448172E+04  0.50400001928E-02 0.  1.
    10030    2    1    2    0    0  0.00000000000E+00  0.00000000000E+00 -0.23756529328E+04  0.29888367016E+04  0.18136752664E+04 0.  0.
        2    1    3    3  502    0  0.20138232527E+03 -0.47608507710E+03 -0.24156754491E+04  0.24703642883E+04  0.25500000920E-02 0.  1.
       -2    1    3    3    0  502 -0.20138232527E+03  0.47608507710E+03  0.40022516329E+02  0.51847241334E+03  0.25500000920E-02 0. -1.
</event>
<event>
 5   0  0.4494757E-05  0.1788704E+04  0.7818609E-02  0.8712330E-01
       -1   -1    0    0    0  501  0.00000000000E+00  0.00000000000E+00  0.69158057556E+03  0.69158057558E+03  0.50400001928E-02 0.  1.
        1   -1    0    0  501    0  0.00000000000E+00  0.00000000000E+00 -0.11565758504E+04  0.11565758504E+04  0.50400001928E-02 0. -1.
    10030    2    1    2    0    0  0.00000000000E+00  0.00000000000E+00 -0.46499527485E+03  0.18481564260E+04  0.17887038797E+04 0.  0.
        4    1    3    3  502    0  0.21562501770E+03 -0.15444589019E+03 -0.11150037408E+04  0.11461163275E+04  0.12699999809E+01 0. -1.
       -4    1    3    3    0  502 -0.21562501770E+03  0.15444589019E+03  0.65000846593E+03  0.70204009852E+03  0.12699999809E+01 0.  1.
</event>
<event>
 5   0  0.9184414E-05  0.1792558E+04  0.7818609E-02  0.8710267E-01
       -2   -1    0    0    0  501  0.00000000000E+00  0.00000000000E+00  0.10424295638E+04  0.10424295638E+04  0.25500000920E-02 0. -1.
        2   -1    0    0  501    0  0.00000000000E+00  0.00000000000E+00 -0.77061893069E+03  0.77061893069E+03  0.25500000920E-02 0.  1.
    10030    2    1    2    0    0  0.00000000000E+00  0.00000000000E+00  0.27181063314E+03  0.18130484945E+04  0.17925578995E+04 0.  0.
        5    1    3    3  502    0 -0.35389495086E+03 -0.80077143608E+03 -0.58166474080E+02  0.87742917537E+03  0.46999998093E+01 0. -1.
       -5    1    3    3    0  502  0.35389495086E+03  0.80077143608E+03  0.32997710722E+03  0.93561931915E+03  0.46999998093E+01 0.  1.
</event>
<event>
 5   0  0.4535100E-05  0.1796366E+04  0.7818609E-02  0.8708235E-01
        1   -1    0    0  501    0  0.00000000000E+00  0.00000000000E+00  0.13954447526E+04  0.13954447526E+04  0.50400001928E-02 0. -1.
       -1   -1    0    0    0  501  0.00000000000E+00  0.00000000000E+00 -0.57811849549E+03  0.57811849551E+03  0.50400001928E-02 0.  1.
    10030    2    1    2    0    0  0.00000000000E+00  0.00000000000E+00  0.81732625711E+03  0.19735632481E+04  0.17963656877E+04 0.  0.
        1    1    3    3  502    0 -0.88168203773E+02 -0.52000069416E+02 -0.57168951602E+03  0.58078097604E+03  0.50400001928E-02 0.  1.
       -1    1    3    3    0  502  0.88168203773E+02  0.52000069416E+02  0.13890157731E+04  0.13927822721E+04  0.50400001928E-02 0. -1.
</event>
<event>
 5   0  0.4494757E-05  0.1804218E+04  0.7818609E-02  0.8704060E-01
       -1   -1    0    0    0  501  0.00000000000E+00  0.00000000000E+00  0.51257720251E+03  0.51257720254E+03  0.50400001928E-02 0. -1.
        1   -1    0    0  501    0  0.00000000000E+00  0.00000000000E+00 -0.15876648762E+04  0.15876648762E+04  0.50400001928E-02 0.  1.
    10030    2    1    2    0    0  0.00000000000E+00  0.00000000000E+00 -0.10750876737E+04  0.21002420788E+04  0.18042181917E+04 0.  0.
        4    1    3    3  502    0  0.63888036660E+03 -0.61429897781E+03 -0.34182767323E+03  0.94993638105E+03  0.12699999809E+01 0.  1.
       -4    1    3    3    0  502 -0.63888036660E+03  0.61429897781E+03 -0.73326000047E+03  0.11503056977E+04  0.12699999809E+01 0. -1.
</event>
<event>
 5   0  0.4623665E-05  0.1795259E+04  0.7818609E-02  0.8708825E-01
       -1   -1    0    0    0  501  0.00000000000E+00  0.00000000000E+00  0.98882023627E+03  0.98882023628E+03  0.50400001928E-02 0. -1.
        1   -1    0    0  501    0  0.00000000000E+00  0.00000000000E+00 -0.81484884091E+03  0.81484884093E+03  0.50400001928E-02 0.  1.
    10030    2    1    2    0    0  0.00000000000E+00  0.00000000000E+00  0.17397139536E+03  0.18036690772E+04  0.17952593388E+04 0.  0.
        5    1    3    3  502    0  0.79115834806E+03  0.24926621010E+03  0.43159649130E+03  0.93507368506E+03  0.46999998093E+01 0. -1.
       -5    1    3    3    0  502 -0.79115834806E+03 -0.24926621010E+03 -0.25762509595E+03  0.86859539215E+03  0.46999998093E+01 0.  1.
</event>
<event>
 5   0  0.8892280E-05  0.1800629E+04  0.7818609E-02  0.8705965E-01
       -2   -1    0    0    0  501  0.00000000000E+00  0.00000000000E+00  0.66297576080E+03  0.66297576080E+03  0.25500000920E-02 0. -1.
        2   -1    0    0  501    0  0.00000000000E+00  0.00000000000E+00 -0.12226185188E+04  0.12226185188E+04  0.25500000920E-02 0.  1.
    10030    2    1    2    0    0  0.00000000000E+00  0.00000000000E+00 -0.55964275800E+03  0.18855942796E+04  0.18006292707E+04 0.  0.
        4    1    3    3  502    0 -0.72090567069E+03  0.36418621138E+03  0.13672748540E+03  0.81916579565E+03  0.12699999809E+01 0. -1.
       -4    1    3    3    0  502  0.72090567069E+03 -0.36418621138E+03 -0.69637024340E+03  0.10664284840E+04  0.12699999809E+01 0.  1.
</event>
<event>
 5   0  0.4535100E-05  0.1800398E+04  0.7818609E-02  0.8706088E-01
        1   -1    0    0  501    0  0.00000000000E+00  0.00000000000E+00  0.93346725844E+03  0.93346725845E+03  0.50400001928E-02 0.  1.
       -1   -1    0    0    0  501  0.00000000000E+00  0.00000000000E+00 -0.86811625019E+03  0.86811625020E+03  0.50400001928E-02 0. -1.
    10030    2    1    2    0    0  0.00000000000E+00  0.00000000000E+00  0.65351008254E+02  0.18015835087E+04  0.18003978406E+04 0.  0.
        1    1    3    3  502    0 -0.10481277077E+03  0.63850031961E+03  0.65893886120E+03  0.92350895929E+03  0.50400001928E-02 0.  1.
       -1    1    3    3    0  502  0.10481277077E+03 -0.63850031961E+03 -0.59358785294E+03  0.87807454937E+03  0.50400001928E-02 0. -1.
</event>
<event>
 5   0  0.8802655E-05  0.1791066E+04  0.7818609E-02  0.8711065E-01
        2   -1    0    0  501    0  0.00000000000E+00  0.00000000000E+00  0.13630141870E+04  0.13630141870E+04  0.25500000920E-02 0.  1.
       -2   -1    0    0    0  501  0.00000000000E+00  0.00000000000E+00 -0.58838641009E+03  0.58838641010E+03  0.25500000920E-02 0. -1.
    10030    2    1    2    0    0  0.00000000000E+00  0.00000000000E+00  0.77462777692E+03  0.19514005971E+04  0.17910656319E+04 0.  0.
        2    1    3    3  502    0  0.40347865219E+03 -0.84627020350E+02 -0.47885209419E+03  0.63186714068E+03  0.25500000920E-02 0. -1.
       -2    1    3    3    0  502 -0.40347865219E+03  0.84627020350E+02  0.12534798711E+04  0.13195334564E+04  0.25500000920E-02 0.  1.
</event>
<event>
 5   0  0.9184414E-05  0.1799461E+04  0.7818609E-02  0.8706586E-01
        2   -1    0    0  501    0  0.00000000000E+00  0.00000000000E+00  0.14611687095E+04  0.14611687095E+04  0.25500000920E-02 0. -1.
       -2   -1    0    0    0  501  0.00000000000E+00  0.00000000000E+00 -0.55401912391E+03  0.55401912392E+03  0.25500000920E-02 0.  1.
    10030    2    1    2    0    0  0.00000000000E+00  0.00000000000E+00  0.90714958561E+03  0.20151878334E+04  0.17994614843E+04 0.  0.
        5    1    3    3  502    0  0.13646100701E+03 -0.72765678546E+03  0.10261271809E+04  0.12653320059E+04  0.46999998093E+01 0. -1.
       -5    1    3    3    0  502 -0.13646100701E+03  0.72765678546E+03 -0.11897759530E+03  0.74985582750E+03  0.46999998093E+01 0.  1.
</event>
<event>
 5   0  0.4335117E-05  0.1800842E+04  0.7818609E-02  0.8705852E-01
        1   -1    0    0  501    0  0.00000000000E+00  0.00000000000E+00  0.82663552602E+03  0.82663552603E+03  0.50400001928E-02 0.  1.
       -1   -1    0    0    0  501  0.00000000000E+00  0.00000000000E+00 -0.98079250344E+03  0.98079250345E+03  0.50400001928E-02 0. -1.
    10030    2    1    2    0    0  0.00000000000E+00  0.00000000000E+00 -0.15415697742E+03  0.18074280295E+04  0.18008419442E+04 0.  0.
        3    1    3    3  502    0 -0.77489001441E+03 -0.14092551920E+03  0.36091570815E+03  0.86635714055E+03  0.10100000352E+00 0.  1.
       -3    1    3    3    0  502  0.77489001441E+03  0.14092551920E+03 -0.51507268557E+03  0.94107088894E+03  0.10100000352E+00 0. -1.
</event>
<event>
 5   0  0.4623665E-05  0.1802728E+04  0.7818609E-02  0.8704850E-01
       -1   -1    0    0    0  501  0.00000000000E+00  0.00000000000E+00  0.10542359490E+04  0.10542359490E+04  0.50400001928E-02 0. -1.
        1   -1    0    0  501    0  0.00000000000E+00  0.00000000000E+00 -0.77066002149E+03  0.77066002151E+03  0.50400001928E-02 0.  1.
    10030    2    1    2    0    0  0.00000000000E+00  0.00000000000E+00  0.28357592746E+03  0.18248959705E+04  0.18027284866E+04 0.  0.
        5    1    3    3  502    0  0.19636295807E+03 -0.40516366222E+03  0.93223504322E+03  0.10352778711E+04  0.46999998093E+01 0. -1.
       -5    1    3    3    0  502 -0.19636295807E+03  0.40516366222E+03 -0.64865911576E+03  0.78961809942E+03  0.46999998093E+01 0.  1.
</event>
<event>
 5   0  0.8802655E-05  0.1795985E+04  0.7818609E-02  0.8708437E-01
       -2   -1    0    0    0  501  0.00000000000E+00  0.00000000000E+00  0.52780417539E+03  0.52780417539E+03  0.25500000920E-02 0. -1.
        2   -1    0    0  501    0  0.00000000000E+00  0.00000000000E+00 -0.15278222101E+04  0.15278222101E+04  0.25500000920E-02 0.  1.
    10030    2    1    2    0    0  0.00000000000E+00  0.00000000000E+00 -0.10000180347E+04  0.20556263855E+04  0.17959854584E+04 0.  0.
        2    1    3    3  502    0 -0.44598743881E+03  0.64697125875E+03 -0.25310786060E+01  0.78580087274E+03  0.25500000920E-02 0. -1.
       -2    1    3    3    0  502  0.44598743881E+03 -0.64697125875E+03 -0.99748695608E+03  0.12698255127E+04  0.25500000920E-02 0.  1.
</event>
<event>
 5   0  0.4494757E-05  0.1787824E+04  0.7818609E-02  0.8712802E-01
       -1   -1    0    0    0  501  0.00000000000E+00  0.00000000000E+00  0.55059617541E+03  0.55059617543E+03  0.50400001928E-02 0. -1.
        1   -1    0    0  501    0  0.00000000000E+00  0.00000000000E+00 -0.14512968307E+04  0.14512968307E+04  0.50400001928E-02 0.  1.
    10030    2    1    2    0    0  0.00000000000E+00  0.00000000000E+00 -0.90070065533E+03  0.20018930062E+04  0.17878237994E+04 0.  0.
        4    1    3    3  502    0 -0.71547952888E+03  0.18120740056E+03 -0.10150464001E+04  0.12550170857E+04  0.12699999809E+01 0.  1.
       -4    1    3    3    0  502  0.71547952888E+03 -0.18120740056E+03  0.11434574477E+03  0.74687592043E+03  0.12699999809E+01 0. -1.
</event>
<event>
 5   0  0.9147432E-05  0.1798039E+04  0.7818609E-02  0.8707343E-01
        2   -1    0    0  501    0  0.00000000000E+00  0.00000000000E+00  0.57299222959E+03  0.57299222960E+03  0.25500000920E-02 0. -1.
       -2   -1    0    0    0  501  0.00000000000E+00  0.00000000000E+00 -0.14105530246E+04  0.14105530246E+04  0.25500000920E-02 0.  1.
    10030    2    1    2    0    0  0.00000000000E+00  0.00000000000E+00 -0.83756079502E+03  0.19835452542E+04  0.17980388456E+04 0.  0.
        3    1    3    3  502    0 -0.22856122908E+03 -0.11708900172E+03 -0.13692289899E+04  0.13931037674E+04  0.10100000352E+00 0.  1.
       -3    1    3    3    0  502  0.22856122908E+03  0.11708900172E+03  0.53166819485E+03  0.59044148684E+03  0.10100000352E+00 0. -1.
</event>
<event>
 5   0  0.9184414E-05  0.1794440E+04  0.7818609E-02  0.8709262E-01
        2   -1    0    0  501    0  0.00000000000E+00  0.00000000000E+00  0.26029768052E+04  0.26029768052E+04  0.25500000920E-02 0.  1.
       -2   -1    0    0    0  501  0.00000000000E+00  0.00000000000E+00 -0.30926288248E+03  0.30926288250E+03  0.25500000920E-02 0. -1.
    10030    2    1    2    0    0  0.00000000000E+00  0.00000000000E+00  0.22937139227E+04  0.29122396877E+04  0.17944404251E+04 0.  0.
        5    1    3    3  502    0 -0.76723976711E+02  0.89274104723E+03  0.10723282917E+04  0.13974201949E+04  0.46999998093E+01 0.  1.
       -5    1    3    3    0  502  0.76723976711E+02 -0.89274104723E+03  0.12213856310E+04  0.15148194928E+04  0.46999998093E+01 0. -1.
</event>
<event>
 5   0  0.8892280E-05  0.1809391E+04  0.7818609E-02  0.8701321E-01
       -2   -1    0    0    0  501  0.00000000000E+00  0.00000000000E+00  0.66628869381E+03  0.66628869381E+03  0.25500000920E-02 0. -1.
        2   -1    0    0  501    0  0.00000000000E+00  0.00000000000E+00 -0.12284071807E+04  0.12284071807E+04  0.25500000920E-02 0.  1.
    10030    2    1    2    0    0  0.00000000000E+00  0.00000000000E+00 -0.56211848691E+03  0.18946958745E+04  0.18093908543E+04 0.  0.
        4    1    3    3  502    0 -0.50760081194E+03  0.67231361492E+03  0.64352879714E+02  0.84487104763E+03  0.12699999809E+01 0. -1.
       -4    1    3    3    0  502  0.50760081194E+03 -0.67231361492E+03 -0.62647136663E+03  0.10498248269E+04  0.12699999809E+01 0.  1.
</event>
<event>
 5   0  0.4494757E-05  0.1807727E+04  0.7818609E-02  0.8702201E-01
        1   -1    0    0  501    0  0.00000000000E+00  0.00000000000E+00  0.15734043942E+04  0.15734043942E+04  0.50400001928E-02 0.  1.
       -1   -1    0    0    0  501  0.00000000000E+00  0.00000000000E+00 -0.51923647025E+03  0.51923647028E+03  0.50400001928E-02 0. -1.
    10030    2    1    2    0    0  0.00000000000E+00  0.00000000000E+00  0.10541679239E+04  0.20926408645E+04  0.18077266873E+04 0.  0.
        4    1    3    3  502    0  0.15941338453E+03 -0.31875358823E+02 -0.50217223488E+03  0.52783257957E+03  0.12699999809E+01 0. -1.
       -4    1    3    3    0  502 -0.15941338453E+03  0.31875358823E+02  0.15563401588E+04  0.15648082849E+04  0.12699999809E+01 0.  1.
</event>
<event>
 5   0  0.8893075E-05  0.1833539E+04  0.7818609E-02  0.8688664E-01
       -2   -1    0    0    0  501  0.00000000000E+00  0.00000000000E+00  0.64164574817E+03  0.64164574818E+03  0.25500000920E-02 0. -1.
        2   -1    0    0  501    0  0.00000000000E+00  0.00000000000E+00 -0.13098609116E+04  0.13098609116E+04  0.25500000920E-02 0.  1.
    10030    2    1    2    0    0  0.00000000000E+00  0.00000000000E+00 -0.66821516340E+03  0.19515066598E+04  0.18335394019E+04 0.  0.
        1    1    3    3  502    0 -0.49426827908E+03  0.76805736053E+03 -0.41827411067E+03  0.10045727811E+04  0.50400001928E-02 0.  1.
       -1    1    3    3    0  502  0.49426827908E+03 -0.76805736053E+03 -0.24994105273E+03  0.94693387870E+03  0.50400001928E-02 0. -1.
</event>
<event>
 5   0  0.4494757E-05  0.1801755E+04  0.7818609E-02  0.8705367E-01
       -1   -1    0    0    0  501  0.00000000000E+00  0.00000000000E+00  0.42745685209E+03  0.42745685211E+03  0.50400001928E-02 0. -1.
        1   -1    0    0  501    0  0.00000000000E+00  0.00000000000E+00 -0.18986256493E+04  0.18986256493E+04  0.50400001928E-02 0.  1.
    10030    2    1    2    0    0  0.00000000000E+00  0.00000000000E+00 -0.14711687972E+04  0.23260825014E+04  0.18017553034E+04 0.  0.
        4    1    3    3  502    0 -0.75251818317E+03 -0.14505901119E+03 -0.12422213628E+03  0.77637522163E+03  0.12699999809E+01 0. -1.
       -4    1    3    3    0  502  0.75251818317E+03  0.14505901119E+03 -0.13469466609E+04  0.15497072798E+04  0.12699999809E+01 0.  1.
</event>
<event>
 5   0  0.8892280E-05  0.1798766E+04  0.7818609E-02  0.8706956E-01
        2   -1    0    0  501    0  0.00000000000E+00  0.00000000000E+00  0.89194621391E+03  0.89194621392E+03  0.25500000920E-02 0. -1.
       -2   -1    0    0    0  501  0.00000000000E+00  0.00000000000E+00 -0.90688224533E+03  0.90688224533E+03  0.25500000920E-02 0.  1.
    10030    2    1    2    0    0  0.00000000000E+00  0.00000000000E+00 -0.14936031418E+02  0.17988284592E+04  0.17987664498E+04 0.  0.
        4    1    3    3  502    0  0.27349133269E+03 -0.37785550461E+03 -0.77646544800E+03  0.90579936866E+03  0.12699999809E+01 0.  1.
       -4    1    3    3    0  502 -0.27349133269E+03  0.37785550461E+03  0.76152941658E+03  0.89302909059E+03  0.12699999809E+01 0. -1.
</event>
<event>
 5   0  0.4535100E-05  0.1798097E+04  0.7818609E-02  0.8707312E-01
       -1   -1    0    0    0  501  0.00000000000E+00  0.00000000000E+00  0.64869026185E+03  0.64869026187E+03  0.50400001928E-02 0. -1.
        1   -1    0    0  501    0  0.00000000000E+00  0.00000000000E+00 -0.12460315700E+04  0.12460315700E+04  0.50400001928E-02 0.  1.
    10030    2    1    2    0    0  0.00000000000E+00  0.00000000000E+00 -0.59734130815E+03  0.18947218319E+04  0.17980973783E+04 0.  0.
        1    1    3    3  502    0 -0.14689700010E+03  0.33874778573E+02  0.63527707933E+03  0.65291898181E+03  0.50400001928E-02 0. -1.
       -1    1    3    3    0  502  0.14689700010E+03 -0.33874778573E+02 -0.12326183875E+04  0.12418028501E+04  0.50400001928E-02 0.  1.
</event>
<event>
 5   0  0.9184414E-05  0.1807079E+04  0.7818609E-02  0.8702544E-01
        2   -1    0    0  501    0  0.00000000000E+00  0.00000000000E+00  0.97827125147E+03  0.97827125147E+03  0.25500000920E-02 0. -1.
       -2   -1    0    0    0  501  0.00000000000E+00  0.00000000000E+00 -0.83451642624E+03  0.83451642625E+03  0.25500000920E-02 0.  1.
    10030    2    1    2    0    0  0.00000000000E+00  0.00000000000E+00  0.14375482523E+03  0.18127876777E+04  0.18070787793E+04 0.  0.
        5    1    3    3  502    0 -0.50654302850E+03 -0.70605008906E+03 -0.17642985893E+03  0.88670296780E+03  0.46999998093E+01 0.  1.
       -5    1    3    3    0  502  0.50654302850E+03  0.70605008906E+03  0.32018468416E+03  0.92608470992E+03  0.46999998093E+01 0. -1.
</event>
<event>
 5   0  0.9184414E-05  0.1796749E+04  0.7818609E-02  0.8708030E-01
        2   -1    0    0  501    0  0.00000000000E+00  0.00000000000E+00  0.75917513379E+03  0.75917513380E+03  0.25500000920E-02 0. -1.
       -2   -1    0    0    0  501  0.00000000000E+00  0.00000000000E+00 -0.10630969575E+04  0.10630969575E+04  0.25500000920E-02 0.  1.
    10030    2    1    2    0    0  0.00000000000E+00  0.00000000000E+00 -0.30392182369E+03  0.18222720913E+04  0.17967490364E+04 0.  0.
        5    1    3    3  502    0  0.62925221924E+03  0.13725330846E+02  0.49816589294E+03  0.80270672541E+03  0.46999998093E+01 0. -1.
       -5    1    3    3    0  502 -0.62925221924E+03 -0.13725330846E+02 -0.80208771663E+03  0.10195653659E+04  0.46999998093E+01 0.  1.
</event>
<event>
 5   0  0.8802655E-05  0.1800852E+04  0.7818609E-02  0.8705846E-01
        2   -1    0    0  501    0  0.00000000000E+00  0.00000000000E+00  0.52660104098E+03  0.52660104098E+03  0.25500000920E-02 0.  1.
       -2   -1    0    0    0  501  0.00000000000E+00  0.00000000000E+00 -0.15396234621E+04  0.15396234621E+04  0.25500000920E-02 0. -1.
    10030    2    1    2    0    0  0.00000000000E+00  0.00000000000E+00 -0.10130224211E+04  0.20662245031E+04  0.18008523736E+04 0.  0.
        2    1    3    3  502    0  0.75126724189E+03 -0.16572534015E+03  0.30300815556E+02  0.76992564351E+03  0.25500000920E-02 0.  1.
       -2    1    3    3    0  502 -0.75126724189E+03  0.16572534015E+03 -0.10433232367E+04  0.12962988595E+04  0.25500000920E-02 0. -1.
</event>
<event>
 5   0  0.8802655E-05  0.1793871E+04  0.7818609E-02  0.8709566E-01
        2   -1    0    0  501    0  0.00000000000E+00  0.00000000000E+00  0.26374596053E+03  0.26374596055E+03  0.25500000920E-02 0.  1.
       -2   -1    0    0    0  501  0.00000000000E+00  0.00000000000E+00 -0.30502571907E+04  0.30502571907E+04  0.25500000920E-02 0. -1.
    10030    2    1    2    0    0  0.00000000000E+00  0.00000000000E+00 -0.27865112301E+04  0.33140031512E+04  0.17938706895E+04 0.  0.
        2    1    3    3  502    0 -0.65342880764E+03 -0.56874317939E+03 -0.96373923915E+03  0.12958515856E+04  0.25500000920E-02 0. -1.
       -2    1    3    3    0  502  0.65342880764E+03  0.56874317939E+03 -0.18227719910E+04  0.20181515656E+04  0.25500000920E-02 0.  1.
</event>
<event>
 5   0  0.8893075E-05  0.1801342E+04  0.7818609E-02  0.8705586E-01
        2   -1    0    0  501    0  0.00000000000E+00  0.00000000000E+00  0.13689462982E+04  0.13689462982E+04  0.25500000920E-02 0.  1.
       -2   -1    0    0    0  501  0.00000000000E+00  0.00000000000E+00 -0.59257846736E+03  0.59257846736E+03  0.25500000920E-02 0. -1.
    10030    2    1    2    0    0  0.00000000000E+00  0.00000000000E+00  0.77636783085E+03  0.19615247656E+04  0.18013418324E+04 0.  0.
        1    1    3    3  502    0  0.38510702433E+03 -0.76294376584E+03  0.78619994987E+02  0.85823756248E+03  0.50400001928E-02 0. -1.
       -1    1    3    3    0  502 -0.38510702433E+03  0.76294376584E+03  0.69774783586E+03  0.11032872031E+04  0.50400001928E-02 0.  1.
</event>
<event>
 5   0  0.4335117E-05  0.1799963E+04  0.7818609E-02  0.8706319E-01
        1   -1    0    0  501    0  0.00000000000E+00  0.00000000000E+00  0.12187056899E+04  0.12187056899E+04  0.50400001928E-02 0. -1.
       -1   -1    0    0    0  501  0.00000000000E+00  0.00000000000E+00 -0.66461211571E+03  0.66461211573E+03  0.50400001928E-02 0.  1.
    10030    2    1    2    0    0  0.00000000000E+00  0.00000000000E+00  0.55409357420E+03  0.18833178056E+04  0.17999628519E+04 0.  0.
        3    1    3    3  502    0  0.68259826420E+03 -0.41192399570E+03  0.71392919288E+03  0.10701946884E+04  0.10100000352E+00 0. -1.
       -3    1    3    3    0  502 -0.68259826420E+03  0.41192399570E+03 -0.15983561868E+03  0.81312311720E+03  0.10100000352E+00 0.  1.
</event>
<event>
 5   0  0.4335117E-05  0.1799009E+04  0.7818609E-02  0.8706827E-01
        1   -1    0    0  501    0  0.00000000000E+00  0.00000000000E+00  0.63878250453E+03  0.63878250455E+03  0.50400001928E-02 0.  1.
       -1   -1    0    0    0  501  0.00000000000E+00  0.00000000000E+00 -0.12666416673E+04  0.12666416673E+04  0.50400001928E-02 0. -1.
    10030    2    1    2    0    0  0.00000000000E+00  0.00000000000E+00 -0.62785916276E+03  0.19054241719E+04  0.17990092124E+04 0.  0.
        3    1    3    3  502    0  0.73148884195E+03 -0.44370710214E+03 -0.19728105942E+02  0.85576931865E+03  0.10100000352E+00 0. -1.
       -3    1    3    3    0  502 -0.73148884195E+03  0.44370710214E+03 -0.60813105682E+03  0.10496548532E+04  0.10100000352E+00 0.  1.
</event>
<event>
 5   0  0.3270375E-05  0.1791973E+04  0.7818609E-02  0.8710580E-01
        3   -1    0    0  501    0  0.00000000000E+00  0.00000000000E+00  0.10701558344E+04  0.10701558392E+04  0.10100000352E+00 0.  1.
       -3   -1    0    0    0  501  0.00000000000E+00  0.00000000000E+00 -0.75016348261E+03  0.75016348940E+03  0.10100000352E+00 0. -1.
    10030    2    1    2    0    0  0.00000000000E+00  0.00000000000E+00  0.31999235178E+03  0.18203193286E+04  0.17919730335E+04 0.  0.
        5    1    3    3  502    0  0.64990947665E+03 -0.61582225692E+03  0.19444977125E+03  0.91621623185E+03  0.46999998093E+01 0. -1.
       -5    1    3    3    0  502 -0.64990947665E+03  0.61582225692E+03  0.12554258053E+03  0.90410309671E+03  0.46999998093E+01 0.  1.
</event>
<event>
 5   0  0.9147432E-05  0.1804380E+04  0.7818609E-02  0.8703974E-01
       -2   -1    0    0    0  501  0.00000000000E+00  0.00000000000E+00  0.73318355926E+03  0.73318355926E+03  0.25500000920E-02 0.  1.
        2   -1    0    0  501    0  0.00000000000E+00  0.00000000000E+00 -0.11101539011E+04  0.11101539011E+04  0.25500000920E-02 0. -1.
    10030    2    1    2    0    0  0.00000000000E+00  0.00000000000E+00 -0.37697034184E+03  0.18433374604E+04  0.18043797699E+04 0.  0.
        3    1    3    3  502    0 -0.67406303118E+03  0.28340288468E+03  0.35138310556E+03  0.81126337408E+03  0.10100000352E+00 0.  1.
       -3    1    3    3    0  502  0.67406303118E+03 -0.28340288468E+03 -0.72835344741E+03  0.10320740863E+04  0.10100000352E+00 0. -1.
</event>
<event>
 5   0  0.4535100E-05  0.1800878E+04  0.7818609E-02  0.8705833E-01
        1   -1    0    0  501    0  0.00000000000E+00  0.00000000000E+00  0.20807912659E+04  0.20807912659E+04  0.50400001928E-02 0. -1.
       -1   -1    0    0    0  501  0.00000000000E+00  0.00000000000E+00 -0.38965488046E+03  0.38965488049E+03  0.50400001928E-02 0.  1.
    10030    2    1    2    0    0  0.00000000000E+00  0.00000000000E+00  0.16911363855E+04  0.24704461464E+04  0.18008780881E+04 0.  0.
        1    1    3    3  502    0 -0.56604388588E+03 -0.61112247255E+03  0.37651234994E+03  0.91413232460E+03  0.50400001928E-02 0. -1.
       -1    1    3    3    0  502  0.56604388588E+03  0.61112247255E+03  0.13146240355E+04  0.15563138218E+04  0.50400001928E-02 0.  1.
</event>
<event>
 5   0  0.8802655E-05  0.1800880E+04  0.7818609E-02  0.8705832E-01
       -2   -1    0    0    0  501  0.00000000000E+00  0.00000000000E+00  0.68410934812E+03  0.68410934813E+03  0.25500000920E-02 0. -1.
        2   -1    0    0  501    0  0.00000000000E+00  0.00000000000E+00 -0.11851790832E+04  0.11851790832E+04  0.25500000920E-02 0.  1.
    10030    2    1    2    0    0  0.00000000000E+00  0.00000000000E+00 -0.50106973508E+03  0.18692884313E+04  0.18008798850E+04 0.  0.
        2    1    3    3  502    0  0.53462938885E+02  0.46506489662E+03  0.54787047635E+03  0.72062868578E+03  0.25500000920E-02 0. -1.
       -2    1    3    3    0  502 -0.53462938885E+02 -0.46506489662E+03 -0.10489402114E+04  0.11486597456E+04  0.25500000920E-02 0.  1.
</event>
<event>
 5   0  0.4494757E-05  0.1796318E+04  0.7818609E-02  0.8708260E-01
        1   -1    0    0  501    0  0.00000000000E+00  0.00000000000E+00  0.11975866740E+04  0.11975866740E+04  0.50400001928E-02 0. -1.
       -1   -1    0    0    0  501  0.00000000000E+00  0.00000000000E+00 -0.67359569163E+03  0.67359569164E+03  0.50400001928E-02 0.  1.
    10030    2    1    2    0    0  0.00000000000E+00  0.00000000000E+00  0.52399098234E+03  0.18711823656E+04  0.17963175933E+04 0.  0.
        4    1    3    3  502    0  0.11814505282E+03 -0.36111182948E+03 -0.58575767489E+03  0.69819314913E+03  0.12699999809E+01 0.  1.
       -4    1    3    3    0  502 -0.11814505282E+03  0.36111182948E+03  0.11097486572E+04  0.11729892165E+04  0.12699999809E+01 0. -1.
</event>
<event>
 5   0  0.4535100E-05  0.1802749E+04  0.7818609E-02  0.8704839E-01
        1   -1    0    0  501    0  0.00000000000E+00  0.00000000000E+00  0.10251206944E+04  0.10251206944E+04  0.50400001928E-02 0.  1.
       -1   -1    0    0    0  501  0.00000000000E+00  0.00000000000E+00 -0.79256653738E+03  0.79256653740E+03  0.50400001928E-02 0. -1.
    10030    2    1    2    0    0  0.00000000000E+00  0.00000000000E+00  0.23255415702E+03  0.18176872318E+04  0.18027494104E+04 0.  0.
        1    1    3    3  502    0  0.60514859443E+03 -0.58470629506E+03  0.44204882994E+03  0.95052271983E+03  0.50400001928E-02 0.  1.
       -1    1    3    3    0  502 -0.60514859443E+03  0.58470629506E+03 -0.20949467292E+03  0.86716451198E+03  0.50400001928E-02 0. -1.
</event>
<event>
 5   0  0.4578107E-05  0.1831179E+04  0.7818609E-02  0.8689892E-01
       -1   -1    0    0    0  501  0.00000000000E+00  0.00000000000E+00  0.12185819267E+04  0.12185819267E+04  0.50400001928E-02 0.  1.
        1   -1    0    0  501    0  0.00000000000E+00  0.00000000000E+00 -0.68793430297E+03  0.68793430298E+03  0.50400001928E-02 0. -1.
    10030    2    1    2    0    0  0.00000000000E+00  0.00000000000E+00  0.53064762369E+03  0.19065162297E+04  0.18311791921E+04 0.  0.
        2    1    3    3  502    0 -0.45948495084E+03  0.77443816904E+03  0.92910658348E+02  0.90526973226E+03  0.25500000920E-02 0.  1.
       -2    1    3    3    0  502  0.45948495084E+03 -0.77443816904E+03  0.43773696535E+03  0.10012464974E+04  0.25500000920E-02 0. -1.
</event>
<event>
 5   0  0.4335117E-05  0.1805921E+04  0.7818609E-02  0.8703157E-01
       -1   -1    0    0    0  501  0.00000000000E+00  0.00000000000E+00  0.90376709451E+03  0.90376709452E+03  0.50400001928E-02 0. -1.
        1   -1    0    0  501    0  0.00000000000E+00  0.00000000000E+00 -0.90215454794E+03  0.90215454796E+03  0.50400001928E-02 0.  1.
    10030    2    1    2    0    0  0.00000000000E+00  0.00000000000E+00  0.16125465622E+01  0.18059216425E+04  0.18059209225E+04 0.  0.
        3    1    3    3  502    0 -0.15028430399E+03  0.58835402394E+03 -0.66746920209E+03  0.90236410359E+03  0.10100000352E+00 0.  1.
       -3    1    3    3    0  502  0.15028430399E+03 -0.58835402394E+03  0.66908174865E+03  0.90355753889E+03  0.10100000352E+00 0. -1.
</event>
<event>
 5   0  0.8892280E-05  0.1802029E+04  0.7818609E-02  0.8705221E-01
       -2   -1    0    0    0  501  0.00000000000E+00  0.00000000000E+00  0.15420260345E+04  0.15420260345E+04  0.25500000920E-02 0.  1.
        2   -1    0    0  501    0  0.00000000000E+00  0.00000000000E+00 -0.52646799504E+03  0.52646799504E+03  0.25500000920E-02 0. -1.
    10030    2    1    2    0    0  0.00000000000E+00  0.00000000000E+00  0.10155580394E+04  0.20684940295E+04  0.18020292502E+04 0.  0.
        4    1    3    3  502    0  0.66680450361E+03  0.50445999385E+03  0.89315826517E+03  0.12234547114E+04  0.12699999809E+01 0. -1.
       -4    1    3    3    0  502 -0.66680450361E+03 -0.50445999385E+03  0.12239977425E+03  0.84503931806E+03  0.12699999809E+01 0.  1.
</event>
<event>
 5   0  0.8892280E-05  0.1798297E+04  0.7818609E-02  0.8707206E-01
        2   -1    0    0  501    0  0.00000000000E+00  0.00000000000E+00  0.15596313346E+04  0.15596313346E+04  0.25500000920E-02 0.  1.
       -2   -1    0    0    0  501  0.00000000000E+00  0.00000000000E+00 -0.51837127988E+03  0.51837127989E+03  0.25500000920E-02 0. -1.
    10030    2    1    2    0    0  0.00000000000E+00  0.00000000000E+00  0.10412600548E+04  0.20780026145E+04  0.17982970735E+04 0.  0.
        4    1    3    3  502    0 -0.56603224232E+02  0.33615388092E+03  0.14820657407E+04  0.15207642254E+04  0.12699999809E+01 0.  1.
       -4    1    3    3    0  502  0.56603224232E+02 -0.33615388092E+03 -0.44080568594E+03  0.55723838912E+03  0.12699999809E+01 0. -1.
</event>
<event>
 5   0  0.4578107E-05  0.1754569E+04  0.7818609E-02  0.8730839E-01
       -1   -1    0    0    0  501  0.00000000000E+00  0.00000000000E+00  0.13392825678E+04  0.13392825678E+04  0.50400001928E-02 0.  1.
        1   -1    0    0  501    0  0.00000000000E+00  0.00000000000E+00 -0.57465682730E+03  0.57465682732E+03  0.50400001928E-02 0. -1.
    10030    2    1    2    0    0  0.00000000000E+00  0.00000000000E+00  0.76462574046E+03  0.19139393951E+04  0.17545687462E+04 0.  0.
        2    1    3    3  502    0 -0.54020005743E+03  0.51647070205E+03  0.88346643584E+03  0.11571823674E+04  0.25500000920E-02 0.  1.
       -2    1    3    3    0  502  0.54020005743E+03 -0.51647070205E+03 -0.11884069538E+03  0.75675702772E+03  0.25500000920E-02 0. -1.
</event>
<event>
 5   0  0.8892280E-05  0.1800351E+04  0.7818609E-02  0.8706113E-01
       -2   -1    0    0    0  501  0.00000000000E+00  0.00000000000E+00  0.58411354083E+03  0.58411354083E+03  0.25500000920E-02 0.  1.
        2   -1    0    0  501    0  0.00000000000E+00  0.00000000000E+00 -0.13872572876E+04  0.13872572876E+04  0.25500000920E-02 0. -1.
    10030    2    1    2    0    0  0.00000000000E+00  0.00000000000E+00 -0.80314374681E+03  0.19713708285E+04  0.18003508173E+04 0.  0.
        4    1    3    3  502    0 -0.30265407826E+03 -0.40862682601E+03 -0.12149227526E+04  0.13170475624E+04  0.12699999809E+01 0. -1.
       -4    1    3    3    0  502  0.30265407826E+03  0.40862682601E+03  0.41177900577E+03  0.65432326606E+03  0.12699999809E+01 0.  1.
</event>
<event>
 5   0  0.8893075E-05  0.1810145E+04  0.7818609E-02  0.8700923E-01
        2   -1    0    0  501    0  0.00000000000E+00  0.00000000000E+00  0.12984802721E+04  0.12984802721E+04  0.25500000920E-02 0.  1.
       -2   -1    0    0    0  501  0.00000000000E+00  0.00000000000E+00 -0.63085764186E+03  0.63085764186E+03  0.25500000920E-02 0. -1.
    10030    2    1    2    0    0  0.00000000000E+00  0.00000000000E+00  0.66762263025E+03  0.19293379140E+04  0.18101449693E+04 0.  0.
        1    1    3    3  502    0  0.30839450053E+03  0.41394265142E+03 -0.45858030880E+03  0.69047200252E+03  0.50400001928E-02 0. -1.
       -1    1    3    3    0  502 -0.30839450053E+03 -0.41394265142E+03  0.11262029390E+04  0.12388659115E+04  0.50400001928E-02 0.  1.
</event>
<event>
 5   0  0.8892280E-05  0.1813897E+04  0.7818609E-02  0.8698944E-01
        2   -1    0    0  501    0  0.00000000000E+00  0.00000000000E+00  0.18378038026E+04  0.18378038026E+04  0.25500000920E-02 0.  1.
       -2   -1    0    0    0  501  0.00000000000E+00  0.00000000000E+00 -0.44757537724E+03  0.44757537725E+03  0.25500000920E-02 0. -1.
    10030    2    1    2    0    0  0.00000000000E+00  0.00000000000E+00  0.13902284254E+04  0.22853791799E+04  0.18138971639E+04 0.  0.
        4    1    3    3  502    0 -0.75482230577E+03 -0.12388785758E+03  0.81167097900E+02  0.76921689089E+03  0.12699999809E+01 0. -1.
       -4    1    3    3    0  502  0.75482230577E+03  0.12388785758E+03  0.13090613275E+04  0.15161622890E+04  0.12699999809E+01 0.  1.
</event>
<event>
 5   0  0.4335117E-05  0.1793186E+04  0.7818609E-02  0.8709931E-01
        1   -1    0    0  501    0  0.00000000000E+00  0.00000000000E+00  0.55820413394E+03  0.55820413397E+03  0.50400001928E-02 0. -1.
       -1   -1    0    0    0  501  0.00000000000E+00  0.00000000000E+00 -0.14401165627E+04  0.14401165627E+04  0.50400001928E-02 0.  1.
    10030    2    1    2    0    0  0.00000000000E+00  0.00000000000E+00 -0.88191242879E+03  0.19983206967E+04  0.17931860123E+04 0.  0.
        3    1    3    3  502    0 -0.35116669849E+03  0.71422332378E+03 -0.90103610730E+03  0.12022059238E+04  0.10100000352E+00 0.  1.
       -3    1    3    3    0  502  0.35116669849E+03 -0.71422332378E+03  0.19123678506E+02  0.79611477291E+03  0.10100000352E+00 0. -1.
</event>
<event>
 5   0  0.9184414E-05  0.1801980E+04  0.7818609E-02  0.8705247E-01
        2   -1    0    0  501    0  0.00000000000E+00  0.00000000000E+00  0.11869346111E+04  0.11869346111E+04  0.25500000920E-02 0.  1.
       -2   -1    0    0    0  501  0.00000000000E+00  0.00000000000E+00 -0.68393259598E+03  0.68393259598E+03  0.25500000920E-02 0. -1.
    10030    2    1    2    0    0  0.00000000000E+00  0.00000000000E+00  0.50300201510E+03  0.18708672071E+04  0.18019803216E+04 0.  0.
        5    1    3    3  502    0 -0.70596681581E+03  0.39537144466E+03  0.66295062877E+03  0.10460560934E+04  0.46999998093E+01 0.  1.
       -5    1    3    3    0  502  0.70596681581E+03 -0.39537144466E+03 -0.15994861367E+03  0.82481111370E+03  0.46999998093E+01 0. -1.
</event>
<event>
 5   0  0.4335117E-05  0.1803587E+04  0.7818609E-02  0.8704394E-01
        1   -1    0    0  501    0  0.00000000000E+00  0.00000000000E+00  0.16311931393E+04  0.16311931393E+04  0.50400001928E-02 0.  1.
       -1   -1    0    0    0  501  0.00000000000E+00  0.00000000000E+00 -0.49855036332E+03  0.49855036334E+03  0.50400001928E-02 0. -1.
    10030    2    1    2    0    0  0.00000000000E+00  0.00000000000E+00  0.11326427760E+04  0.21297435027E+04  0.18035874609E+04 0.  0.
        3    1    3    3  502    0  0.24010808784E+03  0.72571920080E+02  0.15891701645E+04  0.16088444298E+04  0.10100000352E+00 0.  1.
       -3    1    3    3    0  502 -0.24010808784E+03 -0.72571920080E+02 -0.45652738851E+03  0.52089907284E+03  0.10100000352E+00 0. -1.
</event>
<event>
 5   0  0.4335117E-05  0.1806173E+04  0.7818609E-02  0.8703024E-01
       -1   -1    0    0    0  501  0.00000000000E+00  0.00000000000E+00  0.49892012655E+03  0.49892012658E+03  0.50400001928E-02 0. -1.
        1   -1    0    0  501    0  0.00000000000E+00  0.00000000000E+00 -0.16346607629E+04  0.16346607629E+04  0.50400001928E-02 0.  1.
    10030    2    1    2    0    0  0.00000000000E+00  0.00000000000E+00 -0.11357406364E+04  0.21335808895E+04  0.18061729206E+04 0.  0.
        3    1    3    3  502    0  0.46874458155E+03  0.24494429162E+03  0.29683825463E+03  0.60649167211E+03  0.10100000352E+00 0. -1.
       -3    1    3    3    0  502 -0.46874458155E+03 -0.24494429162E+03 -0.14325788910E+04  0.15270892174E+04  0.10100000352E+00 0.  1.
</event>
<event>
 5   0  0.9147432E-05  0.1794132E+04  0.7818609E-02  0.8709426E-01
        2   -1    0    0  501    0  0.00000000000E+00  0.00000000000E+00  0.16665450299E+04  0.16665450299E+04  0.25500000920E-02 0.  1.
       -2   -1    0    0    0  501  0.00000000000E+00  0.00000000000E+00 -0.48287165689E+03  0.48287165690E+03  0.25500000920E-02 0. -1.
    10030    2    1    2    0    0  0.00000000000E+00  0.00000000000E+00  0.11836733730E+04  0.21494166868E+04  0.17941319459E+04 0.  0.
        3    1    3    3  502    0  0.85044688795E+03 -0.17958971145E+03  0.32606122821E+03  0.92834708403E+03  0.10100000352E+00 0. -1.
       -3    1    3    3    0  502 -0.85044688795E+03  0.17958971145E+03  0.85761214476E+03  0.12210696027E+04  0.10100000352E+00 0.  1.
</event>
<event>
 5   0  0.4535100E-05  0.1791106E+04  0.7818609E-02  0.8711044E-01
        1   -1    0    0  501    0  0.00000000000E+00  0.00000000000E+00  0.11086059944E+04  0.11086059944E+04  0.50400001928E-02 0. -1.
       -1   -1    0    0    0  501  0.00000000000E+00  0.00000000000E+00 -0.72344437105E+03  0.72344437107E+03  0.50400001928E-02 0.  1.
    10030    2    1    2    0    0  0.00000000000E+00  0.00000000000E+00  0.38516162330E+03  0.18320503654E+04  0.17911055428E+04 0.  0.
        1    1    3    3  502    0 -0.87898649607E+02  0.47120368408E+03  0.96634974276E+03  0.10786987113E+04  0.50400001928E-02 0. -1.
       -1    1    3    3    0  502  0.87898649607E+02 -0.47120368408E+03 -0.58118811946E+03  0.75335165409E+03  0.50400001928E-02 0.  1.
</event>
<event>
 5   0  0.4494757E-05  0.1795579E+04  0.7818609E-02  0.8708654E-01
        1   -1    0    0  501    0  0.00000000000E+00  0.00000000000E+00  0.18673938814E+04  0.18673938814E+04  0.50400001928E-02 0. -1.
       -1   -1    0    0    0  501  0.00000000000E+00  0.00000000000E+00 -0.43163154455E+03  0.43163154458E+03  0.50400001928E-02 0.  1.
    10030    2    1    2    0    0  0.00000000000E+00  0.00000000000E+00  0.14357623369E+04  0.22990254260E+04  0.17955791326E+04 0.  0.
        4    1    3    3  502    0  0.69088347378E+03 -0.30569276504E+03  0.13389074730E+04  0.15373493016E+04  0.12699999809E+01 0. -1.
       -4    1    3    3    0  502 -0.69088347378E+03  0.30569276504E+03  0.96854863857E+02  0.76167612441E+03  0.12699999809E+01 0.  1.
</event>
<event>
 5   0  0.4623665E-05  0.1799353E+04  0.7818609E-02  0.8706644E-01
        1   -1    0    0  501    0  0.00000000000E+00  0.00000000000E+00  0.85271820855E+03  0.85271820856E+03  0.50400001928E-02 0.  1.
       -1   -1    0    0    0  501  0.00000000000E+00  0.00000000000E+00 -0.94922087862E+03  0.94922087863E+03  0.50400001928E-02 0. -1.
    10030    2    1    2    0    0  0.00000000000E+00  0.00000000000E+00 -0.96502670067E+02  0.18019390872E+04  0.17993531362E+04 0.  0.
        5    1    3    3  502    0  0.18810681283E+03  0.73991538699E+03 -0.52489427243E+03  0.92649610909E+03  0.46999998093E+01 0. -1.
       -5    1    3    3    0  502 -0.18810681283E+03 -0.73991538699E+03  0.42839160237E+03  0.87544297810E+03  0.46999998093E+01 0.  1.
</event>
<event>
 5   0  0.4494757E-05  0.1803090E+04  0.7818609E-02  0.8704658E-01
        1   -1    0    0  501    0  0.00000000000E+00  0.00000000000E+00  0.10299743540E+04  0.10299743540E+04  0.50400001928E-02 0.  1.
       -1   -1    0    0    0  501  0.00000000000E+00  0.00000000000E+00 -0.78912930900E+03  0.78912930902E+03  0.50400001928E-02 0. -1.
    10030    2    1    2    0    0  0.00000000000E+00  0.00000000000E+00  0.24084504498E+03  0.18191036630E+04  0.18030895156E+04 0.  0.
        4    1    3    3  502    0  0.47375161171E+03 -0.27156581273E+03 -0.60329984448E+03  0.81373269290E+03  0.12699999809E+01 0. -1.
       -4    1    3    3    0  502 -0.47375161171E+03  0.27156581273E+03  0.84414488946E+03  0.10053709701E+04  0.12699999809E+01 0.  1.
</event>
<event>
 5   0  0.4535100E-05  0.1800949E+04  0.7818609E-02  0.8705795E-01
        1   -1    0    0  501    0  0.00000000000E+00  0.00000000000E+00  0.19532740530E+04  0.19532740530E+04  0.50400001928E-02 0.  1.
       -1   -1    0    0    0  501  0.00000000000E+00  0.00000000000E+00 -0.41512590315E+03  0.41512590318E+03  0.50400001928E-02 0. -1.
    10030    2    1    2    0    0  0.00000000000E+00  0.00000000000E+00  0.15381481498E+04  0.23683999562E+04  0.18009493667E+04 0.  0.
        1    1    3    3  502    0 -0.86274952919E+03 -0.23983369352E+03  0.64433014867E+03  0.11031855198E+04  0.50400001928E-02 0.  1.
       -1    1    3    3    0  502  0.86274952919E+03  0.23983369352E+03  0.89381800117E+03  0.12652144363E+04  0.50400001928E-02 0. -1.
</event>
<event>
 5   0  0.8892280E-05  0.1799075E+04  0.7818609E-02  0.8706792E-01
        2   -1    0    0  501    0  0.00000000000E+00  0.00000000000E+00  0.16007895000E+04  0.16007895000E+04  0.25500000920E-02 0.  1.
       -2   -1    0    0    0  501  0.00000000000E+00  0.00000000000E+00 -0.50548012804E+03  0.50548012805E+03  0.25500000920E-02 0. -1.
    10030    2    1    2    0    0  0.00000000000E+00  0.00000000000E+00  0.10953093719E+04  0.21062696280E+04  0.17990745192E+04 0.  0.
        4    1    3    3  502    0 -0.67127536801E+03  0.49439735628E+03  0.15214448692E+03  0.84746027836E+03  0.12699999809E+01 0. -1.
       -4    1    3    3    0  502  0.67127536801E+03 -0.49439735628E+03  0.94316488500E+03  0.12588093497E+04  0.12699999809E+01 0.  1.
</event>
<event>
 5   0  0.4494757E-05  0.1796535E+04  0.7818609E-02  0.8708145E-01
       -1   -1    0    0    0  501  0.00000000000E+00  0.00000000000E+00  0.31804956160E+03  0.31804956164E+03  0.50400001928E-02 0.  1.
        1   -1    0    0  501    0  0.00000000000E+00  0.00000000000E+00 -0.25369760366E+04  0.25369760366E+04  0.50400001928E-02 0. -1.
    10030    2    1    2    0    0  0.00000000000E+00  0.00000000000E+00 -0.22189264750E+04  0.28550255983E+04  0.17965345711E+04 0.  0.
        4    1    3    3  502    0  0.52749278840E+03 -0.26586452676E+03 -0.21848963866E+04  0.22633396611E+04  0.12699999809E+01 0. -1.
       -4    1    3    3    0  502 -0.52749278840E+03  0.26586452676E+03 -0.34030088412E+02  0.59168593716E+03  0.12699999809E+01 0.  1.
</event>
<event>
 5   0  0.4535100E-05  0.1854016E+04  0.7818609E-02  0.8678090E-01
        1   -1    0    0  501    0  0.00000000000E+00  0.00000000000E+00  0.10231243769E+04  0.10231243769E+04  0.50400001928E-02 0.  1.
       -1   -1    0    0    0  501  0.00000000000E+00  0.00000000000E+00 -0.83992079859E+03  0.83992079860E+03  0.50400001928E-02 0. -1.
    10030    2    1    2    0    0  0.00000000000E+00  0.00000000000E+00  0.18320357828E+03  0.18630451755E+04  0.18540155811E+04 0.  0.
        1    1    3    3  502    0  0.45908842720E+03 -0.71560740673E+03  0.46284295354E+03  0.96802879307E+03  0.50400001928E-02 0.  1.
       -1    1    3    3    0  502 -0.45908842720E+03  0.71560740673E+03 -0.27963937526E+03  0.89501638241E+03  0.50400001928E-02 0. -1.
</event>
<event>
 5   0  0.4335117E-05  0.1800412E+04  0.7818609E-02  0.8706081E-01
       -1   -1    0    0    0  501  0.00000000000E+00  0.00000000000E+00  0.57591484894E+03  0.57591484896E+03  0.50400001928E-02 0. -1.
        1   -1    0    0  501    0  0.00000000000E+00  0.00000000000E+00 -0.14071011242E+04  0.14071011242E+04  0.50400001928E-02 0.  1.
    10030    2    1    2    0    0  0.00000000000E+00  0.00000000000E+00 -0.83118627528E+03  0.19830159732E+04  0.18004115434E+04 0.  0.
        3    1    3    3  502    0  0.35474233226E+03 -0.16959669579E+03  0.47633245662E+03  0.61765506632E+03  0.10100000352E+00 0. -1.
       -3    1    3    3    0  502 -0.35474233226E+03  0.16959669579E+03 -0.13075187319E+04  0.13653609069E+04  0.10100000352E+00 0.  1.
</event>
<event>
 5   0  0.4335117E-05  0.1777785E+04  0.7818609E-02  0.8718203E-01
       -1   -1    0    0    0  501  0.00000000000E+00  0.00000000000E+00  0.58058230980E+03  0.58058230982E+03  0.50400001928E-02 0.  1.
        1   -1    0    0  501    0  0.00000000000E+00  0.00000000000E+00 -0.13609268251E+04  0.13609268251E+04  0.50400001928E-02 0. -1.
    10030    2    1    2    0    0  0.00000000000E+00  0.00000000000E+00 -0.78034451533E+03  0.19415091350E+04  0.17777851835E+04 0.  0.
        3    1    3    3  502    0  0.42393041985E+03 -0.44050948956E+03  0.31451587869E+03  0.68752153379E+03  0.10100000352E+00 0.  1.
       -3    1    3    3    0  502 -0.42393041985E+03  0.44050948956E+03 -0.10948603940E+04  0.12539876012E+04  0.10100000352E+00 0. -1.
</event>
<event>
 5   0  0.8892280E-05  0.1787198E+04  0.7818609E-02  0.8713137E-01
       -2   -1    0    0    0  501  0.00000000000E+00  0.00000000000E+00  0.46100686605E+03  0.46100686606E+03  0.25500000920E-02 0.  1.
        2   -1    0    0  501    0  0.00000000000E+00  0.00000000000E+00 -0.17321196116E+04  0.17321196117E+04  0.25500000920E-02 0. -1.
    10030    2    1    2    0    0  0.00000000000E+00  0.00000000000E+00 -0.12711127456E+04  0.21931264777E+04  0.17871978444E+04 0.  0.
        4    1    3    3  502    0 -0.45893470371E+02  0.60732538204E+03  0.16684780558E+03  0.63149832416E+03  0.12699999809E+01 0.  1.
       -4    1    3    3    0  502  0.45893470371E+02 -0.60732538204E+03 -0.14379605512E+04  0.15616281535E+04  0.12699999809E+01 0. -1.
</event>
<event>
 5   0  0.4578107E-05  0.1793485E+04  0.7818609E-02  0.8709772E-01
        1   -1    0    0  501    0  0.00000000000E+00  0.00000000000E+00  0.88863403940E+03  0.88863403942E+03  0.50400001928E-02 0.  1.
       -1   -1    0    0    0  501  0.00000000000E+00  0.00000000000E+00 -0.90492483217E+03  0.90492483219E+03  0.50400001928E-02 0. -1.
    10030    2    1    2    0    0  0.00000000000E+00  0.00000000000E+00 -0.16290792770E+02  0.17935588716E+04  0.17934848859E+04 0.  0.
        2    1    3    3  502    0 -0.35500690358E+03  0.31642074624E+03 -0.76843659532E+03  0.90368511733E+03  0.25500000920E-02 0.  1.
       -2    1    3    3    0  502  0.35500690358E+03 -0.31642074624E+03  0.75214580255E+03  0.88987375427E+03  0.25500000920E-02 0. -1.
</event>
<event>
 5   0  0.4494757E-05  0.1797038E+04  0.7818609E-02  0.8707876E-01
       -1   -1    0    0    0  501  0.00000000000E+00  0.00000000000E+00  0.70948563114E+03  0.70948563115E+03  0.50400001928E-02 0.  1.
        1   -1    0    0  501    0  0.00000000000E+00  0.00000000000E+00 -0.11379174556E+04  0.11379174556E+04  0.50400001928E-02 0. -1.
    10030    2    1    2    0    0  0.00000000000E+00  0.00000000000E+00 -0.42843182443E+03  0.18474030867E+04  0.17970376559E+04 0.  0.
        4    1    3    3  502    0 -0.41781277521E+03 -0.61697312672E+03 -0.73039509494E+03  0.10434088182E+04  0.12699999809E+01 0.  1.
       -4    1    3    3    0  502  0.41781277521E+03  0.61697312672E+03  0.30196327052E+03  0.80399426855E+03  0.12699999809E+01 0. -1.
</event>
<event>
 5   0  0.8892280E-05  0.1803091E+04  0.7818609E-02  0.8704658E-01
        2   -1    0    0  501    0  0.00000000000E+00  0.00000000000E+00  0.97234128741E+03  0.97234128741E+03  0.25500000920E-02 0.  1.
       -2   -1    0    0    0  501  0.00000000000E+00  0.00000000000E+00 -0.83590417916E+03  0.83590417916E+03  0.25500000920E-02 0. -1.
    10030    2    1    2    0    0  0.00000000000E+00  0.00000000000E+00  0.13643710825E+03  0.18082454666E+04  0.18030908415E+04 0.  0.
        4    1    3    3  502    0 -0.47004117315E+03  0.76320019234E+03  0.16529038677E+03  0.91144707082E+03  0.12699999809E+01 0.  1.
       -4    1    3    3    0  502  0.47004117315E+03 -0.76320019234E+03 -0.28853278522E+02  0.89679839575E+03  0.12699999809E+01 0. -1.
</event>
<event>
 5   0  0.9184414E-05  0.1795871E+04  0.7818609E-02  0.8708498E-01
        2   -1    0    0  501    0  0.00000000000E+00  0.00000000000E+00  0.14347363433E+04  0.14347363433E+04  0.25500000920E-02 0.  1.
       -2   -1    0    0    0  501  0.00000000000E+00  0.00000000000E+00 -0.56197679583E+03  0.56197679583E+03  0.25500000920E-02 0. -1.
    10030    2    1    2    0    0  0.00000000000E+00  0.00000000000E+00  0.87275954749E+03  0.19967131392E+04  0.17958714131E+04 0.  0.
        5    1    3    3  502    0 -0.82718925333E+03  0.19799235710E+03  0.75635546715E+03  0.11382173417E+04  0.46999998093E+01 0.  1.
       -5    1    3    3    0  502  0.82718925333E+03 -0.19799235710E+03  0.11640408035E+03  0.85849579744E+03  0.46999998093E+01 0. -1.
</event>
<event>
 5   0  0.4494757E-05  0.1805531E+04  0.7818609E-02  0.8703364E-01
       -1   -1    0    0    0  501  0.00000000000E+00  0.00000000000E+00  0.92351542551E+03  0.92351542553E+03  0.50400001928E-02 0.  1.
        1   -1    0    0  501    0  0.00000000000E+00  0.00000000000E+00 -0.88248138695E+03  0.88248138696E+03  0.50400001928E-02 0. -1.
    10030    2    1    2    0    0  0.00000000000E+00  0.00000000000E+00  0.41034038565E+02  0.18059968125E+04  0.18055305853E+04 0.  0.
        4    1    3    3  502    0  0.27684964426E+03  0.51431665855E+03  0.70903785468E+03  0.91864228242E+03  0.12699999809E+01 0.  1.
       -4    1    3    3    0  502 -0.27684964426E+03 -0.51431665855E+03 -0.66800381612E+03  0.88735453007E+03  0.12699999809E+01 0. -1.
</event>
<event>
 5   0  0.8892280E-05  0.1795425E+04  0.7818609E-02  0.8708736E-01
        2   -1    0    0  501    0  0.00000000000E+00  0.00000000000E+00  0.13879198165E+04  0.13879198165E+04  0.25500000920E-02 0. -1.
       -2   -1    0    0    0  501  0.00000000000E+00  0.00000000000E+00 -0.58064441738E+03  0.58064441738E+03  0.25500000920E-02 0.  1.
    10030    2    1    2    0    0  0.00000000000E+00  0.00000000000E+00  0.80727539911E+03  0.19685642339E+04  0.17954251789E+04 0.  0.
        4    1    3    3  502    0 -0.88173058763E+03  0.14980955088E+03  0.31874691281E+03  0.94946981944E+03  0.12699999809E+01 0. -1.
       -4    1    3    3    0  502  0.88173058763E+03 -0.14980955088E+03  0.48852848630E+03  0.10190944144E+04  0.12699999809E+01 0.  1.
</event>
<event>
 5   0  0.9147432E-05  0.1802819E+04  0.7818609E-02  0.8704802E-01
        2   -1    0    0  501    0  0.00000000000E+00  0.00000000000E+00  0.15082910781E+04  0.15082910781E+04  0.25500000920E-02 0.  1.
       -2   -1    0    0    0  501  0.00000000000E+00  0.00000000000E+00 -0.53871501835E+03  0.53871501835E+03  0.25500000920E-02 0. -1.
    10030    2    1    2    0    0  0.00000000000E+00  0.00000000000E+00  0.96957605971E+03  0.20470060964E+04  0.18028189657E+04 0.  0.
        3    1    3    3  502    0 -0.14698071638E+03  0.21617480602E+03  0.14643074861E+04  0.14874580000E+04  0.10100000352E+00 0.  1.
       -3    1    3    3    0  502  0.14698071638E+03 -0.21617480602E+03 -0.49473142638E+03  0.55954809641E+03  0.10100000352E+00 0. -1.
</event>
<event>
 5   0  0.4623665E-05  0.1750581E+04  0.7818609E-02  0.8733031E-01
       -1   -1    0    0    0  501  0.00000000000E+00  0.00000000000E+00  0.46418258820E+03  0.46418258823E+03  0.50400001928E-02 0.  1.
        1   -1    0    0  501    0  0.00000000000E+00  0.00000000000E+00 -0.16504996149E+04  0.16504996149E+04  0.50400001928E-02 0. -1.
    10030    2    1    2    0    0  0.00000000000E+00  0.00000000000E+00 -0.11863170267E+04  0.21146822031E+04  0.17505806843E+04 0.  0.
        5    1    3    3  502    0  0.27867919656E+03 -0.65987007734E+03 -0.12007907625E+04  0.13982171358E+04  0.46999998093E+01 0. -1.
       -5    1    3    3    0  502 -0.27867919656E+03  0.65987007734E+03  0.14473735868E+02  0.71646506726E+03  0.46999998093E+01 0.  1.
</event>
<event>
 5   0  0.8802655E-05  0.1780953E+04  0.7818609E-02  0.8716495E-01
       -2   -1    0    0    0  501  0.00000000000E+00  0.00000000000E+00  0.50070243108E+03  0.50070243109E+03  0.25500000920E-02 0. -1.
        2   -1    0    0  501    0  0.00000000000E+00  0.00000000000E+00 -0.15836713059E+04  0.15836713059E+04  0.25500000920E-02 0.  1.
    10030    2    1    2    0    0  0.00000000000E+00  0.00000000000E+00 -0.10829688748E+04  0.20843737370E+04  0.17809526360E+04 0.  0.
        2    1    3    3  502    0 -0.44264909205E+03 -0.24295897385E+03  0.31694896376E+03  0.59617441013E+03  0.25500000920E-02 0. -1.
       -2    1    3    3    0  502  0.44264909205E+03  0.24295897385E+03 -0.13999178386E+04  0.14881993268E+04  0.25500000920E-02 0.  1.
</event>
<event>
 5   0  0.4623665E-05  0.1789656E+04  0.7818609E-02  0.8711819E-01
       -1   -1    0    0    0  501  0.00000000000E+00  0.00000000000E+00  0.99182215866E+03  0.99182215868E+03  0.50400001928E-02 0. -1.
        1   -1    0    0  501    0  0.00000000000E+00  0.00000000000E+00 -0.80731963078E+03  0.80731963079E+03  0.50400001928E-02 0.  1.
    10030    2    1    2    0    0  0.00000000000E+00  0.00000000000E+00  0.18450252789E+03  0.17991417895E+04  0.17896563904E+04 0.  0.
        5    1    3    3  502    0  0.71734082735E+03  0.34353397335E+03  0.50442671181E+03  0.94183961003E+03  0.46999998093E+01 0. -1.
       -5    1    3    3    0  502 -0.71734082735E+03 -0.34353397335E+03 -0.31992418393E+03  0.85730217945E+03  0.46999998093E+01 0.  1.
</event>
<event>
 5   0  0.8802655E-05  0.1799959E+04  0.7818609E-02  0.8706321E-01
        2   -1    0    0  501    0  0.00000000000E+00  0.00000000000E+00  0.15108151513E+04  0.15108151513E+04  0.25500000920E-02 0. -1.
       -2   -1    0    0    0  501  0.00000000000E+00  0.00000000000E+00 -0.53611012238E+03  0.53611012238E+03  0.25500000920E-02 0.  1.
    10030    2    1    2    0    0  0.00000000000E+00  0.00000000000E+00  0.97470502890E+03  0.20469252737E+04  0.17999592169E+04 0.  0.
        2    1    3    3  502    0 -0.38640643659E+03  0.17391293610E+03  0.13902741536E+04  0.14534159300E+04  0.25500000920E-02 0. -1.
       -2    1    3    3    0  502  0.38640643659E+03 -0.17391293610E+03 -0.41556912468E+03  0.59350934363E+03  0.25500000920E-02 0.  1.
</event>
<event>
 5   0  0.4335117E-05  0.1800129E+04  0.7818609E-02  0.8706231E-01
        1   -1    0    0  501    0  0.00000000000E+00  0.00000000000E+00  0.94668391350E+03  0.94668391351E+03  0.50400001928E-02 0. -1.
       -1   -1    0    0    0  501  0.00000000000E+00  0.00000000000E+00 -0.85574099293E+03  0.85574099295E+03  0.50400001928E-02 0.  1.
    10030    2    1    2    0    0  0.00000000000E+00  0.00000000000E+00  0.90942920561E+02  0.18024249065E+04  0.18001291422E+04 0.  0.
        3    1    3    3  502    0 -0.23031784046E+03  0.49771000789E+03 -0.66912960642E+03  0.86515663320E+03  0.10100000352E+00 0.  1.
       -3    1    3    3    0  502  0.23031784046E+03 -0.49771000789E+03  0.76007252698E+03  0.93726827326E+03  0.10100000352E+00 0. -1.
</event>
<event>
 5   0  0.9147432E-05  0.1806715E+04  0.7818609E-02  0.8702737E-01
        2   -1    0    0  501    0  0.00000000000E+00  0.00000000000E+00  0.72931046961E+03  0.72931046962E+03  0.25500000920E-02 0. -1.
       -2   -1    0    0    0  501  0.00000000000E+00  0.00000000000E+00 -0.11189401551E+04  0.11189401551E+04  0.25500000920E-02 0.  1.
    10030    2    1    2    0    0  0.00000000000E+00  0.00000000000E+00 -0.38962968548E+03  0.18482506247E+04  0.18067149969E+04 0.  0.
        3    1    3    3  502    0 -0.60974611879E+03  0.15757901512E+03  0.46771074765E+03  0.78445830294E+03  0.10100000352E+00 0. -1.
       -3    1    3    3    0  502  0.60974611879E+03 -0.15757901512E+03 -0.85734043313E+03  0.10637923218E+04  0.10100000352E+00 0.  1.
</event>
<event>
 5   0  0.4494757E-05  0.1800115E+04  0.7818609E-02  0.8706238E-01
       -1   -1    0    0    0  501  0.00000000000E+00  0.00000000000E+00  0.28682142573E+03  0.28682142578E+03  0.50400001928E-02 0. -1.
        1   -1    0    0  501    0  0.00000000000E+00  0.00000000000E+00 -0.28244183205E+04  0.28244183205E+04  0.50400001928E-02 0.  1.
    10030    2    1    2    0    0  0.00000000000E+00  0.00000000000E+00 -0.25375968948E+04  0.31112397463E+04  0.18001152070E+04 0.  0.
        4    1    3    3  502    0 -0.19490864284E+03 -0.12099409365E+03  0.23544037315E+03  0.32872896428E+03  0.12699999809E+01 0. -1.
       -4    1    3    3    0  502  0.19490864284E+03  0.12099409365E+03 -0.27730372679E+04  0.27825107820E+04  0.12699999809E+01 0.  1.
</event>
<event>
 5   0  0.4535100E-05  0.1793466E+04  0.7818609E-02  0.8709782E-01
        1   -1    0    0  501    0  0.00000000000E+00  0.00000000000E+00  0.10611741155E+04  0.10611741155E+04  0.50400001928E-02 0.  1.
       -1   -1    0    0    0  501  0.00000000000E+00  0.00000000000E+00 -0.75777406520E+03  0.75777406522E+03  0.50400001928E-02 0. -1.
    10030    2    1    2    0    0  0.00000000000E+00  0.00000000000E+00  0.30340005032E+03  0.18189481808E+04  0.17934661674E+04 0.  0.
        1    1    3    3  502    0  0.74264768545E+03  0.49150582034E+03  0.25819994316E+03  0.92723824706E+03  0.50400001928E-02 0. -1.
       -1    1    3    3    0  502 -0.74264768545E+03 -0.49150582034E+03  0.45200107165E+02  0.89170993370E+03  0.50400001928E-02 0.  1.
</event>
<event>
 5   0  0.8802655E-05  0.1802866E+04  0.7818609E-02  0.8704777E-01
       -2   -1    0    0    0  501  0.00000000000E+00  0.00000000000E+00  0.43817788178E+03  0.43817788179E+03  0.25500000920E-02 0.  1.
        2   -1    0    0  501    0  0.00000000000E+00  0.00000000000E+00 -0.18544548442E+04  0.18544548442E+04  0.25500000920E-02 0. -1.
    10030    2    1    2    0    0  0.00000000000E+00  0.00000000000E+00 -0.14162769625E+04  0.22926327260E+04  0.18028656029E+04 0.  0.
        2    1    3    3  502    0 -0.62957524599E+03  0.50230820903E+02  0.10978034563E+03  0.64104590321E+03  0.25500000920E-02 0.  1.
       -2    1    3    3    0  502  0.62957524599E+03 -0.50230820903E+02 -0.15260573081E+04  0.16515868228E+04  0.25500000920E-02 0. -1.
</event>
<event>
 5   0  0.4335117E-05  0.1787080E+04  0.7818609E-02  0.8713201E-01
       -1   -1    0    0    0  501  0.00000000000E+00  0.00000000000E+00  0.53169967860E+03  0.53169967863E+03  0.50400001928E-02 0. -1.
        1   -1    0    0  501    0  0.00000000000E+00  0.00000000000E+00 -0.15016249439E+04  0.15016249439E+04  0.50400001928E-02 0.  1.
    10030    2    1    2    0    0  0.00000000000E+00  0.00000000000E+00 -0.96992526531E+03  0.20333246225E+04  0.17870797409E+04 0.  0.
        3    1    3    3  502    0  0.27554657448E+03 -0.75835178017E+03 -0.92177710889E+03  0.12250291367E+04  0.10100000352E+00 0.  1.
       -3    1    3    3    0  502 -0.27554657448E+03  0.75835178017E+03 -0.48148156418E+02  0.80829548580E+03  0.10100000352E+00 0. -1.
</event>
<event>
 5   0  0.8892280E-05  0.1796279E+04  0.7818609E-02  0.8708281E-01
       -2   -1    0    0    0  501  0.00000000000E+00  0.00000000000E+00  0.91527116242E+03  0.91527116243E+03  0.25500000920E-02 0. -1.
        2   -1    0    0  501    0  0.00000000000E+00  0.00000000000E+00 -0.88132874790E+03  0.88132874791E+03  0.25500000920E-02 0.  1.
    10030    2    1    2    0    0  0.00000000000E+00  0.00000000000E+00  0.33942414519E+02  0.17965999103E+04  0.17962792518E+04 0.  0.
        4    1    3    3  502    0 -0.44054359929E+03 -0.71691020253E+03  0.33105636171E+03  0.90423383530E+03  0.12699999809E+01 0. -1.
       -4    1    3    3    0  502  0.44054359929E+03  0.71691020253E+03 -0.29711394719E+03  0.89236607504E+03  0.12699999809E+01 0.  1.
</event>
<event>
 5   0  0.9147432E-05  0.1796070E+04  0.7818609E-02  0.8708392E-01
        2   -1    0    0  501    0  0.00000000000E+00  0.00000000000E+00  0.17207388393E+04  0.17207388393E+04  0.25500000920E-02 0.  1.
       -2   -1    0    0    0  501  0.00000000000E+00  0.00000000000E+00 -0.46867500433E+03  0.46867500434E+03  0.25500000920E-02 0. -1.
    10030    2    1    2    0    0  0.00000000000E+00  0.00000000000E+00  0.12520638350E+04  0.21894138437E+04  0.17960704696E+04 0.  0.
        3    1    3    3  502    0 -0.41496042838E+03  0.78957400203E+03  0.49906822477E+03  0.10220999780E+04  0.10100000352E+00 0. -1.
       -3    1    3    3    0  502  0.41496042838E+03 -0.78957400203E+03  0.75299561022E+03  0.11673138657E+04  0.10100000352E+00 0.  1.
</event>
<event>
 5   0  0.9184414E-05  0.1798032E+04  0.7818609E-02  0.8707347E-01
       -2   -1    0    0    0  501  0.00000000000E+00  0.00000000000E+00  0.46773339847E+03  0.46773339848E+03  0.25500000920E-02 0.  1.
        2   -1    0    0  501    0  0.00000000000E+00  0.00000000000E+00 -0.17279711487E+04  0.17279711487E+04  0.25500000920E-02 0. -1.
    10030    2    1    2    0    0  0.00000000000E+00  0.00000000000E+00 -0.12602377502E+04  0.21957045472E+04  0.17980320552E+04 0.  0.
        5    1    3    3  502    0  0.42208023865E+03 -0.57559715863E+03 -0.12975800404E+04  0.14809455993E+04  0.46999998093E+01 0. -1.
       -5    1    3    3    0  502 -0.42208023865E+03  0.57559715863E+03  0.37342290207E+02  0.71475894784E+03  0.46999998093E+01 0.  1.
</event>
<event>
 5   0  0.4494757E-05  0.1793554E+04  0.7818609E-02  0.8709735E-01
        1   -1    0    0  501    0  0.00000000000E+00  0.00000000000E+00  0.92072895905E+03  0.92072895906E+03  0.50400001928E-02 0. -1.
       -1   -1    0    0    0  501  0.00000000000E+00  0.00000000000E+00 -0.87344826429E+03  0.87344826430E+03  0.50400001928E-02 0.  1.
    10030    2    1    2    0    0  0.00000000000E+00  0.00000000000E+00  0.47280694757E+02  0.17941772234E+04  0.17935541377E+04 0.  0.
        4    1    3    3  502    0 -0.15454371445E+03 -0.52170552666E+03 -0.68945165707E+03  0.87829699792E+03  0.12699999809E+01 0.  1.
       -4    1    3    3    0  502  0.15454371445E+03  0.52170552666E+03  0.73673235183E+03  0.91588022544E+03  0.12699999809E+01 0. -1.
</event>
<event>
 5   0  0.4335117E-05  0.1798438E+04  0.7818609E-02  0.8707131E-01
        1   -1    0    0  501    0  0.00000000000E+00  0.00000000000E+00  0.11761046702E+04  0.11761046702E+04  0.50400001928E-02 0.  1.
       -1   -1    0    0    0  501  0.00000000000E+00  0.00000000000E+00 -0.68751931255E+03  0.68751931257E+03  0.50400001928E-02 0. -1.
    10030    2    1    2    0    0  0.00000000000E+00  0.00000000000E+00  0.48858535761E+03  0.18636239827E+04  0.17984378492E+04 0.  0.
        3    1    3    3  502    0  0.65635010618E+03 -0.39839689676E+03 -0.24073145147E+03  0.80465346029E+03  0.10100000352E+00 0. -1.
       -3    1    3    3    0  502 -0.65635010618E+03  0.39839689676E+03  0.72931680908E+03  0.10589705225E+04  0.10100000352E+00 0.  1.
</event>
<event>
 5   0  0.4623665E-05  0.1800520E+04  0.7818609E-02  0.8706023E-01
       -1   -1    0    0    0  501  0.00000000000E+00  0.00000000000E+00  0.17531057377E+04  0.17531057377E+04  0.50400001928E-02 0.  1.
        1   -1    0    0  501    0  0.00000000000E+00  0.00000000000E+00 -0.46230405759E+03  0.46230405762E+03  0.50400001928E-02 0. -1.
    10030    2    1    2    0    0  0.00000000000E+00  0.00000000000E+00  0.12908016801E+04  0.22154097953E+04  0.18005198094E+04 0.  0.
        5    1    3    3  502    0 -0.14098610086E+03 -0.64945393978E+02 -0.44569861799E+03  0.47197916576E+03  0.46999998093E+01 0. -1.
       -5    1    3    3    0  502  0.14098610086E+03  0.64945393978E+02  0.17365002981E+04  0.17434306296E+04  0.46999998093E+01 0.  1.
</event>
<event>
 5   0  0.8892280E-05  0.1789352E+04  0.7818609E-02  0.8711983E-01
       -2   -1    0    0    0  501  0.00000000000E+00  0.00000000000E+00  0.66418582666E+03  0.66418582667E+03  0.25500000920E-02 0. -1.
        2   -1    0    0  501    0  0.00000000000E+00  0.00000000000E+00 -0.12051523640E+04  0.12051523640E+04  0.25500000920E-02 0.  1.
    10030    2    1    2    0    0  0.00000000000E+00  0.00000000000E+00 -0.54096653729E+03  0.18693381906E+04  0.17893519711E+04 0.  0.
        4    1    3    3  502    0  0.42604224082E+03 -0.77602964474E+03 -0.13543970043E+03  0.89558892681E+03  0.12699999809E+01 0.  1.
       -4    1    3    3    0  502 -0.42604224082E+03  0.77602964474E+03 -0.40552683686E+03  0.97374926382E+03  0.12699999809E+01 0. -1.
</event>
<event>
 5   0  0.8893075E-05  0.1813043E+04  0.7818609E-02  0.8699394E-01
        2   -1    0    0  501    0  0.00000000000E+00  0.00000000000E+00  0.19123273530E+04  0.19123273530E+04  0.25500000920E-02 0. -1.
       -2   -1    0    0    0  501  0.00000000000E+00  0.00000000000E+00 -0.42972842982E+03  0.42972842982E+03  0.25500000920E-02 0.  1.
    10030    2    1    2    0    0  0.00000000000E+00  0.00000000000E+00  0.14825989231E+04  0.23420557828E+04  0.18130432214E+04 0.  0.
        1    1    3    3  502    0 -0.48071019351E+03  0.30012855459E+02  0.17333661360E+04  0.17990389721E+04  0.50400001928E-02 0. -1.
       -1    1    3    3    0  502  0.48071019351E+03 -0.30012855459E+02 -0.25076721285E+03  0.54301681070E+03  0.50400001928E-02 0.  1.
</event>
<event>
 5   0  0.9184414E-05  0.1797489E+04  0.7818609E-02  0.8707636E-01
        2   -1    0    0  501    0  0.00000000000E+00  0.00000000000E+00  0.10625202413E+04  0.10625202414E+04  0.25500000920E-02 0.  1.
       -2   -1    0    0    0  501  0.00000000000E+00  0.00000000000E+00 -0.76021299634E+03  0.76021299634E+03  0.25500000920E-02 0. -1.
    10030    2    1    2    0    0  0.00000000000E+00  0.00000000000E+00  0.30230724501E+03  0.18227332377E+04  0.17974890223E+04 0.  0.
        5    1    3    3  502    0 -0.37297350845E+03 -0.20955439765E+03 -0.65032453048E+03  0.77843841665E+03  0.46999998093E+01 0. -1.
       -5    1    3    3    0  502  0.37297350845E+03  0.20955439765E+03  0.95263177549E+03  0.10442948210E+04  0.46999998093E+01 0.  1.
</event>
<event>
 5   0  0.8892280E-05  0.1799614E+04  0.7818609E-02  0.8706505E-01
        2   -1    0    0  501    0  0.00000000000E+00  0.00000000000E+00  0.68933473902E+03  0.68933473902E+03  0.25500000920E-02 0. -1.
       -2   -1    0    0    0  501  0.00000000000E+00  0.00000000000E+00 -0.11745425275E+04  0.11745425275E+04  0.25500000920E-02 0.  1.
    10030    2    1    2    0    0  0.00000000000E+00  0.00000000000E+00 -0.48520778851E+03  0.18638772665E+04  0.17996143661E+04 0.  0.
        4    1    3    3  502    0 -0.41683693667E+03  0.75055452467E+03 -0.52160449147E+03  0.10045685565E+04  0.12699999809E+01 0.  1.
       -4    1    3    3    0  502  0.41683693667E+03 -0.75055452467E+03  0.36396702969E+02  0.85930871005E+03  0.12699999809E+01 0. -1.
</event>
<event>
 5   0  0.8802655E-05  0.1802722E+04  0.7818609E-02  0.8704853E-01
       -2   -1    0    0    0  501  0.00000000000E+00  0.00000000000E+00  0.12051296295E+04  0.12051296295E+04  0.25500000920E-02 0. -1.
        2   -1    0    0  501    0  0.00000000000E+00  0.00000000000E+00 -0.67416118641E+03  0.67416118641E+03  0.25500000920E-02 0.  1.
    10030    2    1    2    0    0  0.00000000000E+00  0.00000000000E+00  0.53096844311E+03  0.18792908159E+04  0.18027219651E+04 0.  0.
        2    1    3    3  502    0  0.19986088149E+03  0.79673220027E+03 -0.12139170832E+03  0.83033879697E+03  0.25500000920E-02 0.  1.
       -2    1    3    3    0  502 -0.19986088149E+03 -0.79673220027E+03  0.65236015143E+03  0.10489520190E+04  0.25500000920E-02 0. -1.
</event>
<event>
 5   0  0.9184414E-05  0.1797388E+04  0.7818609E-02  0.8707690E-01
       -2   -1    0    0    0  501  0.00000000000E+00  0.00000000000E+00  0.49697530349E+03  0.49697530350E+03  0.25500000920E-02 0. -1.
        2   -1    0    0  501    0  0.00000000000E+00  0.00000000000E+00 -0.16251333809E+04  0.16251333809E+04  0.25500000920E-02 0.  1.
    10030    2    1    2    0    0  0.00000000000E+00  0.00000000000E+00 -0.11281580774E+04  0.21221086844E+04  0.17973882777E+04 0.  0.
        5    1    3    3  502    0 -0.88503708547E+03  0.82858683433E+02 -0.40801324329E+03  0.97808644852E+03  0.46999998093E+01 0. -1.
       -5    1    3    3    0  502  0.88503708547E+03 -0.82858683433E+02 -0.72014483414E+03  0.11440222359E+04  0.46999998093E+01 0.  1.
</event>
<event>
 5   0  0.9184414E-05  0.1794941E+04  0.7818609E-02  0.8708994E-01
       -2   -1    0    0    0  501  0.00000000000E+00  0.00000000000E+00  0.35410015768E+03  0.35410015768E+03  0.25500000920E-02 0. -1.
        2   -1    0    0  501    0  0.00000000000E+00  0.00000000000E+00 -0.22746478910E+04  0.22746478910E+04  0.25500000920E-02 0.  1.
    10030    2    1    2    0    0  0.00000000000E+00  0.00000000000E+00 -0.19205477334E+04  0.26287480487E+04  0.17949408646E+04 0.  0.
        5    1    3    3  502    0 -0.57634482347E+03 -0.15969080864E+03 -0.19402597171E+04  0.20303458744E+04  0.46999998093E+01 0.  1.
       -5    1    3    3    0  502  0.57634482347E+03  0.15969080864E+03  0.19711983764E+02  0.59840217430E+03  0.46999998093E+01 0. -1.
</event>
<event>
 5   0  0.4578107E-05  0.1799771E+04  0.7818609E-02  0.8706421E-01
        1   -1    0    0  501    0  0.00000000000E+00  0.00000000000E+00  0.14034309007E+04  0.14034309007E+04  0.50400001928E-02 0.  1.
       -1   -1    0    0    0  501  0.00000000000E+00  0.00000000000E+00 -0.57701027526E+03  0.57701027528E+03  0.50400001928E-02 0. -1.
    10030    2    1    2    0    0  0.00000000000E+00  0.00000000000E+00  0.82642062547E+03  0.19804411760E+04  0.17997711525E+04 0.  0.
        2    1    3    3  502    0 -0.21232349913E+03  0.72415853100E+03 -0.12621094348E+03  0.76512485816E+03  0.25500000920E-02 0. -1.
       -2    1    3    3    0  502  0.21232349913E+03 -0.72415853100E+03  0.95263156894E+03  0.12153163179E+04  0.25500000920E-02 0.  1.
</event>
<event>
 5   0  0.4578107E-05  0.1818808E+04  0.7818609E-02  0.8696361E-01
        1   -1    0    0  501    0  0.00000000000E+00  0.00000000000E+00  0.97949217696E+03  0.97949217697E+03  0.50400001928E-02 0. -1.
       -1   -1    0    0    0  501  0.00000000000E+00  0.00000000000E+00 -0.84433121395E+03  0.84433121397E+03  0.50400001928E-02 0.  1.
    10030    2    1    2    0    0  0.00000000000E+00  0.00000000000E+00  0.13516096301E+03  0.18238233909E+04  0.18188082019E+04 0.  0.
        2    1    3    3  502    0 -0.49338760823E+03 -0.57549248787E+03 -0.43619198758E+03  0.87457783277E+03  0.25500000920E-02 0.  1.
       -2    1    3    3    0  502  0.49338760823E+03  0.57549248787E+03  0.57135295059E+03  0.94924555817E+03  0.25500000920E-02 0. -1.
</event>
<event>
 5   0  0.3270375E-05  0.1801933E+04  0.7818609E-02  0.8705272E-01
       -4   -1    0    0    0  501  0.00000000000E+00  0.00000000000E+00  0.60389377794E+03  0.60389511335E+03  0.12699999809E+01 0. -1.
        4   -1    0    0  501    0  0.00000000000E+00  0.00000000000E+00 -0.13441750287E+04  0.13441756287E+04  0.12699999809E+01 0.  1.
    10030    2    1    2    0    0  0.00000000000E+00  0.00000000000E+00 -0.74028125078E+03  0.19480707420E+04  0.18019332079E+04 0.  0.
        5    1    3    3  502    0  0.68417445127E+02  0.68906812195E+03 -0.99327372739E+03  0.12108305460E+04  0.46999998093E+01 0.  1.
       -5    1    3    3    0  502 -0.68417445127E+02 -0.68906812195E+03  0.25299247661E+03  0.73724019608E+03  0.46999998093E+01 0. -1.
</event>
<event>
 5   0  0.4623665E-05  0.1812760E+04  0.7818609E-02  0.8699543E-01
       -1   -1    0    0    0  501  0.00000000000E+00  0.00000000000E+00  0.69488479347E+03  0.69488479348E+03  0.50400001928E-02 0. -1.
        1   -1    0    0  501    0  0.00000000000E+00  0.00000000000E+00 -0.11822461545E+04  0.11822461545E+04  0.50400001928E-02 0.  1.
    10030    2    1    2    0    0  0.00000000000E+00  0.00000000000E+00 -0.48736136103E+03  0.18771309480E+04  0.18127601881E+04 0.  0.
        5    1    3    3  502    0 -0.43527166711E+03 -0.82949556492E+02  0.57506695862E+03  0.72599321622E+03  0.46999998093E+01 0. -1.
       -5    1    3    3    0  502  0.43527166711E+03  0.82949556492E+02 -0.10624283197E+04  0.11511377318E+04  0.46999998093E+01 0.  1.
</event>
<event>
 5   0  0.9147432E-05  0.1767270E+04  0.7818609E-02  0.8723901E-01
        2   -1    0    0  501    0  0.00000000000E+00  0.00000000000E+00  0.84869860112E+03  0.84869860113E+03  0.25500000920E-02 0.  1.
       -2   -1    0    0    0  501  0.00000000000E+00  0.00000000000E+00 -0.92000981021E+03  0.92000981021E+03  0.25500000920E-02 0. -1.
    10030    2    1    2    0    0  0.00000000000E+00  0.00000000000E+00 -0.71311209084E+02  0.17687084113E+04  0.17672702554E+04 0.  0.
        3    1    3    3  502    0  0.14301945156E+03 -0.56331407469E+03  0.63049383001E+03  0.85749623332E+03  0.10100000352E+00 0.  1.
       -3    1    3    3    0  502 -0.14301945156E+03  0.56331407469E+03 -0.70180503910E+03  0.91121217802E+03  0.10100000352E+00 0. -1.
</event>
<event>
 5   0  0.4535100E-05  0.1796251E+04  0.7818609E-02  0.8708296E-01
       -1   -1    0    0    0  501  0.00000000000E+00  0.00000000000E+00  0.11796228424E+04  0.11796228424E+04  0.50400001928E-02 0. -1.
        1   -1    0    0  501    0  0.00000000000E+00  0.00000000000E+00 -0.68380250508E+03  0.68380250510E+03  0.50400001928E-02 0.  1.
    10030    2    1    2    0    0  0.00000000000E+00  0.00000000000E+00  0.49582033732E+03  0.18634253475E+04  0.17962506002E+04 0.  0.
        1    1    3    3  502    0 -0.55574241851E+02  0.10487633093E+03  0.11714509603E+04  0.11774484675E+04  0.50400001928E-02 0. -1.
       -1    1    3    3    0  502  0.55574241851E+02 -0.10487633093E+03 -0.67563062300E+03  0.68597688001E+03  0.50400001928E-02 0.  1.
</event>
<event>
 5   0  0.4578107E-05  0.1797702E+04  0.7818609E-02  0.8707523E-01
       -1   -1    0    0    0  501  0.00000000000E+00  0.00000000000E+00  0.34786821949E+04  0.34786821949E+04  0.50400001928E-02 0. -1.
        1   -1    0    0  501    0  0.00000000000E+00  0.00000000000E+00 -0.23225257159E+03  0.23225257165E+03  0.50400001928E-02 0.  1.
    10030    2    1    2    0    0  0.00000000000E+00  0.00000000000E+00  0.32464296233E+04  0.37109347665E+04  0.17977017390E+04 0.  0.
        2    1    3    3  502    0 -0.88307461008E+03 -0.98593601018E+02  0.13432694227E+04  0.16105633198E+04  0.25500000920E-02 0.  1.
       -2    1    3    3    0  502  0.88307461008E+03  0.98593601018E+02  0.19031602005E+04  0.21003714467E+04  0.25500000920E-02 0. -1.
</event>
<event>
 5   0  0.4623665E-05  0.1807065E+04  0.7818609E-02  0.8702551E-01
       -1   -1    0    0    0  501  0.00000000000E+00  0.00000000000E+00  0.82744272825E+03  0.82744272826E+03  0.50400001928E-02 0.  1.
        1   -1    0    0  501    0  0.00000000000E+00  0.00000000000E+00 -0.98661938934E+03  0.98661938936E+03  0.50400001928E-02 0. -1.
    10030    2    1    2    0    0  0.00000000000E+00  0.00000000000E+00 -0.15917666110E+03  0.18140621176E+04  0.18070650672E+04 0.  0.
        5    1    3    3  502    0 -0.42784930420E+03 -0.71141139891E+03 -0.43760314277E+03  0.93844541992E+03  0.46999998093E+01 0. -1.
       -5    1    3    3    0  502  0.42784930420E+03  0.71141139891E+03  0.27842648167E+03  0.87561669770E+03  0.46999998093E+01 0.  1.
</event>
<event>
 5   0  0.8802655E-05  0.1790739E+04  0.7818609E-02  0.8711240E-01
       -2   -1    0    0    0  501  0.00000000000E+00  0.00000000000E+00  0.39947377116E+03  0.39947377117E+03  0.25500000920E-02 0.  1.
        2   -1    0    0  501    0  0.00000000000E+00  0.00000000000E+00 -0.20068575411E+04  0.20068575411E+04  0.25500000920E-02 0. -1.
    10030    2    1    2    0    0  0.00000000000E+00  0.00000000000E+00 -0.16073837699E+04  0.24063313122E+04  0.17907394563E+04 0.  0.
        2    1    3    3  502    0  0.68361795051E+03  0.17683263930E+03 -0.15434747793E+04  0.16973266270E+04  0.25500000920E-02 0. -1.
       -2    1    3    3    0  502 -0.68361795051E+03 -0.17683263930E+03 -0.63908990674E+02  0.70900468523E+03  0.25500000920E-02 0.  1.
</event>
<event>
 5   0  0.8892280E-05  0.1797295E+04  0.7818609E-02  0.8707739E-01
        2   -1    0    0  501    0  0.00000000000E+00  0.00000000000E+00  0.15611671982E+04  0.15611671982E+04  0.25500000920E-02 0.  1.
       -2   -1    0    0    0  501  0.00000000000E+00  0.00000000000E+00 -0.51728438795E+03  0.51728438796E+03  0.25500000920E-02 0. -1.
    10030    2    1    2    0    0  0.00000000000E+00  0.00000000000E+00  0.10438828103E+04  0.20784515862E+04  0.17972950995E+04 0.  0.
        4    1    3    3  502    0  0.86694892145E+03  0.18139566819E+03  0.69755553185E+03  0.11274263407E+04  0.12699999809E+01 0.  1.
       -4    1    3    3    0  502 -0.86694892145E+03 -0.18139566819E+03  0.34632727843E+03  0.95102524547E+03  0.12699999809E+01 0. -1.
</event>
<event>
 5   0  0.4335117E-05  0.1809496E+04  0.7818609E-02  0.8701266E-01
       -1   -1    0    0    0  501  0.00000000000E+00  0.00000000000E+00  0.12188926695E+04  0.12188926695E+04  0.50400001928E-02 0. -1.
        1   -1    0    0  501    0  0.00000000000E+00  0.00000000000E+00 -0.67156743978E+03  0.67156743980E+03  0.50400001928E-02 0.  1.
    10030    2    1    2    0    0  0.00000000000E+00  0.00000000000E+00  0.54732522971E+03  0.18904601093E+04  0.18094956529E+04 0.  0.
        3    1    3    3  502    0  0.15613988815E+03 -0.17404900291E+03 -0.63945571935E+03  0.68086441183E+03  0.10100000352E+00 0.  1.
       -3    1    3    3    0  502 -0.15613988815E+03  0.17404900291E+03  0.11867809491E+04  0.12095956975E+04  0.10100000352E+00 0. -1.
</event>
<event>
 5   0  0.8802655E-05  0.1800719E+04  0.7818609E-02  0.8705917E-01
        2   -1    0    0  501    0  0.00000000000E+00  0.00000000000E+00  0.80840446306E+03  0.80840446307E+03  0.25500000920E-02 0.  1.
       -2   -1    0    0    0  501  0.00000000000E+00  0.00000000000E+00 -0.10027742223E+04  0.10027742223E+04  0.25500000920E-02 0. -1.
    10030    2    1    2    0    0  0.00000000000E+00  0.00000000000E+00 -0.19436975926E+03  0.18111786854E+04  0.18007189195E+04 0.  0.
        2    1    3    3  502    0 -0.75148180995E+03 -0.40826044162E+03  0.18595634666E+03  0.87520355446E+03  0.25500000920E-02 0.  1.
       -2    1    3    3    0  502  0.75148180995E+03  0.40826044162E+03 -0.38032610593E+03  0.93597513094E+03  0.25500000920E-02 0. -1.
</event>
<event>
 5   0  0.4623665E-05  0.1793120E+04  0.7818609E-02  0.8709967E-01
        1   -1    0    0  501    0  0.00000000000E+00  0.00000000000E+00  0.11344941206E+04  0.11344941206E+04  0.50400001928E-02 0. -1.
       -1   -1    0    0    0  501  0.00000000000E+00  0.00000000000E+00 -0.70852742859E+03  0.70852742861E+03  0.50400001928E-02 0.  1.
    10030    2    1    2    0    0  0.00000000000E+00  0.00000000000E+00  0.42596669203E+03  0.18430215492E+04  0.17931204110E+04 0.  0.
        5    1    3    3  502    0 -0.83125960816E+03 -0.23379212488E+03 -0.34863808225E+02  0.86422732481E+03  0.46999998093E+01 0. -1.
       -5    1    3    3    0  502  0.83125960816E+03  0.23379212488E+03  0.46083050026E+03  0.97879422444E+03  0.46999998093E+01 0.  1.
</event>
<event>
 5   0  0.3270375E-05  0.1799613E+04  0.7818609E-02  0.8706505E-01
       -3   -1    0    0    0  501  0.00000000000E+00  0.00000000000E+00  0.19372107295E+04  0.19372107321E+04  0.10100000352E+00 0. -1.
        3   -1    0    0  501    0  0.00000000000E+00  0.00000000000E+00 -0.41794735900E+03  0.41794737120E+03  0.10100000352E+00 0.  1.
    10030    2    1    2    0    0  0.00000000000E+00  0.00000000000E+00  0.15192633705E+04  0.23551581033E+04  0.17996134315E+04 0.  0.
        5    1    3    3  502    0 -0.88946342554E+03  0.60470545724E+02  0.91899359390E+03  0.12803800951E+04  0.46999998093E+01 0.  1.
       -5    1    3    3    0  502  0.88946342554E+03 -0.60470545724E+02  0.60026977655E+03  0.10747780082E+04  0.46999998093E+01 0. -1.
</event>
<event>
 5   0  0.4494757E-05  0.1809486E+04  0.7818609E-02  0.8701271E-01
        1   -1    0    0  501    0  0.00000000000E+00  0.00000000000E+00  0.83520032921E+03  0.83520032923E+03  0.50400001928E-02 0.  1.
       -1   -1    0    0    0  501  0.00000000000E+00  0.00000000000E+00 -0.98007643207E+03  0.98007643209E+03  0.50400001928E-02 0. -1.
    10030    2    1    2    0    0  0.00000000000E+00  0.00000000000E+00 -0.14487610286E+03  0.18152767613E+04  0.18094862904E+04 0.  0.
        4    1    3    3  502    0  0.55164040628E+03 -0.47467631518E+03 -0.61168379840E+03  0.95067524642E+03  0.12699999809E+01 0. -1.
       -4    1    3    3    0  502 -0.55164040628E+03  0.47467631518E+03  0.46680769554E+03  0.86460151489E+03  0.12699999809E+01 0.  1.
</event>
<event>
 5   0  0.4578107E-05  0.1798080E+04  0.7818609E-02  0.8707321E-01
        1   -1    0    0  501    0  0.00000000000E+00  0.00000000000E+00  0.95487240920E+03  0.95487240921E+03  0.50400001928E-02 0.  1.
       -1   -1    0    0    0  501  0.00000000000E+00  0.00000000000E+00 -0.84647255666E+03  0.84647255667E+03  0.50400001928E-02 0. -1.
    10030    2    1    2    0    0  0.00000000000E+00  0.00000000000E+00  0.10839985254E+03  0.18013449659E+04  0.17980804092E+04 0.  0.
        2    1    3    3  502    0 -0.53480804506E+03  0.15139207613E+03  0.76211862954E+03  0.94327303114E+03  0.25500000920E-02 0.  1.
       -2    1    3    3    0  502  0.53480804506E+03 -0.15139207613E+03 -0.65371877701E+03  0.85807193474E+03  0.25500000920E-02 0. -1.
</event>
<event>
 5   0  0.4623665E-05  0.1795983E+04  0.7818609E-02  0.8708439E-01
       -1   -1    0    0    0  501  0.00000000000E+00  0.00000000000E+00  0.62864300526E+03  0.62864300528E+03  0.50400001928E-02 0.  1.
        1   -1    0    0  501    0  0.00000000000E+00  0.00000000000E+00 -0.12827443984E+04  0.12827443984E+04  0.50400001928E-02 0. -1.
    10030    2    1    2    0    0  0.00000000000E+00  0.00000000000E+00 -0.65410139317E+03  0.19113874037E+04  0.17959825095E+04 0.  0.
        5    1    3    3  502    0 -0.36516674278E+03 -0.77194827818E+03 -0.62259113924E+03  0.10568314487E+04  0.46999998093E+01 0. -1.
       -5    1    3    3    0  502  0.36516674278E+03  0.77194827818E+03 -0.31510253929E+02  0.85455595506E+03  0.46999998093E+01 0.  1.
</event>
<event>
 5   0  0.4535100E-05  0.1773829E+04  0.7818609E-02  0.8720342E-01
        1   -1    0    0  501    0  0.00000000000E+00  0.00000000000E+00  0.14076970522E+04  0.14076970523E+04  0.50400001928E-02 0. -1.
       -1   -1    0    0    0  501  0.00000000000E+00  0.00000000000E+00 -0.55879749562E+03  0.55879749565E+03  0.50400001928E-02 0.  1.
    10030    2    1    2    0    0  0.00000000000E+00  0.00000000000E+00  0.84889955662E+03  0.19664945479E+04  0.17738292899E+04 0.  0.
        1    1    3    3  502    0 -0.54679961166E+03 -0.35091182189E+03  0.10937530356E+04  0.12721731898E+04  0.50400001928E-02 0. -1.
       -1    1    3    3    0  502  0.54679961166E+03  0.35091182189E+03 -0.24485347898E+03  0.69432135805E+03  0.50400001928E-02 0.  1.
</event>
<event>
 5   0  0.9147432E-05  0.1801098E+04  0.7818609E-02  0.8705716E-01
        2   -1    0    0  501    0  0.00000000000E+00  0.00000000000E+00  0.83133397796E+03  0.83133397796E+03  0.25500000920E-02 0. -1.
       -2   -1    0    0    0  501  0.00000000000E+00  0.00000000000E+00 -0.97552706199E+03  0.97552706199E+03  0.25500000920E-02 0.  1.
    10030    2    1    2    0    0  0.00000000000E+00  0.00000000000E+00 -0.14419308403E+03  0.18068610400E+04  0.18010983239E+04 0.  0.
        3    1    3    3  502    0 -0.15169961740E+03  0.64703984664E+03  0.53756116351E+03  0.85477795466E+03  0.10100000352E+00 0. -1.
       -3    1    3    3    0  502  0.15169961740E+03 -0.64703984664E+03 -0.68175424754E+03  0.95208308529E+03  0.10100000352E+00 0.  1.
</event>
<event>
 5   0  0.9147432E-05  0.1799204E+04  0.7818609E-02  0.8706723E-01
        2   -1    0    0  501    0  0.00000000000E+00  0.00000000000E+00  0.11855895404E+04  0.11855895404E+04  0.25500000920E-02 0.  1.
       -2   -1    0    0    0  501  0.00000000000E+00  0.00000000000E+00 -0.68260028547E+03  0.68260028548E+03  0.25500000920E-02 0. -1.
    10030    2    1    2    0    0  0.00000000000E+00  0.00000000000E+00  0.50298925493E+03  0.18681898259E+04  0.17992040004E+04 0.  0.
        3    1    3    3  502    0  0.20054068284E+03  0.87376359537E+03  0.32922731845E+03  0.95502357221E+03  0.10100000352E+00 0.  1.
       -3    1    3    3    0  502 -0.20054068284E+03 -0.87376359537E+03  0.17376193647E+03  0.91316625367E+03  0.10100000352E+00 0. -1.
</event>
<event>
 5   0  0.4623665E-05  0.1792949E+04  0.7818609E-02  0.8710058E-01
       -1   -1    0    0    0  501  0.00000000000E+00  0.00000000000E+00  0.71751618031E+03  0.71751618033E+03  0.50400001928E-02 0.  1.
        1   -1    0    0  501    0  0.00000000000E+00  0.00000000000E+00 -0.11200674515E+04  0.11200674515E+04  0.50400001928E-02 0. -1.
    10030    2    1    2    0    0  0.00000000000E+00  0.00000000000E+00 -0.40255127121E+03  0.18375836319E+04  0.17929489893E+04 0.  0.
        5    1    3    3  502    0  0.10133225452E+03  0.12982800270E+03 -0.11044170398E+04  0.11166389855E+04  0.46999998093E+01 0. -1.
       -5    1    3    3    0  502 -0.10133225452E+03 -0.12982800270E+03  0.70186576857E+03  0.72094464640E+03  0.46999998093E+01 0.  1.
</event>
<event>
 5   0  0.4335117E-05  0.1804822E+04  0.7818609E-02  0.8703739E-01
        1   -1    0    0  501    0  0.00000000000E+00  0.00000000000E+00  0.12614703688E+04  0.12614703688E+04  0.50400001928E-02 0.  1.
       -1   -1    0    0    0  501  0.00000000000E+00  0.00000000000E+00 -0.64555298955E+03  0.64555298957E+03  0.50400001928E-02 0. -1.
    10030    2    1    2    0    0  0.00000000000E+00  0.00000000000E+00  0.61591737923E+03  0.19070233584E+04  0.18048223933E+04 0.  0.
        3    1    3    3  502    0  0.21244606564E+03 -0.10086741196E+03 -0.61260409383E+03  0.65619459886E+03  0.10100000352E+00 0. -1.
       -3    1    3    3    0  502 -0.21244606564E+03  0.10086741196E+03  0.12285214731E+04  0.12508287595E+04  0.10100000352E+00 0.  1.
</event>
<event>
 5   0  0.4335117E-05  0.1816215E+04  0.7818609E-02  0.8697724E-01
       -1   -1    0    0    0  501  0.00000000000E+00  0.00000000000E+00  0.64805967037E+03  0.64805967039E+03  0.50400001928E-02 0.  1.
        1   -1    0    0  501    0  0.00000000000E+00  0.00000000000E+00 -0.12725057434E+04  0.12725057434E+04  0.50400001928E-02 0. -1.
    10030    2    1    2    0    0  0.00000000000E+00  0.00000000000E+00 -0.62444607301E+03  0.19205654138E+04  0.18162154637E+04 0.  0.
        3    1    3    3  502    0  0.25606331986E+02  0.65888794298E+03 -0.97249369512E+03  0.11749608516E+04  0.10100000352E+00 0. -1.
       -3    1    3    3    0  502 -0.25606331986E+02 -0.65888794298E+03  0.34804762211E+03  0.74560456215E+03  0.10100000352E+00 0.  1.
</event>
<event>
 5   0  0.8802655E-05  0.1794945E+04  0.7818609E-02  0.8708993E-01
        2   -1    0    0  501    0  0.00000000000E+00  0.00000000000E+00  0.15070805243E+04  0.15070805243E+04  0.25500000920E-02 0. -1.
       -2   -1    0    0    0  501  0.00000000000E+00  0.00000000000E+00 -0.53444822655E+03  0.53444822656E+03  0.25500000920E-02 0.  1.
    10030    2    1    2    0    0  0.00000000000E+00  0.00000000000E+00  0.97263229770E+03  0.20415287508E+04  0.17949445824E+04 0.  0.
        2    1    3    3  502    0  0.20240965827E+02 -0.39741447050E+03  0.14012570166E+04  0.14566637171E+04  0.25500000920E-02 0. -1.
       -2    1    3    3    0  502 -0.20240965827E+02  0.39741447050E+03 -0.42862471889E+03  0.58486503375E+03  0.25500000920E-02 0.  1.
</event>
<event>
 5   0  0.8802655E-05  0.1799263E+04  0.7818609E-02  0.8706691E-01
       -2   -1    0    0    0  501  0.00000000000E+00  0.00000000000E+00  0.34690291098E+03  0.34690291099E+03  0.25500000920E-02 0.  1.
        2   -1    0    0  501    0  0.00000000000E+00  0.00000000000E+00 -0.23330358701E+04  0.23330358701E+04  0.25500000920E-02 0. -1.
    10030    2    1    2    0    0  0.00000000000E+00  0.00000000000E+00 -0.19861329592E+04  0.26799387811E+04  0.17992631100E+04 0.  0.
        2    1    3    3  502    0 -0.15524086721E+03 -0.75318850643E+03 -0.16884156438E+04  0.18553005253E+04  0.25500000920E-02 0. -1.
       -2    1    3    3    0  502  0.15524086721E+03  0.75318850643E+03 -0.29771731539E+03  0.82463825582E+03  0.25500000920E-02 0.  1.
</event>
<event>
 5   0  0.4494757E-05  0.1791786E+04  0.7818609E-02  0.8710680E-01
       -1   -1    0    0    0  501  0.00000000000E+00  0.00000000000E+00  0.50149137252E+03  0.50149137254E+03  0.50400001928E-02 0. -1.
        1   -1    0    0  501    0  0.00000000000E+00  0.00000000000E+00 -0.16004745180E+04  0.16004745180E+04  0.50400001928E-02 0.  1.
    10030    2    1    2    0    0  0.00000000000E+00  0.00000000000E+00 -0.10989831455E+04  0.21019658906E+04  0.17917858831E+04 0.  0.
        4    1    3    3  502    0  0.18729227313E+03  0.64163150656E+03  0.15031008916E+03  0.68510154108E+03  0.12699999809E+01 0. -1.
       -4    1    3    3    0  502 -0.18729227313E+03 -0.64163150656E+03 -0.12492932347E+04  0.14168643495E+04  0.12699999809E+01 0.  1.
</event>
<event>
 5   0  0.8893075E-05  0.1803227E+04  0.7818609E-02  0.8704585E-01
        2   -1    0    0  501    0  0.00000000000E+00  0.00000000000E+00  0.75569851225E+03  0.75569851226E+03  0.25500000920E-02 0. -1.
       -2   -1    0    0    0  501  0.00000000000E+00  0.00000000000E+00 -0.10757031843E+04  0.10757031843E+04  0.25500000920E-02 0.  1.
    10030    2    1    2    0    0  0.00000000000E+00  0.00000000000E+00 -0.32000467200E+03  0.18314016965E+04  0.18032274354E+04 0.  0.
        1    1    3    3  502    0  0.63774594977E+03 -0.48801719956E+03 -0.57631741524E+03  0.98844445805E+03  0.50400001928E-02 0.  1.
       -1    1    3    3    0  502 -0.63774594977E+03  0.48801719956E+03  0.25631274324E+03  0.84295723847E+03  0.50400001928E-02 0. -1.
</event>
<event>
 5   0  0.3270375E-05  0.1802253E+04  0.7818609E-02  0.8705102E-01
       -3   -1    0    0    0  501  0.00000000000E+00  0.00000000000E+00  0.51828795893E+03  0.51828796877E+03  0.10100000352E+00 0. -1.
        3   -1    0    0  501    0  0.00000000000E+00  0.00000000000E+00 -0.15667523166E+04  0.15667523198E+04  0.10100000352E+00 0.  1.
    10030    2    1    2    0    0  0.00000000000E+00  0.00000000000E+00 -0.10484643576E+04  0.20850402886E+04  0.18022528945E+04 0.  0.
        3    1    3    3  502    0  0.71715394997E+03  0.36867731719E+03 -0.98958543752E+03  0.12765234430E+04  0.10100000352E+00 0.  1.
       -3    1    3    3    0  502 -0.71715394997E+03 -0.36867731719E+03 -0.58878920100E+02  0.80851684558E+03  0.10100000352E+00 0. -1.
</event>
<event>
 5   0  0.9184414E-05  0.1793607E+04  0.7818609E-02  0.8709707E-01
        2   -1    0    0  501    0  0.00000000000E+00  0.00000000000E+00  0.10484570028E+04  0.10484570028E+04  0.25500000920E-02 0. -1.
       -2   -1    0    0    0  501  0.00000000000E+00  0.00000000000E+00 -0.76708592543E+03  0.76708592543E+03  0.25500000920E-02 0.  1.
    10030    2    1    2    0    0  0.00000000000E+00  0.00000000000E+00  0.28137107736E+03  0.18155429282E+04  0.17936071033E+04 0.  0.
        5    1    3    3  502    0 -0.77270491307E+03  0.37540896619E+03 -0.11981327550E+03  0.86739961123E+03  0.46999998093E+01 0.  1.
       -5    1    3    3    0  502  0.77270491307E+03 -0.37540896619E+03  0.40118435286E+03  0.94814331699E+03  0.46999998093E+01 0. -1.
</event>
<event>
 5   0  0.9184414E-05  0.1799348E+04  0.7818609E-02  0.8706646E-01
        2   -1    0    0  501    0  0.00000000000E+00  0.00000000000E+00  0.28197616342E+04  0.28197616342E+04  0.25500000920E-02 0.  1.
       -2   -1    0    0    0  501  0.00000000000E+00  0.00000000000E+00 -0.28705034298E+03  0.28705034299E+03  0.25500000920E-02 0. -1.
    10030    2    1    2    0    0  0.00000000000E+00  0.00000000000E+00  0.25327112912E+04  0.31068119772E+04  0.17993482645E+04 0.  0.
        5    1    3    3  502    0 -0.13791721951E+03  0.24440298588E+03 -0.20952321878E+03  0.35025140706E+03  0.46999998093E+01 0. -1.
       -5    1    3    3    0  502  0.13791721951E+03 -0.24440298588E+03  0.27422345100E+04  0.27565605701E+04  0.46999998093E+01 0.  1.
</event>
<event>
 5   0  0.8802655E-05  0.1806754E+04  0.7818609E-02  0.8702716E-01
        2   -1    0    0  501    0  0.00000000000E+00  0.00000000000E+00  0.16348840400E+04  0.16348840400E+04  0.25500000920E-02 0. -1.
       -2   -1    0    0    0  501  0.00000000000E+00  0.00000000000E+00 -0.49917308868E+03  0.49917308869E+03  0.25500000920E-02 0.  1.
    10030    2    1    2    0    0  0.00000000000E+00  0.00000000000E+00  0.11357109514E+04  0.21340571287E+04  0.18067541237E+04 0.  0.
        2    1    3    3  502    0  0.20882607677E+03 -0.78094520510E+03  0.10441501955E+04  0.13205049695E+04  0.25500000920E-02 0. -1.
       -2    1    3    3    0  502 -0.20882607677E+03  0.78094520510E+03  0.91560755811E+02  0.81355215919E+03  0.25500000920E-02 0.  1.
</event>
<event>
 5   0  0.4623665E-05  0.1826973E+04  0.7818609E-02  0.8692086E-01
        1   -1    0    0  501    0  0.00000000000E+00  0.00000000000E+00  0.10492379947E+04  0.10492379947E+04  0.50400001928E-02 0.  1.
       -1   -1    0    0    0  501  0.00000000000E+00  0.00000000000E+00 -0.79529874598E+03  0.79529874600E+03  0.50400001928E-02 0. -1.
    10030    2    1    2    0    0  0.00000000000E+00  0.00000000000E+00  0.25393924868E+03  0.18445367407E+04  0.18269730829E+04 0.  0.
        5    1    3    3  502    0 -0.52351552017E+03  0.71999321823E+03  0.33382176426E+03  0.95074591477E+03  0.46999998093E+01 0. -1.
       -5    1    3    3    0  502  0.52351552017E+03 -0.71999321823E+03 -0.79882515581E+02  0.89379082590E+03  0.46999998093E+01 0.  1.
</event>
<event>
 5   0  0.9147432E-05  0.1797986E+04  0.7818609E-02  0.8707371E-01
        2   -1    0    0  501    0  0.00000000000E+00  0.00000000000E+00  0.70880550554E+03  0.70880550554E+03  0.25500000920E-02 0. -1.
       -2   -1    0    0    0  501  0.00000000000E+00  0.00000000000E+00 -0.11402117899E+04  0.11402117899E+04  0.25500000920E-02 0.  1.
    10030    2    1    2    0    0  0.00000000000E+00  0.00000000000E+00 -0.43140628439E+03  0.18490172955E+04  0.17979859779E+04 0.  0.
        3    1    3    3  502    0  0.27342901234E+03 -0.28441604474E+03 -0.10464251909E+04  0.11183298268E+04  0.10100000352E+00 0.  1.
       -3    1    3    3    0  502 -0.27342901234E+03  0.28441604474E+03  0.61501890648E+03  0.73068746864E+03  0.10100000352E+00 0. -1.
</event>
<event>
 5   0  0.4335117E-05  0.1799291E+04  0.7818609E-02  0.8706677E-01
        1   -1    0    0  501    0  0.00000000000E+00  0.00000000000E+00  0.18339144506E+04  0.18339144506E+04  0.50400001928E-02 0. -1.
       -1   -1    0    0    0  501  0.00000000000E+00  0.00000000000E+00 -0.44133014046E+03  0.44133014049E+03  0.50400001928E-02 0.  1.
    10030    2    1    2    0    0  0.00000000000E+00  0.00000000000E+00  0.13925843101E+04  0.22752445911E+04  0.17992906626E+04 0.  0.
        3    1    3    3  502    0  0.35395343242E+02  0.35910453891E+03 -0.34581053246E+03  0.49979379223E+03  0.10100000352E+00 0.  1.
       -3    1    3    3    0  502 -0.35395343242E+02 -0.35910453891E+03  0.17383948426E+04  0.17754507989E+04  0.10100000352E+00 0. -1.
</event>
<event>
 5   0  0.8892280E-05  0.1807261E+04  0.7818609E-02  0.8702447E-01
        2   -1    0    0  501    0  0.00000000000E+00  0.00000000000E+00  0.12336016580E+04  0.12336016580E+04  0.25500000920E-02 0. -1.
       -2   -1    0    0    0  501  0.00000000000E+00  0.00000000000E+00 -0.66192235966E+03  0.66192235966E+03  0.25500000920E-02 0.  1.
    10030    2    1    2    0    0  0.00000000000E+00  0.00000000000E+00  0.57167929830E+03  0.18955240176E+04  0.18072614867E+04 0.  0.
        4    1    3    3  502    0  0.13767818311E+03  0.57574813812E+03  0.10019014526E+04  0.11637221895E+04  0.12699999809E+01 0. -1.
       -4    1    3    3    0  502 -0.13767818311E+03 -0.57574813812E+03 -0.43022215433E+03  0.73180182812E+03  0.12699999809E+01 0.  1.
</event>
<event>
 5   0  0.4578107E-05  0.1810204E+04  0.7818609E-02  0.8700892E-01
       -1   -1    0    0    0  501  0.00000000000E+00  0.00000000000E+00  0.47330918917E+03  0.47330918920E+03  0.50400001928E-02 0. -1.
        1   -1    0    0  501    0  0.00000000000E+00  0.00000000000E+00 -0.17308133689E+04  0.17308133689E+04  0.50400001928E-02 0.  1.
    10030    2    1    2    0    0  0.00000000000E+00  0.00000000000E+00 -0.12575041797E+04  0.22041225581E+04  0.18102042672E+04 0.  0.
        2    1    3    3  502    0 -0.48716704016E+03  0.16830399208E+03  0.27716266509E+03  0.58521543187E+03  0.25500000920E-02 0. -1.
       -2    1    3    3    0  502  0.48716704016E+03 -0.16830399208E+03 -0.15346668448E+04  0.16189071262E+04  0.25500000920E-02 0.  1.
</event>
<event>
 5   0  0.4535100E-05  0.1777229E+04  0.7818609E-02  0.8718503E-01
        1   -1    0    0  501    0  0.00000000000E+00  0.00000000000E+00  0.11498837527E+04  0.11498837527E+04  0.50400001928E-02 0.  1.
       -1   -1    0    0    0  501  0.00000000000E+00  0.00000000000E+00 -0.68670906631E+03  0.68670906633E+03  0.50400001928E-02 0. -1.
    10030    2    1    2    0    0  0.00000000000E+00  0.00000000000E+00  0.46317468642E+03  0.18365928191E+04  0.17772288522E+04 0.  0.
        1    1    3    3  502    0  0.45673065985E+03  0.43809988653E+03  0.87620293728E+03  0.10808635407E+04  0.50400001928E-02 0.  1.
       -1    1    3    3    0  502 -0.45673065985E+03 -0.43809988653E+03 -0.41302825085E+03  0.75572927842E+03  0.50400001928E-02 0. -1.
</event>
<event>
 5   0  0.9184414E-05  0.1803589E+04  0.7818609E-02  0.8704393E-01
       -2   -1    0    0    0  501  0.00000000000E+00  0.00000000000E+00  0.73528476525E+03  0.73528476525E+03  0.25500000920E-02 0. -1.
        2   -1    0    0  501    0  0.00000000000E+00  0.00000000000E+00 -0.11060113847E+04  0.11060113847E+04  0.25500000920E-02 0.  1.
    10030    2    1    2    0    0  0.00000000000E+00  0.00000000000E+00 -0.37072661946E+03  0.18412961500E+04  0.18035890013E+04 0.  0.
        5    1    3    3  502    0 -0.79638761629E+03 -0.42302602357E+03 -0.18006054831E+03  0.91958041685E+03  0.46999998093E+01 0. -1.
       -5    1    3    3    0  502  0.79638761629E+03  0.42302602357E+03 -0.19066607115E+03  0.92171573312E+03  0.46999998093E+01 0.  1.
</event>
<event>
 5   0  0.4623665E-05  0.1796735E+04  0.7818609E-02  0.8708037E-01
        1   -1    0    0  501    0  0.00000000000E+00  0.00000000000E+00  0.14570638058E+04  0.14570638058E+04  0.50400001928E-02 0.  1.
       -1   -1    0    0    0  501  0.00000000000E+00  0.00000000000E+00 -0.55389785323E+03  0.55389785325E+03  0.50400001928E-02 0. -1.
    10030    2    1    2    0    0  0.00000000000E+00  0.00000000000E+00  0.90316595253E+03  0.20109616590E+04  0.17967353885E+04 0.  0.
        5    1    3    3  502    0  0.76289521475E+03  0.24756195460E+03 -0.13203821046E+01  0.80207223083E+03  0.46999998093E+01 0. -1.
       -5    1    3    3    0  502 -0.76289521475E+03 -0.24756195460E+03  0.90448633464E+03  0.12088894282E+04  0.46999998093E+01 0.  1.
</event>
<event>
 5   0  0.9147432E-05  0.1723190E+04  0.7818609E-02  0.8748248E-01
        2   -1    0    0  501    0  0.00000000000E+00  0.00000000000E+00  0.17433124411E+04  0.17433124411E+04  0.25500000920E-02 0.  1.
       -2   -1    0    0    0  501  0.00000000000E+00  0.00000000000E+00 -0.42582505140E+03  0.42582505141E+03  0.25500000920E-02 0. -1.
    10030    2    1    2    0    0  0.00000000000E+00  0.00000000000E+00  0.13174873897E+04  0.21691374926E+04  0.17231901925E+04 0.  0.
        3    1    3    3  502    0 -0.33851402849E+03  0.19126504574E+03  0.16265998305E+04  0.16724237154E+04  0.10100000352E+00 0.  1.
       -3    1    3    3    0  502  0.33851402849E+03 -0.19126504574E+03 -0.30911244072E+03  0.49671377715E+03  0.10100000352E+00 0. -1.
</event>
<event>
 5   0  0.8893075E-05  0.1800657E+04  0.7818609E-02  0.8705950E-01
        2   -1    0    0  501    0  0.00000000000E+00  0.00000000000E+00  0.23485460228E+04  0.23485460228E+04  0.25500000920E-02 0.  1.
       -2   -1    0    0    0  501  0.00000000000E+00  0.00000000000E+00 -0.34514609682E+03  0.34514609683E+03  0.25500000920E-02 0. -1.
    10030    2    1    2    0    0  0.00000000000E+00  0.00000000000E+00  0.20033999260E+04  0.26936921196E+04  0.18006570945E+04 0.  0.
        1    1    3    3  502    0  0.79090320942E+03  0.42425770643E+03  0.89519292863E+03  0.12676327811E+04  0.50400001928E-02 0. -1.
       -1    1    3    3    0  502 -0.79090320942E+03 -0.42425770643E+03  0.11082069974E+04  0.14260593386E+04  0.50400001928E-02 0.  1.
</event>
<event>
 5   0  0.4578107E-05  0.1774706E+04  0.7818609E-02  0.8719867E-01
       -1   -1    0    0    0  501  0.00000000000E+00  0.00000000000E+00  0.52543618824E+03  0.52543618826E+03  0.50400001928E-02 0. -1.
        1   -1    0    0  501    0  0.00000000000E+00  0.00000000000E+00 -0.14985556717E+04  0.14985556717E+04  0.50400001928E-02 0.  1.
    10030    2    1    2    0    0  0.00000000000E+00  0.00000000000E+00 -0.97311948346E+03  0.20239918600E+04  0.17747060377E+04 0.  0.
        2    1    3    3  502    0 -0.27784222638E+03 -0.79022135361E+02  0.47031403748E+03  0.55193848797E+03  0.25500000920E-02 0. -1.
       -2    1    3    3    0  502  0.27784222638E+03  0.79022135361E+02 -0.14434335209E+04  0.14720533720E+04  0.25500000920E-02 0.  1.
</event>
<event>
 5   0  0.4578107E-05  0.1798485E+04  0.7818609E-02  0.8707106E-01
        1   -1    0    0  501    0  0.00000000000E+00  0.00000000000E+00  0.10747767762E+04  0.10747767762E+04  0.50400001928E-02 0. -1.
       -1   -1    0    0    0  501  0.00000000000E+00  0.00000000000E+00 -0.75237638943E+03  0.75237638945E+03  0.50400001928E-02 0.  1.
    10030    2    1    2    0    0  0.00000000000E+00  0.00000000000E+00  0.32240038673E+03  0.18271531656E+04  0.17984845513E+04 0.  0.
        2    1    3    3  502    0  0.31845648140E+03 -0.25017504144E+03 -0.65448963210E+03  0.76964846549E+03  0.25500000920E-02 0. -1.
       -2    1    3    3    0  502 -0.31845648140E+03  0.25017504144E+03  0.97689001882E+03  0.10575047001E+04  0.25500000920E-02 0.  1.
</event>
<event>
 5   0  0.9147432E-05  0.1803832E+04  0.7818609E-02  0.8704264E-01
        2   -1    0    0  501    0  0.00000000000E+00  0.00000000000E+00  0.20805097886E+04  0.20805097886E+04  0.25500000920E-02 0.  1.
       -2   -1    0    0    0  501  0.00000000000E+00  0.00000000000E+00 -0.39098700389E+03  0.39098700389E+03  0.25500000920E-02 0. -1.
    10030    2    1    2    0    0  0.00000000000E+00  0.00000000000E+00  0.16895227847E+04  0.24714967924E+04  0.18038317979E+04 0.  0.
        3    1    3    3  502    0  0.67795901755E+03 -0.55235887383E+03  0.54232548186E+03  0.10290022806E+04  0.10100000352E+00 0. -1.
       -3    1    3    3    0  502 -0.67795901755E+03  0.55235887383E+03  0.11471973028E+04  0.14424945119E+04  0.10100000352E+00 0.  1.
</event>
<event>
 5   0  0.9147432E-05  0.1797220E+04  0.7818609E-02  0.8707779E-01
        2   -1    0    0  501    0  0.00000000000E+00  0.00000000000E+00  0.14155475906E+04  0.14155475906E+04  0.25500000920E-02 0. -1.
       -2   -1    0    0    0  501  0.00000000000E+00  0.00000000000E+00 -0.57045078886E+03  0.57045078887E+03  0.25500000920E-02 0.  1.
    10030    2    1    2    0    0  0.00000000000E+00  0.00000000000E+00  0.84509680175E+03  0.19859983795E+04  0.17972203424E+04 0.  0.
        3    1    3    3  502    0  0.62608442746E+03 -0.16531333331E+03 -0.26594494569E+03  0.70002638009E+03  0.10100000352E+00 0.  1.
       -3    1    3    3    0  502 -0.62608442746E+03  0.16531333331E+03  0.11110417474E+04  0.12859719994E+04  0.10100000352E+00 0. -1.
</event>
<event>
 5   0  0.4494757E-05  0.1804518E+04  0.7818609E-02  0.8703901E-01
       -1   -1    0    0    0  501  0.00000000000E+00  0.00000000000E+00  0.56434350562E+03  0.56434350565E+03  0.50400001928E-02 0.  1.
        1   -1    0    0  501    0  0.00000000000E+00  0.00000000000E+00 -0.14425095794E+04  0.14425095794E+04  0.50400001928E-02 0. -1.
    10030    2    1    2    0    0  0.00000000000E+00  0.00000000000E+00 -0.87816607380E+03  0.20068530851E+04  0.18045175676E+04 0.  0.
        4    1    3    3  502    0  0.26766124724E+03 -0.56656218990E+03  0.28288716411E+03  0.68750419549E+03  0.12699999809E+01 0.  1.
       -4    1    3    3    0  502 -0.26766124724E+03  0.56656218990E+03 -0.11610532379E+04  0.13193488896E+04  0.12699999809E+01 0. -1.
</event>
<event>
 5   0  0.4494757E-05  0.1798509E+04  0.7818609E-02  0.8707093E-01
       -1   -1    0    0    0  501  0.00000000000E+00  0.00000000000E+00  0.67891587680E+03  0.67891587682E+03  0.50400001928E-02 0. -1.
        1   -1    0    0  501    0  0.00000000000E+00  0.00000000000E+00 -0.11911029394E+04  0.11911029394E+04  0.50400001928E-02 0.  1.
    10030    2    1    2    0    0  0.00000000000E+00  0.00000000000E+00 -0.51218706262E+03  0.18700188162E+04  0.17985090453E+04 0.  0.
        4    1    3    3  502    0 -0.26396045945E+02 -0.30778688184E+03 -0.11342004736E+04  0.11755176915E+04  0.12699999809E+01 0.  1.
       -4    1    3    3    0  502  0.26396045945E+02  0.30778688184E+03  0.62201341099E+03  0.69450112471E+03  0.12699999809E+01 0. -1.
</event>
<event>
 5   0  0.4535100E-05  0.1801202E+04  0.7818609E-02  0.8705660E-01
       -1   -1    0    0    0  501  0.00000000000E+00  0.00000000000E+00  0.45627134139E+03  0.45627134142E+03  0.50400001928E-02 0.  1.
        1   -1    0    0  501    0  0.00000000000E+00  0.00000000000E+00 -0.17776316722E+04  0.17776316722E+04  0.50400001928E-02 0. -1.
    10030    2    1    2    0    0  0.00000000000E+00  0.00000000000E+00 -0.13213603308E+04  0.22339030136E+04  0.18012022514E+04 0.  0.
        1    1    3    3  502    0 -0.71262143892E+03 -0.11680486818E+03  0.67539186096E+01  0.72216224485E+03  0.50400001928E-02 0.  1.
       -1    1    3    3    0  502  0.71262143892E+03  0.11680486818E+03 -0.13281142494E+04  0.15117407687E+04  0.50400001928E-02 0. -1.
</event>
<event>
 5   0  0.4535100E-05  0.1802058E+04  0.7818609E-02  0.8705206E-01
        1   -1    0    0  501    0  0.00000000000E+00  0.00000000000E+00  0.17087908983E+04  0.17087908983E+04  0.50400001928E-02 0. -1.
       -1   -1    0    0    0  501  0.00000000000E+00  0.00000000000E+00 -0.47510401152E+03  0.47510401155E+03  0.50400001928E-02 0.  1.
    10030    2    1    2    0    0  0.00000000000E+00  0.00000000000E+00  0.12336868868E+04  0.21838949099E+04  0.18020581685E+04 0.  0.
        1    1    3    3  502    0 -0.43417289762E+03 -0.27034181963E+03 -0.28213221196E+03  0.58411419219E+03  0.50400001928E-02 0.  1.
       -1    1    3    3    0  502  0.43417289762E+03  0.27034181963E+03  0.15158190987E+04  0.15997807177E+04  0.50400001928E-02 0. -1.
</event>
<event>
 5   0  0.4578107E-05  0.1799516E+04  0.7818609E-02  0.8706557E-01
       -1   -1    0    0    0  501  0.00000000000E+00  0.00000000000E+00  0.62683575700E+03  0.62683575702E+03  0.50400001928E-02 0. -1.
        1   -1    0    0  501    0  0.00000000000E+00  0.00000000000E+00 -0.12915101864E+04  0.12915101864E+04  0.50400001928E-02 0.  1.
    10030    2    1    2    0    0  0.00000000000E+00  0.00000000000E+00 -0.66467442941E+03  0.19183459434E+04  0.17995163410E+04 0.  0.
        2    1    3    3  502    0  0.48654852056E+03  0.40838326016E+03 -0.10116431217E+04  0.11945409811E+04  0.25500000920E-02 0.  1.
       -2    1    3    3    0  502 -0.48654852056E+03 -0.40838326016E+03  0.34696869224E+03  0.72380496229E+03  0.25500000920E-02 0. -1.
</event>
<event>
 5   0  0.4623665E-05  0.1802727E+04  0.7818609E-02  0.8704851E-01
       -1   -1    0    0    0  501  0.00000000000E+00  0.00000000000E+00  0.94685136103E+03  0.94685136104E+03  0.50400001928E-02 0. -1.
        1   -1    0    0  501    0  0.00000000000E+00  0.00000000000E+00 -0.85806050127E+03  0.85806050128E+03  0.50400001928E-02 0.  1.
    10030    2    1    2    0    0  0.00000000000E+00  0.00000000000E+00  0.88790859762E+02  0.18049118623E+04  0.18027265500E+04 0.  0.
        5    1    3    3  502    0 -0.29526176542E+03 -0.44394755283E+03 -0.68323497773E+03  0.86666087057E+03  0.46999998093E+01 0.  1.
       -5    1    3    3    0  502  0.29526176542E+03  0.44394755283E+03  0.77202583749E+03  0.93825099176E+03  0.46999998093E+01 0. -1.
</event>
<event>
 5   0  0.4578107E-05  0.1779894E+04  0.7818609E-02  0.8717065E-01
        1   -1    0    0  501    0  0.00000000000E+00  0.00000000000E+00  0.13994564486E+04  0.13994564486E+04  0.50400001928E-02 0.  1.
       -1   -1    0    0    0  501  0.00000000000E+00  0.00000000000E+00 -0.56593823478E+03  0.56593823480E+03  0.50400001928E-02 0. -1.
    10030    2    1    2    0    0  0.00000000000E+00  0.00000000000E+00  0.83351821383E+03  0.19653946834E+04  0.17798942802E+04 0.  0.
        2    1    3    3  502    0 -0.13759061054E+03 -0.87445510031E+03  0.51798068498E+03  0.10256251209E+04  0.25500000920E-02 0. -1.
       -2    1    3    3    0  502  0.13759061054E+03  0.87445510031E+03  0.31553752884E+03  0.93976956254E+03  0.25500000920E-02 0.  1.
</event>
<event>
 5   0  0.8893075E-05  0.1810085E+04  0.7818609E-02  0.8700955E-01
        2   -1    0    0  501    0  0.00000000000E+00  0.00000000000E+00  0.58505713105E+03  0.58505713105E+03  0.25500000920E-02 0. -1.
       -2   -1    0    0    0  501  0.00000000000E+00  0.00000000000E+00 -0.14000371801E+04  0.14000371801E+04  0.25500000920E-02 0.  1.
    10030    2    1    2    0    0  0.00000000000E+00  0.00000000000E+00 -0.81498004910E+03  0.19850943112E+04  0.18100847892E+04 0.  0.
        1    1    3    3  502    0 -0.57841350548E+03 -0.24284553558E+03 -0.11229172823E+04  0.12862656648E+04  0.50400001928E-02 0.  1.
       -1    1    3    3    0  502  0.57841350548E+03  0.24284553558E+03  0.30793723319E+03  0.69882864644E+03  0.50400001928E-02 0. -1.
</event>
<event>
 5   0  0.8893075E-05  0.1800306E+04  0.7818609E-02  0.8706137E-01
       -2   -1    0    0    0  501  0.00000000000E+00  0.00000000000E+00  0.72531166469E+03  0.72531166470E+03  0.25500000920E-02 0. -1.
        2   -1    0    0  501    0  0.00000000000E+00  0.00000000000E+00 -0.11171407447E+04  0.11171407447E+04  0.25500000920E-02 0.  1.
    10030    2    1    2    0    0  0.00000000000E+00  0.00000000000E+00 -0.39182908004E+03  0.18424524094E+04  0.18003057665E+04 0.  0.
        1    1    3    3  502    0 -0.83356870865E+03  0.16794437633E+03  0.10635242018E+03  0.85694395551E+03  0.50400001928E-02 0. -1.
       -1    1    3    3    0  502  0.83356870865E+03 -0.16794437633E+03 -0.49818150021E+03  0.98550845393E+03  0.50400001928E-02 0.  1.
</event>
<event>
 5   0  0.8802655E-05  0.1799216E+04  0.7818609E-02  0.8706717E-01
        2   -1    0    0  501    0  0.00000000000E+00  0.00000000000E+00  0.23561374546E+04  0.23561374546E+04  0.25500000920E-02 0. -1.
       -2   -1    0    0    0  501  0.00000000000E+00  0.00000000000E+00 -0.34348356442E+03  0.34348356443E+03  0.25500000920E-02 0.  1.
    10030    2    1    2    0    0  0.00000000000E+00  0.00000000000E+00  0.20126538902E+04  0.26996210191E+04  0.17992159306E+04 0.  0.
        2    1    3    3  502    0 -0.54980218249E+03  0.71065422941E+03  0.10731365626E+04  0.13996192181E+04  0.25500000920E-02 0.  1.
       -2    1    3    3    0  502  0.54980218249E+03 -0.71065422941E+03  0.93951732759E+03  0.13000018010E+04  0.25500000920E-02 0. -1.
</event>
<event>
 5   0  0.4494757E-05  0.1799888E+04  0.7818609E-02  0.8706359E-01
        1   -1    0    0  501    0  0.00000000000E+00  0.00000000000E+00  0.96838726702E+03  0.96838726703E+03  0.50400001928E-02 0.  1.
       -1   -1    0    0    0  501  0.00000000000E+00  0.00000000000E+00 -0.83633804243E+03  0.83633804244E+03  0.50400001928E-02 0. -1.
    10030    2    1    2    0    0  0.00000000000E+00  0.00000000000E+00  0.13204922459E+03  0.18047253095E+04  0.17998878979E+04 0.  0.
        4    1    3    3  502    0  0.72009648201E+03 -0.11355705410E+03 -0.46308990101E+03  0.86364808647E+03  0.12699999809E+01 0. -1.
       -4    1    3    3    0  502 -0.72009648201E+03  0.11355705410E+03  0.59513912560E+03  0.94107722300E+03  0.12699999809E+01 0.  1.
</event>
<event>
 5   0  0.4494757E-05  0.1799857E+04  0.7818609E-02  0.8706375E-01
       -1   -1    0    0    0  501  0.00000000000E+00  0.00000000000E+00  0.10317766098E+04  0.10317766098E+04  0.50400001928E-02 0. -1.
        1   -1    0    0  501    0  0.00000000000E+00  0.00000000000E+00 -0.78492905052E+03  0.78492905054E+03  0.50400001928E-02 0.  1.
    10030    2    1    2    0    0  0.00000000000E+00  0.00000000000E+00  0.24684755924E+03  0.18167056603E+04  0.17998571440E+04 0.  0.
        4    1    3    3  502    0 -0.71463064914E+03  0.36965136227E+03  0.53034868646E+03  0.96364435164E+03  0.12699999809E+01 0. -1.
       -4    1    3    3    0  502  0.71463064914E+03 -0.36965136227E+03 -0.28350112722E+03  0.85306130867E+03  0.12699999809E+01 0.  1.
</event>
<event>
 5   0  0.4535100E-05  0.1805827E+04  0.7818609E-02  0.8703207E-01
        1   -1    0    0  501    0  0.00000000000E+00  0.00000000000E+00  0.17363355699E+04  0.17363355699E+04  0.50400001928E-02 0.  1.
       -1   -1    0    0    0  501  0.00000000000E+00  0.00000000000E+00 -0.46952480862E+03  0.46952480865E+03  0.50400001928E-02 0. -1.
    10030    2    1    2    0    0  0.00000000000E+00  0.00000000000E+00  0.12668107613E+04  0.22058603786E+04  0.18058268203E+04 0.  0.
        1    1    3    3  502    0 -0.14254071917E+03 -0.87265475802E+03  0.85667520880E+03  0.12311525481E+04  0.50400001928E-02 0.  1.
       -1    1    3    3    0  502  0.14254071917E+03  0.87265475802E+03  0.41013555248E+03  0.97470783046E+03  0.50400001928E-02 0. -1.
</event>
<event>
 5   0  0.4578107E-05  0.1801302E+04  0.7818609E-02  0.8705607E-01
        1   -1    0    0  501    0  0.00000000000E+00  0.00000000000E+00  0.20358863623E+04  0.20358863623E+04  0.50400001928E-02 0. -1.
       -1   -1    0    0    0  501  0.00000000000E+00  0.00000000000E+00 -0.39843694806E+03  0.39843694809E+03  0.50400001928E-02 0.  1.
    10030    2    1    2    0    0  0.00000000000E+00  0.00000000000E+00  0.16374494143E+04  0.24343233104E+04  0.18013021388E+04 0.  0.
        2    1    3    3  502    0 -0.75767836216E+03  0.40996414468E+03  0.46366966675E+03  0.97833361400E+03  0.25500000920E-02 0. -1.
       -2    1    3    3    0  502  0.75767836216E+03 -0.40996414468E+03  0.11737797475E+04  0.14559896964E+04  0.25500000920E-02 0.  1.
</event>
<event>
 5   0  0.4578107E-05  0.1790726E+04  0.7818609E-02  0.8711247E-01
       -1   -1    0    0    0  501  0.00000000000E+00  0.00000000000E+00  0.90932660942E+03  0.90932660943E+03  0.50400001928E-02 0.  1.
        1   -1    0    0  501    0  0.00000000000E+00  0.00000000000E+00 -0.88161416916E+03  0.88161416918E+03  0.50400001928E-02 0. -1.
    10030    2    1    2    0    0  0.00000000000E+00  0.00000000000E+00  0.27712440258E+02  0.17909407786E+04  0.17907263591E+04 0.  0.
        2    1    3    3  502    0  0.21457649387E+03 -0.53615274292E+03  0.69816938775E+03  0.90605923066E+03  0.25500000920E-02 0.  1.
       -2    1    3    3    0  502 -0.21457649387E+03  0.53615274292E+03 -0.67045694750E+03  0.88488154795E+03  0.25500000920E-02 0. -1.
</event>
<event>
 5   0  0.9147432E-05  0.1814649E+04  0.7818609E-02  0.8698548E-01
        2   -1    0    0  501    0  0.00000000000E+00  0.00000000000E+00  0.97552857126E+03  0.97552857127E+03  0.25500000920E-02 0.  1.
       -2   -1    0    0    0  501  0.00000000000E+00  0.00000000000E+00 -0.84388901040E+03  0.84388901041E+03  0.25500000920E-02 0. -1.
    10030    2    1    2    0    0  0.00000000000E+00  0.00000000000E+00  0.13163956086E+03  0.18194175817E+04  0.18146491018E+04 0.  0.
        3    1    3    3  502    0  0.32546690749E+03 -0.70290627748E+03  0.53953555288E+03  0.94398335039E+03  0.10100000352E+00 0. -1.
       -3    1    3    3    0  502 -0.32546690749E+03  0.70290627748E+03 -0.40789599202E+03  0.87543423128E+03  0.10100000352E+00 0.  1.
</event>
<event>
 5   0  0.8893075E-05  0.1804882E+04  0.7818609E-02  0.8703708E-01
        2   -1    0    0  501    0  0.00000000000E+00  0.00000000000E+00  0.11533746176E+04  0.11533746176E+04  0.25500000920E-02 0.  1.
       -2   -1    0    0    0  501  0.00000000000E+00  0.00000000000E+00 -0.70610168790E+03  0.70610168790E+03  0.25500000920E-02 0. -1.
    10030    2    1    2    0    0  0.00000000000E+00  0.00000000000E+00  0.44727292972E+03  0.18594763055E+04  0.18048820064E+04 0.  0.
        1    1    3    3  502    0 -0.66118754357E+03  0.59614827062E+03  0.37588342200E+03  0.96635918545E+03  0.50400001928E-02 0.  1.
       -1    1    3    3    0  502  0.66118754357E+03 -0.59614827062E+03  0.71389507719E+02  0.89311712008E+03  0.50400001928E-02 0. -1.
</event>
<event>
 5   0  0.9147432E-05  0.1808208E+04  0.7818609E-02  0.8701946E-01
        2   -1    0    0  501    0  0.00000000000E+00  0.00000000000E+00  0.10799644327E+04  0.10799644327E+04  0.25500000920E-02 0. -1.
       -2   -1    0    0    0  501  0.00000000000E+00  0.00000000000E+00 -0.75688092869E+03  0.75688092870E+03  0.25500000920E-02 0.  1.
    10030    2    1    2    0    0  0.00000000000E+00  0.00000000000E+00  0.32308350397E+03  0.18368453614E+04  0.18082084866E+04 0.  0.
        3    1    3    3  502    0 -0.13989571441E+03  0.87328806446E+03  0.35213407622E+03  0.95194604484E+03  0.10100000352E+00 0. -1.
       -3    1    3    3    0  502  0.13989571441E+03 -0.87328806446E+03 -0.29050572250E+02  0.88489931653E+03  0.10100000352E+00 0.  1.
</event>
<event>
 5   0  0.4535100E-05  0.1797209E+04  0.7818609E-02  0.8707785E-01
        1   -1    0    0  501    0  0.00000000000E+00  0.00000000000E+00  0.17714468881E+04  0.17714468881E+04  0.50400001928E-02 0.  1.
       -1   -1    0    0    0  501  0.00000000000E+00  0.00000000000E+00 -0.45583645187E+03  0.45583645190E+03  0.50400001928E-02 0. -1.
    10030    2    1    2    0    0  0.00000000000E+00  0.00000000000E+00  0.13156104363E+04  0.22272833400E+04  0.17972090187E+04 0.  0.
        1    1    3    3  502    0  0.66937439707E+03 -0.44344183968E+03  0.15778546651E+03  0.81829029207E+03  0.50400001928E-02 0. -1.
       -1    1    3    3    0  502 -0.66937439707E+03  0.44344183968E+03  0.11578249698E+04  0.14089930480E+04  0.50400001928E-02 0.  1.
</event>
<event>
 5   0  0.8802655E-05  0.1802335E+04  0.7818609E-02  0.8705059E-01
       -2   -1    0    0    0  501  0.00000000000E+00  0.00000000000E+00  0.14100406350E+04  0.14100406350E+04  0.25500000920E-02 0.  1.
        2   -1    0    0  501    0  0.00000000000E+00  0.00000000000E+00 -0.57594256910E+03  0.57594256911E+03  0.25500000920E-02 0. -1.
    10030    2    1    2    0    0  0.00000000000E+00  0.00000000000E+00  0.83409806585E+03  0.19859832041E+04  0.18023345148E+04 0.  0.
        2    1    3    3  502    0  0.26271653043E+03  0.25882036338E+03  0.13230817147E+04  0.13735185400E+04  0.25500000920E-02 0.  1.
       -2    1    3    3    0  502 -0.26271653043E+03 -0.25882036338E+03 -0.48898364888E+03  0.61246466407E+03  0.25500000920E-02 0. -1.
</event>
<event>
 5   0  0.8802655E-05  0.1778376E+04  0.7818609E-02  0.8717884E-01
       -2   -1    0    0    0  501  0.00000000000E+00  0.00000000000E+00  0.12949003977E+04  0.12949003977E+04  0.25500000920E-02 0. -1.
        2   -1    0    0  501    0  0.00000000000E+00  0.00000000000E+00 -0.61059157356E+03  0.61059157357E+03  0.25500000920E-02 0.  1.
    10030    2    1    2    0    0  0.00000000000E+00  0.00000000000E+00  0.68430882416E+03  0.19054919713E+04  0.17783759686E+04 0.  0.
        2    1    3    3  502    0  0.58072268182E+03  0.64286255194E+03  0.55683601276E+03  0.10298434051E+04  0.25500000920E-02 0. -1.
       -2    1    3    3    0  502 -0.58072268182E+03 -0.64286255194E+03  0.12747281140E+03  0.87564856622E+03  0.25500000920E-02 0.  1.
</event>
<event>
 5   0  0.4535100E-05  0.1796622E+04  0.7818609E-02  0.8708098E-01
        1   -1    0    0  501    0  0.00000000000E+00  0.00000000000E+00  0.10197879397E+04  0.10197879397E+04  0.50400001928E-02 0.  1.
       -1   -1    0    0    0  501  0.00000000000E+00  0.00000000000E+00 -0.79130414143E+03  0.79130414144E+03  0.50400001928E-02 0. -1.
    10030    2    1    2    0    0  0.00000000000E+00  0.00000000000E+00  0.22848379826E+03  0.18110920811E+04  0.17966217410E+04 0.  0.
        1    1    3    3  502    0 -0.30702308215E+03  0.40678022191E+03 -0.63146553385E+03  0.81146906433E+03  0.50400001928E-02 0. -1.
       -1    1    3    3    0  502  0.30702308215E+03 -0.40678022191E+03  0.85994933211E+03  0.99962301681E+03  0.50400001928E-02 0.  1.
</event>
<event>
 5   0  0.4494757E-05  0.1813710E+04  0.7818609E-02  0.8699043E-01
        1   -1    0    0  501    0  0.00000000000E+00  0.00000000000E+00  0.11811904660E+04  0.11811904660E+04  0.50400001928E-02 0. -1.
       -1   -1    0    0    0  501  0.00000000000E+00  0.00000000000E+00 -0.69623458997E+03  0.69623458999E+03  0.50400001928E-02 0.  1.
    10030    2    1    2    0    0  0.00000000000E+00  0.00000000000E+00  0.48495587604E+03  0.18774250560E+04  0.18137096348E+04 0.  0.
        4    1    3    3  502    0  0.13725475637E+01  0.49482541108E+03 -0.54417309039E+03  0.73551345096E+03  0.12699999809E+01 0.  1.
       -4    1    3    3    0  502 -0.13725475637E+01 -0.49482541108E+03  0.10291289664E+04  0.11419116051E+04  0.12699999809E+01 0. -1.
</event>
<event>
 5   0  0.4623665E-05  0.1829099E+04  0.7818609E-02  0.8690976E-01
        1   -1    0    0  501    0  0.00000000000E+00  0.00000000000E+00  0.64571521559E+03  0.64571521561E+03  0.50400001928E-02 0. -1.
       -1   -1    0    0    0  501  0.00000000000E+00  0.00000000000E+00 -0.12953086817E+04  0.12953086817E+04  0.50400001928E-02 0.  1.
    10030    2    1    2    0    0  0.00000000000E+00  0.00000000000E+00 -0.64959346613E+03  0.19410238973E+04  0.18290987121E+04 0.  0.
        5    1    3    3  502    0 -0.42916983689E+03  0.15841054332E+03  0.51555552613E+03  0.68927515526E+03  0.46999998093E+01 0. -1.
       -5    1    3    3    0  502  0.42916983689E+03 -0.15841054332E+03 -0.11651489923E+04  0.12517487421E+04  0.46999998093E+01 0.  1.
</event>
<event>
 5   0  0.8892280E-05  0.1804999E+04  0.7818609E-02  0.8703645E-01
       -2   -1    0    0    0  501  0.00000000000E+00  0.00000000000E+00  0.43522045305E+03  0.43522045306E+03  0.25500000920E-02 0. -1.
        2   -1    0    0  501    0  0.00000000000E+00  0.00000000000E+00 -0.18714783226E+04  0.18714783226E+04  0.25500000920E-02 0.  1.
    10030    2    1    2    0    0  0.00000000000E+00  0.00000000000E+00 -0.14362578695E+04  0.23066987756E+04  0.18049993279E+04 0.  0.
        4    1    3    3  502    0  0.44787985058E+03  0.64931261804E+01 -0.17193972123E+04  0.17767855548E+04  0.12699999809E+01 0.  1.
       -4    1    3    3    0  502 -0.44787985058E+03 -0.64931261804E+01  0.28313934280E+03  0.52991322080E+03  0.12699999809E+01 0. -1.
</event>
<event>
 5   0  0.4623665E-05  0.1761576E+04  0.7818609E-02  0.8727004E-01
        1   -1    0    0  501    0  0.00000000000E+00  0.00000000000E+00  0.13735840093E+04  0.13735840093E+04  0.50400001928E-02 0.  1.
       -1   -1    0    0    0  501  0.00000000000E+00  0.00000000000E+00 -0.56479041572E+03  0.56479041574E+03  0.50400001928E-02 0. -1.
    10030    2    1    2    0    0  0.00000000000E+00  0.00000000000E+00  0.80879359361E+03  0.19383744251E+04  0.17615755263E+04 0.  0.
        5    1    3    3  502    0 -0.84134377313E+03 -0.11957986786E+03  0.65916447947E+03  0.10754899304E+04  0.46999998093E+01 0. -1.
       -5    1    3    3    0  502  0.84134377313E+03  0.11957986786E+03  0.14962911415E+03  0.86288449469E+03  0.46999998093E+01 0.  1.
</event>
<event>
 5   0  0.8893075E-05  0.1803249E+04  0.7818609E-02  0.8704574E-01
       -2   -1    0    0    0  501  0.00000000000E+00  0.00000000000E+00  0.66303519915E+03  0.66303519916E+03  0.25500000920E-02 0.  1.
        2   -1    0    0  501    0  0.00000000000E+00  0.00000000000E+00 -0.12260682840E+04  0.12260682840E+04  0.25500000920E-02 0. -1.
    10030    2    1    2    0    0  0.00000000000E+00  0.00000000000E+00 -0.56303308489E+03  0.18891034832E+04  0.18032486561E+04 0.  0.
        1    1    3    3  502    0 -0.82025127590E+03  0.28994336110E+03 -0.33502206800E+02  0.87063293422E+03  0.50400001928E-02 0. -1.
       -1    1    3    3    0  502  0.82025127590E+03 -0.28994336110E+03 -0.52953087809E+03  0.10184705490E+04  0.50400001928E-02 0.  1.
</event>
<event>
 5   0  0.4623665E-05  0.1806147E+04  0.7818609E-02  0.8703037E-01
        1   -1    0    0  501    0  0.00000000000E+00  0.00000000000E+00  0.18662461403E+04  0.18662461403E+04  0.50400001928E-02 0.  1.
       -1   -1    0    0    0  501  0.00000000000E+00  0.00000000000E+00 -0.43699596833E+03  0.43699596836E+03  0.50400001928E-02 0. -1.
    10030    2    1    2    0    0  0.00000000000E+00  0.00000000000E+00  0.14292501719E+04  0.23032421086E+04  0.18061473243E+04 0.  0.
        5    1    3    3  502    0  0.22828249520E+03  0.76030584467E+03  0.16562371460E+03  0.81094462196E+03  0.46999998093E+01 0. -1.
       -5    1    3    3    0  502 -0.22828249520E+03 -0.76030584467E+03  0.12636264573E+04  0.14922974867E+04  0.46999998093E+01 0.  1.
</event>
<event>
 5   0  0.4335117E-05  0.1800083E+04  0.7818609E-02  0.8706256E-01
        1   -1    0    0  501    0  0.00000000000E+00  0.00000000000E+00  0.80245165196E+03  0.80245165198E+03  0.50400001928E-02 0.  1.
       -1   -1    0    0    0  501  0.00000000000E+00  0.00000000000E+00 -0.10094992493E+04  0.10094992493E+04  0.50400001928E-02 0. -1.
    10030    2    1    2    0    0  0.00000000000E+00  0.00000000000E+00 -0.20704759732E+03  0.18119509013E+04  0.18000825984E+04 0.  0.
        3    1    3    3  502    0 -0.67118658302E+03  0.54522256238E+03  0.14775230641E+03  0.87726268928E+03  0.10100000352E+00 0. -1.
       -3    1    3    3    0  502  0.67118658302E+03 -0.54522256238E+03 -0.35479990373E+03  0.93468821199E+03  0.10100000352E+00 0.  1.
</event>
<event>
 5   0  0.4335117E-05  0.1797309E+04  0.7818609E-02  0.8707732E-01
       -1   -1    0    0    0  501  0.00000000000E+00  0.00000000000E+00  0.42785163358E+03  0.42785163361E+03  0.50400001928E-02 0. -1.
        1   -1    0    0  501    0  0.00000000000E+00  0.00000000000E+00 -0.18875231790E+04  0.18875231790E+04  0.50400001928E-02 0.  1.
    10030    2    1    2    0    0  0.00000000000E+00  0.00000000000E+00 -0.14596715454E+04  0.23153748126E+04  0.17973089613E+04 0.  0.
        3    1    3    3  502    0 -0.49145645709E+03  0.21009892990E+03  0.20083461993E+03  0.57096896967E+03  0.10100000352E+00 0. -1.
       -3    1    3    3    0  502  0.49145645709E+03 -0.21009892990E+03 -0.16605061654E+04  0.17444058430E+04  0.10100000352E+00 0.  1.
</event>
<event>
 5   0  0.4623665E-05  0.1805563E+04  0.7818609E-02  0.8703347E-01
       -1   -1    0    0    0  501  0.00000000000E+00  0.00000000000E+00  0.53562868565E+03  0.53562868568E+03  0.50400001928E-02 0.  1.
        1   -1    0    0  501    0  0.00000000000E+00  0.00000000000E+00 -0.15216026938E+04  0.15216026938E+04  0.50400001928E-02 0. -1.
    10030    2    1    2    0    0  0.00000000000E+00  0.00000000000E+00 -0.98597400816E+03  0.20572313795E+04  0.18055625727E+04 0.  0.
        5    1    3    3  502    0 -0.91754417617E+02 -0.40670978375E+03 -0.14053210621E+04  0.14658721291E+04  0.46999998093E+01 0. -1.
       -5    1    3    3    0  502  0.91754417617E+02  0.40670978375E+03  0.41934705394E+03  0.59135925037E+03  0.46999998093E+01 0.  1.
</event>
<event>
 5   0  0.8892280E-05  0.1798470E+04  0.7818609E-02  0.8707114E-01
       -2   -1    0    0    0  501  0.00000000000E+00  0.00000000000E+00  0.10642980232E+04  0.10642980232E+04  0.25500000920E-02 0. -1.
        2   -1    0    0  501    0  0.00000000000E+00  0.00000000000E+00 -0.75977170706E+03  0.75977170707E+03  0.25500000920E-02 0.  1.
    10030    2    1    2    0    0  0.00000000000E+00  0.00000000000E+00  0.30452631609E+03  0.18240697302E+04  0.17984699340E+04 0.  0.
        4    1    3    3  502    0 -0.58455804766E+03 -0.63837889748E+03  0.39942474133E+03  0.95329820346E+03  0.12699999809E+01 0. -1.
       -4    1    3    3    0  502  0.58455804766E+03  0.63837889748E+03 -0.94898425239E+02  0.87077152677E+03  0.12699999809E+01 0.  1.
</event>
<event>
 5   0  0.9147432E-05  0.1804912E+04  0.7818609E-02  0.8703692E-01
       -2   -1    0    0    0  501  0.00000000000E+00  0.00000000000E+00  0.74154882784E+03  0.74154882784E+03  0.25500000920E-02 0.  1.
        2   -1    0    0  501    0  0.00000000000E+00  0.00000000000E+00 -0.10982780911E+04  0.10982780911E+04  0.25500000920E-02 0. -1.
    10030    2    1    2    0    0  0.00000000000E+00  0.00000000000E+00 -0.35672926325E+03  0.18398269189E+04  0.18049119991E+04 0.  0.
        3    1    3    3  502    0  0.86734982279E+03 -0.24897110552E+03 -0.16611151766E+03  0.91753766843E+03  0.10100000352E+00 0. -1.
       -3    1    3    3    0  502 -0.86734982279E+03  0.24897110552E+03 -0.19061774560E+03  0.92228925052E+03  0.10100000352E+00 0.  1.
</event>
<event>
 5   0  0.8802655E-05  0.1804162E+04  0.7818609E-02  0.8704089E-01
        2   -1    0    0  501    0  0.00000000000E+00  0.00000000000E+00  0.25244768819E+04  0.25244768819E+04  0.25500000920E-02 0.  1.
       -2   -1    0    0    0  501  0.00000000000E+00  0.00000000000E+00 -0.32234423689E+03  0.32234423690E+03  0.25500000920E-02 0. -1.
    10030    2    1    2    0    0  0.00000000000E+00  0.00000000000E+00  0.22021326450E+04  0.28468211188E+04  0.18041624916E+04 0.  0.
        2    1    3    3  502    0 -0.63543285860E+03 -0.64021825120E+03  0.11165465848E+04  0.14353851758E+04  0.25500000920E-02 0. -1.
       -2    1    3    3    0  502  0.63543285860E+03  0.64021825120E+03  0.10855860602E+04  0.14114359430E+04  0.25500000920E-02 0.  1.
</event>
<event>
 5   0  0.8893075E-05  0.1810465E+04  0.7818609E-02  0.8700754E-01
        2   -1    0    0  501    0  0.00000000000E+00  0.00000000000E+00  0.12100105282E+04  0.12100105282E+04  0.25500000920E-02 0. -1.
       -2   -1    0    0    0  501  0.00000000000E+00  0.00000000000E+00 -0.67722235467E+03  0.67722235467E+03  0.25500000920E-02 0.  1.
    10030    2    1    2    0    0  0.00000000000E+00  0.00000000000E+00  0.53278817354E+03  0.18872328829E+04  0.18104653314E+04 0.  0.
        1    1    3    3  502    0  0.51048027173E+03 -0.23296851857E+03 -0.47406496642E+03  0.73457608923E+03  0.50400001928E-02 0.  1.
       -1    1    3    3    0  502 -0.51048027173E+03  0.23296851857E+03  0.10068531400E+04  0.11526567936E+04  0.50400001928E-02 0. -1.
</event>
<event>
 5   0  0.9184414E-05  0.1801023E+04  0.7818609E-02  0.8705756E-01
        2   -1    0    0  501    0  0.00000000000E+00  0.00000000000E+00  0.69896632886E+03  0.69896632887E+03  0.25500000920E-02 0. -1.
       -2   -1    0    0    0  501  0.00000000000E+00  0.00000000000E+00 -0.11601713550E+04  0.11601713550E+04  0.25500000920E-02 0.  1.
    10030    2    1    2    0    0  0.00000000000E+00  0.00000000000E+00 -0.46120502609E+03  0.18591376838E+04  0.18010227237E+04 0.  0.
        5    1    3    3  502    0  0.14126003761E+03  0.86720614649E+03 -0.43419158244E+03  0.98007413954E+03  0.46999998093E+01 0.  1.
       -5    1    3    3    0  502 -0.14126003761E+03 -0.86720614649E+03 -0.27013443647E+02  0.87906354428E+03  0.46999998093E+01 0. -1.
</event>
<event>
 5   0  0.9147432E-05  0.1793750E+04  0.7818609E-02  0.8709630E-01
       -2   -1    0    0    0  501  0.00000000000E+00  0.00000000000E+00  0.27691481462E+03  0.27691481464E+03  0.25500000920E-02 0. -1.
        2   -1    0    0  501    0  0.00000000000E+00  0.00000000000E+00 -0.29048102673E+04  0.29048102673E+04  0.25500000920E-02 0.  1.
    10030    2    1    2    0    0  0.00000000000E+00  0.00000000000E+00 -0.26278954527E+04  0.31817250820E+04  0.17937502577E+04 0.  0.
        3    1    3    3  502    0  0.73272249828E+03  0.28749521949E+03 -0.55132543921E+03  0.96098673812E+03  0.10100000352E+00 0. -1.
       -3    1    3    3    0  502 -0.73272249828E+03 -0.28749521949E+03 -0.20765700135E+04  0.22207383439E+04  0.10100000352E+00 0.  1.
</event>
<event>
 5   0  0.4535100E-05  0.1806566E+04  0.7818609E-02  0.8702816E-01
       -1   -1    0    0    0  501  0.00000000000E+00  0.00000000000E+00  0.51763401059E+03  0.51763401061E+03  0.50400001928E-02 0.  1.
        1   -1    0    0  501    0  0.00000000000E+00  0.00000000000E+00 -0.15762490140E+04  0.15762490140E+04  0.50400001928E-02 0. -1.
    10030    2    1    2    0    0  0.00000000000E+00  0.00000000000E+00 -0.10586150034E+04  0.20938830246E+04  0.18065659123E+04 0.  0.
        1    1    3    3  502    0  0.12810197436E+03  0.40886534941E+03 -0.14509736277E+04  0.15129129050E+04  0.50400001928E-02 0. -1.
       -1    1    3    3    0  502 -0.12810197436E+03 -0.40886534941E+03  0.39235862431E+03  0.58097011961E+03  0.50400001928E-02 0.  1.
</event>
<event>
 5   0  0.4335117E-05  0.1800038E+04  0.7818609E-02  0.8706279E-01
        1   -1    0    0  501    0  0.00000000000E+00  0.00000000000E+00  0.16113050440E+04  0.16113050440E+04  0.50400001928E-02 0. -1.
       -1   -1    0    0    0  501  0.00000000000E+00  0.00000000000E+00 -0.50271915885E+03  0.50271915887E+03  0.50400001928E-02 0.  1.
    10030    2    1    2    0    0  0.00000000000E+00  0.00000000000E+00  0.11085858852E+04  0.21140242029E+04  0.18000376845E+04 0.  0.
        3    1    3    3  502    0 -0.48800186217E+03  0.22086884710E+03  0.14037135841E+04  0.15024449080E+04  0.10100000352E+00 0. -1.
       -3    1    3    3    0  502  0.48800186217E+03 -0.22086884710E+03 -0.29512769893E+03  0.61157929492E+03  0.10100000352E+00 0.  1.
</event>
<event>
 5   0  0.4623665E-05  0.1784748E+04  0.7818609E-02  0.8714453E-01
        1   -1    0    0  501    0  0.00000000000E+00  0.00000000000E+00  0.19308645664E+04  0.19308645664E+04  0.50400001928E-02 0.  1.
       -1   -1    0    0    0  501  0.00000000000E+00  0.00000000000E+00 -0.41242199917E+03  0.41242199920E+03  0.50400001928E-02 0. -1.
    10030    2    1    2    0    0  0.00000000000E+00  0.00000000000E+00  0.15184425673E+04  0.23432865656E+04  0.17847476288E+04 0.  0.
        5    1    3    3  502    0 -0.85594695849E+03  0.24379113939E+03  0.84460975267E+03  0.12269747510E+04  0.46999998093E+01 0. -1.
       -5    1    3    3    0  502  0.85594695849E+03 -0.24379113939E+03  0.67383281459E+03  0.11163118146E+04  0.46999998093E+01 0.  1.
</event>
<event>
 5   0  0.4335117E-05  0.1802913E+04  0.7818609E-02  0.8704752E-01
        1   -1    0    0  501    0  0.00000000000E+00  0.00000000000E+00  0.10119330370E+04  0.10119330370E+04  0.50400001928E-02 0.  1.
       -1   -1    0    0    0  501  0.00000000000E+00  0.00000000000E+00 -0.80304129177E+03  0.80304129178E+03  0.50400001928E-02 0. -1.
    10030    2    1    2    0    0  0.00000000000E+00  0.00000000000E+00  0.20889174523E+03  0.18149743288E+04  0.18029132128E+04 0.  0.
        3    1    3    3  502    0 -0.40267017069E+03 -0.80547752553E+03  0.63101764600E+02  0.90272872636E+03  0.10100000352E+00 0.  1.
       -3    1    3    3    0  502  0.40267017069E+03  0.80547752553E+03  0.14578998063E+03  0.91224560243E+03  0.10100000352E+00 0. -1.
</event>
<event>
 5   0  0.8802655E-05  0.1801471E+04  0.7818609E-02  0.8705517E-01
        2   -1    0    0  501    0  0.00000000000E+00  0.00000000000E+00  0.54406388182E+03  0.54406388183E+03  0.25500000920E-02 0. -1.
       -2   -1    0    0    0  501  0.00000000000E+00  0.00000000000E+00 -0.14912304723E+04  0.14912304723E+04  0.25500000920E-02 0.  1.
    10030    2    1    2    0    0  0.00000000000E+00  0.00000000000E+00 -0.94716659050E+03  0.20352943541E+04  0.18014712204E+04 0.  0.
        2    1    3    3  502    0  0.83758312827E+03  0.33055093835E+03 -0.49922791104E+03  0.10295814328E+04  0.25500000920E-02 0. -1.
       -2    1    3    3    0  502 -0.83758312827E+03 -0.33055093835E+03 -0.44793867946E+03  0.10057129213E+04  0.25500000920E-02 0.  1.
</event>
<event>
 5   0  0.9147432E-05  0.1799408E+04  0.7818609E-02  0.8706614E-01
        2   -1    0    0  501    0  0.00000000000E+00  0.00000000000E+00  0.17956857476E+04  0.17956857476E+04  0.25500000920E-02 0.  1.
       -2   -1    0    0    0  501  0.00000000000E+00  0.00000000000E+00 -0.45078451483E+03  0.45078451483E+03  0.25500000920E-02 0. -1.
    10030    2    1    2    0    0  0.00000000000E+00  0.00000000000E+00  0.13449012327E+04  0.22464702624E+04  0.17994080454E+04 0.  0.
        3    1    3    3  502    0 -0.37107373633E+03  0.57058245607E+03  0.14070306205E+04  0.15630083922E+04  0.10100000352E+00 0.  1.
       -3    1    3    3    0  502  0.37107373633E+03 -0.57058245607E+03 -0.62129387735E+02  0.68346187018E+03  0.10100000352E+00 0. -1.
</event>
<event>
 5   0  0.4335117E-05  0.1809241E+04  0.7818609E-02  0.8701401E-01
       -1   -1    0    0    0  501  0.00000000000E+00  0.00000000000E+00  0.45263614652E+03  0.45263614654E+03  0.50400001928E-02 0. -1.
        1   -1    0    0  501    0  0.00000000000E+00  0.00000000000E+00 -0.18079382466E+04  0.18079382466E+04  0.50400001928E-02 0.  1.
    10030    2    1    2    0    0  0.00000000000E+00  0.00000000000E+00 -0.13553021000E+04  0.22605743931E+04  0.18092409470E+04 0.  0.
        3    1    3    3  502    0  0.68190037787E+03 -0.48970869978E+03 -0.10986569168E+04  0.13826965563E+04  0.10100000352E+00 0. -1.
       -3    1    3    3    0  502 -0.68190037787E+03  0.48970869978E+03 -0.25664518328E+03  0.87787783676E+03  0.10100000352E+00 0.  1.
</event>
<event>
 5   0  0.4578107E-05  0.1767544E+04  0.7818609E-02  0.8723752E-01
       -1   -1    0    0    0  501  0.00000000000E+00  0.00000000000E+00  0.30546882995E+03  0.30546882999E+03  0.50400001928E-02 0. -1.
        1   -1    0    0  501    0  0.00000000000E+00  0.00000000000E+00 -0.25568983358E+04  0.25568983358E+04  0.50400001928E-02 0.  1.
    10030    2    1    2    0    0  0.00000000000E+00  0.00000000000E+00 -0.22514295059E+04  0.28623671658E+04  0.17675437681E+04 0.  0.
        2    1    3    3  502    0  0.11042369866E+03  0.54262505277E+03 -0.22411271581E+04  0.23085246977E+04  0.25500000920E-02 0.  1.
       -2    1    3    3    0  502 -0.11042369866E+03 -0.54262505277E+03 -0.10302347785E+02  0.55384246813E+03  0.25500000920E-02 0. -1.
</event>
<event>
 5   0  0.8802655E-05  0.1805648E+04  0.7818609E-02  0.8703302E-01
        2   -1    0    0  501    0  0.00000000000E+00  0.00000000000E+00  0.14630932964E+04  0.14630932964E+04  0.25500000920E-02 0.  1.
       -2   -1    0    0    0  501  0.00000000000E+00  0.00000000000E+00 -0.55710147019E+03  0.55710147019E+03  0.25500000920E-02 0. -1.
    10030    2    1    2    0    0  0.00000000000E+00  0.00000000000E+00  0.90599182618E+03  0.20201947666E+04  0.18056482785E+04 0.  0.
        2    1    3    3  502    0  0.13368129705E+03  0.27498228095E+03  0.14034037211E+04  0.14363244580E+04  0.25500000920E-02 0.  1.
       -2    1    3    3    0  502 -0.13368129705E+03 -0.27498228095E+03 -0.49741189496E+03  0.58387030861E+03  0.25500000920E-02 0. -1.
</event>
<event>
 5   0  0.4494757E-05  0.1806331E+04  0.7818609E-02  0.8702940E-01
        1   -1    0    0  501    0  0.00000000000E+00  0.00000000000E+00  0.14812494510E+04  0.14812494510E+04  0.50400001928E-02 0. -1.
       -1   -1    0    0    0  501  0.00000000000E+00  0.00000000000E+00 -0.55068911828E+03  0.55068911830E+03  0.50400001928E-02 0.  1.
    10030    2    1    2    0    0  0.00000000000E+00  0.00000000000E+00  0.93056033268E+03  0.20319385693E+04  0.18063310374E+04 0.  0.
        4    1    3    3  502    0  0.76132342173E+03 -0.43215872964E+03  0.71512869938E+03  0.11303916090E+04  0.12699999809E+01 0. -1.
       -4    1    3    3    0  502 -0.76132342173E+03  0.43215872964E+03  0.21543163330E+03  0.90154696029E+03  0.12699999809E+01 0.  1.
</event>
<event>
 5   0  0.8893075E-05  0.1805605E+04  0.7818609E-02  0.8703324E-01
        2   -1    0    0  501    0  0.00000000000E+00  0.00000000000E+00  0.88096012401E+03  0.88096012401E+03  0.25500000920E-02 0. -1.
       -2   -1    0    0    0  501  0.00000000000E+00  0.00000000000E+00 -0.92518681060E+03  0.92518681060E+03  0.25500000920E-02 0.  1.
    10030    2    1    2    0    0  0.00000000000E+00  0.00000000000E+00 -0.44226686594E+02  0.18061469346E+04  0.18056053693E+04 0.  0.
        1    1    3    3  502    0  0.20039461996E+03 -0.81426813453E+03 -0.35667156194E+03  0.91126571413E+03  0.50400001928E-02 0.  1.
       -1    1    3    3    0  502 -0.20039461996E+03  0.81426813453E+03  0.31244487534E+03  0.89488122049E+03  0.50400001928E-02 0. -1.
</event>
<event>
 5   0  0.4494757E-05  0.1767976E+04  0.7818609E-02  0.8723518E-01
       -1   -1    0    0    0  501  0.00000000000E+00  0.00000000000E+00  0.81348357786E+03  0.81348357787E+03  0.50400001928E-02 0. -1.
        1   -1    0    0  501    0  0.00000000000E+00  0.00000000000E+00 -0.96060255719E+03  0.96060255721E+03  0.50400001928E-02 0.  1.
    10030    2    1    2    0    0  0.00000000000E+00  0.00000000000E+00 -0.14711897934E+03  0.17740861351E+04  0.17679755713E+04 0.  0.
        4    1    3    3  502    0 -0.13141138657E+03 -0.79047588590E+03  0.30097538142E+03  0.85598415396E+03  0.12699999809E+01 0. -1.
       -4    1    3    3    0  502  0.13141138657E+03  0.79047588590E+03 -0.44809436075E+03  0.91810198112E+03  0.12699999809E+01 0.  1.
</event>
<event>
 5   0  0.4335117E-05  0.1798965E+04  0.7818609E-02  0.8706850E-01
        1   -1    0    0  501    0  0.00000000000E+00  0.00000000000E+00  0.81312300749E+03  0.81312300750E+03  0.50400001928E-02 0.  1.
       -1   -1    0    0    0  501  0.00000000000E+00  0.00000000000E+00 -0.99501377000E+03  0.99501377001E+03  0.50400001928E-02 0. -1.
    10030    2    1    2    0    0  0.00000000000E+00  0.00000000000E+00 -0.18189076251E+03  0.18081367775E+04  0.17989648014E+04 0.  0.
        3    1    3    3  502    0  0.17849372116E+03  0.64867375018E+03 -0.69100763602E+03  0.96443206391E+03  0.10100000352E+00 0. -1.
       -3    1    3    3    0  502 -0.17849372116E+03 -0.64867375018E+03  0.50911687350E+03  0.84370471360E+03  0.10100000352E+00 0.  1.
</event>
<event>
 5   0  0.4578107E-05  0.1802074E+04  0.7818609E-02  0.8705197E-01
       -1   -1    0    0    0  501  0.00000000000E+00  0.00000000000E+00  0.81647296219E+03  0.81647296221E+03  0.50400001928E-02 0.  1.
        1   -1    0    0  501    0  0.00000000000E+00  0.00000000000E+00 -0.99435950789E+03  0.99435950790E+03  0.50400001928E-02 0. -1.
    10030    2    1    2    0    0  0.00000000000E+00  0.00000000000E+00 -0.17788654570E+03  0.18108324701E+04  0.18020739751E+04 0.  0.
        2    1    3    3  502    0 -0.44907982379E+03 -0.23272041663E+02  0.69565464325E+03  0.82834151093E+03  0.25500000920E-02 0.  1.
       -2    1    3    3    0  502  0.44907982379E+03  0.23272041663E+02 -0.87354118895E+03  0.98249095917E+03  0.25500000920E-02 0. -1.
</event>
<event>
 5   0  0.8893075E-05  0.1805206E+04  0.7818609E-02  0.8703536E-01
        2   -1    0    0  501    0  0.00000000000E+00  0.00000000000E+00  0.10445590564E+04  0.10445590564E+04  0.25500000920E-02 0.  1.
       -2   -1    0    0    0  501  0.00000000000E+00  0.00000000000E+00 -0.77993909325E+03  0.77993909325E+03  0.25500000920E-02 0. -1.
    10030    2    1    2    0    0  0.00000000000E+00  0.00000000000E+00  0.26461996311E+03  0.18244981496E+04  0.18052062965E+04 0.  0.
        1    1    3    3  502    0  0.16978571808E+03  0.49392297708E+03 -0.61169921747E+03  0.80434012086E+03  0.50400001928E-02 0. -1.
       -1    1    3    3    0  502 -0.16978571808E+03 -0.49392297708E+03  0.87631918058E+03  0.10201580288E+04  0.50400001928E-02 0.  1.
</event>
<event>
 5   0  0.9184414E-05  0.1795307E+04  0.7818609E-02  0.8708799E-01
        2   -1    0    0  501    0  0.00000000000E+00  0.00000000000E+00  0.17300415265E+04  0.17300415265E+04  0.25500000920E-02 0. -1.
       -2   -1    0    0    0  501  0.00000000000E+00  0.00000000000E+00 -0.46575846176E+03  0.46575846176E+03  0.25500000920E-02 0.  1.
    10030    2    1    2    0    0  0.00000000000E+00  0.00000000000E+00  0.12642830647E+04  0.21957999883E+04  0.17953066369E+04 0.  0.
        5    1    3    3  502    0  0.84522864568E+03 -0.30209479263E+03  0.64352752452E+03  0.11044557447E+04  0.46999998093E+01 0. -1.
       -5    1    3    3    0  502 -0.84522864568E+03  0.30209479263E+03  0.62075554021E+03  0.10913442435E+04  0.46999998093E+01 0.  1.
</event>
<event>
 5   0  0.4623665E-05  0.1805295E+04  0.7818609E-02  0.8703489E-01
       -1   -1    0    0    0  501  0.00000000000E+00  0.00000000000E+00  0.10002485337E+04  0.10002485337E+04  0.50400001928E-02 0. -1.
        1   -1    0    0  501    0  0.00000000000E+00  0.00000000000E+00 -0.81457025952E+03  0.81457025953E+03  0.50400001928E-02 0.  1.
    10030    2    1    2    0    0  0.00000000000E+00  0.00000000000E+00  0.18567827417E+03  0.18148187932E+04  0.18052952198E+04 0.  0.
        5    1    3    3  502    0  0.38372377720E+03  0.55629178454E+03 -0.50868703537E+03  0.84586587393E+03  0.46999998093E+01 0.  1.
       -5    1    3    3    0  502 -0.38372377720E+03 -0.55629178454E+03  0.69436530954E+03  0.96895291930E+03  0.46999998093E+01 0. -1.
</event>
<event>
 5   0  0.8892280E-05  0.1672232E+04  0.7818609E-02  0.8777362E-01
        2   -1    0    0  501    0  0.00000000000E+00  0.00000000000E+00  0.67224647725E+03  0.67224647726E+03  0.25500000920E-02 0. -1.
       -2   -1    0    0    0  501  0.00000000000E+00  0.00000000000E+00 -0.10399307100E+04  0.10399307100E+04  0.25500000920E-02 0.  1.
    10030    2    1    2    0    0  0.00000000000E+00  0.00000000000E+00 -0.36768423278E+03  0.17121771873E+04  0.16722317500E+04 0.  0.
        4    1    3    3  502    0  0.39946443946E+03 -0.63965016425E+03 -0.55352643960E+03  0.93547704582E+03  0.12699999809E+01 0.  1.
       -4    1    3    3    0  502 -0.39946443946E+03  0.63965016425E+03  0.18584220682E+03  0.77670014147E+03  0.12699999809E+01 0. -1.
</event>
<event>
 5   0  0.4535100E-05  0.1820995E+04  0.7818609E-02  0.8695214E-01
        1   -1    0    0  501    0  0.00000000000E+00  0.00000000000E+00  0.17479308364E+04  0.17479308364E+04  0.50400001928E-02 0. -1.
       -1   -1    0    0    0  501  0.00000000000E+00  0.00000000000E+00 -0.47427812326E+03  0.47427812328E+03  0.50400001928E-02 0.  1.
    10030    2    1    2    0    0  0.00000000000E+00  0.00000000000E+00  0.12736527132E+04  0.22222089597E+04  0.18209946257E+04 0.  0.
        1    1    3    3  502    0 -0.68356838468E+03 -0.17048119911E+03 -0.67034514616E+02  0.70768863349E+03  0.50400001928E-02 0.  1.
       -1    1    3    3    0  502  0.68356838468E+03  0.17048119911E+03  0.13406872278E+04  0.15145203262E+04  0.50400001928E-02 0. -1.
</event>
<event>
 5   0  0.4623665E-05  0.1813207E+04  0.7818609E-02  0.8699307E-01
        1   -1    0    0  501    0  0.00000000000E+00  0.00000000000E+00  0.71541679634E+03  0.71541679636E+03  0.50400001928E-02 0.  1.
       -1   -1    0    0    0  501  0.00000000000E+00  0.00000000000E+00 -0.11488830923E+04  0.11488830923E+04  0.50400001928E-02 0. -1.
    10030    2    1    2    0    0  0.00000000000E+00  0.00000000000E+00 -0.43346629596E+03  0.18642998887E+04  0.18132073917E+04 0.  0.
        5    1    3    3  502    0  0.57334975084E+03 -0.40626225579E+03 -0.80569984980E+03  0.10690899379E+04  0.46999998093E+01 0.  1.
       -5    1    3    3    0  502 -0.57334975084E+03  0.40626225579E+03  0.37223355384E+03  0.79520995081E+03  0.46999998093E+01 0. -1.
</event>
<event>
 5   0  0.4578107E-05  0.1795684E+04  0.7818609E-02  0.8708598E-01
        1   -1    0    0  501    0  0.00000000000E+00  0.00000000000E+00  0.22224605038E+04  0.22224605038E+04  0.50400001928E-02 0.  1.
       -1   -1    0    0    0  501  0.00000000000E+00  0.00000000000E+00 -0.36271529337E+03  0.36271529340E+03  0.50400001928E-02 0. -1.
    10030    2    1    2    0    0  0.00000000000E+00  0.00000000000E+00  0.18597452104E+04  0.25851757972E+04  0.17956841745E+04 0.  0.
        2    1    3    3  502    0 -0.46584560862E+02  0.32981270643E+03 -0.27047449119E+03  0.42907224686E+03  0.25500000920E-02 0. -1.
       -2    1    3    3    0  502  0.46584560862E+02 -0.32981270643E+03  0.21302197016E+04  0.21561035503E+04  0.25500000920E-02 0.  1.
</event>
<event>
 5   0  0.4578107E-05  0.1800160E+04  0.7818609E-02  0.8706214E-01
       -1   -1    0    0    0  501  0.00000000000E+00  0.00000000000E+00  0.13374478085E+04  0.13374478085E+04  0.50400001928E-02 0. -1.
        1   -1    0    0  501    0  0.00000000000E+00  0.00000000000E+00 -0.60573885177E+03  0.60573885180E+03  0.50400001928E-02 0.  1.
    10030    2    1    2    0    0  0.00000000000E+00  0.00000000000E+00  0.73170895671E+03  0.19431866603E+04  0.18001601038E+04 0.  0.
        2    1    3    3  502    0  0.59221102424E+03 -0.36953874232E+03  0.97921825316E+03  0.12025560971E+04  0.25500000920E-02 0. -1.
       -2    1    3    3    0  502 -0.59221102424E+03  0.36953874232E+03 -0.24750929645E+03  0.74063056320E+03  0.25500000920E-02 0.  1.
</event>
<event>
 5   0  0.4623665E-05  0.1783063E+04  0.7818609E-02  0.8715359E-01
        1   -1    0    0  501    0  0.00000000000E+00  0.00000000000E+00  0.72584639823E+03  0.72584639825E+03  0.50400001928E-02 0.  1.
       -1   -1    0    0    0  501  0.00000000000E+00  0.00000000000E+00 -0.10950367186E+04  0.10950367186E+04  0.50400001928E-02 0. -1.
    10030    2    1    2    0    0  0.00000000000E+00  0.00000000000E+00 -0.36919032032E+03  0.18208831168E+04  0.17830630478E+04 0.  0.
        5    1    3    3  502    0  0.96469795553E+02 -0.44403366000E+03  0.59870346344E+03  0.75162506597E+03  0.46999998093E+01 0.  1.
       -5    1    3    3    0  502 -0.96469795553E+02  0.44403366000E+03 -0.96789378376E+03  0.10692580508E+04  0.46999998093E+01 0. -1.
</event>
<event>
 5   0  0.4623665E-05  0.1785170E+04  0.7818609E-02  0.8714226E-01
       -1   -1    0    0    0  501  0.00000000000E+00  0.00000000000E+00  0.50262455835E+03  0.50262455837E+03  0.50400001928E-02 0.  1.
        1   -1    0    0  501    0  0.00000000000E+00  0.00000000000E+00 -0.15850960225E+04  0.15850960225E+04  0.50400001928E-02 0. -1.
    10030    2    1    2    0    0  0.00000000000E+00  0.00000000000E+00 -0.10824714642E+04  0.20877205809E+04  0.17851702309E+04 0.  0.
        5    1    3    3  502    0 -0.24142410284E+03 -0.42847847913E+03  0.32985538012E+03  0.59220441261E+03  0.46999998093E+01 0. -1.
       -5    1    3    3    0  502  0.24142410284E+03  0.42847847913E+03 -0.14123268443E+04  0.14955161683E+04  0.46999998093E+01 0.  1.
</event>
<event>
 5   0  0.4578107E-05  0.1796423E+04  0.7818609E-02  0.8708204E-01
        1   -1    0    0  501    0  0.00000000000E+00  0.00000000000E+00  0.12640410861E+04  0.12640410861E+04  0.50400001928E-02 0. -1.
       -1   -1    0    0    0  501  0.00000000000E+00  0.00000000000E+00 -0.63825776342E+03  0.63825776344E+03  0.50400001928E-02 0.  1.
    10030    2    1    2    0    0  0.00000000000E+00  0.00000000000E+00  0.62578332264E+03  0.19022988495E+04  0.17964231534E+04 0.  0.
        2    1    3    3  502    0  0.89036722964E+02 -0.38566134832E+03  0.11667139222E+04  0.12320241840E+04  0.25500000920E-02 0. -1.
       -2    1    3    3    0  502 -0.89036722964E+02  0.38566134832E+03 -0.54093059959E+03  0.67027466550E+03  0.25500000920E-02 0.  1.
</event>
<event>
 5   0  0.4578107E-05  0.1801103E+04  0.7818609E-02  0.8705713E-01
       -1   -1    0    0    0  501  0.00000000000E+00  0.00000000000E+00  0.59871100949E+03  0.59871100951E+03  0.50400001928E-02 0.  1.
        1   -1    0    0  501    0  0.00000000000E+00  0.00000000000E+00 -0.13545652413E+04  0.13545652413E+04  0.50400001928E-02 0. -1.
    10030    2    1    2    0    0  0.00000000000E+00  0.00000000000E+00 -0.75585423177E+03  0.19532762508E+04  0.18011031320E+04 0.  0.
        2    1    3    3  502    0  0.77190483135E+03  0.42772647134E+03 -0.18330405781E+03  0.90132534668E+03  0.25500000920E-02 0.  1.
       -2    1    3    3    0  502 -0.77190483135E+03 -0.42772647134E+03 -0.57255017396E+03  0.10519509041E+04  0.25500000920E-02 0. -1.
</event>
<event>
 5   0  0.3270375E-05  0.1798102E+04  0.7818609E-02  0.8707309E-01
        4   -1    0    0  501    0  0.00000000000E+00  0.00000000000E+00  0.78220317852E+03  0.78220420952E+03  0.12699999809E+01 0. -1.
       -4   -1    0    0    0  501  0.00000000000E+00  0.00000000000E+00 -0.10333522982E+04  0.10333530786E+04  0.12699999809E+01 0.  1.
    10030    2    1    2    0    0  0.00000000000E+00  0.00000000000E+00 -0.25114911965E+03  0.18155572881E+04  0.17981024404E+04 0.  0.
        3    1    3    3  502    0 -0.32821640789E+03 -0.31992661539E+03  0.65537651391E+03  0.79974835719E+03  0.10100000352E+00 0. -1.
       -3    1    3    3    0  502  0.32821640789E+03  0.31992661539E+03 -0.90652563356E+03  0.10158089309E+04  0.10100000352E+00 0.  1.
</event>
<event>
 5   0  0.8893075E-05  0.1800978E+04  0.7818609E-02  0.8705779E-01
       -2   -1    0    0    0  501  0.00000000000E+00  0.00000000000E+00  0.72078050268E+03  0.72078050268E+03  0.25500000920E-02 0.  1.
        2   -1    0    0  501    0  0.00000000000E+00  0.00000000000E+00 -0.11250036058E+04  0.11250036058E+04  0.25500000920E-02 0. -1.
    10030    2    1    2    0    0  0.00000000000E+00  0.00000000000E+00 -0.40422310309E+03  0.18457841085E+04  0.18009782503E+04 0.  0.
        1    1    3    3  502    0  0.25457716078E+03 -0.74017144469E+03  0.25418090077E+03  0.82296490124E+03  0.50400001928E-02 0.  1.
       -1    1    3    3    0  502 -0.25457716078E+03  0.74017144469E+03 -0.65840400386E+03  0.10228192072E+04  0.50400001928E-02 0. -1.
</event>
<event>
 5   0  0.4623665E-05  0.1804591E+04  0.7818609E-02  0.8703862E-01
       -1   -1    0    0    0  501  0.00000000000E+00  0.00000000000E+00  0.51643177629E+03  0.51643177631E+03  0.50400001928E-02 0. -1.
        1   -1    0    0  501    0  0.00000000000E+00  0.00000000000E+00 -0.15764656591E+04  0.15764656591E+04  0.50400001928E-02 0.  1.
    10030    2    1    2    0    0  0.00000000000E+00  0.00000000000E+00 -0.10600338828E+04  0.20928974354E+04  0.18045907687E+04 0.  0.
        5    1    3    3  502    0 -0.82750062214E+03  0.19098133516E+03 -0.17655796445E+03  0.86742489867E+03  0.46999998093E+01 0. -1.
       -5    1    3    3    0  502  0.82750062214E+03 -0.19098133516E+03 -0.88347591837E+03  0.12254725368E+04  0.46999998093E+01 0.  1.
</event>
<event>
 5   0  0.4578107E-05  0.1794835E+04  0.7818609E-02  0.8709051E-01
        1   -1    0    0  501    0  0.00000000000E+00  0.00000000000E+00  0.74710306169E+03  0.74710306171E+03  0.50400001928E-02 0. -1.
       -1   -1    0    0    0  501  0.00000000000E+00  0.00000000000E+00 -0.10779742944E+04  0.10779742944E+04  0.50400001928E-02 0.  1.
    10030    2    1    2    0    0  0.00000000000E+00  0.00000000000E+00 -0.33087123273E+03  0.18250773561E+04  0.17948346952E+04 0.  0.
        2    1    3    3  502    0 -0.48010658450E+03  0.30379818978E+03 -0.87180762483E+03  0.10405980047E+04  0.25500000920E-02 0.  1.
       -2    1    3    3    0  502  0.48010658450E+03 -0.30379818978E+03  0.54093639210E+03  0.78447935148E+03  0.25500000920E-02 0. -1.
</event>
<event>
 5   0  0.4535100E-05  0.1800118E+04  0.7818609E-02  0.8706237E-01
       -1   -1    0    0    0  501  0.00000000000E+00  0.00000000000E+00  0.10623071474E+04  0.10623071474E+04  0.50400001928E-02 0.  1.
        1   -1    0    0  501    0  0.00000000000E+00  0.00000000000E+00 -0.76259133212E+03  0.76259133214E+03  0.50400001928E-02 0. -1.
    10030    2    1    2    0    0  0.00000000000E+00  0.00000000000E+00  0.29971581530E+03  0.18248984796E+04  0.18001180214E+04 0.  0.
        1    1    3    3  502    0  0.27196792699E+03 -0.81663963356E+03  0.41661397692E+03  0.95626045103E+03  0.50400001928E-02 0.  1.
       -1    1    3    3    0  502 -0.27196792699E+03  0.81663963356E+03 -0.11689816163E+03  0.86863802854E+03  0.50400001928E-02 0. -1.
</event>
<event>
 5   0  0.9184414E-05  0.1798233E+04  0.7818609E-02  0.8707240E-01
        2   -1    0    0  501    0  0.00000000000E+00  0.00000000000E+00  0.70732843211E+03  0.70732843211E+03  0.25500000920E-02 0.  1.
       -2   -1    0    0    0  501  0.00000000000E+00  0.00000000000E+00 -0.11429071488E+04  0.11429071488E+04  0.25500000920E-02 0. -1.
    10030    2    1    2    0    0  0.00000000000E+00  0.00000000000E+00 -0.43557871674E+03  0.18502355810E+04  0.17982332681E+04 0.  0.
        5    1    3    3  502    0 -0.55085960781E+03 -0.64115284729E+03 -0.53302379443E+03  0.99932964358E+03  0.46999998093E+01 0. -1.
       -5    1    3    3    0  502  0.55085960781E+03  0.64115284729E+03  0.97445077693E+02  0.85090593738E+03  0.46999998093E+01 0.  1.
</event>
<event>
 5   0  0.9184414E-05  0.1787559E+04  0.7818609E-02  0.8712943E-01
       -2   -1    0    0    0  501  0.00000000000E+00  0.00000000000E+00  0.45526555428E+03  0.45526555429E+03  0.25500000920E-02 0.  1.
        2   -1    0    0  501    0  0.00000000000E+00  0.00000000000E+00 -0.17546728279E+04  0.17546728279E+04  0.25500000920E-02 0. -1.
    10030    2    1    2    0    0  0.00000000000E+00  0.00000000000E+00 -0.12994072736E+04  0.22099383822E+04  0.17875593390E+04 0.  0.
        5    1    3    3  502    0  0.47001694452E+03 -0.73538189809E+01  0.29007865314E+03  0.55239272425E+03  0.46999998093E+01 0.  1.
       -5    1    3    3    0  502 -0.47001694452E+03  0.73538189809E+01 -0.15894859267E+04  0.16575456579E+04  0.46999998093E+01 0. -1.
</event>
<event>
 5   0  0.8892280E-05  0.1796157E+04  0.7818609E-02  0.8708346E-01
       -2   -1    0    0    0  501  0.00000000000E+00  0.00000000000E+00  0.42804478327E+03  0.42804478328E+03  0.25500000920E-02 0.  1.
        2   -1    0    0  501    0  0.00000000000E+00  0.00000000000E+00 -0.18842528256E+04  0.18842528256E+04  0.25500000920E-02 0. -1.
    10030    2    1    2    0    0  0.00000000000E+00  0.00000000000E+00 -0.14562080424E+04  0.23122976089E+04  0.17961565548E+04 0.  0.
        4    1    3    3  502    0  0.28508385197E+03  0.79918302715E+03 -0.11068952998E+04  0.13946989392E+04  0.12699999809E+01 0. -1.
       -4    1    3    3    0  502 -0.28508385197E+03 -0.79918302715E+03 -0.34931274258E+03  0.91759866967E+03  0.12699999809E+01 0.  1.
</event>
<event>
 5   0  0.4623665E-05  0.1797213E+04  0.7818609E-02  0.8707783E-01
        1   -1    0    0  501    0  0.00000000000E+00  0.00000000000E+00  0.41747760522E+03  0.41747760525E+03  0.50400001928E-02 0. -1.
       -1   -1    0    0    0  501  0.00000000000E+00  0.00000000000E+00 -0.19342210610E+04  0.19342210610E+04  0.50400001928E-02 0.  1.
    10030    2    1    2    0    0  0.00000000000E+00  0.00000000000E+00 -0.15167434558E+04  0.23516986663E+04  0.17972133725E+04 0.  0.
        5    1    3    3  502    0 -0.39497462976E+03 -0.61440979297E+03 -0.14432786924E+04  0.16175845653E+04  0.46999998093E+01 0.  1.
       -5    1    3    3    0  502  0.39497462976E+03  0.61440979297E+03 -0.73464763398E+02  0.73411410101E+03  0.46999998093E+01 0. -1.
</event>
<event>
 5   0  0.8802655E-05  0.1799908E+04  0.7818609E-02  0.8706348E-01
        2   -1    0    0  501    0  0.00000000000E+00  0.00000000000E+00  0.18215625394E+04  0.18215625394E+04  0.25500000920E-02 0. -1.
       -2   -1    0    0    0  501  0.00000000000E+00  0.00000000000E+00 -0.44462763618E+03  0.44462763618E+03  0.25500000920E-02 0.  1.
    10030    2    1    2    0    0  0.00000000000E+00  0.00000000000E+00  0.13769349033E+04  0.22661901756E+04  0.17999078266E+04 0.  0.
        2    1    3    3  502    0  0.35794830577E+03  0.24675098266E+02  0.17276154668E+04  0.17644803913E+04  0.25500000920E-02 0. -1.
       -2    1    3    3    0  502 -0.35794830577E+03 -0.24675098266E+02 -0.35068056353E+03  0.50170978436E+03  0.25500000920E-02 0.  1.
</event>
<event>
 5   0  0.4578107E-05  0.1803637E+04  0.7818609E-02  0.8704368E-01
        1   -1    0    0  501    0  0.00000000000E+00  0.00000000000E+00  0.90490408151E+03  0.90490408153E+03  0.50400001928E-02 0.  1.
       -1   -1    0    0    0  501  0.00000000000E+00  0.00000000000E+00 -0.89874359161E+03  0.89874359162E+03  0.50400001928E-02 0. -1.
    10030    2    1    2    0    0  0.00000000000E+00  0.00000000000E+00  0.61604899039E+01  0.18036476732E+04  0.18036371523E+04 0.  0.
        2    1    3    3  502    0 -0.88492041063E+03 -0.12291289443E+03  0.12590209776E+03  0.90224334355E+03  0.25500000920E-02 0. -1.
       -2    1    3    3    0  502  0.88492041063E+03  0.12291289443E+03 -0.11974160786E+03  0.90140432960E+03  0.25500000920E-02 0.  1.
</event>
<event>
 5   0  0.8802655E-05  0.1789196E+04  0.7818609E-02  0.8712066E-01
       -2   -1    0    0    0  501  0.00000000000E+00  0.00000000000E+00  0.40794906290E+03  0.40794906291E+03  0.25500000920E-02 0.  1.
        2   -1    0    0  501    0  0.00000000000E+00  0.00000000000E+00 -0.19617781382E+04  0.19617781382E+04  0.25500000920E-02 0. -1.
    10030    2    1    2    0    0  0.00000000000E+00  0.00000000000E+00 -0.15538290753E+04  0.23697272011E+04  0.17891959682E+04 0.  0.
        2    1    3    3  502    0  0.39084773328E+03  0.45242452477E+03  0.10448240284E+03  0.60693201739E+03  0.25500000920E-02 0.  1.
       -2    1    3    3    0  502 -0.39084773328E+03 -0.45242452477E+03 -0.16583114782E+04  0.17627951838E+04  0.25500000920E-02 0. -1.
</event>
<event>
 5   0  0.4623665E-05  0.1800834E+04  0.7818609E-02  0.8705856E-01
       -1   -1    0    0    0  501  0.00000000000E+00  0.00000000000E+00  0.55273782879E+03  0.55273782882E+03  0.50400001928E-02 0. -1.
        1   -1    0    0  501    0  0.00000000000E+00  0.00000000000E+00 -0.14667901137E+04  0.14667901137E+04  0.50400001928E-02 0.  1.
    10030    2    1    2    0    0  0.00000000000E+00  0.00000000000E+00 -0.91405228489E+03  0.20195279425E+04  0.18008335656E+04 0.  0.
        5    1    3    3  502    0  0.26902691617E+03  0.48908292354E+03 -0.12493306635E+04  0.13683664657E+04  0.46999998093E+01 0.  1.
       -5    1    3    3    0  502 -0.26902691617E+03 -0.48908292354E+03  0.33527837860E+03  0.65116147681E+03  0.46999998093E+01 0. -1.
</event>
<event>
 5   0  0.8892280E-05  0.1799952E+04  0.7818609E-02  0.8706325E-01
       -2   -1    0    0    0  501  0.00000000000E+00  0.00000000000E+00  0.79765030780E+03  0.79765030780E+03  0.25500000920E-02 0.  1.
        2   -1    0    0  501    0  0.00000000000E+00  0.00000000000E+00 -0.10154288621E+04  0.10154288621E+04  0.25500000920E-02 0. -1.
    10030    2    1    2    0    0  0.00000000000E+00  0.00000000000E+00 -0.21777855429E+03  0.18130791699E+04  0.17999523820E+04 0.  0.
        4    1    3    3  502    0  0.24740584872E+03 -0.39257585322E+03  0.66785701483E+03  0.81324046854E+03  0.12699999809E+01 0.  1.
       -4    1    3    3    0  502 -0.24740584872E+03  0.39257585322E+03 -0.88563556912E+03  0.99983870135E+03  0.12699999809E+01 0. -1.
</event>
<event>
 5   0  0.4535100E-05  0.1795415E+04  0.7818609E-02  0.8708741E-01
        1   -1    0    0  501    0  0.00000000000E+00  0.00000000000E+00  0.83240141166E+03  0.83240141167E+03  0.50400001928E-02 0.  1.
       -1   -1    0    0    0  501  0.00000000000E+00  0.00000000000E+00 -0.96813749780E+03  0.96813749781E+03  0.50400001928E-02 0. -1.
    10030    2    1    2    0    0  0.00000000000E+00  0.00000000000E+00 -0.13573608614E+03  0.18005389095E+04  0.17954152944E+04 0.  0.
        1    1    3    3  502    0 -0.61143041382E+03  0.65083693715E+03  0.24280791467E+02  0.89332268893E+03  0.50400001928E-02 0. -1.
       -1    1    3    3    0  502  0.61143041382E+03 -0.65083693715E+03 -0.16001687760E+03  0.90721622055E+03  0.50400001928E-02 0.  1.
</event>
<event>
 5   0  0.4623665E-05  0.1800808E+04  0.7818609E-02  0.8705870E-01
        1   -1    0    0  501    0  0.00000000000E+00  0.00000000000E+00  0.14090587459E+04  0.14090587459E+04  0.50400001928E-02 0.  1.
       -1   -1    0    0    0  501  0.00000000000E+00  0.00000000000E+00 -0.57536803413E+03  0.57536803415E+03  0.50400001928E-02 0. -1.
    10030    2    1    2    0    0  0.00000000000E+00  0.00000000000E+00  0.83369071172E+03  0.19844267800E+04  0.18008079971E+04 0.  0.
        5    1    3    3  502    0 -0.79618504682E+02  0.86491438968E+03  0.15540029045E+03  0.88237596751E+03  0.46999998093E+01 0. -1.
       -5    1    3    3    0  502  0.79618504682E+02 -0.86491438968E+03  0.67829042127E+03  0.11020508125E+04  0.46999998093E+01 0.  1.
</event>
<event>
 5   0  0.4535100E-05  0.1801040E+04  0.7818609E-02  0.8705747E-01
        1   -1    0    0  501    0  0.00000000000E+00  0.00000000000E+00  0.72525206386E+03  0.72525206388E+03  0.50400001928E-02 0. -1.
       -1   -1    0    0    0  501  0.00000000000E+00  0.00000000000E+00 -0.11181435363E+04  0.11181435363E+04  0.50400001928E-02 0.  1.
    10030    2    1    2    0    0  0.00000000000E+00  0.00000000000E+00 -0.39289147242E+03  0.18433956002E+04  0.18010395969E+04 0.  0.
        1    1    3    3  502    0  0.21333285029E+03 -0.80787883822E+03  0.14724405158E+03  0.84844559814E+03  0.50400001928E-02 0. -1.
       -1    1    3    3    0  502 -0.21333285029E+03  0.80787883822E+03 -0.54013552400E+03  0.99495000204E+03  0.50400001928E-02 0.  1.
</event>
<event>
 5   0  0.8802655E-05  0.1801808E+04  0.7818609E-02  0.8705339E-01
        2   -1    0    0  501    0  0.00000000000E+00  0.00000000000E+00  0.10953966433E+04  0.10953966433E+04  0.25500000920E-02 0. -1.
       -2   -1    0    0    0  501  0.00000000000E+00  0.00000000000E+00 -0.74094412490E+03  0.74094412490E+03  0.25500000920E-02 0.  1.
    10030    2    1    2    0    0  0.00000000000E+00  0.00000000000E+00  0.35445251842E+03  0.18363407682E+04  0.18018076560E+04 0.  0.
        2    1    3    3  502    0 -0.86064889833E+03 -0.22374729321E+03  0.32438310929E+03  0.94657476146E+03  0.25500000920E-02 0. -1.
       -2    1    3    3    0  502  0.86064889833E+03  0.22374729321E+03  0.30069409122E+02  0.88976600676E+03  0.25500000920E-02 0.  1.
</event>
<event>
 5   0  0.9147432E-05  0.1801976E+04  0.7818609E-02  0.8705249E-01
       -2   -1    0    0    0  501  0.00000000000E+00  0.00000000000E+00  0.32543847647E+03  0.32543847648E+03  0.25500000920E-02 0. -1.
        2   -1    0    0  501    0  0.00000000000E+00  0.00000000000E+00 -0.24944170613E+04  0.24944170613E+04  0.25500000920E-02 0.  1.
    10030    2    1    2    0    0  0.00000000000E+00  0.00000000000E+00 -0.21689785848E+04  0.28198555377E+04  0.18019759023E+04 0.  0.
        3    1    3    3  502    0 -0.19286138858E+03 -0.87647546952E+03 -0.95954931541E+03  0.13138263442E+04  0.10100000352E+00 0. -1.
       -3    1    3    3    0  502  0.19286138858E+03  0.87647546952E+03 -0.12094292694E+04  0.15060291935E+04  0.10100000352E+00 0.  1.
</event>
<event>
 5   0  0.4623665E-05  0.1799027E+04  0.7818609E-02  0.8706817E-01
       -1   -1    0    0    0  501  0.00000000000E+00  0.00000000000E+00  0.56870709249E+03  0.56870709252E+03  0.50400001928E-02 0. -1.
        1   -1    0    0  501    0  0.00000000000E+00  0.00000000000E+00 -0.14227439142E+04  0.14227439142E+04  0.50400001928E-02 0.  1.
    10030    2    1    2    0    0  0.00000000000E+00  0.00000000000E+00 -0.85403682172E+03  0.19914510067E+04  0.17990270202E+04 0.  0.
        5    1    3    3  502    0  0.40876162325E+03 -0.78057035207E+03 -0.62727211783E+03  0.10816046131E+04  0.46999998093E+01 0.  1.
       -5    1    3    3    0  502 -0.40876162325E+03  0.78057035207E+03 -0.22676470389E+03  0.90984639369E+03  0.46999998093E+01 0. -1.
</event>
<event>
 5   0  0.9184414E-05  0.1798278E+04  0.7818609E-02  0.8707216E-01
        2   -1    0    0  501    0  0.00000000000E+00  0.00000000000E+00  0.14187751546E+04  0.14187751546E+04  0.25500000920E-02 0. -1.
       -2   -1    0    0    0  501  0.00000000000E+00  0.00000000000E+00 -0.56982310999E+03  0.56982310999E+03  0.25500000920E-02 0.  1.
    10030    2    1    2    0    0  0.00000000000E+00  0.00000000000E+00  0.84895204459E+03  0.19885982646E+04  0.17982779217E+04 0.  0.
        5    1    3    3  502    0  0.67249169544E+03  0.54488997533E+03  0.15523621626E+03  0.87935802633E+03  0.46999998093E+01 0.  1.
       -5    1    3    3    0  502 -0.67249169544E+03 -0.54488997533E+03  0.69371582833E+03  0.11092402382E+04  0.46999998093E+01 0. -1.
</event>
<event>
 5   0  0.9184414E-05  0.1770820E+04  0.7818609E-02  0.8721973E-01
        2   -1    0    0  501    0  0.00000000000E+00  0.00000000000E+00  0.11254353369E+04  0.11254353369E+04  0.25500000920E-02 0.  1.
       -2   -1    0    0    0  501  0.00000000000E+00  0.00000000000E+00 -0.69657533166E+03  0.69657533166E+03  0.25500000920E-02 0. -1.
    10030    2    1    2    0    0  0.00000000000E+00  0.00000000000E+00  0.42886000527E+03  0.18220106686E+04  0.17708195765E+04 0.  0.
        5    1    3    3  502    0  0.40149653244E+03 -0.54022224188E+03  0.80628821587E+03  0.10503153399E+04  0.46999998093E+01 0.  1.
       -5    1    3    3    0  502 -0.40149653244E+03  0.54022224188E+03 -0.37742821059E+03  0.77169532870E+03  0.46999998093E+01 0. -1.
</event>
<event>
 5   0  0.9184414E-05  0.1773046E+04  0.7818609E-02  0.8720766E-01
        2   -1    0    0  501    0  0.00000000000E+00  0.00000000000E+00  0.16300900122E+04  0.16300900122E+04  0.25500000920E-02 0. -1.
       -2   -1    0    0    0  501  0.00000000000E+00  0.00000000000E+00 -0.48213485809E+03  0.48213485810E+03  0.25500000920E-02 0.  1.
    10030    2    1    2    0    0  0.00000000000E+00  0.00000000000E+00  0.11479551541E+04  0.21122248703E+04  0.17730462112E+04 0.  0.
        5    1    3    3  502    0 -0.49763295038E+03 -0.45346529473E+03  0.12610491495E+04  0.14295231282E+04  0.46999998093E+01 0. -1.
       -5    1    3    3    0  502  0.49763295038E+03  0.45346529473E+03 -0.11309399536E+03  0.68270174206E+03  0.46999998093E+01 0.  1.
</event>
<event>
 5   0  0.4535100E-05  0.1778464E+04  0.7818609E-02  0.8717837E-01
        1   -1    0    0  501    0  0.00000000000E+00  0.00000000000E+00  0.10976795924E+04  0.10976795924E+04  0.50400001928E-02 0.  1.
       -1   -1    0    0    0  501  0.00000000000E+00  0.00000000000E+00 -0.72036822830E+03  0.72036822831E+03  0.50400001928E-02 0. -1.
    10030    2    1    2    0    0  0.00000000000E+00  0.00000000000E+00  0.37731136413E+03  0.18180478208E+04  0.17784639476E+04 0.  0.
        1    1    3    3  502    0 -0.56425896624E+03  0.55629614074E+03  0.60122223684E+03  0.99464654791E+03  0.50400001928E-02 0.  1.
       -1    1    3    3    0  502  0.56425896624E+03 -0.55629614074E+03 -0.22391087271E+03  0.82340127284E+03  0.50400001928E-02 0. -1.
</event>
<event>
 5   0  0.8892280E-05  0.1811500E+04  0.7818609E-02  0.8700208E-01
        2   -1    0    0  501    0  0.00000000000E+00  0.00000000000E+00  0.19672832335E+04  0.19672832335E+04  0.25500000920E-02 0. -1.
       -2   -1    0    0    0  501  0.00000000000E+00  0.00000000000E+00 -0.41701331618E+03  0.41701331619E+03  0.25500000920E-02 0.  1.
    10030    2    1    2    0    0  0.00000000000E+00  0.00000000000E+00  0.15502699173E+04  0.23842965497E+04  0.18115002678E+04 0.  0.
        4    1    3    3  502    0 -0.24583660203E+03  0.75635804413E+03  0.20464378666E+03  0.82121484286E+03  0.12699999809E+01 0.  1.
       -4    1    3    3    0  502  0.24583660203E+03 -0.75635804413E+03  0.13456261307E+04  0.15630817068E+04  0.12699999809E+01 0. -1.
</event>
<event>
 5   0  0.4535100E-05  0.1801625E+04  0.7818609E-02  0.8705436E-01
        1   -1    0    0  501    0  0.00000000000E+00  0.00000000000E+00  0.11575080599E+04  0.11575080599E+04  0.50400001928E-02 0. -1.
       -1   -1    0    0    0  501  0.00000000000E+00  0.00000000000E+00 -0.70104328760E+03  0.70104328761E+03  0.50400001928E-02 0.  1.
    10030    2    1    2    0    0  0.00000000000E+00  0.00000000000E+00  0.45646477233E+03  0.18585513476E+04  0.18016251061E+04 0.  0.
        1    1    3    3  502    0  0.62416763271E+02 -0.15714615679E+03 -0.68452562789E+03  0.70510006538E+03  0.50400001928E-02 0.  1.
       -1    1    3    3    0  502 -0.62416763271E+02  0.15714615679E+03  0.11409904002E+04  0.11534512822E+04  0.50400001928E-02 0. -1.
</event>
<event>
 5   0  0.4335117E-05  0.1793380E+04  0.7818609E-02  0.8709828E-01
       -1   -1    0    0    0  501  0.00000000000E+00  0.00000000000E+00  0.32247450642E+03  0.32247450646E+03  0.50400001928E-02 0. -1.
        1   -1    0    0  501    0  0.00000000000E+00  0.00000000000E+00 -0.24933846830E+04  0.24933846830E+04  0.50400001928E-02 0.  1.
    10030    2    1    2    0    0  0.00000000000E+00  0.00000000000E+00 -0.21709101765E+04  0.28158591894E+04  0.17933800434E+04 0.  0.
        3    1    3    3  502    0 -0.71895365069E+03 -0.47855530232E+03 -0.70684775587E+03  0.11160391075E+04  0.10100000352E+00 0. -1.
       -3    1    3    3    0  502  0.71895365069E+03  0.47855530232E+03 -0.14640624207E+04  0.16998200820E+04  0.10100000352E+00 0.  1.
</event>
<event>
 5   0  0.4578107E-05  0.1801662E+04  0.7818609E-02  0.8705416E-01
       -1   -1    0    0    0  501  0.00000000000E+00  0.00000000000E+00  0.42159686873E+03  0.42159686876E+03  0.50400001928E-02 0.  1.
        1   -1    0    0  501    0  0.00000000000E+00  0.00000000000E+00 -0.19248171576E+04  0.19248171576E+04  0.50400001928E-02 0. -1.
    10030    2    1    2    0    0  0.00000000000E+00  0.00000000000E+00 -0.15032202889E+04  0.23464140264E+04  0.18016624396E+04 0.  0.
        2    1    3    3  502    0 -0.26053334875E+03 -0.26758346244E+03 -0.18192426497E+04  0.18571812926E+04  0.25500000920E-02 0. -1.
       -2    1    3    3    0  502  0.26053334875E+03  0.26758346244E+03  0.31602236084E+03  0.48923273372E+03  0.25500000920E-02 0.  1.
</event>
<event>
 5   0  0.8892280E-05  0.1800051E+04  0.7818609E-02  0.8706272E-01
       -2   -1    0    0    0  501  0.00000000000E+00  0.00000000000E+00  0.98757823445E+03  0.98757823445E+03  0.25500000920E-02 0.  1.
        2   -1    0    0  501    0  0.00000000000E+00  0.00000000000E+00 -0.82023465628E+03  0.82023465628E+03  0.25500000920E-02 0. -1.
    10030    2    1    2    0    0  0.00000000000E+00  0.00000000000E+00  0.16734357817E+03  0.18078128907E+04  0.18000509923E+04 0.  0.
        4    1    3    3  502    0 -0.68601042363E+03 -0.10714297704E+03 -0.49147059926E+03  0.85066731552E+03  0.12699999809E+01 0. -1.
       -4    1    3    3    0  502  0.68601042363E+03  0.10714297704E+03  0.65881417744E+03  0.95714557521E+03  0.12699999809E+01 0.  1.
</event>
<event>
 5   0  0.4494757E-05  0.1797774E+04  0.7818609E-02  0.8707484E-01
       -1   -1    0    0    0  501  0.00000000000E+00  0.00000000000E+00  0.55386438435E+03  0.55386438437E+03  0.50400001928E-02 0.  1.
        1   -1    0    0  501    0  0.00000000000E+00  0.00000000000E+00 -0.14588372240E+04  0.14588372240E+04  0.50400001928E-02 0. -1.
    10030    2    1    2    0    0  0.00000000000E+00  0.00000000000E+00 -0.90497283962E+03  0.20127016083E+04  0.17977741582E+04 0.  0.
        4    1    3    3  502    0  0.97886025966E+02  0.50261910428E+03  0.37461076388E+03  0.63446235143E+03  0.12699999809E+01 0.  1.
       -4    1    3    3    0  502 -0.97886025966E+02 -0.50261910428E+03 -0.12795836035E+04  0.13782392569E+04  0.12699999809E+01 0. -1.
</event>
<event>
 5   0  0.4335117E-05  0.1826373E+04  0.7818609E-02  0.8692399E-01
       -1   -1    0    0    0  501  0.00000000000E+00  0.00000000000E+00  0.45702854160E+03  0.45702854162E+03  0.50400001928E-02 0.  1.
        1   -1    0    0  501    0  0.00000000000E+00  0.00000000000E+00 -0.18246325334E+04  0.18246325334E+04  0.50400001928E-02 0. -1.
    10030    2    1    2    0    0  0.00000000000E+00  0.00000000000E+00 -0.13676039918E+04  0.22816610751E+04  0.18263725203E+04 0.  0.
        3    1    3    3  502    0 -0.35647872108E+03  0.62950484502E+03  0.12394008785E+02  0.72353787056E+03  0.10100000352E+00 0.  1.
       -3    1    3    3    0  502  0.35647872108E+03 -0.62950484502E+03 -0.13799980006E+04  0.15581232045E+04  0.10100000352E+00 0. -1.
</event>
<event>
 5   0  0.8893075E-05  0.1788973E+04  0.7818609E-02  0.8712185E-01
        2   -1    0    0  501    0  0.00000000000E+00  0.00000000000E+00  0.17849641646E+04  0.17849641646E+04  0.25500000920E-02 0.  1.
       -2   -1    0    0    0  501  0.00000000000E+00  0.00000000000E+00 -0.44824791010E+03  0.44824791011E+03  0.25500000920E-02 0. -1.
    10030    2    1    2    0    0  0.00000000000E+00  0.00000000000E+00  0.13367162545E+04  0.22332120747E+04  0.17889733999E+04 0.  0.
        1    1    3    3  502    0  0.34702244280E+03  0.71287685040E+03  0.15141405990E+03  0.80718287718E+03  0.50400001928E-02 0. -1.
       -1    1    3    3    0  502 -0.34702244280E+03 -0.71287685040E+03  0.11853021946E+04  0.14260291975E+04  0.50400001928E-02 0.  1.
</event>
<event>
 5   0  0.9184414E-05  0.1792574E+04  0.7818609E-02  0.8710259E-01
       -2   -1    0    0    0  501  0.00000000000E+00  0.00000000000E+00  0.67507070860E+03  0.67507070860E+03  0.25500000920E-02 0. -1.
        2   -1    0    0  501    0  0.00000000000E+00  0.00000000000E+00 -0.11899942993E+04  0.11899942993E+04  0.25500000920E-02 0.  1.
    10030    2    1    2    0    0  0.00000000000E+00  0.00000000000E+00 -0.51492359071E+03  0.18650650079E+04  0.17925738979E+04 0.  0.
        5    1    3    3  502    0 -0.23289241949E+03 -0.78731609527E+03  0.11652191576E+03  0.82927978377E+03  0.46999998093E+01 0. -1.
       -5    1    3    3    0  502  0.23289241949E+03  0.78731609527E+03 -0.63144550647E+03  0.10357852241E+04  0.46999998093E+01 0.  1.
</event>
<event>
 5   0  0.4494757E-05  0.1803846E+04  0.7818609E-02  0.8704257E-01
        1   -1    0    0  501    0  0.00000000000E+00  0.00000000000E+00  0.12486430744E+04  0.12486430744E+04  0.50400001928E-02 0.  1.
       -1   -1    0    0    0  501  0.00000000000E+00  0.00000000000E+00 -0.65147947122E+03  0.65147947124E+03  0.50400001928E-02 0. -1.
    10030    2    1    2    0    0  0.00000000000E+00  0.00000000000E+00  0.59716360320E+03  0.19001225457E+04  0.18038462572E+04 0.  0.
        4    1    3    3  502    0  0.95841587627E+02 -0.71143727048E+03  0.87374177991E+03  0.11308204590E+04  0.12699999809E+01 0.  1.
       -4    1    3    3    0  502 -0.95841587627E+02  0.71143727048E+03 -0.27657817670E+03  0.76930208662E+03  0.12699999809E+01 0. -1.
</event>
<event>
 5   0  0.8892280E-05  0.1812941E+04  0.7818609E-02  0.8699448E-01
       -2   -1    0    0    0  501  0.00000000000E+00  0.00000000000E+00  0.53834147502E+03  0.53834147502E+03  0.25500000920E-02 0.  1.
        2   -1    0    0  501    0  0.00000000000E+00  0.00000000000E+00 -0.15263336242E+04  0.15263336242E+04  0.25500000920E-02 0. -1.
    10030    2    1    2    0    0  0.00000000000E+00  0.00000000000E+00 -0.98799214922E+03  0.20646750993E+04  0.18129409198E+04 0.  0.
        4    1    3    3  502    0 -0.49864115952E+02 -0.59426547361E+03  0.28347448260E+03  0.66030089987E+03  0.12699999809E+01 0.  1.
       -4    1    3    3    0  502  0.49864115952E+02  0.59426547361E+03 -0.12714666318E+04  0.14043741994E+04  0.12699999809E+01 0. -1.
</event>
<event>
 5   0  0.8802655E-05  0.1798602E+04  0.7818609E-02  0.8707043E-01
        2   -1    0    0  501    0  0.00000000000E+00  0.00000000000E+00  0.13247037789E+04  0.13247037789E+04  0.25500000920E-02 0. -1.
       -2   -1    0    0    0  501  0.00000000000E+00  0.00000000000E+00 -0.61050781192E+03  0.61050781192E+03  0.25500000920E-02 0.  1.
    10030    2    1    2    0    0  0.00000000000E+00  0.00000000000E+00  0.71419596700E+03  0.19352115908E+04  0.17986016852E+04 0.  0.
        2    1    3    3  502    0  0.70606927429E+03  0.33962851622E+02 -0.24105344459E+03  0.74685611636E+03  0.25500000920E-02 0.  1.
       -2    1    3    3    0  502 -0.70606927429E+03 -0.33962851622E+02  0.95524941158E+03  0.11883554745E+04  0.25500000920E-02 0. -1.
</event>
<event>
 5   0  0.4535100E-05  0.1818429E+04  0.7818609E-02  0.8696560E-01
       -1   -1    0    0    0  501  0.00000000000E+00  0.00000000000E+00  0.37336749297E+03  0.37336749300E+03  0.50400001928E-02 0.  1.
        1   -1    0    0  501    0  0.00000000000E+00  0.00000000000E+00 -0.22140938944E+04  0.22140938944E+04  0.50400001928E-02 0. -1.
    10030    2    1    2    0    0  0.00000000000E+00  0.00000000000E+00 -0.18407264014E+04  0.25874613874E+04  0.18184286476E+04 0.  0.
        1    1    3    3  502    0 -0.68369368956E+03  0.30512505845E+03 -0.16544145246E+04  0.18159366128E+04  0.50400001928E-02 0.  1.
       -1    1    3    3    0  502  0.68369368956E+03 -0.30512505845E+03 -0.18631187689E+03  0.77152477467E+03  0.50400001928E-02 0. -1.
</event>
<event>
 5   0  0.8802655E-05  0.1836273E+04  0.7818609E-02  0.8687244E-01
       -2   -1    0    0    0  501  0.00000000000E+00  0.00000000000E+00  0.65101495372E+03  0.65101495372E+03  0.25500000920E-02 0. -1.
        2   -1    0    0  501    0  0.00000000000E+00  0.00000000000E+00 -0.12948623194E+04  0.12948623194E+04  0.25500000920E-02 0.  1.
    10030    2    1    2    0    0  0.00000000000E+00  0.00000000000E+00 -0.64384736572E+03  0.19458772732E+04  0.18362731093E+04 0.  0.
        2    1    3    3  502    0  0.97982033095E+02 -0.82987607658E+03  0.81148055984E+02  0.83957119310E+03  0.25500000920E-02 0. -1.
       -2    1    3    3    0  502 -0.97982033095E+02  0.82987607658E+03 -0.72499542171E+03  0.11063060801E+04  0.25500000920E-02 0.  1.
</event>
<event>
 5   0  0.4578107E-05  0.1794378E+04  0.7818609E-02  0.8709295E-01
        1   -1    0    0  501    0  0.00000000000E+00  0.00000000000E+00  0.57221574406E+03  0.57221574408E+03  0.50400001928E-02 0. -1.
       -1   -1    0    0    0  501  0.00000000000E+00  0.00000000000E+00 -0.14067210330E+04  0.14067210330E+04  0.50400001928E-02 0.  1.
    10030    2    1    2    0    0  0.00000000000E+00  0.00000000000E+00 -0.83450528893E+03  0.19789367771E+04  0.17943778004E+04 0.  0.
        2    1    3    3  502    0 -0.77133677300E+03 -0.44350416193E+02 -0.92025630754E+03  0.12015818942E+04  0.25500000920E-02 0. -1.
       -2    1    3    3    0  502  0.77133677300E+03  0.44350416193E+02  0.85751018612E+02  0.77735488292E+03  0.25500000920E-02 0.  1.
</event>
<event>
 5   0  0.4494757E-05  0.1839022E+04  0.7818609E-02  0.8685819E-01
        1   -1    0    0  501    0  0.00000000000E+00  0.00000000000E+00  0.17430379419E+04  0.17430379419E+04  0.50400001928E-02 0.  1.
       -1   -1    0    0    0  501  0.00000000000E+00  0.00000000000E+00 -0.48507288237E+03  0.48507288240E+03  0.50400001928E-02 0. -1.
    10030    2    1    2    0    0  0.00000000000E+00  0.00000000000E+00  0.12579650596E+04  0.22281108243E+04  0.18390219559E+04 0.  0.
        4    1    3    3  502    0  0.33507918232E+03 -0.78913627367E+03  0.10317004562E+04  0.13414251977E+04  0.12699999809E+01 0.  1.
       -4    1    3    3    0  502 -0.33507918232E+03  0.78913627367E+03  0.22626460340E+03  0.88668562664E+03  0.12699999809E+01 0. -1.
</event>
<event>
 5   0  0.8893075E-05  0.1786883E+04  0.7818609E-02  0.8713306E-01
        2   -1    0    0  501    0  0.00000000000E+00  0.00000000000E+00  0.64339184057E+03  0.64339184058E+03  0.25500000920E-02 0.  1.
       -2   -1    0    0    0  501  0.00000000000E+00  0.00000000000E+00 -0.12406712039E+04  0.12406712039E+04  0.25500000920E-02 0. -1.
    10030    2    1    2    0    0  0.00000000000E+00  0.00000000000E+00 -0.59727936331E+03  0.18840630445E+04  0.17868830173E+04 0.  0.
        1    1    3    3  502    0 -0.78686360368E+03 -0.22024273827E+03 -0.67964573828E+03  0.10628167877E+04  0.50400001928E-02 0. -1.
       -1    1    3    3    0  502  0.78686360368E+03  0.22024273827E+03  0.82366374969E+02  0.82124625680E+03  0.50400001928E-02 0.  1.
</event>
<event>
 5   0  0.8802655E-05  0.1800636E+04  0.7818609E-02  0.8705961E-01
        2   -1    0    0  501    0  0.00000000000E+00  0.00000000000E+00  0.10830422631E+04  0.10830422631E+04  0.25500000920E-02 0.  1.
       -2   -1    0    0    0  501  0.00000000000E+00  0.00000000000E+00 -0.74842159553E+03  0.74842159554E+03  0.25500000920E-02 0. -1.
    10030    2    1    2    0    0  0.00000000000E+00  0.00000000000E+00  0.33462066759E+03  0.18314638587E+04  0.18006356862E+04 0.  0.
        2    1    3    3  502    0 -0.65069495054E+03 -0.66184322606E+02 -0.46198081101E+03  0.80075623817E+03  0.25500000920E-02 0. -1.
       -2    1    3    3    0  502  0.65069495054E+03  0.66184322606E+02  0.79660147860E+03  0.10307076205E+04  0.25500000920E-02 0.  1.
</event>
<event>
 5   0  0.4535100E-05  0.1797988E+04  0.7818609E-02  0.8707370E-01
       -1   -1    0    0    0  501  0.00000000000E+00  0.00000000000E+00  0.93910429258E+03  0.93910429259E+03  0.50400001928E-02 0.  1.
        1   -1    0    0  501    0  0.00000000000E+00  0.00000000000E+00 -0.86059708607E+03  0.86059708609E+03  0.50400001928E-02 0. -1.
    10030    2    1    2    0    0  0.00000000000E+00  0.00000000000E+00  0.78507206506E+02  0.17997013787E+04  0.17979882288E+04 0.  0.
        1    1    3    3  502    0 -0.71386821405E+03  0.54771375612E+02  0.58344679191E+03  0.92358967601E+03  0.50400001928E-02 0.  1.
       -1    1    3    3    0  502  0.71386821405E+03 -0.54771375612E+02 -0.50493958540E+03  0.87611170267E+03  0.50400001928E-02 0. -1.
</event>
<event>
 5   0  0.4578107E-05  0.1719952E+04  0.7818609E-02  0.8750066E-01
        1   -1    0    0  501    0  0.00000000000E+00  0.00000000000E+00  0.11784613250E+04  0.11784613250E+04  0.50400001928E-02 0. -1.
       -1   -1    0    0    0  501  0.00000000000E+00  0.00000000000E+00 -0.62756293648E+03  0.62756293650E+03  0.50400001928E-02 0.  1.
    10030    2    1    2    0    0  0.00000000000E+00  0.00000000000E+00  0.55089838855E+03  0.18060242615E+04  0.17199519176E+04 0.  0.
        2    1    3    3  502    0 -0.36615001551E+03  0.51469367596E+03  0.88824940749E+03  0.10899368898E+04  0.25500000920E-02 0. -1.
       -2    1    3    3    0  502  0.36615001551E+03 -0.51469367596E+03 -0.33735101894E+03  0.71608737170E+03  0.25500000920E-02 0.  1.
</event>
<event>
 5   0  0.8893075E-05  0.1810186E+04  0.7818609E-02  0.8700901E-01
        2   -1    0    0  501    0  0.00000000000E+00  0.00000000000E+00  0.75552051795E+03  0.75552051795E+03  0.25500000920E-02 0.  1.
       -2   -1    0    0    0  501  0.00000000000E+00  0.00000000000E+00 -0.10842767226E+04  0.10842767226E+04  0.25500000920E-02 0. -1.
    10030    2    1    2    0    0  0.00000000000E+00  0.00000000000E+00 -0.32875620464E+03  0.18397972405E+04  0.18101859695E+04 0.  0.
        1    1    3    3  502    0 -0.80083751180E+02 -0.58336518405E+03  0.53422671151E+03  0.79506384931E+03  0.50400001928E-02 0.  1.
       -1    1    3    3    0  502  0.80083751180E+02  0.58336518405E+03 -0.86298291614E+03  0.10447333912E+04  0.50400001928E-02 0. -1.
</event>
<event>
 5   0  0.4578107E-05  0.1801454E+04  0.7818609E-02  0.8705527E-01
       -1   -1    0    0    0  501  0.00000000000E+00  0.00000000000E+00  0.58917580295E+03  0.58917580297E+03  0.50400001928E-02 0. -1.
        1   -1    0    0  501    0  0.00000000000E+00  0.00000000000E+00 -0.13770237991E+04  0.13770237991E+04  0.50400001928E-02 0.  1.
    10030    2    1    2    0    0  0.00000000000E+00  0.00000000000E+00 -0.78784799614E+03  0.19661996021E+04  0.18014539711E+04 0.  0.
        2    1    3    3  502    0 -0.18264450825E+03  0.81897042749E+03 -0.75134315412E+03  0.11263161691E+04  0.25500000920E-02 0.  1.
       -2    1    3    3    0  502  0.18264450825E+03 -0.81897042749E+03 -0.36504842021E+02  0.83988343298E+03  0.25500000920E-02 0. -1.
</event>
<event>
 5   0  0.4335117E-05  0.1699423E+04  0.7818609E-02  0.8761693E-01
       -1   -1    0    0    0  501  0.00000000000E+00  0.00000000000E+00  0.47049001837E+03  0.47049001840E+03  0.50400001928E-02 0.  1.
        1   -1    0    0  501    0  0.00000000000E+00  0.00000000000E+00 -0.15345909040E+04  0.15345909040E+04  0.50400001928E-02 0. -1.
    10030    2    1    2    0    0  0.00000000000E+00  0.00000000000E+00 -0.10641008856E+04  0.20050809224E+04  0.16994230817E+04 0.  0.
        3    1    3    3  502    0  0.20999243794E+03  0.68534102224E+03  0.63336116058E+01  0.71681885131E+03  0.10100000352E+00 0.  1.
       -3    1    3    3    0  502 -0.20999243794E+03 -0.68534102224E+03 -0.10704344972E+04  0.12882620711E+04  0.10100000352E+00 0. -1.
</event>
<event>
 5   0  0.8892280E-05  0.1825277E+04  0.7818609E-02  0.8692972E-01
       -2   -1    0    0    0  501  0.00000000000E+00  0.00000000000E+00  0.63350122449E+03  0.63350122450E+03  0.25500000920E-02 0.  1.
        2   -1    0    0  501    0  0.00000000000E+00  0.00000000000E+00 -0.13147703755E+04  0.13147703755E+04  0.25500000920E-02 0. -1.
    10030    2    1    2    0    0  0.00000000000E+00  0.00000000000E+00 -0.68126915101E+03  0.19482716000E+04  0.18252765739E+04 0.  0.
        4    1    3    3  502    0  0.25422732077E+03 -0.84316773154E+03 -0.85032966181E+02  0.88475735226E+03  0.12699999809E+01 0.  1.
       -4    1    3    3    0  502 -0.25422732077E+03  0.84316773154E+03 -0.59623618483E+03  0.10635142477E+04  0.12699999809E+01 0. -1.
</event>
<event>
 5   0  0.8892280E-05  0.1761832E+04  0.7818609E-02  0.8726864E-01
        2   -1    0    0  501    0  0.00000000000E+00  0.00000000000E+00  0.63255277963E+03  0.63255277963E+03  0.25500000920E-02 0. -1.
       -2   -1    0    0    0  501  0.00000000000E+00  0.00000000000E+00 -0.12267951973E+04  0.12267951973E+04  0.25500000920E-02 0.  1.
    10030    2    1    2    0    0  0.00000000000E+00  0.00000000000E+00 -0.59424241768E+03  0.18593479769E+04  0.17618316743E+04 0.  0.
        4    1    3    3  502    0  0.10917167590E+03 -0.34596950583E+03 -0.11442964759E+04  0.12004288365E+04  0.12699999809E+01 0.  1.
       -4    1    3    3    0  502 -0.10917167590E+03  0.34596950583E+03  0.55005405823E+03  0.65891914046E+03  0.12699999809E+01 0. -1.
</event>
<event>
 5   0  0.8892280E-05  0.1798513E+04  0.7818609E-02  0.8707091E-01
       -2   -1    0    0    0  501  0.00000000000E+00  0.00000000000E+00  0.45223423264E+03  0.45223423265E+03  0.25500000920E-02 0.  1.
        2   -1    0    0  501    0  0.00000000000E+00  0.00000000000E+00 -0.17881496146E+04  0.17881496146E+04  0.25500000920E-02 0. -1.
    10030    2    1    2    0    0  0.00000000000E+00  0.00000000000E+00 -0.13359153820E+04  0.22403838473E+04  0.17985132402E+04 0.  0.
        4    1    3    3  502    0  0.22580936070E+03 -0.27726685517E+03 -0.16957767785E+04  0.17330687441E+04  0.12699999809E+01 0. -1.
       -4    1    3    3    0  502 -0.22580936070E+03  0.27726685517E+03  0.35986139649E+03  0.50731510321E+03  0.12699999809E+01 0.  1.
</event>
<event>
 5   0  0.9147432E-05  0.1800496E+04  0.7818609E-02  0.8706036E-01
       -2   -1    0    0    0  501  0.00000000000E+00  0.00000000000E+00  0.73971257669E+03  0.73971257670E+03  0.25500000920E-02 0.  1.
        2   -1    0    0  501    0  0.00000000000E+00  0.00000000000E+00 -0.10956239772E+04  0.10956239772E+04  0.25500000920E-02 0. -1.
    10030    2    1    2    0    0  0.00000000000E+00  0.00000000000E+00 -0.35591140051E+03  0.18353365539E+04  0.18004964152E+04 0.  0.
        3    1    3    3  502    0  0.70513840385E+03 -0.43215654041E+03  0.18454822701E+03  0.84737093548E+03  0.10100000352E+00 0.  1.
       -3    1    3    3    0  502 -0.70513840385E+03  0.43215654041E+03 -0.54045962752E+03  0.98796561842E+03  0.10100000352E+00 0. -1.
</event>
<event>
 5   0  0.4535100E-05  0.1805774E+04  0.7818609E-02  0.8703235E-01
        1   -1    0    0  501    0  0.00000000000E+00  0.00000000000E+00  0.18897055149E+04  0.18897055149E+04  0.50400001928E-02 0.  1.
       -1   -1    0    0    0  501  0.00000000000E+00  0.00000000000E+00 -0.43139273914E+03  0.43139273917E+03  0.50400001928E-02 0. -1.
    10030    2    1    2    0    0  0.00000000000E+00  0.00000000000E+00  0.14583127758E+04  0.23210982541E+04  0.18057743362E+04 0.  0.
        1    1    3    3  502    0 -0.38695942609E+03  0.11644599171E+02  0.17776101171E+04  0.18192775826E+04  0.50400001928E-02 0. -1.
       -1    1    3    3    0  502  0.38695942609E+03 -0.11644599171E+02 -0.31929734133E+03  0.50182067149E+03  0.50400001928E-02 0.  1.
</event>
<event>
 5   0  0.8802655E-05  0.1779090E+04  0.7818609E-02  0.8717499E-01
       -2   -1    0    0    0  501  0.00000000000E+00  0.00000000000E+00  0.74849563249E+03  0.74849563249E+03  0.25500000920E-02 0. -1.
        2   -1    0    0  501    0  0.00000000000E+00  0.00000000000E+00 -0.10571741056E+04  0.10571741056E+04  0.25500000920E-02 0.  1.
    10030    2    1    2    0    0  0.00000000000E+00  0.00000000000E+00 -0.30867847310E+03  0.18056697381E+04  0.17790898806E+04 0.  0.
        2    1    3    3  502    0 -0.16971429335E+02 -0.37456795902E+03 -0.97305126754E+03  0.10427933422E+04  0.25500000920E-02 0.  1.
       -2    1    3    3    0  502  0.16971429335E+02  0.37456795902E+03  0.66437279444E+03  0.76287639585E+03  0.25500000920E-02 0. -1.
</event>
<event>
 5   0  0.8893075E-05  0.1782018E+04  0.7818609E-02  0.8715921E-01
        2   -1    0    0  501    0  0.00000000000E+00  0.00000000000E+00  0.17165482647E+04  0.17165482647E+04  0.25500000920E-02 0.  1.
       -2   -1    0    0    0  501  0.00000000000E+00  0.00000000000E+00 -0.46249609946E+03  0.46249609947E+03  0.25500000920E-02 0. -1.
    10030    2    1    2    0    0  0.00000000000E+00  0.00000000000E+00  0.12540521652E+04  0.21790443642E+04  0.17820178192E+04 0.  0.
        1    1    3    3  502    0 -0.74708060180E+03  0.47939829555E+03  0.53274600413E+03  0.10352634719E+04  0.50400001928E-02 0.  1.
       -1    1    3    3    0  502  0.74708060180E+03 -0.47939829555E+03  0.72130616110E+03  0.11437808922E+04  0.50400001928E-02 0. -1.
</event>
<event>
 5   0  0.4578107E-05  0.1805084E+04  0.7818609E-02  0.8703600E-01
        1   -1    0    0  501    0  0.00000000000E+00  0.00000000000E+00  0.13635169648E+04  0.13635169648E+04  0.50400001928E-02 0.  1.
       -1   -1    0    0    0  501  0.00000000000E+00  0.00000000000E+00 -0.59741278239E+03  0.59741278241E+03  0.50400001928E-02 0. -1.
    10030    2    1    2    0    0  0.00000000000E+00  0.00000000000E+00  0.76610418238E+03  0.19609297472E+04  0.18050844454E+04 0.  0.
        2    1    3    3  502    0 -0.19144476265E+03  0.86431108180E+03  0.57400563870E+03  0.10550673991E+04  0.25500000920E-02 0. -1.
       -2    1    3    3    0  502  0.19144476265E+03 -0.86431108180E+03  0.19209854367E+03  0.90586234813E+03  0.25500000920E-02 0.  1.
</event>
<event>
 5   0  0.4578107E-05  0.1800075E+04  0.7818609E-02  0.8706260E-01
        1   -1    0    0  501    0  0.00000000000E+00  0.00000000000E+00  0.11749176829E+04  0.11749176829E+04  0.50400001928E-02 0. -1.
       -1   -1    0    0    0  501  0.00000000000E+00  0.00000000000E+00 -0.68946713641E+03  0.68946713643E+03  0.50400001928E-02 0.  1.
    10030    2    1    2    0    0  0.00000000000E+00  0.00000000000E+00  0.48545054646E+03  0.18643848193E+04  0.18000745877E+04 0.  0.
        2    1    3    3  502    0 -0.20648914286E+03 -0.62792863176E+03 -0.38994590404E+03  0.76745680060E+03  0.25500000920E-02 0.  1.
       -2    1    3    3    0  502  0.20648914286E+03  0.62792863176E+03  0.87539645050E+03  0.10969280187E+04  0.25500000920E-02 0. -1.
</event>
<event>
 5   0  0.8892280E-05  0.1761160E+04  0.7818609E-02  0.8727231E-01
       -2   -1    0    0    0  501  0.00000000000E+00  0.00000000000E+00  0.93424542392E+03  0.93424542393E+03  0.25500000920E-02 0.  1.
        2   -1    0    0  501    0  0.00000000000E+00  0.00000000000E+00 -0.82999747630E+03  0.82999747630E+03  0.25500000920E-02 0. -1.
    10030    2    1    2    0    0  0.00000000000E+00  0.00000000000E+00  0.10424794763E+03  0.17642429002E+04  0.17611602359E+04 0.  0.
        4    1    3    3  502    0 -0.29130328803E+03 -0.82320352461E+03  0.16589248771E+03  0.88884395645E+03  0.12699999809E+01 0. -1.
       -4    1    3    3    0  502  0.29130328803E+03  0.82320352461E+03 -0.61644540085E+02  0.87539894378E+03  0.12699999809E+01 0.  1.
</event>
<event>
 5   0  0.8892280E-05  0.1802146E+04  0.7818609E-02  0.8705159E-01
       -2   -1    0    0    0  501  0.00000000000E+00  0.00000000000E+00  0.45590952128E+03  0.45590952129E+03  0.25500000920E-02 0. -1.
        2   -1    0    0  501    0  0.00000000000E+00  0.00000000000E+00 -0.17809073502E+04  0.17809073502E+04  0.25500000920E-02 0.  1.
    10030    2    1    2    0    0  0.00000000000E+00  0.00000000000E+00 -0.13249978290E+04  0.22368168715E+04  0.18021460734E+04 0.  0.
        4    1    3    3  502    0  0.50052821884E+03  0.54388014607E+03 -0.22834876349E+02  0.73949790778E+03  0.12699999809E+01 0. -1.
       -4    1    3    3    0  502 -0.50052821884E+03 -0.54388014607E+03 -0.13021629526E+04  0.14973189637E+04  0.12699999809E+01 0.  1.
</event>
<event>
 5   0  0.8892280E-05  0.1795321E+04  0.7818609E-02  0.8708792E-01
        2   -1    0    0  501    0  0.00000000000E+00  0.00000000000E+00  0.72957342726E+03  0.72957342726E+03  0.25500000920E-02 0. -1.
       -2   -1    0    0    0  501  0.00000000000E+00  0.00000000000E+00 -0.11044728632E+04  0.11044728632E+04  0.25500000920E-02 0.  1.
    10030    2    1    2    0    0  0.00000000000E+00  0.00000000000E+00 -0.37489943596E+03  0.18340462905E+04  0.17953206423E+04 0.  0.
        4    1    3    3  502    0 -0.85555486475E+03 -0.24481062670E+03 -0.30783071584E+03  0.94163035850E+03  0.12699999809E+01 0.  1.
       -4    1    3    3    0  502  0.85555486475E+03  0.24481062670E+03 -0.67068720116E+02  0.89241593198E+03  0.12699999809E+01 0. -1.
</event>
<event>
 5   0  0.4335117E-05  0.1799004E+04  0.7818609E-02  0.8706829E-01
        1   -1    0    0  501    0  0.00000000000E+00  0.00000000000E+00  0.11935645790E+04  0.11935645790E+04  0.50400001928E-02 0. -1.
       -1   -1    0    0    0  501  0.00000000000E+00  0.00000000000E+00 -0.67788847341E+03  0.67788847343E+03  0.50400001928E-02 0.  1.
    10030    2    1    2    0    0  0.00000000000E+00  0.00000000000E+00  0.51567610560E+03  0.18714530524E+04  0.17990038026E+04 0.  0.
        3    1    3    3  502    0 -0.42801363193E+03 -0.60492035284E+03  0.78825365310E+03  0.10818817561E+04  0.10100000352E+00 0. -1.
       -3    1    3    3    0  502  0.42801363193E+03  0.60492035284E+03 -0.27257754750E+03  0.78957129633E+03  0.10100000352E+00 0.  1.
</event>
<event>
 5   0  0.4623665E-05  0.1805088E+04  0.7818609E-02  0.8703599E-01
       -1   -1    0    0    0  501  0.00000000000E+00  0.00000000000E+00  0.51639409139E+03  0.51639409142E+03  0.50400001928E-02 0. -1.
        1   -1    0    0  501    0  0.00000000000E+00  0.00000000000E+00 -0.15774489840E+04  0.15774489840E+04  0.50400001928E-02 0.  1.
    10030    2    1    2    0    0  0.00000000000E+00  0.00000000000E+00 -0.10610548926E+04  0.20938430754E+04  0.18050876265E+04 0.  0.
        5    1    3    3  502    0 -0.23842411275E+03  0.48033955312E+03 -0.13725960627E+04  0.14736397745E+04  0.46999998093E+01 0.  1.
       -5    1    3    3    0  502  0.23842411275E+03 -0.48033955312E+03  0.31154117004E+03  0.62020330091E+03  0.46999998093E+01 0. -1.
</event>
<event>
 5   0  0.8802655E-05  0.1804471E+04  0.7818609E-02  0.8703925E-01
        2   -1    0    0  501    0  0.00000000000E+00  0.00000000000E+00  0.70156448981E+03  0.70156448981E+03  0.25500000920E-02 0. -1.
       -2   -1    0    0    0  501  0.00000000000E+00  0.00000000000E+00 -0.11603053421E+04  0.11603053421E+04  0.25500000920E-02 0.  1.
    10030    2    1    2    0    0  0.00000000000E+00  0.00000000000E+00 -0.45874085229E+03  0.18618698319E+04  0.18044711418E+04 0.  0.
        2    1    3    3  502    0  0.49659074939E+03  0.64163425127E+02 -0.10037840631E+04  0.11217405060E+04  0.25500000920E-02 0.  1.
       -2    1    3    3    0  502 -0.49659074939E+03 -0.64163425127E+02  0.54504321076E+03  0.74012932594E+03  0.25500000920E-02 0. -1.
</event>
<event>
 5   0  0.4578107E-05  0.1848847E+04  0.7818609E-02  0.8680746E-01
       -1   -1    0    0    0  501  0.00000000000E+00  0.00000000000E+00  0.57955707837E+03  0.57955707840E+03  0.50400001928E-02 0.  1.
        1   -1    0    0  501    0  0.00000000000E+00  0.00000000000E+00 -0.14745036794E+04  0.14745036794E+04  0.50400001928E-02 0. -1.
    10030    2    1    2    0    0  0.00000000000E+00  0.00000000000E+00 -0.89494660100E+03  0.20540607578E+04  0.18488472565E+04 0.  0.
        2    1    3    3  502    0  0.60156201679E+03  0.24074844692E+01  0.33234446882E+03  0.68726668913E+03  0.25500000920E-02 0.  1.
       -2    1    3    3    0  502 -0.60156201679E+03 -0.24074844692E+01 -0.12272910698E+04  0.13667940686E+04  0.25500000920E-02 0. -1.
</event>
<event>
 5   0  0.4578107E-05  0.1805594E+04  0.7818609E-02  0.8703330E-01
        1   -1    0    0  501    0  0.00000000000E+00  0.00000000000E+00  0.94036390294E+03  0.94036390295E+03  0.50400001928E-02 0.  1.
       -1   -1    0    0    0  501  0.00000000000E+00  0.00000000000E+00 -0.86673129539E+03  0.86673129541E+03  0.50400001928E-02 0. -1.
    10030    2    1    2    0    0  0.00000000000E+00  0.00000000000E+00  0.73632607548E+02  0.18070951984E+04  0.18055944437E+04 0.  0.
        2    1    3    3  502    0 -0.28503481776E+03 -0.71707295154E+03 -0.43219282952E+03  0.88443716965E+03  0.25500000920E-02 0. -1.
       -2    1    3    3    0  502  0.28503481776E+03  0.71707295154E+03  0.50582543707E+03  0.92265802871E+03  0.25500000920E-02 0.  1.
</event>
<event>
 5   0  0.4535100E-05  0.1797414E+04  0.7818609E-02  0.8707676E-01
        1   -1    0    0  501    0  0.00000000000E+00  0.00000000000E+00  0.99057664820E+03  0.99057664821E+03  0.50400001928E-02 0. -1.
       -1   -1    0    0    0  501  0.00000000000E+00  0.00000000000E+00 -0.81535727972E+03  0.81535727974E+03  0.50400001928E-02 0.  1.
    10030    2    1    2    0    0  0.00000000000E+00  0.00000000000E+00  0.17521936848E+03  0.18059339279E+04  0.17974135654E+04 0.  0.
        1    1    3    3  502    0  0.10343356662E+03  0.68756287779E+03 -0.48450385659E+03  0.84745808197E+03  0.50400001928E-02 0.  1.
       -1    1    3    3    0  502 -0.10343356662E+03 -0.68756287779E+03  0.65972322507E+03  0.95847584598E+03  0.50400001928E-02 0. -1.
</event>
<event>
 5   0  0.8802655E-05  0.1808175E+04  0.7818609E-02  0.8701964E-01
       -2   -1    0    0    0  501  0.00000000000E+00  0.00000000000E+00  0.62335025003E+03  0.62335025003E+03  0.25500000920E-02 0. -1.
        2   -1    0    0  501    0  0.00000000000E+00  0.00000000000E+00 -0.13112596904E+04  0.13112596904E+04  0.25500000920E-02 0.  1.
    10030    2    1    2    0    0  0.00000000000E+00  0.00000000000E+00 -0.68790944039E+03  0.19346099404E+04  0.18081748321E+04 0.  0.
        2    1    3    3  502    0  0.43405521709E+03 -0.79307416834E+03 -0.34195654071E+03  0.96659445670E+03  0.25500000920E-02 0.  1.
       -2    1    3    3    0  502 -0.43405521709E+03  0.79307416834E+03 -0.34595289967E+03  0.96801548375E+03  0.25500000920E-02 0. -1.
</event>
<event>
 5   0  0.8892280E-05  0.1798218E+04  0.7818609E-02  0.8707248E-01
       -2   -1    0    0    0  501  0.00000000000E+00  0.00000000000E+00  0.11004231747E+04  0.11004231747E+04  0.25500000920E-02 0.  1.
        2   -1    0    0  501    0  0.00000000000E+00  0.00000000000E+00 -0.73462341847E+03  0.73462341848E+03  0.25500000920E-02 0. -1.
    10030    2    1    2    0    0  0.00000000000E+00  0.00000000000E+00  0.36579975624E+03  0.18350465932E+04  0.17982176002E+04 0.  0.
        4    1    3    3  502    0 -0.38835371104E+02  0.78802894391E+03  0.62288835047E+03  0.10052309747E+04  0.12699999809E+01 0.  1.
       -4    1    3    3    0  502  0.38835371104E+02 -0.78802894391E+03 -0.25708859423E+03  0.82981561848E+03  0.12699999809E+01 0. -1.
</event>
<event>
 5   0  0.4535100E-05  0.1782256E+04  0.7818609E-02  0.8715793E-01
        1   -1    0    0  501    0  0.00000000000E+00  0.00000000000E+00  0.64742984771E+03  0.64742984773E+03  0.50400001928E-02 0.  1.
       -1   -1    0    0    0  501  0.00000000000E+00  0.00000000000E+00 -0.12265561253E+04  0.12265561253E+04  0.50400001928E-02 0. -1.
    10030    2    1    2    0    0  0.00000000000E+00  0.00000000000E+00 -0.57912627761E+03  0.18739859731E+04  0.17822559249E+04 0.  0.
        1    1    3    3  502    0  0.84820173301E+03  0.27274081674E+03 -0.30700967364E+03  0.94238456732E+03  0.50400001928E-02 0. -1.
       -1    1    3    3    0  502 -0.84820173301E+03 -0.27274081674E+03 -0.27211660397E+03  0.93160140574E+03  0.50400001928E-02 0.  1.
</event>
<event>
 5   0  0.8893075E-05  0.1778000E+04  0.7818609E-02  0.8718087E-01
       -2   -1    0    0    0  501  0.00000000000E+00  0.00000000000E+00  0.50395846878E+03  0.50395846878E+03  0.25500000920E-02 0.  1.
        2   -1    0    0  501    0  0.00000000000E+00  0.00000000000E+00 -0.15682268405E+04  0.15682268405E+04  0.25500000920E-02 0. -1.
    10030    2    1    2    0    0  0.00000000000E+00  0.00000000000E+00 -0.10642683717E+04  0.20721853093E+04  0.17780002219E+04 0.  0.
        1    1    3    3  502    0  0.55183037696E+03  0.21137567792E+03  0.24193092790E+03  0.63853505468E+03  0.50400001928E-02 0.  1.
       -1    1    3    3    0  502 -0.55183037696E+03 -0.21137567792E+03 -0.13061992996E+04  0.14336502546E+04  0.50400001928E-02 0. -1.
</event>
<event>
 5   0  0.4578107E-05  0.1824627E+04  0.7818609E-02  0.8693312E-01
        1   -1    0    0  501    0  0.00000000000E+00  0.00000000000E+00  0.93928168002E+03  0.93928168004E+03  0.50400001928E-02 0. -1.
       -1   -1    0    0    0  501  0.00000000000E+00  0.00000000000E+00 -0.88611960703E+03  0.88611960704E+03  0.50400001928E-02 0.  1.
    10030    2    1    2    0    0  0.00000000000E+00  0.00000000000E+00  0.53162072994E+02  0.18254012871E+04  0.18246269901E+04 0.  0.
        2    1    3    3  502    0 -0.97567025148E+01  0.37277050601E+02 -0.88530515846E+03  0.88614332664E+03  0.25500000920E-02 0.  1.
       -2    1    3    3    0  502  0.97567025148E+01 -0.37277050601E+02  0.93846723145E+03  0.93925796045E+03  0.25500000920E-02 0. -1.
</event>
<event>
 5   0  0.4535100E-05  0.1808526E+04  0.7818609E-02  0.8701779E-01
       -1   -1    0    0    0  501  0.00000000000E+00  0.00000000000E+00  0.10942077355E+04  0.10942077355E+04  0.50400001928E-02 0. -1.
        1   -1    0    0  501    0  0.00000000000E+00  0.00000000000E+00 -0.74729099323E+03  0.74729099324E+03  0.50400001928E-02 0.  1.
    10030    2    1    2    0    0  0.00000000000E+00  0.00000000000E+00  0.34691674228E+03  0.18414987288E+04  0.18085260136E+04 0.  0.
        1    1    3    3  502    0  0.70811868612E+02  0.10190579296E+03 -0.73857981578E+03  0.74893207681E+03  0.50400001928E-02 0.  1.
       -1    1    3    3    0  502 -0.70811868612E+02 -0.10190579296E+03  0.10854965581E+04  0.10925666519E+04  0.50400001928E-02 0. -1.
</event>
<event>
 5   0  0.4535100E-05  0.1798678E+04  0.7818609E-02  0.8707003E-01
       -1   -1    0    0    0  501  0.00000000000E+00  0.00000000000E+00  0.13964974022E+04  0.13964974022E+04  0.50400001928E-02 0.  1.
        1   -1    0    0  501    0  0.00000000000E+00  0.00000000000E+00 -0.57917087203E+03  0.57917087205E+03  0.50400001928E-02 0. -1.
    10030    2    1    2    0    0  0.00000000000E+00  0.00000000000E+00  0.81732653013E+03  0.19756682742E+04  0.17986779792E+04 0.  0.
        1    1    3    3  502    0  0.11273492125E+03  0.74329356833E+03 -0.13347944880E+03  0.76355173660E+03  0.50400001928E-02 0. -1.
       -1    1    3    3    0  502 -0.11273492125E+03 -0.74329356833E+03  0.95080597893E+03  0.12121165376E+04  0.50400001928E-02 0.  1.
</event>
<event>
 5   0  0.4535100E-05  0.1793186E+04  0.7818609E-02  0.8709931E-01
        1   -1    0    0  501    0  0.00000000000E+00  0.00000000000E+00  0.10863001715E+04  0.10863001716E+04  0.50400001928E-02 0.  1.
       -1   -1    0    0    0  501  0.00000000000E+00  0.00000000000E+00 -0.74001573041E+03  0.74001573043E+03  0.50400001928E-02 0. -1.
    10030    2    1    2    0    0  0.00000000000E+00  0.00000000000E+00  0.34628444114E+03  0.18263159020E+04  0.17931862312E+04 0.  0.
        1    1    3    3  502    0  0.77329036865E+03  0.54191542420E+01 -0.28897163723E+03  0.82553738173E+03  0.50400001928E-02 0. -1.
       -1    1    3    3    0  502 -0.77329036865E+03 -0.54191542420E+01  0.63525607837E+03  0.10007785203E+04  0.50400001928E-02 0.  1.
</event>
<event>
 5   0  0.4535100E-05  0.1801520E+04  0.7818609E-02  0.8705491E-01
        1   -1    0    0  501    0  0.00000000000E+00  0.00000000000E+00  0.19733679738E+04  0.19733679739E+04  0.50400001928E-02 0. -1.
       -1   -1    0    0    0  501  0.00000000000E+00  0.00000000000E+00 -0.41115947758E+03  0.41115947762E+03  0.50400001928E-02 0.  1.
    10030    2    1    2    0    0  0.00000000000E+00  0.00000000000E+00  0.15622084963E+04  0.23845274515E+04  0.18015204082E+04 0.  0.
        1    1    3    3  502    0 -0.22442827948E+03 -0.36176459867E+03 -0.26959223100E+03  0.50390638865E+03  0.50400001928E-02 0.  1.
       -1    1    3    3    0  502  0.22442827948E+03  0.36176459867E+03  0.18318007273E+04  0.18806210628E+04  0.50400001928E-02 0. -1.
</event>
<event>
 5   0  0.4578107E-05  0.1806814E+04  0.7818609E-02  0.8702684E-01
       -1   -1    0    0    0  501  0.00000000000E+00  0.00000000000E+00  0.32112950501E+03  0.32112950505E+03  0.50400001928E-02 0.  1.
        1   -1    0    0  501    0  0.00000000000E+00  0.00000000000E+00 -0.25414789092E+04  0.25414789092E+04  0.50400001928E-02 0. -1.
    10030    2    1    2    0    0  0.00000000000E+00  0.00000000000E+00 -0.22203494042E+04  0.28626084143E+04  0.18068136198E+04 0.  0.
        2    1    3    3  502    0 -0.65747158909E+03 -0.38700319975E+03 -0.18767459722E+04  0.20258864261E+04  0.25500000920E-02 0. -1.
       -2    1    3    3    0  502  0.65747158909E+03  0.38700319975E+03 -0.34360343199E+03  0.83672198821E+03  0.25500000920E-02 0.  1.
</event>
<event>
 5   0  0.4535100E-05  0.1791301E+04  0.7818609E-02  0.8710939E-01
       -1   -1    0    0    0  501  0.00000000000E+00  0.00000000000E+00  0.31834145110E+03  0.31834145114E+03  0.50400001928E-02 0. -1.
        1   -1    0    0  501    0  0.00000000000E+00  0.00000000000E+00 -0.25199034618E+04  0.25199034618E+04  0.50400001928E-02 0.  1.
    10030    2    1    2    0    0  0.00000000000E+00  0.00000000000E+00 -0.22015620107E+04  0.28382449129E+04  0.17913008957E+04 0.  0.
        1    1    3    3  502    0 -0.48741796584E+03  0.94331870426E+02 -0.22819372901E+04  0.23353185160E+04  0.50400001928E-02 0.  1.
       -1    1    3    3    0  502  0.48741796584E+03 -0.94331870426E+02  0.80375279373E+02  0.50292639696E+03  0.50400001928E-02 0. -1.
</event>
<event>
 5   0  0.8802655E-05  0.1857659E+04  0.7818609E-02  0.8676224E-01
       -2   -1    0    0    0  501  0.00000000000E+00  0.00000000000E+00  0.77268384067E+03  0.77268384067E+03  0.25500000920E-02 0. -1.
        2   -1    0    0  501    0  0.00000000000E+00  0.00000000000E+00 -0.11165293411E+04  0.11165293411E+04  0.25500000920E-02 0.  1.
    10030    2    1    2    0    0  0.00000000000E+00  0.00000000000E+00 -0.34384550046E+03  0.18892131818E+04  0.18576589348E+04 0.  0.
        2    1    3    3  502    0 -0.57014330430E+03 -0.65597496962E+03  0.16129754654E+03  0.88395896213E+03  0.25500000920E-02 0. -1.
       -2    1    3    3    0  502  0.57014330430E+03  0.65597496962E+03 -0.50514304700E+03  0.10052542197E+04  0.25500000920E-02 0.  1.
</event>
<event>
 5   0  0.4578107E-05  0.1799542E+04  0.7818609E-02  0.8706543E-01
        1   -1    0    0  501    0  0.00000000000E+00  0.00000000000E+00  0.20264728737E+04  0.20264728737E+04  0.50400001928E-02 0.  1.
       -1   -1    0    0    0  501  0.00000000000E+00  0.00000000000E+00 -0.39950604782E+03  0.39950604785E+03  0.50400001928E-02 0. -1.
    10030    2    1    2    0    0  0.00000000000E+00  0.00000000000E+00  0.16269668259E+04  0.24259789216E+04  0.17995423516E+04 0.  0.
        2    1    3    3  502    0  0.50978723603E+03 -0.47796009580E+03  0.49378840753E+02  0.70054774935E+03  0.25500000920E-02 0. -1.
       -2    1    3    3    0  502 -0.50978723603E+03  0.47796009580E+03  0.15775879851E+04  0.17254311722E+04  0.25500000920E-02 0.  1.
</event>
<event>
 5   0  0.4623665E-05  0.1798115E+04  0.7818609E-02  0.8707303E-01
        1   -1    0    0  501    0  0.00000000000E+00  0.00000000000E+00  0.14971917412E+04  0.14971917412E+04  0.50400001928E-02 0.  1.
       -1   -1    0    0    0  501  0.00000000000E+00  0.00000000000E+00 -0.53988008188E+03  0.53988008190E+03  0.50400001928E-02 0. -1.
    10030    2    1    2    0    0  0.00000000000E+00  0.00000000000E+00  0.95731165929E+03  0.20370718231E+04  0.17981145679E+04 0.  0.
        5    1    3    3  502    0  0.26919175183E+03  0.39577354192E+03 -0.38352058942E+03  0.61336043909E+03  0.46999998093E+01 0. -1.
       -5    1    3    3    0  502 -0.26919175183E+03 -0.39577354192E+03  0.13408322487E+04  0.14237113840E+04  0.46999998093E+01 0.  1.
</event>
<event>
 5   0  0.8893075E-05  0.1811804E+04  0.7818609E-02  0.8700047E-01
        2   -1    0    0  501    0  0.00000000000E+00  0.00000000000E+00  0.14068428694E+04  0.14068428694E+04  0.25500000920E-02 0. -1.
       -2   -1    0    0    0  501  0.00000000000E+00  0.00000000000E+00 -0.58333334583E+03  0.58333334584E+03  0.25500000920E-02 0.  1.
    10030    2    1    2    0    0  0.00000000000E+00  0.00000000000E+00  0.82350952357E+03  0.19901762152E+04  0.18118039166E+04 0.  0.
        1    1    3    3  502    0  0.29141229884E+03 -0.63464925334E+03 -0.22207813310E+03  0.73281614331E+03  0.50400001928E-02 0.  1.
       -1    1    3    3    0  502 -0.29141229884E+03  0.63464925334E+03  0.10455876567E+04  0.12573600719E+04  0.50400001928E-02 0. -1.
</event>
<event>
 5   0  0.8893075E-05  0.1688105E+04  0.7818609E-02  0.8768178E-01
        2   -1    0    0  501    0  0.00000000000E+00  0.00000000000E+00  0.14620985936E+04  0.14620985936E+04  0.25500000920E-02 0.  1.
       -2   -1    0    0    0  501  0.00000000000E+00  0.00000000000E+00 -0.48726157261E+03  0.48726157262E+03  0.25500000920E-02 0. -1.
    10030    2    1    2    0    0  0.00000000000E+00  0.00000000000E+00  0.97483702100E+03  0.19493601662E+04  0.16881048072E+04 0.  0.
        1    1    3    3  502    0 -0.46362651589E+03 -0.56440709855E+03  0.97587014618E+03  0.12189452249E+04  0.50400001928E-02 0.  1.
       -1    1    3    3    0  502  0.46362651589E+03  0.56440709855E+03 -0.10331251800E+01  0.73041494131E+03  0.50400001928E-02 0. -1.
</event>
<event>
 5   0  0.8802655E-05  0.1801006E+04  0.7818609E-02  0.8705764E-01
        2   -1    0    0  501    0  0.00000000000E+00  0.00000000000E+00  0.17499808966E+04  0.17499808966E+04  0.25500000920E-02 0. -1.
       -2   -1    0    0    0  501  0.00000000000E+00  0.00000000000E+00 -0.46337996206E+03  0.46337996207E+03  0.25500000920E-02 0.  1.
    10030    2    1    2    0    0  0.00000000000E+00  0.00000000000E+00  0.12866009345E+04  0.22133608586E+04  0.18010064758E+04 0.  0.
        2    1    3    3  502    0 -0.49953177183E+03  0.68060262722E+03  0.10283275632E+04  0.13304922039E+04  0.25500000920E-02 0. -1.
       -2    1    3    3    0  502  0.49953177183E+03 -0.68060262722E+03  0.25827337128E+03  0.88286865477E+03  0.25500000920E-02 0.  1.
</event>
<event>
 5   0  0.9184414E-05  0.1800496E+04  0.7818609E-02  0.8706036E-01
        2   -1    0    0  501    0  0.00000000000E+00  0.00000000000E+00  0.17149811587E+04  0.17149811587E+04  0.25500000920E-02 0. -1.
       -2   -1    0    0    0  501  0.00000000000E+00  0.00000000000E+00 -0.47256864398E+03  0.47256864399E+03  0.25500000920E-02 0.  1.
    10030    2    1    2    0    0  0.00000000000E+00  0.00000000000E+00  0.12424125147E+04  0.21875498027E+04  0.18004958435E+04 0.  0.
        5    1    3    3  502    0  0.57416383142E+03 -0.59164713589E+03  0.10604711886E+04  0.13432541348E+04  0.46999998093E+01 0. -1.
       -5    1    3    3    0  502 -0.57416383142E+03  0.59164713589E+03  0.18194132608E+03  0.84429566791E+03  0.46999998093E+01 0.  1.
</event>
<event>
 5   0  0.4494757E-05  0.1805200E+04  0.7818609E-02  0.8703539E-01
       -1   -1    0    0    0  501  0.00000000000E+00  0.00000000000E+00  0.76858479878E+03  0.76858479880E+03  0.50400001928E-02 0.  1.
        1   -1    0    0  501    0  0.00000000000E+00  0.00000000000E+00 -0.10599827083E+04  0.10599827083E+04  0.50400001928E-02 0. -1.
    10030    2    1    2    0    0  0.00000000000E+00  0.00000000000E+00 -0.29139790953E+03  0.18285675071E+04  0.18051998190E+04 0.  0.
        4    1    3    3  502    0 -0.34586073424E+03  0.56379146735E+01  0.69877955371E+03  0.77970886308E+03  0.12699999809E+01 0.  1.
       -4    1    3    3    0  502  0.34586073424E+03 -0.56379146735E+01 -0.99017746324E+03  0.10488586440E+04  0.12699999809E+01 0. -1.
</event>
<event>
 5   0  0.8893075E-05  0.1813963E+04  0.7818609E-02  0.8698909E-01
       -2   -1    0    0    0  501  0.00000000000E+00  0.00000000000E+00  0.43822574610E+03  0.43822574611E+03  0.25500000920E-02 0. -1.
        2   -1    0    0  501    0  0.00000000000E+00  0.00000000000E+00 -0.18771491687E+04  0.18771491687E+04  0.25500000920E-02 0.  1.
    10030    2    1    2    0    0  0.00000000000E+00  0.00000000000E+00 -0.14389234226E+04  0.23153749148E+04  0.18139626181E+04 0.  0.
        1    1    3    3  502    0  0.29349625659E+03 -0.68691807847E+03 -0.62858245013E+02  0.74963168166E+03  0.50400001928E-02 0. -1.
       -1    1    3    3    0  502 -0.29349625659E+03  0.68691807847E+03 -0.13760651776E+04  0.15657432332E+04  0.50400001928E-02 0.  1.
</event>
<event>
 5   0  0.4535100E-05  0.1744070E+04  0.7818609E-02  0.8736621E-01
       -1   -1    0    0    0  501  0.00000000000E+00  0.00000000000E+00  0.18109664268E+04  0.18109664268E+04  0.50400001928E-02 0. -1.
        1   -1    0    0  501    0  0.00000000000E+00  0.00000000000E+00 -0.41991124151E+03  0.41991124154E+03  0.50400001928E-02 0.  1.
    10030    2    1    2    0    0  0.00000000000E+00  0.00000000000E+00  0.13910551853E+04  0.22308776684E+04  0.17440701370E+04 0.  0.
        1    1    3    3  502    0 -0.50650884536E+03 -0.47837057274E+03  0.24682862088E+02  0.69713618397E+03  0.50400001928E-02 0.  1.
       -1    1    3    3    0  502  0.50650884536E+03  0.47837057274E+03  0.13663723232E+04  0.15337414844E+04  0.50400001928E-02 0. -1.
</event>
<event>
 5   0  0.4578107E-05  0.1801498E+04  0.7818609E-02  0.8705503E-01
        1   -1    0    0  501    0  0.00000000000E+00  0.00000000000E+00  0.13488588966E+04  0.13488588966E+04  0.50400001928E-02 0. -1.
       -1   -1    0    0    0  501  0.00000000000E+00  0.00000000000E+00 -0.60150727113E+03  0.60150727115E+03  0.50400001928E-02 0.  1.
    10030    2    1    2    0    0  0.00000000000E+00  0.00000000000E+00  0.74735162549E+03  0.19503661678E+04  0.18014976371E+04 0.  0.
        2    1    3    3  502    0 -0.60401529330E+03 -0.61097897770E+03  0.80725941385E+02  0.86292900250E+03  0.25500000920E-02 0.  1.
       -2    1    3    3    0  502  0.60401529330E+03  0.61097897770E+03  0.66662568411E+03  0.10874371653E+04  0.25500000920E-02 0. -1.
</event>
<event>
 5   0  0.4535100E-05  0.1792515E+04  0.7818609E-02  0.8710290E-01
       -1   -1    0    0    0  501  0.00000000000E+00  0.00000000000E+00  0.80510942293E+03  0.80510942295E+03  0.50400001928E-02 0.  1.
        1   -1    0    0  501    0  0.00000000000E+00  0.00000000000E+00 -0.99772506326E+03  0.99772506327E+03  0.50400001928E-02 0. -1.
    10030    2    1    2    0    0  0.00000000000E+00  0.00000000000E+00 -0.19261564032E+03  0.18028344862E+04  0.17925153834E+04 0.  0.
        1    1    3    3  502    0 -0.45987525887E+03 -0.71533736093E+02 -0.86666467136E+03  0.98372251256E+03  0.50400001928E-02 0. -1.
       -1    1    3    3    0  502  0.45987525887E+03  0.71533736093E+02  0.67404903104E+03  0.81911197366E+03  0.50400001928E-02 0.  1.
</event>
<event>
 5   0  0.4623665E-05  0.1807365E+04  0.7818609E-02  0.8702393E-01
        1   -1    0    0  501    0  0.00000000000E+00  0.00000000000E+00  0.60407846954E+03  0.60407846956E+03  0.50400001928E-02 0. -1.
       -1   -1    0    0    0  501  0.00000000000E+00  0.00000000000E+00 -0.13518805833E+04  0.13518805833E+04  0.50400001928E-02 0.  1.
    10030    2    1    2    0    0  0.00000000000E+00  0.00000000000E+00 -0.74780211371E+03  0.19559590528E+04  0.18073648815E+04 0.  0.
        5    1    3    3  502    0  0.30193701400E+03  0.21107212934E+03  0.51910904329E+03  0.63656397403E+03  0.46999998093E+01 0. -1.
       -5    1    3    3    0  502 -0.30193701400E+03 -0.21107212934E+03 -0.12669111570E+04  0.13193950788E+04  0.46999998093E+01 0.  1.
</event>
<event>
 5   0  0.4578107E-05  0.1803711E+04  0.7818609E-02  0.8704328E-01
        1   -1    0    0  501    0  0.00000000000E+00  0.00000000000E+00  0.13848971004E+04  0.13848971004E+04  0.50400001928E-02 0.  1.
       -1   -1    0    0    0  501  0.00000000000E+00  0.00000000000E+00 -0.58729521565E+03  0.58729521567E+03  0.50400001928E-02 0. -1.
    10030    2    1    2    0    0  0.00000000000E+00  0.00000000000E+00  0.79760188476E+03  0.19721923161E+04  0.18037111091E+04 0.  0.
        2    1    3    3  502    0  0.65522425703E+02 -0.13512809874E+02 -0.58457825617E+03  0.58839401926E+03  0.25500000920E-02 0. -1.
       -2    1    3    3    0  502 -0.65522425703E+02  0.13512809874E+02  0.13821801409E+04  0.13837982968E+04  0.25500000920E-02 0.  1.
</event>
<event>
 5   0  0.8893075E-05  0.1800202E+04  0.7818609E-02  0.8706192E-01
        2   -1    0    0  501    0  0.00000000000E+00  0.00000000000E+00  0.10800758565E+04  0.10800758565E+04  0.25500000920E-02 0. -1.
       -2   -1    0    0    0  501  0.00000000000E+00  0.00000000000E+00 -0.75011576064E+03  0.75011576064E+03  0.25500000920E-02 0.  1.
    10030    2    1    2    0    0  0.00000000000E+00  0.00000000000E+00  0.32996009585E+03  0.18301916171E+04  0.18002021249E+04 0.  0.
        1    1    3    3  502    0  0.23794746503E+02  0.77925481134E+03 -0.29237827778E+03  0.83263996319E+03  0.50400001928E-02 0.  1.
       -1    1    3    3    0  502 -0.23794746503E+02 -0.77925481134E+03  0.62233837363E+03  0.99755165394E+03  0.50400001928E-02 0. -1.
</event>
<event>
 5   0  0.9147432E-05  0.1790457E+04  0.7818609E-02  0.8711391E-01
       -2   -1    0    0    0  501  0.00000000000E+00  0.00000000000E+00  0.70840530613E+03  0.70840530613E+03  0.25500000920E-02 0. -1.
        2   -1    0    0  501    0  0.00000000000E+00  0.00000000000E+00 -0.11313215459E+04  0.11313215459E+04  0.25500000920E-02 0.  1.
    10030    2    1    2    0    0  0.00000000000E+00  0.00000000000E+00 -0.42291623979E+03  0.18397268521E+04  0.17904571328E+04 0.  0.
        3    1    3    3  502    0  0.51150105364E+03  0.21207531407E+03 -0.93425321448E+03  0.10860194960E+04  0.10100000352E+00 0.  1.
       -3    1    3    3    0  502 -0.51150105364E+03 -0.21207531407E+03  0.51133697468E+03  0.75370735607E+03  0.10100000352E+00 0. -1.
</event>
<event>
 5   0  0.4535100E-05  0.1801838E+04  0.7818609E-02  0.8705323E-01
       -1   -1    0    0    0  501  0.00000000000E+00  0.00000000000E+00  0.38092956959E+03  0.38092956963E+03  0.50400001928E-02 0.  1.
        1   -1    0    0  501    0  0.00000000000E+00  0.00000000000E+00 -0.21307217576E+04  0.21307217576E+04  0.50400001928E-02 0. -1.
    10030    2    1    2    0    0  0.00000000000E+00  0.00000000000E+00 -0.17497921880E+04  0.25116513272E+04  0.18018378641E+04 0.  0.
        1    1    3    3  502    0  0.32754656379E+03  0.59025404514E+03 -0.17065628135E+04  0.18352229363E+04  0.50400001928E-02 0. -1.
       -1    1    3    3    0  502 -0.32754656379E+03 -0.59025404514E+03 -0.43229374461E+02  0.67642839095E+03  0.50400001928E-02 0.  1.
</event>
<event>
 5   0  0.4578107E-05  0.1714089E+04  0.7818609E-02  0.8753370E-01
        1   -1    0    0  501    0  0.00000000000E+00  0.00000000000E+00  0.13106777418E+04  0.13106777418E+04  0.50400001928E-02 0. -1.
       -1   -1    0    0    0  501  0.00000000000E+00  0.00000000000E+00 -0.56041623015E+03  0.56041623017E+03  0.50400001928E-02 0.  1.
    10030    2    1    2    0    0  0.00000000000E+00  0.00000000000E+00  0.75026151168E+03  0.18710939720E+04  0.17140887714E+04 0.  0.
        2    1    3    3  502    0 -0.60325620628E+03 -0.11391815547E+03 -0.27766762453E+03  0.67379129281E+03  0.25500000920E-02 0.  1.
       -2    1    3    3    0  502  0.60325620628E+03  0.11391815547E+03  0.10279291362E+04  0.11973026792E+04  0.25500000920E-02 0. -1.
</event>
<event>
 5   0  0.4535100E-05  0.1803927E+04  0.7818609E-02  0.8704214E-01
       -1   -1    0    0    0  501  0.00000000000E+00  0.00000000000E+00  0.74348377496E+03  0.74348377497E+03  0.50400001928E-02 0. -1.
        1   -1    0    0  501    0  0.00000000000E+00  0.00000000000E+00 -0.10942247776E+04  0.10942247776E+04  0.50400001928E-02 0.  1.
    10030    2    1    2    0    0  0.00000000000E+00  0.00000000000E+00 -0.35074100259E+03  0.18377085525E+04  0.18039272361E+04 0.  0.
        1    1    3    3  502    0  0.28292249593E+03  0.83133041949E+03 -0.38509698686E+03  0.95888221090E+03  0.50400001928E-02 0.  1.
       -1    1    3    3    0  502 -0.28292249593E+03 -0.83133041949E+03  0.34355984268E+02  0.87882634163E+03  0.50400001928E-02 0. -1.
</event>
<event>
 5   0  0.4578107E-05  0.1863118E+04  0.7818609E-02  0.8673436E-01
        1   -1    0    0  501    0  0.00000000000E+00  0.00000000000E+00  0.11849788922E+04  0.11849788922E+04  0.50400001928E-02 0.  1.
       -1   -1    0    0    0  501  0.00000000000E+00  0.00000000000E+00 -0.73233593328E+03  0.73233593330E+03  0.50400001928E-02 0. -1.
    10030    2    1    2    0    0  0.00000000000E+00  0.00000000000E+00  0.45264295887E+03  0.19173148255E+04  0.18631184857E+04 0.  0.
        2    1    3    3  502    0  0.30547979569E+02  0.52909029629E+03  0.10147225103E+04  0.11447844747E+04  0.25500000920E-02 0.  1.
       -2    1    3    3    0  502 -0.30547979569E+02 -0.52909029629E+03 -0.56207955142E+03  0.77253035074E+03  0.25500000920E-02 0. -1.
</event>
<event>
 5   0  0.4335117E-05  0.1787492E+04  0.7818609E-02  0.8712979E-01
        1   -1    0    0  501    0  0.00000000000E+00  0.00000000000E+00  0.38611540887E+03  0.38611540890E+03  0.50400001928E-02 0. -1.
       -1   -1    0    0    0  501  0.00000000000E+00  0.00000000000E+00 -0.20687650170E+04  0.20687650170E+04  0.50400001928E-02 0.  1.
    10030    2    1    2    0    0  0.00000000000E+00  0.00000000000E+00 -0.16826496081E+04  0.24548804259E+04  0.17874921543E+04 0.  0.
        3    1    3    3  502    0 -0.55357831840E+03  0.32458436097E+03 -0.16956621289E+04  0.18130289649E+04  0.10100000352E+00 0.  1.
       -3    1    3    3    0  502  0.55357831840E+03 -0.32458436097E+03  0.13012520850E+02  0.64185146093E+03  0.10100000352E+00 0. -1.
</event>
<event>
 5   0  0.8893075E-05  0.1800632E+04  0.7818609E-02  0.8705964E-01
        2   -1    0    0  501    0  0.00000000000E+00  0.00000000000E+00  0.16084115970E+04  0.16084115970E+04  0.25500000920E-02 0.  1.
       -2   -1    0    0    0  501  0.00000000000E+00  0.00000000000E+00 -0.50395595888E+03  0.50395595888E+03  0.25500000920E-02 0. -1.
    10030    2    1    2    0    0  0.00000000000E+00  0.00000000000E+00  0.11044556381E+04  0.21123675559E+04  0.18006316765E+04 0.  0.
        1    1    3    3  502    0  0.16823891992E+03 -0.21694693496E+03  0.15581093872E+04  0.15821109851E+04  0.50400001928E-02 0.  1.
       -1    1    3    3    0  502 -0.16823891992E+03  0.21694693496E+03 -0.45365374907E+03  0.53025657076E+03  0.50400001928E-02 0. -1.
</event>
<event>
 5   0  0.4623665E-05  0.1799599E+04  0.7818609E-02  0.8706513E-01
        1   -1    0    0  501    0  0.00000000000E+00  0.00000000000E+00  0.13909864302E+04  0.13909864302E+04  0.50400001928E-02 0.  1.
       -1   -1    0    0    0  501  0.00000000000E+00  0.00000000000E+00 -0.58206101600E+03  0.58206101602E+03  0.50400001928E-02 0. -1.
    10030    2    1    2    0    0  0.00000000000E+00  0.00000000000E+00  0.80892541424E+03  0.19730474463E+04  0.17995988162E+04 0.  0.
        5    1    3    3  502    0  0.46152257834E+03 -0.55569677561E+03  0.99265381928E+03  0.12276749129E+04  0.46999998093E+01 0.  1.
       -5    1    3    3    0  502 -0.46152257834E+03  0.55569677561E+03 -0.18372840505E+03  0.74537253340E+03  0.46999998093E+01 0. -1.
</event>
<event>
 5   0  0.8802655E-05  0.1798676E+04  0.7818609E-02  0.8707004E-01
       -2   -1    0    0    0  501  0.00000000000E+00  0.00000000000E+00  0.88289310072E+03  0.88289310072E+03  0.25500000920E-02 0. -1.
        2   -1    0    0  501    0  0.00000000000E+00  0.00000000000E+00 -0.91608936110E+03  0.91608936110E+03  0.25500000920E-02 0.  1.
    10030    2    1    2    0    0  0.00000000000E+00  0.00000000000E+00 -0.33196260382E+02  0.17989824618E+04  0.17986761538E+04 0.  0.
        2    1    3    3  502    0 -0.63287669952E+02  0.40110773429E+03 -0.81917869608E+03  0.91430108815E+03  0.25500000920E-02 0.  1.
       -2    1    3    3    0  502  0.63287669952E+02 -0.40110773429E+03  0.78598243570E+03  0.88468137367E+03  0.25500000920E-02 0. -1.
</event>
<event>
 5   0  0.4578107E-05  0.1795749E+04  0.7818609E-02  0.8708563E-01
       -1   -1    0    0    0  501  0.00000000000E+00  0.00000000000E+00  0.62651295719E+03  0.62651295721E+03  0.50400001928E-02 0.  1.
        1   -1    0    0  501    0  0.00000000000E+00  0.00000000000E+00 -0.12867705186E+04  0.12867705186E+04  0.50400001928E-02 0. -1.
    10030    2    1    2    0    0  0.00000000000E+00  0.00000000000E+00 -0.66025756142E+03  0.19132834758E+04  0.17957487607E+04 0.  0.
        2    1    3    3  502    0  0.65645981717E+03  0.60621686938E+03 -0.23639314121E+03  0.92429438033E+03  0.25500000920E-02 0.  1.
       -2    1    3    3    0  502 -0.65645981717E+03 -0.60621686938E+03 -0.42386442022E+03  0.98898909550E+03  0.25500000920E-02 0. -1.
</event>
<event>
 5   0  0.9147432E-05  0.1768490E+04  0.7818609E-02  0.8723238E-01
        2   -1    0    0  501    0  0.00000000000E+00  0.00000000000E+00  0.23762519925E+04  0.23762519925E+04  0.25500000920E-02 0.  1.
       -2   -1    0    0    0  501  0.00000000000E+00  0.00000000000E+00 -0.32904320155E+03  0.32904320156E+03  0.25500000920E-02 0. -1.
    10030    2    1    2    0    0  0.00000000000E+00  0.00000000000E+00  0.20472087910E+04  0.27052951941E+04  0.17684903882E+04 0.  0.
        3    1    3    3  502    0 -0.16756854623E+02  0.85822624979E+03  0.13483105463E+04  0.15983661744E+04  0.10100000352E+00 0.  1.
       -3    1    3    3    0  502  0.16756854623E+02 -0.85822624979E+03  0.69889824469E+03  0.11069290197E+04  0.10100000352E+00 0. -1.
</event>
<event>
 5   0  0.4535100E-05  0.1798783E+04  0.7818609E-02  0.8706947E-01
       -1   -1    0    0    0  501  0.00000000000E+00  0.00000000000E+00  0.93182847795E+03  0.93182847796E+03  0.50400001928E-02 0. -1.
        1   -1    0    0  501    0  0.00000000000E+00  0.00000000000E+00 -0.86808333507E+03  0.86808333509E+03  0.50400001928E-02 0.  1.
    10030    2    1    2    0    0  0.00000000000E+00  0.00000000000E+00  0.63745142874E+02  0.17999118131E+04  0.17987826693E+04 0.  0.
        1    1    3    3  502    0  0.67518828824E+03  0.10654289360E+03 -0.55302336003E+03  0.87924140571E+03  0.50400001928E-02 0.  1.
       -1    1    3    3    0  502 -0.67518828824E+03 -0.10654289360E+03  0.61676850290E+03  0.92067040734E+03  0.50400001928E-02 0. -1.
</event>
<event>
 5   0  0.9147432E-05  0.1801555E+04  0.7818609E-02  0.8705473E-01
       -2   -1    0    0    0  501  0.00000000000E+00  0.00000000000E+00  0.98991648920E+03  0.98991648921E+03  0.25500000920E-02 0.  1.
        2   -1    0    0  501    0  0.00000000000E+00  0.00000000000E+00 -0.81966524864E+03  0.81966524865E+03  0.25500000920E-02 0. -1.
    10030    2    1    2    0    0  0.00000000000E+00  0.00000000000E+00  0.17025124056E+03  0.18095817379E+04  0.18015550452E+04 0.  0.
        3    1    3    3  502    0 -0.39666657157E+03 -0.71319106323E+03  0.46815685221E+03  0.94082767293E+03  0.10100000352E+00 0.  1.
       -3    1    3    3    0  502  0.39666657157E+03  0.71319106323E+03 -0.29790561165E+03  0.86875406493E+03  0.10100000352E+00 0. -1.
</event>
<event>
 5   0  0.4335117E-05  0.1769301E+04  0.7818609E-02  0.8722798E-01
        1   -1    0    0  501    0  0.00000000000E+00  0.00000000000E+00  0.12595131492E+04  0.12595131492E+04  0.50400001928E-02 0. -1.
       -1   -1    0    0    0  501  0.00000000000E+00  0.00000000000E+00 -0.62135613081E+03  0.62135613083E+03  0.50400001928E-02 0.  1.
    10030    2    1    2    0    0  0.00000000000E+00  0.00000000000E+00  0.63815701834E+03  0.18808692800E+04  0.17693006721E+04 0.  0.
        3    1    3    3  502    0  0.15221177342E+03 -0.32212664440E+03  0.11798747436E+04  0.12324927666E+04  0.10100000352E+00 0. -1.
       -3    1    3    3    0  502 -0.15221177342E+03  0.32212664440E+03 -0.54171772527E+03  0.64837651336E+03  0.10100000352E+00 0.  1.
</event>
<event>
 5   0  0.4623665E-05  0.1801118E+04  0.7818609E-02  0.8705705E-01
       -1   -1    0    0    0  501  0.00000000000E+00  0.00000000000E+00  0.68602767848E+03  0.68602767850E+03  0.50400001928E-02 0. -1.
        1   -1    0    0  501    0  0.00000000000E+00  0.00000000000E+00 -0.11821771798E+04  0.11821771798E+04  0.50400001928E-02 0.  1.
    10030    2    1    2    0    0  0.00000000000E+00  0.00000000000E+00 -0.49614950129E+03  0.18682048583E+04  0.18011177266E+04 0.  0.
        5    1    3    3  502    0 -0.37485757582E+03  0.12055110360E+03 -0.10881385520E+04  0.11572028211E+04  0.46999998093E+01 0.  1.
       -5    1    3    3    0  502  0.37485757582E+03 -0.12055110360E+03  0.59198905073E+03  0.71100203721E+03  0.46999998093E+01 0. -1.
</event>
<event>
 5   0  0.4335117E-05  0.1824872E+04  0.7818609E-02  0.8693183E-01
        1   -1    0    0  501    0  0.00000000000E+00  0.00000000000E+00  0.11910310246E+04  0.11910310246E+04  0.50400001928E-02 0. -1.
       -1   -1    0    0    0  501  0.00000000000E+00  0.00000000000E+00 -0.69900774023E+03  0.69900774025E+03  0.50400001928E-02 0.  1.
    10030    2    1    2    0    0  0.00000000000E+00  0.00000000000E+00  0.49202328438E+03  0.18900387649E+04  0.18248724943E+04 0.  0.
        3    1    3    3  502    0 -0.37644631723E+03 -0.50851313173E+03 -0.43491746578E+03  0.76775689325E+03  0.10100000352E+00 0. -1.
       -3    1    3    3    0  502  0.37644631723E+03  0.50851313173E+03  0.92694075016E+03  0.11222818716E+04  0.10100000352E+00 0.  1.
</event>
<event>
 5   0  0.9184414E-05  0.1796677E+04  0.7818609E-02  0.8708069E-01
        2   -1    0    0  501    0  0.00000000000E+00  0.00000000000E+00  0.12889681720E+04  0.12889681720E+04  0.25500000920E-02 0.  1.
       -2   -1    0    0    0  501  0.00000000000E+00  0.00000000000E+00 -0.62609141059E+03  0.62609141060E+03  0.25500000920E-02 0. -1.
    10030    2    1    2    0    0  0.00000000000E+00  0.00000000000E+00  0.66287676137E+03  0.19150595826E+04  0.17966768224E+04 0.  0.
        5    1    3    3  502    0  0.68240632781E+03 -0.12846450133E+03  0.93890983604E+03  0.11677993383E+04  0.46999998093E+01 0.  1.
       -5    1    3    3    0  502 -0.68240632781E+03  0.12846450133E+03 -0.27603307467E+03  0.74726024426E+03  0.46999998093E+01 0. -1.
</event>
<event>
 5   0  0.8893075E-05  0.1756325E+04  0.7818609E-02  0.8729876E-01
       -2   -1    0    0    0  501  0.00000000000E+00  0.00000000000E+00  0.69829729709E+03  0.69829729709E+03  0.25500000920E-02 0. -1.
        2   -1    0    0  501    0  0.00000000000E+00  0.00000000000E+00 -0.11043570227E+04  0.11043570227E+04  0.25500000920E-02 0.  1.
    10030    2    1    2    0    0  0.00000000000E+00  0.00000000000E+00 -0.40605972564E+03  0.18026543198E+04  0.17563251681E+04 0.  0.
        1    1    3    3  502    0  0.62149995066E+03  0.39550395832E+03  0.28757899155E+03  0.79081429307E+03  0.50400001928E-02 0. -1.
       -1    1    3    3    0  502 -0.62149995066E+03 -0.39550395832E+03 -0.69363871719E+03  0.10118400267E+04  0.50400001928E-02 0.  1.
</event>
<event>
 5   0  0.8893075E-05  0.1801141E+04  0.7818609E-02  0.8705693E-01
       -2   -1    0    0    0  501  0.00000000000E+00  0.00000000000E+00  0.77707160559E+03  0.77707160559E+03  0.25500000920E-02 0. -1.
        2   -1    0    0  501    0  0.00000000000E+00  0.00000000000E+00 -0.10436967672E+04  0.10436967672E+04  0.25500000920E-02 0.  1.
    10030    2    1    2    0    0  0.00000000000E+00  0.00000000000E+00 -0.26662516164E+03  0.18207683728E+04  0.18011408858E+04 0.  0.
        1    1    3    3  502    0  0.65136686860E+03 -0.59332046651E+03  0.55048664427E+02  0.88280140970E+03  0.50400001928E-02 0. -1.
       -1    1    3    3    0  502 -0.65136686860E+03  0.59332046651E+03 -0.32167382607E+03  0.93796696312E+03  0.50400001928E-02 0.  1.
</event>
<event>
 5   0  0.4578107E-05  0.1794616E+04  0.7818609E-02  0.8709168E-01
        1   -1    0    0  501    0  0.00000000000E+00  0.00000000000E+00  0.13553812345E+04  0.13553812345E+04  0.50400001928E-02 0.  1.
       -1   -1    0    0    0  501  0.00000000000E+00  0.00000000000E+00 -0.59404804502E+03  0.59404804504E+03  0.50400001928E-02 0. -1.
    10030    2    1    2    0    0  0.00000000000E+00  0.00000000000E+00  0.76133318949E+03  0.19494292796E+04  0.17946159173E+04 0.  0.
        2    1    3    3  502    0 -0.87212169757E+03 -0.31055307214E+02  0.15384540590E+03  0.88613153448E+03  0.25500000920E-02 0.  1.
       -2    1    3    3    0  502  0.87212169757E+03  0.31055307214E+02  0.60748778359E+03  0.10632977451E+04  0.25500000920E-02 0. -1.
</event>
<event>
 5   0  0.3270375E-05  0.1802572E+04  0.7818609E-02  0.8704933E-01
        4   -1    0    0  501    0  0.00000000000E+00  0.00000000000E+00  0.91316372178E+03  0.91316460492E+03  0.12699999809E+01 0. -1.
       -4   -1    0    0    0  501  0.00000000000E+00  0.00000000000E+00 -0.88956076650E+03  0.88956167308E+03  0.12699999809E+01 0.  1.
    10030    2    1    2    0    0  0.00000000000E+00  0.00000000000E+00  0.23602955272E+02  0.18027262780E+04  0.18025717555E+04 0.  0.
        1    1    3    3  502    0  0.27805638656E+03  0.71486454102E+03 -0.46149332247E+03  0.89516632690E+03  0.50400001928E-02 0.  1.
       -1    1    3    3    0  502 -0.27805638656E+03 -0.71486454102E+03  0.48509627774E+03  0.90755995109E+03  0.50400001928E-02 0. -1.
</event>
<event>
 5   0  0.8802655E-05  0.1794075E+04  0.7818609E-02  0.8709457E-01
       -2   -1    0    0    0  501  0.00000000000E+00  0.00000000000E+00  0.23709365367E+04  0.23709365367E+04  0.25500000920E-02 0. -1.
        2   -1    0    0  501    0  0.00000000000E+00  0.00000000000E+00 -0.33939170259E+03  0.33939170260E+03  0.25500000920E-02 0.  1.
    10030    2    1    2    0    0  0.00000000000E+00  0.00000000000E+00  0.20315448341E+04  0.27103282393E+04  0.17940749014E+04 0.  0.
        2    1    3    3  502    0  0.20986831775E+02 -0.48328581617E+03  0.21570047149E+04  0.22105824950E+04  0.25500000920E-02 0. -1.
       -2    1    3    3    0  502 -0.20986831775E+02  0.48328581617E+03 -0.12545988081E+03  0.49974574427E+03  0.25500000920E-02 0.  1.
</event>
<event>
 5   0  0.4623665E-05  0.1800544E+04  0.7818609E-02  0.8706010E-01
       -1   -1    0    0    0  501  0.00000000000E+00  0.00000000000E+00  0.74909403407E+03  0.74909403409E+03  0.50400001928E-02 0. -1.
        1   -1    0    0  501    0  0.00000000000E+00  0.00000000000E+00 -0.10819598786E+04  0.10819598786E+04  0.50400001928E-02 0.  1.
    10030    2    1    2    0    0  0.00000000000E+00  0.00000000000E+00 -0.33286584454E+03  0.18310539127E+04  0.18005440180E+04 0.  0.
        5    1    3    3  502    0  0.35419467525E+03  0.49792328636E+03 -0.83876046463E+03  0.10377488492E+04  0.46999998093E+01 0.  1.
       -5    1    3    3    0  502 -0.35419467525E+03 -0.49792328636E+03  0.50589462010E+03  0.79330506346E+03  0.46999998093E+01 0. -1.
</event>
<event>
 5   0  0.4494757E-05  0.1802395E+04  0.7818609E-02  0.8705027E-01
        1   -1    0    0  501    0  0.00000000000E+00  0.00000000000E+00  0.68444037153E+03  0.68444037155E+03  0.50400001928E-02 0.  1.
       -1   -1    0    0    0  501  0.00000000000E+00  0.00000000000E+00 -0.11865997520E+04  0.11865997520E+04  0.50400001928E-02 0. -1.
    10030    2    1    2    0    0  0.00000000000E+00  0.00000000000E+00 -0.50215938042E+03  0.18710401235E+04  0.18023948237E+04 0.  0.
        4    1    3    3  502    0  0.29424803886E+03 -0.28326985357E+03 -0.10850000608E+04  0.11593319038E+04  0.12699999809E+01 0. -1.
       -4    1    3    3    0  502 -0.29424803886E+03  0.28326985357E+03  0.58284068042E+03  0.71170821969E+03  0.12699999809E+01 0.  1.
</event>
<event>
 5   0  0.4335117E-05  0.1817270E+04  0.7818609E-02  0.8697169E-01
       -1   -1    0    0    0  501  0.00000000000E+00  0.00000000000E+00  0.46587499321E+03  0.46587499323E+03  0.50400001928E-02 0. -1.
        1   -1    0    0  501    0  0.00000000000E+00  0.00000000000E+00 -0.17721863627E+04  0.17721863627E+04  0.50400001928E-02 0.  1.
    10030    2    1    2    0    0  0.00000000000E+00  0.00000000000E+00 -0.13063113694E+04  0.22380613559E+04  0.18172697210E+04 0.  0.
        3    1    3    3  502    0  0.21455314641E+03  0.85331002670E+03 -0.37381805768E+03  0.95598692709E+03  0.10100000352E+00 0. -1.
       -3    1    3    3    0  502 -0.21455314641E+03 -0.85331002670E+03 -0.93249331177E+03  0.12820744288E+04  0.10100000352E+00 0.  1.
</event>
<event>
 5   0  0.4623665E-05  0.1805266E+04  0.7818609E-02  0.8703504E-01
       -1   -1    0    0    0  501  0.00000000000E+00  0.00000000000E+00  0.65953787130E+03  0.65953787132E+03  0.50400001928E-02 0. -1.
        1   -1    0    0  501    0  0.00000000000E+00  0.00000000000E+00 -0.12353284593E+04  0.12353284593E+04  0.50400001928E-02 0.  1.
    10030    2    1    2    0    0  0.00000000000E+00  0.00000000000E+00 -0.57579058800E+03  0.18948663306E+04  0.18052655233E+04 0.  0.
        5    1    3    3  502    0 -0.48659859904E+03 -0.73544976228E+03 -0.48995786756E+03  0.10088336589E+04  0.46999998093E+01 0.  1.
       -5    1    3    3    0  502  0.48659859904E+03  0.73544976228E+03 -0.85832720446E+02  0.88603267170E+03  0.46999998093E+01 0. -1.
</event>
<event>
 5   0  0.8802655E-05  0.1792682E+04  0.7818609E-02  0.8710201E-01
       -2   -1    0    0    0  501  0.00000000000E+00  0.00000000000E+00  0.85371825935E+03  0.85371825935E+03  0.25500000920E-02 0. -1.
        2   -1    0    0  501    0  0.00000000000E+00  0.00000000000E+00 -0.94109129903E+03  0.94109129903E+03  0.25500000920E-02 0.  1.
    10030    2    1    2    0    0  0.00000000000E+00  0.00000000000E+00 -0.87373039679E+02  0.17948095584E+04  0.17926815955E+04 0.  0.
        2    1    3    3  502    0 -0.54579081759E+03  0.56238350814E+03  0.39187471447E+03  0.87620124324E+03  0.25500000920E-02 0. -1.
       -2    1    3    3    0  502  0.54579081759E+03 -0.56238350814E+03 -0.47924775415E+03  0.91860831515E+03  0.25500000920E-02 0.  1.
</event>
<event>
 5   0  0.8802655E-05  0.1796955E+04  0.7818609E-02  0.8707921E-01
        2   -1    0    0  501    0  0.00000000000E+00  0.00000000000E+00  0.16136897103E+04  0.16136897103E+04  0.25500000920E-02 0.  1.
       -2   -1    0    0    0  501  0.00000000000E+00  0.00000000000E+00 -0.50025815449E+03  0.50025815449E+03  0.25500000920E-02 0. -1.
    10030    2    1    2    0    0  0.00000000000E+00  0.00000000000E+00  0.11134315558E+04  0.21139478648E+04  0.17969545753E+04 0.  0.
        2    1    3    3  502    0 -0.82066733266E+03  0.22621877816E+03  0.89480022466E+03  0.12350454439E+04  0.25500000920E-02 0.  1.
       -2    1    3    3    0  502  0.82066733266E+03 -0.22621877816E+03  0.21863133117E+03  0.87890242090E+03  0.25500000920E-02 0. -1.
</event>
<event>
 5   0  0.4494757E-05  0.1797129E+04  0.7818609E-02  0.8707828E-01
       -1   -1    0    0    0  501  0.00000000000E+00  0.00000000000E+00  0.75712980211E+03  0.75712980213E+03  0.50400001928E-02 0.  1.
        1   -1    0    0  501    0  0.00000000000E+00  0.00000000000E+00 -0.10664200567E+04  0.10664200567E+04  0.50400001928E-02 0. -1.
    10030    2    1    2    0    0  0.00000000000E+00  0.00000000000E+00 -0.30929025461E+03  0.18235498589E+04  0.17971292736E+04 0.  0.
        4    1    3    3  502    0  0.34595622705E+03  0.81226048021E+03 -0.32432796977E+03  0.94055464681E+03  0.12699999809E+01 0.  1.
       -4    1    3    3    0  502 -0.34595622705E+03 -0.81226048021E+03  0.15037715157E+02  0.88299521206E+03  0.12699999809E+01 0. -1.
</event>
<event>
 5   0  0.4535100E-05  0.1803027E+04  0.7818609E-02  0.8704692E-01
        1   -1    0    0  501    0  0.00000000000E+00  0.00000000000E+00  0.18927429934E+04  0.18927429934E+04  0.50400001928E-02 0.  1.
       -1   -1    0    0    0  501  0.00000000000E+00  0.00000000000E+00 -0.42939066633E+03  0.42939066636E+03  0.50400001928E-02 0. -1.
    10030    2    1    2    0    0  0.00000000000E+00  0.00000000000E+00  0.14633523271E+04  0.23221336598E+04  0.18030265391E+04 0.  0.
        1    1    3    3  502    0 -0.73712647038E+03 -0.38134436895E+03  0.11850990939E+04  0.14468029664E+04  0.50400001928E-02 0.  1.
       -1    1    3    3    0  502  0.73712647038E+03  0.38134436895E+03  0.27825323320E+03  0.87533069344E+03  0.50400001928E-02 0. -1.
</event>
<event>
 5   0  0.4535100E-05  0.1798970E+04  0.7818609E-02  0.8706848E-01
        1   -1    0    0  501    0  0.00000000000E+00  0.00000000000E+00  0.58859916675E+03  0.58859916677E+03  0.50400001928E-02 0.  1.
       -1   -1    0    0    0  501  0.00000000000E+00  0.00000000000E+00 -0.13745735530E+04  0.13745735530E+04  0.50400001928E-02 0. -1.
    10030    2    1    2    0    0  0.00000000000E+00  0.00000000000E+00 -0.78597438626E+03  0.19631727198E+04  0.17989695361E+04 0.  0.
        1    1    3    3  502    0 -0.62010704584E+03  0.17375349306E+03  0.29230459347E+03  0.70722344421E+03  0.50400001928E-02 0.  1.
       -1    1    3    3    0  502  0.62010704584E+03 -0.17375349306E+03 -0.10782789797E+04  0.12559492756E+04  0.50400001928E-02 0. -1.
</event>
<event>
 5   0  0.4623665E-05  0.1803714E+04  0.7818609E-02  0.8704327E-01
       -1   -1    0    0    0  501  0.00000000000E+00  0.00000000000E+00  0.81420981180E+03  0.81420981181E+03  0.50400001928E-02 0. -1.
        1   -1    0    0  501    0  0.00000000000E+00  0.00000000000E+00 -0.99893874948E+03  0.99893874949E+03  0.50400001928E-02 0.  1.
    10030    2    1    2    0    0  0.00000000000E+00  0.00000000000E+00 -0.18472893768E+03  0.18131485613E+04  0.18037136483E+04 0.  0.
        5    1    3    3  502    0  0.17459491813E+03 -0.28165217854E+03 -0.93550826254E+03  0.99247626389E+03  0.46999998093E+01 0.  1.
       -5    1    3    3    0  502 -0.17459491813E+03  0.28165217854E+03  0.75077932486E+03  0.82067229742E+03  0.46999998093E+01 0. -1.
</event>
<event>
 5   0  0.8892280E-05  0.1801306E+04  0.7818609E-02  0.8705605E-01
        2   -1    0    0  501    0  0.00000000000E+00  0.00000000000E+00  0.20751610958E+04  0.20751610958E+04  0.25500000920E-02 0.  1.
       -2   -1    0    0    0  501  0.00000000000E+00  0.00000000000E+00 -0.39089792740E+03  0.39089792741E+03  0.25500000920E-02 0. -1.
    10030    2    1    2    0    0  0.00000000000E+00  0.00000000000E+00  0.16842631684E+04  0.24660590232E+04  0.18013063830E+04 0.  0.
        4    1    3    3  502    0 -0.11750030195E+03 -0.89278770994E+03  0.86577844229E+03  0.12491797869E+04  0.12699999809E+01 0. -1.
       -4    1    3    3    0  502  0.11750030195E+03  0.89278770994E+03  0.81848472611E+03  0.12168792363E+04  0.12699999809E+01 0.  1.
</event>
<event>
 5   0  0.9147432E-05  0.1798306E+04  0.7818609E-02  0.8707201E-01
       -2   -1    0    0    0  501  0.00000000000E+00  0.00000000000E+00  0.54810133816E+03  0.54810133817E+03  0.25500000920E-02 0. -1.
        2   -1    0    0  501    0  0.00000000000E+00  0.00000000000E+00 -0.14750480035E+04  0.14750480035E+04  0.25500000920E-02 0.  1.
    10030    2    1    2    0    0  0.00000000000E+00  0.00000000000E+00 -0.92694666538E+03  0.20231493417E+04  0.17983056299E+04 0.  0.
        3    1    3    3  502    0  0.38432106086E+03 -0.33248122748E+02 -0.13772225848E+04  0.14302273154E+04  0.10100000352E+00 0.  1.
       -3    1    3    3    0  502 -0.38432106086E+03  0.33248122748E+02  0.45027591941E+03  0.59292202631E+03  0.10100000352E+00 0. -1.
</event>
<event>
 5   0  0.8893075E-05  0.1789466E+04  0.7818609E-02  0.8711922E-01
        2   -1    0    0  501    0  0.00000000000E+00  0.00000000000E+00  0.91448990587E+03  0.91448990587E+03  0.25500000920E-02 0.  1.
       -2   -1    0    0    0  501  0.00000000000E+00  0.00000000000E+00 -0.87540284323E+03  0.87540284324E+03  0.25500000920E-02 0. -1.
    10030    2    1    2    0    0  0.00000000000E+00  0.00000000000E+00  0.39087062636E+02  0.17898927491E+04  0.17894659133E+04 0.  0.
        1    1    3    3  502    0  0.53720534257E+03 -0.21730091093E+03 -0.66233587819E+03  0.88005572638E+03  0.50400001928E-02 0. -1.
       -1    1    3    3    0  502 -0.53720534257E+03  0.21730091093E+03  0.70142294082E+03  0.90983702272E+03  0.50400001928E-02 0.  1.
</event>
<event>
 5   0  0.9147432E-05  0.1747800E+04  0.7818609E-02  0.8734562E-01
        2   -1    0    0  501    0  0.00000000000E+00  0.00000000000E+00  0.10669994963E+04  0.10669994963E+04  0.25500000920E-02 0.  1.
       -2   -1    0    0    0  501  0.00000000000E+00  0.00000000000E+00 -0.71574636401E+03  0.71574636401E+03  0.25500000920E-02 0. -1.
    10030    2    1    2    0    0  0.00000000000E+00  0.00000000000E+00  0.35125313229E+03  0.17827458603E+04  0.17477997710E+04 0.  0.
        3    1    3    3  502    0  0.55131977536E+03  0.99760837236E+02  0.85970390756E+03  0.10261561958E+04  0.10100000352E+00 0.  1.
       -3    1    3    3    0  502 -0.55131977536E+03 -0.99760837236E+02 -0.50845077527E+03  0.75658966449E+03  0.10100000352E+00 0. -1.
</event>
<event>
 5   0  0.9184414E-05  0.1796161E+04  0.7818609E-02  0.8708344E-01
        2   -1    0    0  501    0  0.00000000000E+00  0.00000000000E+00  0.70999772227E+03  0.70999772228E+03  0.25500000920E-02 0. -1.
       -2   -1    0    0    0  501  0.00000000000E+00  0.00000000000E+00 -0.11359876256E+04  0.11359876256E+04  0.25500000920E-02 0.  1.
    10030    2    1    2    0    0  0.00000000000E+00  0.00000000000E+00 -0.42598990337E+03  0.18459853479E+04  0.17961610471E+04 0.  0.
        5    1    3    3  502    0 -0.78997455924E+03  0.34908304246E+03 -0.46601043549E+03  0.98137994210E+03  0.46999998093E+01 0. -1.
       -5    1    3    3    0  502  0.78997455924E+03 -0.34908304246E+03  0.40020532120E+02  0.86460540582E+03  0.46999998093E+01 0.  1.
</event>
<event>
 5   0  0.3270375E-05  0.1809149E+04  0.7818609E-02  0.8701449E-01
        4   -1    0    0  501    0  0.00000000000E+00  0.00000000000E+00  0.11260906539E+04  0.11260913700E+04  0.12699999809E+01 0. -1.
       -4   -1    0    0    0  501  0.00000000000E+00  0.00000000000E+00 -0.72663145152E+03  0.72663256136E+03  0.12699999809E+01 0.  1.
    10030    2    1    2    0    0  0.00000000000E+00  0.00000000000E+00  0.39945920235E+03  0.18527239314E+04  0.18091485046E+04 0.  0.
        4    1    3    3  502    0 -0.89455142972E+03  0.92556132552E+02  0.10010298162E+03  0.90488182539E+03  0.12699999809E+01 0.  1.
       -4    1    3    3    0  502  0.89455142972E+03 -0.92556132552E+02  0.29935622073E+03  0.94784210598E+03  0.12699999809E+01 0. -1.
</event>
<event>
 5   0  0.4335117E-05  0.1799707E+04  0.7818609E-02  0.8706455E-01
        1   -1    0    0  501    0  0.00000000000E+00  0.00000000000E+00  0.16062647956E+04  0.16062647956E+04  0.50400001928E-02 0. -1.
       -1   -1    0    0    0  501  0.00000000000E+00  0.00000000000E+00 -0.50411121312E+03  0.50411121314E+03  0.50400001928E-02 0.  1.
    10030    2    1    2    0    0  0.00000000000E+00  0.00000000000E+00  0.11021535825E+04  0.21103760087E+04  0.17997067480E+04 0.  0.
        3    1    3    3  502    0  0.25717548440E+03 -0.29232305524E+03  0.15023791807E+04  0.15520100552E+04  0.10100000352E+00 0. -1.
       -3    1    3    3    0  502 -0.25717548440E+03  0.29232305524E+03 -0.40022559827E+03  0.55836595358E+03  0.10100000352E+00 0.  1.
</event>
<event>
 5   0  0.8893075E-05  0.1799417E+04  0.7818609E-02  0.8706609E-01
       -2   -1    0    0    0  501  0.00000000000E+00  0.00000000000E+00  0.89917842071E+03  0.89917842072E+03  0.25500000920E-02 0. -1.
        2   -1    0    0  501    0  0.00000000000E+00  0.00000000000E+00 -0.90023912658E+03  0.90023912658E+03  0.25500000920E-02 0.  1.
    10030    2    1    2    0    0  0.00000000000E+00  0.00000000000E+00 -0.10607058627E+01  0.17994175473E+04  0.17994172347E+04 0.  0.
        1    1    3    3  502    0  0.35900074827E+03  0.81775466015E+03  0.10842550397E+03  0.89964454724E+03  0.50400001928E-02 0. -1.
       -1    1    3    3    0  502 -0.35900074827E+03 -0.81775466015E+03 -0.10948620983E+03  0.89977300005E+03  0.50400001928E-02 0.  1.
</event>
<event>
 5   0  0.4335117E-05  0.1800728E+04  0.7818609E-02  0.8705912E-01
       -1   -1    0    0    0  501  0.00000000000E+00  0.00000000000E+00  0.95763033564E+03  0.95763033566E+03  0.50400001928E-02 0.  1.
        1   -1    0    0  501    0  0.00000000000E+00  0.00000000000E+00 -0.84652207060E+03  0.84652207062E+03  0.50400001928E-02 0. -1.
    10030    2    1    2    0    0  0.00000000000E+00  0.00000000000E+00  0.11110826504E+03  0.18041524063E+04  0.18007278691E+04 0.  0.
        3    1    3    3  502    0  0.53877727801E+03  0.72068297776E+03  0.24025338256E+02  0.90013451040E+03  0.10100000352E+00 0. -1.
       -3    1    3    3    0  502 -0.53877727801E+03 -0.72068297776E+03  0.87082926785E+02  0.90401789588E+03  0.10100000352E+00 0.  1.
</event>
<event>
 5   0  0.4578107E-05  0.1800692E+04  0.7818609E-02  0.8705932E-01
       -1   -1    0    0    0  501  0.00000000000E+00  0.00000000000E+00  0.55593426410E+03  0.55593426412E+03  0.50400001928E-02 0. -1.
        1   -1    0    0  501    0  0.00000000000E+00  0.00000000000E+00 -0.14581271807E+04  0.14581271807E+04  0.50400001928E-02 0.  1.
    10030    2    1    2    0    0  0.00000000000E+00  0.00000000000E+00 -0.90219291658E+03  0.20140614448E+04  0.18006919350E+04 0.  0.
        2    1    3    3  502    0  0.35232609101E+03 -0.79224143250E+03 -0.17977784402E+03  0.88549434497E+03  0.25500000920E-02 0.  1.
       -2    1    3    3    0  502 -0.35232609101E+03  0.79224143250E+03 -0.72241507256E+03  0.11285670998E+04  0.25500000920E-02 0. -1.
</event>
<event>
 5   0  0.4494757E-05  0.1801814E+04  0.7818609E-02  0.8705335E-01
       -1   -1    0    0    0  501  0.00000000000E+00  0.00000000000E+00  0.74888621273E+03  0.74888621274E+03  0.50400001928E-02 0.  1.
        1   -1    0    0  501    0  0.00000000000E+00  0.00000000000E+00 -0.10837877155E+04  0.10837877155E+04  0.50400001928E-02 0. -1.
    10030    2    1    2    0    0  0.00000000000E+00  0.00000000000E+00 -0.33490150281E+03  0.18326739283E+04  0.18018142831E+04 0.  0.
        4    1    3    3  502    0  0.63400366736E+03 -0.54365649688E+03  0.17613502697E+03  0.85355034851E+03  0.12699999809E+01 0.  1.
       -4    1    3    3    0  502 -0.63400366736E+03  0.54365649688E+03 -0.51103652978E+03  0.97912357978E+03  0.12699999809E+01 0. -1.
</event>
<event>
 5   0  0.8892280E-05  0.1796321E+04  0.7818609E-02  0.8708258E-01
       -2   -1    0    0    0  501  0.00000000000E+00  0.00000000000E+00  0.67408922901E+03  0.67408922901E+03  0.25500000920E-02 0. -1.
        2   -1    0    0  501    0  0.00000000000E+00  0.00000000000E+00 -0.11967150278E+04  0.11967150278E+04  0.25500000920E-02 0.  1.
    10030    2    1    2    0    0  0.00000000000E+00  0.00000000000E+00 -0.52262579881E+03  0.18708042568E+04  0.17963214751E+04 0.  0.
        4    1    3    3  502    0 -0.13971506632E+03  0.61070604491E+03  0.40896363183E+03  0.74815442129E+03  0.12699999809E+01 0. -1.
       -4    1    3    3    0  502  0.13971506632E+03 -0.61070604491E+03 -0.93158943064E+03  0.11226498355E+04  0.12699999809E+01 0.  1.
</event>
<event>
 5   0  0.4623665E-05  0.1798299E+04  0.7818609E-02  0.8707204E-01
        1   -1    0    0  501    0  0.00000000000E+00  0.00000000000E+00  0.15561848894E+04  0.15561848894E+04  0.50400001928E-02 0. -1.
       -1   -1    0    0    0  501  0.00000000000E+00  0.00000000000E+00 -0.51952050327E+03  0.51952050329E+03  0.50400001928E-02 0.  1.
    10030    2    1    2    0    0  0.00000000000E+00  0.00000000000E+00  0.10366643861E+04  0.20757053927E+04  0.17982991486E+04 0.  0.
        5    1    3    3  502    0 -0.37888472915E+01  0.35120032929E+03  0.14737166520E+04  0.15149979825E+04  0.46999998093E+01 0. -1.
       -5    1    3    3    0  502  0.37888472915E+01 -0.35120032929E+03 -0.43705226591E+03  0.56070741014E+03  0.46999998093E+01 0.  1.
</event>
<event>
 5   0  0.4623665E-05  0.1805506E+04  0.7818609E-02  0.8703377E-01
        1   -1    0    0  501    0  0.00000000000E+00  0.00000000000E+00  0.12738231272E+04  0.12738231272E+04  0.50400001928E-02 0. -1.
       -1   -1    0    0    0  501  0.00000000000E+00  0.00000000000E+00 -0.63977687535E+03  0.63977687537E+03  0.50400001928E-02 0.  1.
    10030    2    1    2    0    0  0.00000000000E+00  0.00000000000E+00  0.63404625181E+03  0.19136000025E+04  0.18055055581E+04 0.  0.
        5    1    3    3  502    0  0.76400795084E+03  0.35695438610E+03  0.65851807550E+03  0.10699498719E+04  0.46999998093E+01 0. -1.
       -5    1    3    3    0  502 -0.76400795084E+03 -0.35695438610E+03 -0.24471823690E+02  0.84365013060E+03  0.46999998093E+01 0.  1.
</event>
<event>
 5   0  0.4623665E-05  0.1799234E+04  0.7818609E-02  0.8706707E-01
       -1   -1    0    0    0  501  0.00000000000E+00  0.00000000000E+00  0.53089869800E+03  0.53089869802E+03  0.50400001928E-02 0.  1.
        1   -1    0    0  501    0  0.00000000000E+00  0.00000000000E+00 -0.15244166019E+04  0.15244166019E+04  0.50400001928E-02 0. -1.
    10030    2    1    2    0    0  0.00000000000E+00  0.00000000000E+00 -0.99351790389E+03  0.20553152999E+04  0.17992340472E+04 0.  0.
        5    1    3    3  502    0 -0.85342372035E+03 -0.25309623902E+03 -0.64525695388E+03  0.10994400298E+04  0.46999998093E+01 0. -1.
       -5    1    3    3    0  502  0.85342372035E+03  0.25309623902E+03 -0.34826095001E+03  0.95587527009E+03  0.46999998093E+01 0.  1.
</event>
<event>
 5   0  0.9184414E-05  0.1793083E+04  0.7818609E-02  0.8709987E-01
       -2   -1    0    0    0  501  0.00000000000E+00  0.00000000000E+00  0.14613773679E+04  0.14613773679E+04  0.25500000920E-02 0.  1.
        2   -1    0    0  501    0  0.00000000000E+00  0.00000000000E+00 -0.55001967657E+03  0.55001967658E+03  0.25500000920E-02 0. -1.
    10030    2    1    2    0    0  0.00000000000E+00  0.00000000000E+00  0.91135769137E+03  0.20113970445E+04  0.17930826052E+04 0.  0.
        5    1    3    3  502    0  0.48753173211E+02 -0.23524011090E+02  0.14595286823E+04  0.14605397343E+04  0.46999998093E+01 0.  1.
       -5    1    3    3    0  502 -0.48753173211E+02  0.23524011090E+02 -0.54817099091E+03  0.55085731026E+03  0.46999998093E+01 0. -1.
</event>
<event>
 5   0  0.8893075E-05  0.1789100E+04  0.7818609E-02  0.8712118E-01
       -2   -1    0    0    0  501  0.00000000000E+00  0.00000000000E+00  0.65738924508E+03  0.65738924508E+03  0.25500000920E-02 0. -1.
        2   -1    0    0  501    0  0.00000000000E+00  0.00000000000E+00 -0.12172685655E+04  0.12172685655E+04  0.25500000920E-02 0.  1.
    10030    2    1    2    0    0  0.00000000000E+00  0.00000000000E+00 -0.55987932038E+03  0.18746578105E+04  0.17890995090E+04 0.  0.
        1    1    3    3  502    0 -0.24298960554E+03 -0.43212619068E+03  0.50027781916E+03  0.70431164227E+03  0.50400001928E-02 0. -1.
       -1    1    3    3    0  502  0.24298960554E+03  0.43212619068E+03 -0.10601571395E+04  0.11703461683E+04  0.50400001928E-02 0.  1.
</event>
<event>
 5   0  0.4578107E-05  0.1801394E+04  0.7818609E-02  0.8705559E-01
       -1   -1    0    0    0  501  0.00000000000E+00  0.00000000000E+00  0.84836880949E+03  0.84836880950E+03  0.50400001928E-02 0.  1.
        1   -1    0    0  501    0  0.00000000000E+00  0.00000000000E+00 -0.95625244247E+03  0.95625244248E+03  0.50400001928E-02 0. -1.
    10030    2    1    2    0    0  0.00000000000E+00  0.00000000000E+00 -0.10788363298E+03  0.18046212520E+04  0.18013936230E+04 0.  0.
        2    1    3    3  502    0 -0.88514943385E+03 -0.16354663262E+03 -0.85900777347E+02  0.90422119243E+03  0.25500000920E-02 0. -1.
       -2    1    3    3    0  502  0.88514943385E+03  0.16354663262E+03 -0.21982855636E+02  0.90040005955E+03  0.25500000920E-02 0.  1.
</event>
<event>
 5   0  0.3270375E-05  0.1809714E+04  0.7818609E-02  0.8701151E-01
        4   -1    0    0  501    0  0.00000000000E+00  0.00000000000E+00  0.19435494735E+04  0.19435498885E+04  0.12699999809E+01 0.  1.
       -4   -1    0    0    0  501  0.00000000000E+00  0.00000000000E+00 -0.42127211457E+03  0.42127402888E+03  0.12699999809E+01 0. -1.
    10030    2    1    2    0    0  0.00000000000E+00  0.00000000000E+00  0.15222773590E+04  0.23648239174E+04  0.18097137349E+04 0.  0.
        2    1    3    3  502    0  0.46584688291E+03  0.75665578257E+02 -0.24770068967E+03  0.53300490590E+03  0.25500000920E-02 0. -1.
       -2    1    3    3    0  502 -0.46584688291E+03 -0.75665578257E+02  0.17699780486E+04  0.18318190114E+04  0.25500000920E-02 0.  1.
</event>
<event>
 5   0  0.8893075E-05  0.1803822E+04  0.7818609E-02  0.8704270E-01
        2   -1    0    0  501    0  0.00000000000E+00  0.00000000000E+00  0.11384863832E+04  0.11384863832E+04  0.25500000920E-02 0. -1.
       -2   -1    0    0    0  501  0.00000000000E+00  0.00000000000E+00 -0.71449564646E+03  0.71449564647E+03  0.25500000920E-02 0.  1.
    10030    2    1    2    0    0  0.00000000000E+00  0.00000000000E+00  0.42399073671E+03  0.18529820296E+04  0.18038221246E+04 0.  0.
        1    1    3    3  502    0 -0.18852359400E+03  0.87849141683E+03  0.13140181124E+03  0.90804997162E+03  0.50400001928E-02 0. -1.
       -1    1    3    3    0  502  0.18852359400E+03 -0.87849141683E+03  0.29258892548E+03  0.94493205802E+03  0.50400001928E-02 0.  1.
</event>
<event>
 5   0  0.3270375E-05  0.1788336E+04  0.7818609E-02  0.8712527E-01
        3   -1    0    0  501    0  0.00000000000E+00  0.00000000000E+00  0.12081378985E+04  0.12081379027E+04  0.10100000352E+00 0. -1.
       -3   -1    0    0    0  501  0.00000000000E+00  0.00000000000E+00 -0.66179201751E+03  0.66179202522E+03  0.10100000352E+00 0.  1.
    10030    2    1    2    0    0  0.00000000000E+00  0.00000000000E+00  0.54634588097E+03  0.18699299279E+04  0.17883355708E+04 0.  0.
        5    1    3    3  502    0 -0.70817650556E+03  0.24986293161E+03  0.78067162088E+03  0.10832431478E+04  0.46999998093E+01 0. -1.
       -5    1    3    3    0  502  0.70817650556E+03 -0.24986293161E+03 -0.23432573991E+03  0.78668678011E+03  0.46999998093E+01 0.  1.
</event>
<event>
 5   0  0.8893075E-05  0.1797979E+04  0.7818609E-02  0.8707375E-01
       -2   -1    0    0    0  501  0.00000000000E+00  0.00000000000E+00  0.70491002901E+03  0.70491002902E+03  0.25500000920E-02 0. -1.
        2   -1    0    0  501    0  0.00000000000E+00  0.00000000000E+00 -0.11465033658E+04  0.11465033658E+04  0.25500000920E-02 0.  1.
    10030    2    1    2    0    0  0.00000000000E+00  0.00000000000E+00 -0.44159333676E+03  0.18514133948E+04  0.17979785547E+04 0.  0.
        1    1    3    3  502    0  0.30476541837E+03 -0.19431671919E+03  0.62679486870E+03  0.72354181292E+03  0.50400001928E-02 0. -1.
       -1    1    3    3    0  502 -0.30476541837E+03  0.19431671919E+03 -0.10683882055E+04  0.11278715819E+04  0.50400001928E-02 0.  1.
</event>
<event>
 5   0  0.9147432E-05  0.1802667E+04  0.7818609E-02  0.8704882E-01
       -2   -1    0    0    0  501  0.00000000000E+00  0.00000000000E+00  0.64786695547E+03  0.64786695548E+03  0.25500000920E-02 0. -1.
        2   -1    0    0  501    0  0.00000000000E+00  0.00000000000E+00 -0.12539650109E+04  0.12539650109E+04  0.25500000920E-02 0.  1.
    10030    2    1    2    0    0  0.00000000000E+00  0.00000000000E+00 -0.60609805545E+03  0.19018319664E+04  0.18026674612E+04 0.  0.
        3    1    3    3  502    0 -0.16905913759E+03 -0.73755975565E+03  0.21361193621E+03  0.78626042420E+03  0.10100000352E+00 0. -1.
       -3    1    3    3    0  502  0.16905913759E+03  0.73755975565E+03 -0.81970999166E+03  0.11155715422E+04  0.10100000352E+00 0.  1.
</event>
<event>
 5   0  0.4494757E-05  0.1796427E+04  0.7818609E-02  0.8708202E-01
       -1   -1    0    0    0  501  0.00000000000E+00  0.00000000000E+00  0.67300517697E+03  0.67300517699E+03  0.50400001928E-02 0.  1.
        1   -1    0    0  501    0  0.00000000000E+00  0.00000000000E+00 -0.11987831665E+04  0.11987831665E+04  0.50400001928E-02 0. -1.
    10030    2    1    2    0    0  0.00000000000E+00  0.00000000000E+00 -0.52577798948E+03  0.18717883435E+04  0.17964267612E+04 0.  0.
        4    1    3    3  502    0 -0.46706846120E+03 -0.11901740903E+03  0.52684345234E+03  0.71406143102E+03  0.12699999809E+01 0.  1.
       -4    1    3    3    0  502  0.46706846120E+03  0.11901740903E+03 -0.10526214418E+04  0.11577269124E+04  0.12699999809E+01 0. -1.
</event>
<event>
 5   0  0.4494757E-05  0.1798807E+04  0.7818609E-02  0.8706934E-01
       -1   -1    0    0    0  501  0.00000000000E+00  0.00000000000E+00  0.38798847204E+03  0.38798847207E+03  0.50400001928E-02 0. -1.
        1   -1    0    0  501    0  0.00000000000E+00  0.00000000000E+00 -0.20849245307E+04  0.20849245307E+04  0.50400001928E-02 0.  1.
    10030    2    1    2    0    0  0.00000000000E+00  0.00000000000E+00 -0.16969360587E+04  0.24729130028E+04  0.17988070303E+04 0.  0.
        4    1    3    3  502    0  0.79538711823E+03  0.28613502882E+03 -0.12708796917E+04  0.15263193395E+04  0.12699999809E+01 0. -1.
       -4    1    3    3    0  502 -0.79538711823E+03 -0.28613502882E+03 -0.42605636698E+03  0.94659366325E+03  0.12699999809E+01 0.  1.
</event>
<event>
 5   0  0.4535100E-05  0.1798671E+04  0.7818609E-02  0.8707006E-01
       -1   -1    0    0    0  501  0.00000000000E+00  0.00000000000E+00  0.84656423301E+03  0.84656423302E+03  0.50400001928E-02 0. -1.
        1   -1    0    0  501    0  0.00000000000E+00  0.00000000000E+00 -0.95539671673E+03  0.95539671675E+03  0.50400001928E-02 0.  1.
    10030    2    1    2    0    0  0.00000000000E+00  0.00000000000E+00 -0.10883248373E+03  0.18019609498E+04  0.17986713860E+04 0.  0.
        1    1    3    3  502    0 -0.34668559653E+03 -0.98735416112E+02 -0.87985582598E+03  0.95083429670E+03  0.50400001928E-02 0.  1.
       -1    1    3    3    0  502  0.34668559653E+03  0.98735416112E+02  0.77102334226E+03  0.85112665307E+03  0.50400001928E-02 0. -1.
</event>
<event>
 5   0  0.9184414E-05  0.1809501E+04  0.7818609E-02  0.8701263E-01
        2   -1    0    0  501    0  0.00000000000E+00  0.00000000000E+00  0.10758738101E+04  0.10758738101E+04  0.25500000920E-02 0.  1.
       -2   -1    0    0    0  501  0.00000000000E+00  0.00000000000E+00 -0.76084514182E+03  0.76084514183E+03  0.25500000920E-02 0. -1.
    10030    2    1    2    0    0  0.00000000000E+00  0.00000000000E+00  0.31502866830E+03  0.18367189519E+04  0.18095008833E+04 0.  0.
        5    1    3    3  502    0  0.80086890204E+03 -0.41449834872E+03  0.83260770315E+02  0.90562372165E+03  0.46999998093E+01 0.  1.
       -5    1    3    3    0  502 -0.80086890204E+03  0.41449834872E+03  0.23176789798E+03  0.93109523030E+03  0.46999998093E+01 0. -1.
</event>
<event>
 5   0  0.4535100E-05  0.1798858E+04  0.7818609E-02  0.8706907E-01
       -1   -1    0    0    0  501  0.00000000000E+00  0.00000000000E+00  0.37449452415E+03  0.37449452419E+03  0.50400001928E-02 0.  1.
        1   -1    0    0  501    0  0.00000000000E+00  0.00000000000E+00 -0.21601730243E+04  0.21601730243E+04  0.50400001928E-02 0. -1.
    10030    2    1    2    0    0  0.00000000000E+00  0.00000000000E+00 -0.17856785001E+04  0.25346675485E+04  0.17988584923E+04 0.  0.
        1    1    3    3  502    0 -0.53827648209E+03  0.64700102323E+03 -0.13397990636E+04  0.15822178820E+04  0.50400001928E-02 0. -1.
       -1    1    3    3    0  502  0.53827648209E+03 -0.64700102323E+03 -0.44587943650E+03  0.95244966646E+03  0.50400001928E-02 0.  1.
</event>
<event>
 5   0  0.9184414E-05  0.1801615E+04  0.7818609E-02  0.8705441E-01
       -2   -1    0    0    0  501  0.00000000000E+00  0.00000000000E+00  0.39922860047E+03  0.39922860048E+03  0.25500000920E-02 0.  1.
        2   -1    0    0  501    0  0.00000000000E+00  0.00000000000E+00 -0.20325541651E+04  0.20325541651E+04  0.25500000920E-02 0. -1.
    10030    2    1    2    0    0  0.00000000000E+00  0.00000000000E+00 -0.16333255646E+04  0.24317827656E+04  0.18016145589E+04 0.  0.
        5    1    3    3  502    0 -0.37326881598E+03 -0.79458562295E+03 -0.54423542506E+03  0.10329134567E+04  0.46999998093E+01 0.  1.
       -5    1    3    3    0  502  0.37326881598E+03  0.79458562295E+03 -0.10890901396E+04  0.13988693089E+04  0.46999998093E+01 0. -1.
</event>
<event>
 5   0  0.8893075E-05  0.1810679E+04  0.7818609E-02  0.8700641E-01
        2   -1    0    0  501    0  0.00000000000E+00  0.00000000000E+00  0.11812088060E+04  0.11812088060E+04  0.25500000920E-02 0.  1.
       -2   -1    0    0    0  501  0.00000000000E+00  0.00000000000E+00 -0.69389936510E+03  0.69389936510E+03  0.25500000920E-02 0. -1.
    10030    2    1    2    0    0  0.00000000000E+00  0.00000000000E+00  0.48730944093E+03  0.18751081711E+04  0.18106794753E+04 0.  0.
        1    1    3    3  502    0 -0.76859889773E+03 -0.37573083864E+02 -0.25026937391E+03  0.80919142468E+03  0.50400001928E-02 0. -1.
       -1    1    3    3    0  502  0.76859889773E+03  0.37573083864E+02  0.73757881484E+03  0.10659167464E+04  0.50400001928E-02 0.  1.
</event>
<event>
 5   0  0.8892280E-05  0.1786331E+04  0.7818609E-02  0.8713603E-01
        2   -1    0    0  501    0  0.00000000000E+00  0.00000000000E+00  0.65873750212E+03  0.65873750212E+03  0.25500000920E-02 0. -1.
       -2   -1    0    0    0  501  0.00000000000E+00  0.00000000000E+00 -0.12110201472E+04  0.12110201472E+04  0.25500000920E-02 0.  1.
    10030    2    1    2    0    0  0.00000000000E+00  0.00000000000E+00 -0.55228264504E+03  0.18697576493E+04  0.17863307496E+04 0.  0.
        4    1    3    3  502    0 -0.27651210000E+03 -0.59161408098E+03 -0.91392329658E+03  0.11232646915E+04  0.12699999809E+01 0.  1.
       -4    1    3    3    0  502  0.27651210000E+03  0.59161408098E+03  0.36164065154E+03  0.74649295777E+03  0.12699999809E+01 0. -1.
</event>
<event>
 5   0  0.9184414E-05  0.1811595E+04  0.7818609E-02  0.8700157E-01
        2   -1    0    0  501    0  0.00000000000E+00  0.00000000000E+00  0.77481913101E+03  0.77481913101E+03  0.25500000920E-02 0.  1.
       -2   -1    0    0    0  501  0.00000000000E+00  0.00000000000E+00 -0.10589172348E+04  0.10589172348E+04  0.25500000920E-02 0. -1.
    10030    2    1    2    0    0  0.00000000000E+00  0.00000000000E+00 -0.28409810382E+03  0.18337363658E+04  0.18115952436E+04 0.  0.
        5    1    3    3  502    0 -0.43162266342E+03 -0.40754435744E+03 -0.83455732499E+03  0.10241574808E+04  0.46999998093E+01 0. -1.
       -5    1    3    3    0  502  0.43162266342E+03  0.40754435744E+03  0.55045922118E+03  0.80957888500E+03  0.46999998093E+01 0.  1.
</event>
<event>
 5   0  0.4494757E-05  0.1800385E+04  0.7818609E-02  0.8706095E-01
        1   -1    0    0  501    0  0.00000000000E+00  0.00000000000E+00  0.53089914573E+03  0.53089914575E+03  0.50400001928E-02 0.  1.
       -1   -1    0    0    0  501  0.00000000000E+00  0.00000000000E+00 -0.15263661257E+04  0.15263661257E+04  0.50400001928E-02 0. -1.
    10030    2    1    2    0    0  0.00000000000E+00  0.00000000000E+00 -0.99546697994E+03  0.20572652714E+04  0.18003849280E+04 0.  0.
        4    1    3    3  502    0  0.47233537131E+02 -0.77950101643E+03 -0.10093840685E+04  0.12762094860E+04  0.12699999809E+01 0. -1.
       -4    1    3    3    0  502 -0.47233537131E+02  0.77950101643E+03  0.13917088528E+02  0.78105578540E+03  0.12699999809E+01 0.  1.
</event>
<event>
 5   0  0.8893075E-05  0.1799390E+04  0.7818609E-02  0.8706624E-01
        2   -1    0    0  501    0  0.00000000000E+00  0.00000000000E+00  0.73808986635E+03  0.73808986635E+03  0.25500000920E-02 0. -1.
       -2   -1    0    0    0  501  0.00000000000E+00  0.00000000000E+00 -0.10966837490E+04  0.10966837490E+04  0.25500000920E-02 0.  1.
    10030    2    1    2    0    0  0.00000000000E+00  0.00000000000E+00 -0.35859388264E+03  0.18347736153E+04  0.17993900764E+04 0.  0.
        1    1    3    3  502    0 -0.27023739507E+03  0.72016345840E+03 -0.65515085460E+03  0.10103891819E+04  0.50400001928E-02 0.  1.
       -1    1    3    3    0  502  0.27023739507E+03 -0.72016345840E+03  0.29655697197E+03  0.82438443348E+03  0.50400001928E-02 0. -1.
</event>
<event>
 5   0  0.4494757E-05  0.1789124E+04  0.7818609E-02  0.8712105E-01
        1   -1    0    0  501    0  0.00000000000E+00  0.00000000000E+00  0.18955817964E+04  0.18955817964E+04  0.50400001928E-02 0.  1.
       -1   -1    0    0    0  501  0.00000000000E+00  0.00000000000E+00 -0.42216136569E+03  0.42216136572E+03  0.50400001928E-02 0. -1.
    10030    2    1    2    0    0  0.00000000000E+00  0.00000000000E+00  0.14734204307E+04  0.23177431621E+04  0.17891242550E+04 0.  0.
        4    1    3    3  502    0  0.68321441746E+03  0.23560708969E+03  0.53733473178E+02  0.72469410097E+03  0.12699999809E+01 0. -1.
       -4    1    3    3    0  502 -0.68321441746E+03 -0.23560708969E+03  0.14196869575E+04  0.15930490611E+04  0.12699999809E+01 0.  1.
</event>
<event>
 5   0  0.4578107E-05  0.1801675E+04  0.7818609E-02  0.8705409E-01
        1   -1    0    0  501    0  0.00000000000E+00  0.00000000000E+00  0.64180106708E+03  0.64180106710E+03  0.50400001928E-02 0. -1.
       -1   -1    0    0    0  501  0.00000000000E+00  0.00000000000E+00 -0.12644228534E+04  0.12644228535E+04  0.50400001928E-02 0.  1.
    10030    2    1    2    0    0  0.00000000000E+00  0.00000000000E+00 -0.62262178637E+03  0.19062239206E+04  0.18016747061E+04 0.  0.
        2    1    3    3  502    0 -0.57023981540E+03  0.52742327902E+02 -0.10470425722E+04  0.11934208596E+04  0.25500000920E-02 0.  1.
       -2    1    3    3    0  502  0.57023981540E+03 -0.52742327902E+02  0.42442078582E+03  0.71280306093E+03  0.25500000920E-02 0. -1.
</event>
<event>
 5   0  0.4578107E-05  0.1791751E+04  0.7818609E-02  0.8710698E-01
       -1   -1    0    0    0  501  0.00000000000E+00  0.00000000000E+00  0.10578378838E+04  0.10578378838E+04  0.50400001928E-02 0.  1.
        1   -1    0    0  501    0  0.00000000000E+00  0.00000000000E+00 -0.75871087791E+03  0.75871087793E+03  0.50400001928E-02 0. -1.
    10030    2    1    2    0    0  0.00000000000E+00  0.00000000000E+00  0.29912700589E+03  0.18165487617E+04  0.17917512210E+04 0.  0.
        2    1    3    3  502    0  0.32940023753E+03 -0.28716574187E+02  0.99371162790E+03  0.10472783572E+04  0.25500000920E-02 0.  1.
       -2    1    3    3    0  502 -0.32940023753E+03  0.28716574187E+02 -0.69458462200E+03  0.76927040450E+03  0.25500000920E-02 0. -1.
</event>
<event>
 5   0  0.4535100E-05  0.1807667E+04  0.7818609E-02  0.8702233E-01
       -1   -1    0    0    0  501  0.00000000000E+00  0.00000000000E+00  0.34475739341E+03  0.34475739345E+03  0.50400001928E-02 0. -1.
        1   -1    0    0  501    0  0.00000000000E+00  0.00000000000E+00 -0.23695364347E+04  0.23695364347E+04  0.50400001928E-02 0.  1.
    10030    2    1    2    0    0  0.00000000000E+00  0.00000000000E+00 -0.20247790412E+04  0.27142938281E+04  0.18076672314E+04 0.  0.
        1    1    3    3  502    0 -0.11296861752E+03 -0.45412615959E+03 -0.21734662064E+04  0.22232741234E+04  0.50400001928E-02 0.  1.
       -1    1    3    3    0  502  0.11296861752E+03  0.45412615959E+03  0.14868716512E+03  0.49101970476E+03  0.50400001928E-02 0. -1.
</event>
<event>
 5   0  0.4494757E-05  0.1791421E+04  0.7818609E-02  0.8710875E-01
        1   -1    0    0  501    0  0.00000000000E+00  0.00000000000E+00  0.72587884408E+03  0.72587884410E+03  0.50400001928E-02 0.  1.
       -1   -1    0    0    0  501  0.00000000000E+00  0.00000000000E+00 -0.11052774126E+04  0.11052774126E+04  0.50400001928E-02 0. -1.
    10030    2    1    2    0    0  0.00000000000E+00  0.00000000000E+00 -0.37939856851E+03  0.18311562567E+04  0.17914212131E+04 0.  0.
        4    1    3    3  502    0  0.22918072437E+03 -0.53880800665E+03 -0.88256744386E+03  0.10591339756E+04  0.12699999809E+01 0. -1.
       -4    1    3    3    0  502 -0.22918072437E+03  0.53880800665E+03  0.50316887536E+03  0.77202228108E+03  0.12699999809E+01 0.  1.
</event>
<event>
 5   0  0.8892280E-05  0.1798495E+04  0.7818609E-02  0.8707100E-01
       -2   -1    0    0    0  501  0.00000000000E+00  0.00000000000E+00  0.68077477470E+03  0.68077477470E+03  0.25500000920E-02 0.  1.
        2   -1    0    0  501    0  0.00000000000E+00  0.00000000000E+00 -0.11878323292E+04  0.11878323292E+04  0.25500000920E-02 0. -1.
    10030    2    1    2    0    0  0.00000000000E+00  0.00000000000E+00 -0.50705755445E+03  0.18686071039E+04  0.17984952447E+04 0.  0.
        4    1    3    3  502    0  0.17999821801E+03 -0.86347802965E+03 -0.71629456740E+02  0.88494409888E+03  0.12699999809E+01 0.  1.
       -4    1    3    3    0  502 -0.17999821801E+03  0.86347802965E+03 -0.43542809771E+03  0.98366300497E+03  0.12699999809E+01 0. -1.
</event>
<event>
 5   0  0.8802655E-05  0.1700229E+04  0.7818609E-02  0.8761234E-01
       -2   -1    0    0    0  501  0.00000000000E+00  0.00000000000E+00  0.52313857850E+03  0.52313857851E+03  0.25500000920E-02 0. -1.
        2   -1    0    0  501    0  0.00000000000E+00  0.00000000000E+00 -0.13814585224E+04  0.13814585224E+04  0.25500000920E-02 0.  1.
    10030    2    1    2    0    0  0.00000000000E+00  0.00000000000E+00 -0.85831994394E+03  0.19045971010E+04  0.17002285113E+04 0.  0.
        2    1    3    3  502    0  0.36573700061E+03 -0.12723567076E+03 -0.12769245295E+04  0.13343495507E+04  0.25500000920E-02 0.  1.
       -2    1    3    3    0  502 -0.36573700061E+03  0.12723567076E+03  0.41860458553E+03  0.57024755024E+03  0.25500000920E-02 0. -1.
</event>
<event>
 5   0  0.4623665E-05  0.1800588E+04  0.7818609E-02  0.8705987E-01
        1   -1    0    0  501    0  0.00000000000E+00  0.00000000000E+00  0.20592425747E+04  0.20592425747E+04  0.50400001928E-02 0.  1.
       -1   -1    0    0    0  501  0.00000000000E+00  0.00000000000E+00 -0.39360550927E+03  0.39360550930E+03  0.50400001928E-02 0. -1.
    10030    2    1    2    0    0  0.00000000000E+00  0.00000000000E+00  0.16656370654E+04  0.24528480840E+04  0.18005879288E+04 0.  0.
        5    1    3    3  502    0 -0.73756217746E+03 -0.14089846687E+03  0.15626392921E+03  0.76700120545E+03  0.46999998093E+01 0. -1.
       -5    1    3    3    0  502  0.73756217746E+03  0.14089846687E+03  0.15093731362E+04  0.16858468785E+04  0.46999998093E+01 0.  1.
</event>
<event>
 5   0  0.8802655E-05  0.1812941E+04  0.7818609E-02  0.8699448E-01
        2   -1    0    0  501    0  0.00000000000E+00  0.00000000000E+00  0.97420284020E+03  0.97420284021E+03  0.25500000920E-02 0.  1.
       -2   -1    0    0    0  501  0.00000000000E+00  0.00000000000E+00 -0.84344738333E+03  0.84344738334E+03  0.25500000920E-02 0. -1.
    10030    2    1    2    0    0  0.00000000000E+00  0.00000000000E+00  0.13075545687E+03  0.18176502235E+04  0.18129410762E+04 0.  0.
        2    1    3    3  502    0  0.30927470058E+03 -0.56654162600E+03  0.70348090272E+03  0.95472804238E+03  0.25500000920E-02 0.  1.
       -2    1    3    3    0  502 -0.30927470058E+03  0.56654162600E+03 -0.57272544585E+03  0.86292218116E+03  0.25500000920E-02 0. -1.
</event>
<event>
 5   0  0.4623665E-05  0.1804704E+04  0.7818609E-02  0.8703802E-01
        1   -1    0    0  501    0  0.00000000000E+00  0.00000000000E+00  0.22546038571E+04  0.22546038571E+04  0.50400001928E-02 0. -1.
       -1   -1    0    0    0  501  0.00000000000E+00  0.00000000000E+00 -0.36114496916E+03  0.36114496920E+03  0.50400001928E-02 0.  1.
    10030    2    1    2    0    0  0.00000000000E+00  0.00000000000E+00  0.18934588880E+04  0.26157488263E+04  0.18047036771E+04 0.  0.
        5    1    3    3  502    0  0.72345404715E+03  0.37992357700E+02  0.16702488309E+03  0.74347063099E+03  0.46999998093E+01 0. -1.
       -5    1    3    3    0  502 -0.72345404715E+03 -0.37992357700E+02  0.17264340049E+04  0.18722781953E+04  0.46999998093E+01 0.  1.
</event>
<event>
 5   0  0.8893075E-05  0.1802826E+04  0.7818609E-02  0.8704798E-01
        2   -1    0    0  501    0  0.00000000000E+00  0.00000000000E+00  0.15797729025E+04  0.15797729025E+04  0.25500000920E-02 0. -1.
       -2   -1    0    0    0  501  0.00000000000E+00  0.00000000000E+00 -0.51434323304E+03  0.51434323304E+03  0.25500000920E-02 0.  1.
    10030    2    1    2    0    0  0.00000000000E+00  0.00000000000E+00  0.10654296695E+04  0.20941161356E+04  0.18028261171E+04 0.  0.
        1    1    3    3  502    0 -0.16839625793E+03 -0.57230699714E+02  0.15591894332E+04  0.15693005899E+04  0.50400001928E-02 0. -1.
       -1    1    3    3    0  502  0.16839625793E+03  0.57230699714E+02 -0.49375976375E+03  0.52481554569E+03  0.50400001928E-02 0.  1.
</event>
<event>
 5   0  0.8892280E-05  0.1792251E+04  0.7818609E-02  0.8710431E-01
       -2   -1    0    0    0  501  0.00000000000E+00  0.00000000000E+00  0.71577774163E+03  0.71577774163E+03  0.25500000920E-02 0. -1.
        2   -1    0    0  501    0  0.00000000000E+00  0.00000000000E+00 -0.11219141770E+04  0.11219141771E+04  0.25500000920E-02 0.  1.
    10030    2    1    2    0    0  0.00000000000E+00  0.00000000000E+00 -0.40613643542E+03  0.18376919187E+04  0.17922513171E+04 0.  0.
        4    1    3    3  502    0  0.23406156841E+03  0.50729473276E+03  0.51534337182E+03  0.76007444864E+03  0.12699999809E+01 0. -1.
       -4    1    3    3    0  502 -0.23406156841E+03 -0.50729473276E+03 -0.92147980724E+03  0.10776174700E+04  0.12699999809E+01 0.  1.
</event>
<event>
 5   0  0.4335117E-05  0.1783366E+04  0.7818609E-02  0.8715196E-01
       -1   -1    0    0    0  501  0.00000000000E+00  0.00000000000E+00  0.53420919073E+03  0.53420919076E+03  0.50400001928E-02 0. -1.
        1   -1    0    0  501    0  0.00000000000E+00  0.00000000000E+00 -0.14883649772E+04  0.14883649772E+04  0.50400001928E-02 0.  1.
    10030    2    1    2    0    0  0.00000000000E+00  0.00000000000E+00 -0.95415578647E+03  0.20225741680E+04  0.17833656384E+04 0.  0.
        3    1    3    3  502    0 -0.53855801713E+03  0.59119965815E+03 -0.29797176149E+02  0.80028098535E+03  0.10100000352E+00 0. -1.
       -3    1    3    3    0  502  0.53855801713E+03 -0.59119965815E+03 -0.92435861033E+03  0.12222931826E+04  0.10100000352E+00 0.  1.
</event>
<event>
 5   0  0.8892280E-05  0.1802050E+04  0.7818609E-02  0.8705210E-01
        2   -1    0    0  501    0  0.00000000000E+00  0.00000000000E+00  0.21929183055E+04  0.21929183055E+04  0.25500000920E-02 0. -1.
       -2   -1    0    0    0  501  0.00000000000E+00  0.00000000000E+00 -0.37021256542E+03  0.37021256543E+03  0.25500000920E-02 0.  1.
    10030    2    1    2    0    0  0.00000000000E+00  0.00000000000E+00  0.18227057401E+04  0.25631308709E+04  0.18020498458E+04 0.  0.
        4    1    3    3  502    0 -0.59946816177E+03 -0.16608542414E+03  0.18384948596E+04  0.19408790294E+04  0.12699999809E+01 0. -1.
       -4    1    3    3    0  502  0.59946816177E+03  0.16608542414E+03 -0.15789119519E+02  0.62225184153E+03  0.12699999809E+01 0.  1.
</event>
<event>
 5   0  0.9184414E-05  0.1821303E+04  0.7818609E-02  0.8695052E-01
        2   -1    0    0  501    0  0.00000000000E+00  0.00000000000E+00  0.14058249224E+04  0.14058249224E+04  0.25500000920E-02 0. -1.
       -2   -1    0    0    0  501  0.00000000000E+00  0.00000000000E+00 -0.58989279358E+03  0.58989279359E+03  0.25500000920E-02 0.  1.
    10030    2    1    2    0    0  0.00000000000E+00  0.00000000000E+00  0.81593212878E+03  0.19957177160E+04  0.18213028202E+04 0.  0.
        5    1    3    3  502    0  0.41338337974E+03  0.58776592582E+03  0.10209176700E+04  0.12484588824E+04  0.46999998093E+01 0. -1.
       -5    1    3    3    0  502 -0.41338337974E+03 -0.58776592582E+03 -0.20498554121E+03  0.74725883354E+03  0.46999998093E+01 0.  1.
</event>
<event>
 5   0  0.8893075E-05  0.1798853E+04  0.7818609E-02  0.8706910E-01
        2   -1    0    0  501    0  0.00000000000E+00  0.00000000000E+00  0.16623917438E+04  0.16623917438E+04  0.25500000920E-02 0.  1.
       -2   -1    0    0    0  501  0.00000000000E+00  0.00000000000E+00 -0.48662880385E+03  0.48662880386E+03  0.25500000920E-02 0. -1.
    10030    2    1    2    0    0  0.00000000000E+00  0.00000000000E+00  0.11757629400E+04  0.21490205477E+04  0.17988526408E+04 0.  0.
        1    1    3    3  502    0  0.87723605265E+03 -0.15262287854E+03  0.73961231785E+03  0.11575246070E+04  0.50400001928E-02 0. -1.
       -1    1    3    3    0  502 -0.87723605265E+03  0.15262287854E+03  0.43615062210E+03  0.99149594064E+03  0.50400001928E-02 0.  1.
</event>
<event>
 5   0  0.4494757E-05  0.1791453E+04  0.7818609E-02  0.8710858E-01
       -1   -1    0    0    0  501  0.00000000000E+00  0.00000000000E+00  0.90210006277E+03  0.90210006279E+03  0.50400001928E-02 0.  1.
        1   -1    0    0  501    0  0.00000000000E+00  0.00000000000E+00 -0.88939768827E+03  0.88939768828E+03  0.50400001928E-02 0. -1.
    10030    2    1    2    0    0  0.00000000000E+00  0.00000000000E+00  0.12702374504E+02  0.17914977511E+04  0.17914527183E+04 0.  0.
        4    1    3    3  502    0 -0.80372594235E+03 -0.39212474561E+03 -0.44511579854E+02  0.89538823991E+03  0.12699999809E+01 0. -1.
       -4    1    3    3    0  502  0.80372594235E+03  0.39212474561E+03  0.57213954358E+02  0.89610951116E+03  0.12699999809E+01 0.  1.
</event>
<event>
 5   0  0.8893075E-05  0.1805953E+04  0.7818609E-02  0.8703140E-01
        2   -1    0    0  501    0  0.00000000000E+00  0.00000000000E+00  0.86555836889E+03  0.86555836889E+03  0.25500000920E-02 0. -1.
       -2   -1    0    0    0  501  0.00000000000E+00  0.00000000000E+00 -0.94201238531E+03  0.94201238531E+03  0.25500000920E-02 0.  1.
    10030    2    1    2    0    0  0.00000000000E+00  0.00000000000E+00 -0.76454016417E+02  0.18075707542E+04  0.18059531596E+04 0.  0.
        1    1    3    3  502    0  0.25173670729E+03 -0.67286281034E+03  0.50930133936E+03  0.88062681406E+03  0.50400001928E-02 0. -1.
       -1    1    3    3    0  502 -0.25173670729E+03  0.67286281034E+03 -0.58575535578E+03  0.92694394015E+03  0.50400001928E-02 0.  1.
</event>
<event>
 5   0  0.4578107E-05  0.1801298E+04  0.7818609E-02  0.8705609E-01
        1   -1    0    0  501    0  0.00000000000E+00  0.00000000000E+00  0.16223840331E+04  0.16223840331E+04  0.50400001928E-02 0.  1.
       -1   -1    0    0    0  501  0.00000000000E+00  0.00000000000E+00 -0.49998585333E+03  0.49998585336E+03  0.50400001928E-02 0. -1.
    10030    2    1    2    0    0  0.00000000000E+00  0.00000000000E+00  0.11223981797E+04  0.21223698864E+04  0.18012984930E+04 0.  0.
        2    1    3    3  502    0  0.16465703845E+03 -0.73295881234E+03  0.11465725726E+04  0.13707549836E+04  0.25500000920E-02 0.  1.
       -2    1    3    3    0  502 -0.16465703845E+03  0.73295881234E+03 -0.24174392822E+02  0.75161490284E+03  0.25500000920E-02 0. -1.
</event>
<event>
 5   0  0.9147432E-05  0.1800184E+04  0.7818609E-02  0.8706201E-01
        2   -1    0    0  501    0  0.00000000000E+00  0.00000000000E+00  0.97683648883E+03  0.97683648884E+03  0.25500000920E-02 0.  1.
       -2   -1    0    0    0  501  0.00000000000E+00  0.00000000000E+00 -0.82937714642E+03  0.82937714643E+03  0.25500000920E-02 0. -1.
    10030    2    1    2    0    0  0.00000000000E+00  0.00000000000E+00  0.14745934241E+03  0.18062136353E+04  0.18001842791E+04 0.  0.
        3    1    3    3  502    0  0.23748305716E+03 -0.42652400813E+03 -0.68500736629E+03  0.84116350017E+03  0.10100000352E+00 0. -1.
       -3    1    3    3    0  502 -0.23748305716E+03  0.42652400813E+03  0.83246670870E+03  0.96505013509E+03  0.10100000352E+00 0.  1.
</event>
<event>
 5   0  0.4494757E-05  0.1794016E+04  0.7818609E-02  0.8709488E-01
       -1   -1    0    0    0  501  0.00000000000E+00  0.00000000000E+00  0.55524500809E+03  0.55524500811E+03  0.50400001928E-02 0.  1.
        1   -1    0    0  501    0  0.00000000000E+00  0.00000000000E+00 -0.14491320047E+04  0.14491320047E+04  0.50400001928E-02 0. -1.
    10030    2    1    2    0    0  0.00000000000E+00  0.00000000000E+00 -0.89388699661E+03  0.20043770128E+04  0.17940159550E+04 0.  0.
        4    1    3    3  502    0  0.37021358703E+03 -0.50188428755E+03  0.27338477663E+03  0.68094550964E+03  0.12699999809E+01 0.  1.
       -4    1    3    3    0  502 -0.37021358703E+03  0.50188428755E+03 -0.11672717732E+04  0.13234315032E+04  0.12699999809E+01 0. -1.
</event>
<event>
 5   0  0.4494757E-05  0.1746050E+04  0.7818609E-02  0.8735528E-01
       -1   -1    0    0    0  501  0.00000000000E+00  0.00000000000E+00  0.12227134722E+04  0.12227134723E+04  0.50400001928E-02 0. -1.
        1   -1    0    0  501    0  0.00000000000E+00  0.00000000000E+00 -0.62334533220E+03  0.62334533222E+03  0.50400001928E-02 0.  1.
    10030    2    1    2    0    0  0.00000000000E+00  0.00000000000E+00  0.59936814004E+03  0.18460588045E+04  0.17460500973E+04 0.  0.
        4    1    3    3  502    0 -0.69174668828E+03  0.22878452818E+03  0.80818411208E+03  0.10881263773E+04  0.12699999809E+01 0. -1.
       -4    1    3    3    0  502  0.69174668828E+03 -0.22878452818E+03 -0.20881597203E+03  0.75793242717E+03  0.12699999809E+01 0.  1.
</event>
<event>
 5   0  0.8893075E-05  0.1801258E+04  0.7818609E-02  0.8705631E-01
       -2   -1    0    0    0  501  0.00000000000E+00  0.00000000000E+00  0.58812991661E+03  0.58812991661E+03  0.25500000920E-02 0. -1.
        2   -1    0    0  501    0  0.00000000000E+00  0.00000000000E+00 -0.13791718376E+04  0.13791718376E+04  0.25500000920E-02 0.  1.
    10030    2    1    2    0    0  0.00000000000E+00  0.00000000000E+00 -0.79104192095E+03  0.19673017542E+04  0.18012575805E+04 0.  0.
        1    1    3    3  502    0 -0.10016581698E+03 -0.79649807433E+03 -0.84143354420E+03  0.11629500345E+04  0.50400001928E-02 0.  1.
       -1    1    3    3    0  502  0.10016581698E+03  0.79649807433E+03  0.50391623244E+02  0.80435171973E+03  0.50400001928E-02 0. -1.
</event>
<event>
 5   0  0.8892280E-05  0.1800817E+04  0.7818609E-02  0.8705865E-01
        2   -1    0    0  501    0  0.00000000000E+00  0.00000000000E+00  0.18971748584E+04  0.18971748584E+04  0.25500000920E-02 0. -1.
       -2   -1    0    0    0  501  0.00000000000E+00  0.00000000000E+00 -0.42733841658E+03  0.42733841658E+03  0.25500000920E-02 0.  1.
    10030    2    1    2    0    0  0.00000000000E+00  0.00000000000E+00  0.14698364418E+04  0.23245132750E+04  0.18008172589E+04 0.  0.
        4    1    3    3  502    0  0.18061932391E+03 -0.48571449764E+03 -0.21555308137E+03  0.56125453867E+03  0.12699999809E+01 0.  1.
       -4    1    3    3    0  502 -0.18061932391E+03  0.48571449764E+03  0.16853895232E+04  0.17632587363E+04  0.12699999809E+01 0. -1.
</event>
<event>
 5   0  0.4623665E-05  0.1802007E+04  0.7818609E-02  0.8705233E-01
       -1   -1    0    0    0  501  0.00000000000E+00  0.00000000000E+00  0.40805503771E+03  0.40805503774E+03  0.50400001928E-02 0. -1.
        1   -1    0    0  501    0  0.00000000000E+00  0.00000000000E+00 -0.19894545320E+04  0.19894545320E+04  0.50400001928E-02 0.  1.
    10030    2    1    2    0    0  0.00000000000E+00  0.00000000000E+00 -0.15813994943E+04  0.23975095697E+04  0.18020065972E+04 0.  0.
        5    1    3    3  502    0 -0.64597239399E+03 -0.54415836195E+03 -0.37335675022E+03  0.92347496426E+03  0.46999998093E+01 0. -1.
       -5    1    3    3    0  502  0.64597239399E+03  0.54415836195E+03 -0.12080427441E+04  0.14740346055E+04  0.46999998093E+01 0.  1.
</event>
<event>
 5   0  0.8893075E-05  0.1796678E+04  0.7818609E-02  0.8708068E-01
        2   -1    0    0  501    0  0.00000000000E+00  0.00000000000E+00  0.55048564640E+03  0.55048564641E+03  0.25500000920E-02 0. -1.
       -2   -1    0    0    0  501  0.00000000000E+00  0.00000000000E+00 -0.14660022328E+04  0.14660022328E+04  0.25500000920E-02 0.  1.
    10030    2    1    2    0    0  0.00000000000E+00  0.00000000000E+00 -0.91551658638E+03  0.20164878792E+04  0.17966782536E+04 0.  0.
        1    1    3    3  502    0 -0.69627409402E+03  0.37237739910E+03 -0.93860125380E+03  0.12265540571E+04  0.50400001928E-02 0.  1.
       -1    1    3    3    0  502  0.69627409402E+03 -0.37237739910E+03  0.23084667419E+02  0.78993382208E+03  0.50400001928E-02 0. -1.
</event>
<event>
 5   0  0.9147432E-05  0.1803205E+04  0.7818609E-02  0.8704597E-01
       -2   -1    0    0    0  501  0.00000000000E+00  0.00000000000E+00  0.49702213045E+03  0.49702213045E+03  0.25500000920E-02 0.  1.
        2   -1    0    0  501    0  0.00000000000E+00  0.00000000000E+00 -0.16355143679E+04  0.16355143679E+04  0.25500000920E-02 0. -1.
    10030    2    1    2    0    0  0.00000000000E+00  0.00000000000E+00 -0.11384922374E+04  0.21325364983E+04  0.18032047421E+04 0.  0.
        3    1    3    3  502    0  0.75826114750E+03 -0.46805128662E+03 -0.73163750143E+03  0.11529637542E+04  0.10100000352E+00 0. -1.
       -3    1    3    3    0  502 -0.75826114750E+03  0.46805128662E+03 -0.40685473601E+03  0.97957274418E+03  0.10100000352E+00 0.  1.
</event>
<event>
 5   0  0.4535100E-05  0.1790214E+04  0.7818609E-02  0.8711521E-01
       -1   -1    0    0    0  501  0.00000000000E+00  0.00000000000E+00  0.96091858435E+03  0.96091858436E+03  0.50400001928E-02 0.  1.
        1   -1    0    0  501    0  0.00000000000E+00  0.00000000000E+00 -0.83380246218E+03  0.83380246219E+03  0.50400001928E-02 0. -1.
    10030    2    1    2    0    0  0.00000000000E+00  0.00000000000E+00  0.12711612217E+03  0.17947210466E+04  0.17902137097E+04 0.  0.
        1    1    3    3  502    0 -0.30957834600E+03  0.51547974815E+03  0.72829474364E+03  0.94444235224E+03  0.50400001928E-02 0.  1.
       -1    1    3    3    0  502  0.30957834600E+03 -0.51547974815E+03 -0.60117862147E+03  0.85027869431E+03  0.50400001928E-02 0. -1.
</event>
<event>
 5   0  0.4535100E-05  0.1796852E+04  0.7818609E-02  0.8707975E-01
       -1   -1    0    0    0  501  0.00000000000E+00  0.00000000000E+00  0.53098613371E+03  0.53098613374E+03  0.50400001928E-02 0.  1.
        1   -1    0    0  501    0  0.00000000000E+00  0.00000000000E+00 -0.15201322838E+04  0.15201322838E+04  0.50400001928E-02 0. -1.
    10030    2    1    2    0    0  0.00000000000E+00  0.00000000000E+00 -0.98914615012E+03  0.20511184176E+04  0.17968518739E+04 0.  0.
        1    1    3    3  502    0  0.39392134997E+03 -0.25077213279E+03 -0.13707182861E+04  0.14480777991E+04  0.50400001928E-02 0. -1.
       -1    1    3    3    0  502 -0.39392134997E+03  0.25077213279E+03  0.38157213594E+03  0.60304061845E+03  0.50400001928E-02 0.  1.
</event>
<event>
 5   0  0.4335117E-05  0.1790623E+04  0.7818609E-02  0.8711302E-01
       -1   -1    0    0    0  501  0.00000000000E+00  0.00000000000E+00  0.11092062794E+04  0.11092062794E+04  0.50400001928E-02 0.  1.
        1   -1    0    0  501    0  0.00000000000E+00  0.00000000000E+00 -0.72266297474E+03  0.72266297476E+03  0.50400001928E-02 0. -1.
    10030    2    1    2    0    0  0.00000000000E+00  0.00000000000E+00  0.38654330468E+03  0.18318692542E+04  0.17906225839E+04 0.  0.
        3    1    3    3  502    0 -0.42339063070E+03 -0.57598724909E+03  0.74472572344E+03  0.10322971232E+04  0.10100000352E+00 0.  1.
       -3    1    3    3    0  502  0.42339063070E+03  0.57598724909E+03 -0.35818241876E+03  0.79957213095E+03  0.10100000352E+00 0. -1.
</event>
<event>
 5   0  0.4623665E-05  0.1817096E+04  0.7818609E-02  0.8697260E-01
        1   -1    0    0  501    0  0.00000000000E+00  0.00000000000E+00  0.89876762123E+03  0.89876762125E+03  0.50400001928E-02 0.  1.
       -1   -1    0    0    0  501  0.00000000000E+00  0.00000000000E+00 -0.91843524051E+03  0.91843524052E+03  0.50400001928E-02 0. -1.
    10030    2    1    2    0    0  0.00000000000E+00  0.00000000000E+00 -0.19667619273E+02  0.18172028618E+04  0.18170964272E+04 0.  0.
        5    1    3    3  502    0  0.25513859198E+03  0.47508764638E+03  0.72139558437E+03  0.90068732199E+03  0.46999998093E+01 0.  1.
       -5    1    3    3    0  502 -0.25513859198E+03 -0.47508764638E+03 -0.74106320364E+03  0.91651553977E+03  0.46999998093E+01 0. -1.
</event>
<event>
 5   0  0.4335117E-05  0.1796929E+04  0.7818609E-02  0.8707934E-01
        1   -1    0    0  501    0  0.00000000000E+00  0.00000000000E+00  0.10662050365E+04  0.10662050365E+04  0.50400001928E-02 0.  1.
       -1   -1    0    0    0  501  0.00000000000E+00  0.00000000000E+00 -0.75711381011E+03  0.75711381012E+03  0.50400001928E-02 0. -1.
    10030    2    1    2    0    0  0.00000000000E+00  0.00000000000E+00  0.30909122642E+03  0.18233188467E+04  0.17969291111E+04 0.  0.
        3    1    3    3  502    0  0.45389341982E+03  0.45989318010E+03 -0.47889611836E+03  0.80427761129E+03  0.10100000352E+00 0. -1.
       -3    1    3    3    0  502 -0.45389341982E+03 -0.45989318010E+03  0.78798734478E+03  0.10190412354E+04  0.10100000352E+00 0.  1.
</event>
<event>
 5   0  0.8892280E-05  0.1801741E+04  0.7818609E-02  0.8705374E-01
        2   -1    0    0  501    0  0.00000000000E+00  0.00000000000E+00  0.15911570324E+04  0.15911570324E+04  0.25500000920E-02 0. -1.
       -2   -1    0    0    0  501  0.00000000000E+00  0.00000000000E+00 -0.51004874329E+03  0.51004874329E+03  0.25500000920E-02 0.  1.
    10030    2    1    2    0    0  0.00000000000E+00  0.00000000000E+00  0.10811082891E+04  0.21012057757E+04  0.18017409855E+04 0.  0.
        4    1    3    3  502    0  0.63952259088E+03  0.58719547228E+03  0.26023106741E+03  0.90637160606E+03  0.12699999809E+01 0. -1.
       -4    1    3    3    0  502 -0.63952259088E+03 -0.58719547228E+03  0.82087722169E+03  0.11948341696E+04  0.12699999809E+01 0.  1.
</event>
<event>
 5   0  0.8893075E-05  0.1804036E+04  0.7818609E-02  0.8704156E-01
        2   -1    0    0  501    0  0.00000000000E+00  0.00000000000E+00  0.13434869943E+04  0.13434869943E+04  0.25500000920E-02 0. -1.
       -2   -1    0    0    0  501  0.00000000000E+00  0.00000000000E+00 -0.60561539494E+03  0.60561539494E+03  0.25500000920E-02 0.  1.
    10030    2    1    2    0    0  0.00000000000E+00  0.00000000000E+00  0.73787159934E+03  0.19491023892E+04  0.18040359272E+04 0.  0.
        1    1    3    3  502    0 -0.38445378967E+03  0.22943133934E+03 -0.47709865191E+03  0.65426797227E+03  0.50400001928E-02 0.  1.
       -1    1    3    3    0  502  0.38445378967E+03 -0.22943133934E+03  0.12149702513E+04  0.12948344170E+04  0.50400001928E-02 0. -1.
</event>
<event>
 5   0  0.4578107E-05  0.1875822E+04  0.7818609E-02  0.8666986E-01
        1   -1    0    0  501    0  0.00000000000E+00  0.00000000000E+00  0.70980388629E+03  0.70980388631E+03  0.50400001928E-02 0.  1.
       -1   -1    0    0    0  501  0.00000000000E+00  0.00000000000E+00 -0.12393245839E+04  0.12393245839E+04  0.50400001928E-02 0. -1.
    10030    2    1    2    0    0  0.00000000000E+00  0.00000000000E+00 -0.52952069759E+03  0.19491284702E+04  0.18758223861E+04 0.  0.
        2    1    3    3  502    0 -0.59122225357E+03  0.28386078589E+03  0.43193192038E+03  0.78529350101E+03  0.25500000920E-02 0. -1.
       -2    1    3    3    0  502  0.59122225357E+03 -0.28386078589E+03 -0.96145261797E+03  0.11638349692E+04  0.25500000920E-02 0.  1.
</event>
<event>
 5   0  0.9184414E-05  0.1810510E+04  0.7818609E-02  0.8700730E-01
        2   -1    0    0  501    0  0.00000000000E+00  0.00000000000E+00  0.10697727521E+04  0.10697727521E+04  0.25500000920E-02 0.  1.
       -2   -1    0    0    0  501  0.00000000000E+00  0.00000000000E+00 -0.76603814601E+03  0.76603814601E+03  0.25500000920E-02 0. -1.
    10030    2    1    2    0    0  0.00000000000E+00  0.00000000000E+00  0.30373460609E+03  0.18358108981E+04  0.18105101333E+04 0.  0.
        5    1    3    3  502    0 -0.15701355879E+03  0.60150081662E+03  0.81909646901E+03  0.10282984030E+04  0.46999998093E+01 0.  1.
       -5    1    3    3    0  502  0.15701355879E+03 -0.60150081662E+03 -0.51536186292E+03  0.80751249513E+03  0.46999998093E+01 0. -1.
</event>
<event>
 5   0  0.4578107E-05  0.1782817E+04  0.7818609E-02  0.8715491E-01
       -1   -1    0    0    0  501  0.00000000000E+00  0.00000000000E+00  0.57936791320E+03  0.57936791322E+03  0.50400001928E-02 0.  1.
        1   -1    0    0  501    0  0.00000000000E+00  0.00000000000E+00 -0.13715099082E+04  0.13715099083E+04  0.50400001928E-02 0. -1.
    10030    2    1    2    0    0  0.00000000000E+00  0.00000000000E+00 -0.79214199505E+03  0.19508778215E+04  0.17828166855E+04 0.  0.
        2    1    3    3  502    0  0.65843380827E+03 -0.59719433142E+03 -0.32321643165E+03  0.94585676032E+03  0.25500000920E-02 0.  1.
       -2    1    3    3    0  502 -0.65843380827E+03  0.59719433142E+03 -0.46892556340E+03  0.10050210612E+04  0.25500000920E-02 0. -1.
</event>
<event>
 5   0  0.8802655E-05  0.1804900E+04  0.7818609E-02  0.8703698E-01
       -2   -1    0    0    0  501  0.00000000000E+00  0.00000000000E+00  0.40825580890E+03  0.40825580891E+03  0.25500000920E-02 0.  1.
        2   -1    0    0  501    0  0.00000000000E+00  0.00000000000E+00 -0.19948666073E+04  0.19948666073E+04  0.25500000920E-02 0. -1.
    10030    2    1    2    0    0  0.00000000000E+00  0.00000000000E+00 -0.15866107984E+04  0.24031224162E+04  0.18048998647E+04 0.  0.
        2    1    3    3  502    0  0.97873343551E+02 -0.24875275998E+03 -0.19409439651E+04  0.19592653221E+04  0.25500000920E-02 0. -1.
       -2    1    3    3    0  502 -0.97873343551E+02  0.24875275998E+03  0.35433316666E+03  0.44385709409E+03  0.25500000920E-02 0.  1.
</event>
<event>
 5   0  0.9147432E-05  0.1800054E+04  0.7818609E-02  0.8706271E-01
       -2   -1    0    0    0  501  0.00000000000E+00  0.00000000000E+00  0.56482064607E+03  0.56482064607E+03  0.25500000920E-02 0. -1.
        2   -1    0    0  501    0  0.00000000000E+00  0.00000000000E+00 -0.14341702612E+04  0.14341702612E+04  0.25500000920E-02 0.  1.
    10030    2    1    2    0    0  0.00000000000E+00  0.00000000000E+00 -0.86934961514E+03  0.19989909073E+04  0.18000544142E+04 0.  0.
        3    1    3    3  502    0  0.65597540389E+03 -0.33712720192E+03  0.13817379174E+03  0.75036690206E+03  0.10100000352E+00 0. -1.
       -3    1    3    3    0  502 -0.65597540389E+03  0.33712720192E+03 -0.10075234069E+04  0.12486240052E+04  0.10100000352E+00 0.  1.
</event>
<event>
 5   0  0.3270375E-05  0.1797030E+04  0.7818609E-02  0.8707880E-01
       -3   -1    0    0    0  501  0.00000000000E+00  0.00000000000E+00  0.81811056779E+03  0.81811057402E+03  0.10100000352E+00 0. -1.
        3   -1    0    0  501    0  0.00000000000E+00  0.00000000000E+00 -0.98682193412E+03  0.98682193929E+03  0.10100000352E+00 0.  1.
    10030    2    1    2    0    0  0.00000000000E+00  0.00000000000E+00 -0.16871136633E+03  0.18049325133E+04  0.17970302870E+04 0.  0.
        5    1    3    3  502    0 -0.30316540254E+03 -0.20013276125E+03 -0.90976318668E+03  0.97961907355E+03  0.46999998093E+01 0.  1.
       -5    1    3    3    0  502  0.30316540254E+03  0.20013276125E+03  0.74105182035E+03  0.82531343976E+03  0.46999998093E+01 0. -1.
</event>
<event>
 5   0  0.8893075E-05  0.1802381E+04  0.7818609E-02  0.8705034E-01
       -2   -1    0    0    0  501  0.00000000000E+00  0.00000000000E+00  0.50306427234E+03  0.50306427234E+03  0.25500000920E-02 0. -1.
        2   -1    0    0  501    0  0.00000000000E+00  0.00000000000E+00 -0.16143943221E+04  0.16143943221E+04  0.25500000920E-02 0.  1.
    10030    2    1    2    0    0  0.00000000000E+00  0.00000000000E+00 -0.11113300498E+04  0.21174585944E+04  0.18023807643E+04 0.  0.
        1    1    3    3  502    0 -0.62311393229E+03  0.42377834807E+03 -0.11363182229E+04  0.13634801666E+04  0.50400001928E-02 0. -1.
       -1    1    3    3    0  502  0.62311393229E+03 -0.42377834807E+03  0.24988173121E+02  0.75397842789E+03  0.50400001928E-02 0.  1.
</event>
<event>
 5   0  0.8892280E-05  0.1814701E+04  0.7818609E-02  0.8698521E-01
        2   -1    0    0  501    0  0.00000000000E+00  0.00000000000E+00  0.29419035558E+04  0.29419035558E+04  0.25500000920E-02 0. -1.
       -2   -1    0    0    0  501  0.00000000000E+00  0.00000000000E+00 -0.27984767486E+03  0.27984767487E+03  0.25500000920E-02 0.  1.
    10030    2    1    2    0    0  0.00000000000E+00  0.00000000000E+00  0.26620558809E+04  0.32217512307E+04  0.18147009338E+04 0.  0.
        4    1    3    3  502    0 -0.47282097353E+03 -0.44564084131E+03  0.24554473518E+04  0.25399564451E+04  0.12699999809E+01 0. -1.
       -4    1    3    3    0  502  0.47282097353E+03  0.44564084131E+03  0.20660852911E+03  0.68179478559E+03  0.12699999809E+01 0.  1.
</event>
<event>
 5   0  0.4623665E-05  0.1789215E+04  0.7818609E-02  0.8712056E-01
       -1   -1    0    0    0  501  0.00000000000E+00  0.00000000000E+00  0.17835641659E+04  0.17835641659E+04  0.50400001928E-02 0. -1.
        1   -1    0    0  501    0  0.00000000000E+00  0.00000000000E+00 -0.44872097487E+03  0.44872097490E+03  0.50400001928E-02 0.  1.
    10030    2    1    2    0    0  0.00000000000E+00  0.00000000000E+00  0.13348431910E+04  0.22322851408E+04  0.17892150808E+04 0.  0.
        5    1    3    3  502    0  0.10302693653E+03  0.73748186148E+03  0.12859844175E+04  0.14860255912E+04  0.46999998093E+01 0. -1.
       -5    1    3    3    0  502 -0.10302693653E+03 -0.73748186148E+03  0.48858773559E+02  0.74625954963E+03  0.46999998093E+01 0.  1.
</event>
<event>
 5   0  0.4494757E-05  0.1804927E+04  0.7818609E-02  0.8703684E-01
       -1   -1    0    0    0  501  0.00000000000E+00  0.00000000000E+00  0.56958836991E+03  0.56958836993E+03  0.50400001928E-02 0. -1.
        1   -1    0    0  501    0  0.00000000000E+00  0.00000000000E+00 -0.14298757998E+04  0.14298757998E+04  0.50400001928E-02 0.  1.
    10030    2    1    2    0    0  0.00000000000E+00  0.00000000000E+00 -0.86028742990E+03  0.19994641697E+04  0.18049272850E+04 0.  0.
        4    1    3    3  502    0 -0.22421256883E+03 -0.18246560305E+03  0.51691124791E+03  0.59225317512E+03  0.12699999809E+01 0. -1.
       -4    1    3    3    0  502  0.22421256883E+03  0.18246560305E+03 -0.13771986778E+04  0.14072109946E+04  0.12699999809E+01 0.  1.
</event>
<event>
 5   0  0.4623665E-05  0.1800053E+04  0.7818609E-02  0.8706271E-01
        1   -1    0    0  501    0  0.00000000000E+00  0.00000000000E+00  0.87305574968E+03  0.87305574970E+03  0.50400001928E-02 0.  1.
       -1   -1    0    0    0  501  0.00000000000E+00  0.00000000000E+00 -0.92783081431E+03  0.92783081432E+03  0.50400001928E-02 0. -1.
    10030    2    1    2    0    0  0.00000000000E+00  0.00000000000E+00 -0.54775064627E+02  0.18008865640E+04  0.18000533628E+04 0.  0.
        5    1    3    3  502    0 -0.30148777042E+03 -0.78093631289E+03  0.30332490557E+03  0.89038446125E+03  0.46999998093E+01 0.  1.
       -5    1    3    3    0  502  0.30148777042E+03  0.78093631289E+03 -0.35809997020E+03  0.91050210277E+03  0.46999998093E+01 0. -1.
</event>
<event>
 5   0  0.9147432E-05  0.1799397E+04  0.7818609E-02  0.8706620E-01
        2   -1    0    0  501    0  0.00000000000E+00  0.00000000000E+00  0.17325365429E+04  0.17325365429E+04  0.25500000920E-02 0.  1.
       -2   -1    0    0    0  501  0.00000000000E+00  0.00000000000E+00 -0.46720923913E+03  0.46720923913E+03  0.25500000920E-02 0. -1.
    10030    2    1    2    0    0  0.00000000000E+00  0.00000000000E+00  0.12653273038E+04  0.21997457820E+04  0.17993966544E+04 0.  0.
        3    1    3    3  502    0  0.68478217350E+03 -0.46410584760E+03  0.10651148236E+04  0.13486253967E+04  0.10100000352E+00 0. -1.
       -3    1    3    3    0  502 -0.68478217350E+03  0.46410584760E+03  0.20021248016E+03  0.85112038534E+03  0.10100000352E+00 0.  1.
</event>
<event>
 5   0  0.8802655E-05  0.1799368E+04  0.7818609E-02  0.8706636E-01
       -2   -1    0    0    0  501  0.00000000000E+00  0.00000000000E+00  0.87124911182E+03  0.87124911182E+03  0.25500000920E-02 0. -1.
        2   -1    0    0  501    0  0.00000000000E+00  0.00000000000E+00 -0.92904691218E+03  0.92904691218E+03  0.25500000920E-02 0.  1.
    10030    2    1    2    0    0  0.00000000000E+00  0.00000000000E+00 -0.57797800359E+02  0.18002960240E+04  0.17993679969E+04 0.  0.
        2    1    3    3  502    0 -0.39496906442E+03  0.42495650999E+03  0.65909133555E+03  0.87806035433E+03  0.25500000920E-02 0. -1.
       -2    1    3    3    0  502  0.39496906442E+03 -0.42495650999E+03 -0.71688913591E+03  0.92223566968E+03  0.25500000920E-02 0.  1.
</event>
<event>
 5   0  0.9184414E-05  0.1800461E+04  0.7818609E-02  0.8706054E-01
        2   -1    0    0  501    0  0.00000000000E+00  0.00000000000E+00  0.12055308989E+04  0.12055308989E+04  0.25500000920E-02 0. -1.
       -2   -1    0    0    0  501  0.00000000000E+00  0.00000000000E+00 -0.67224729694E+03  0.67224729695E+03  0.25500000920E-02 0.  1.
    10030    2    1    2    0    0  0.00000000000E+00  0.00000000000E+00  0.53328360197E+03  0.18777781959E+04  0.18004609279E+04 0.  0.
        5    1    3    3  502    0 -0.38614694914E+03 -0.81211265529E+03  0.22293306762E+03  0.92647594348E+03  0.46999998093E+01 0. -1.
       -5    1    3    3    0  502  0.38614694914E+03  0.81211265529E+03  0.31035053435E+03  0.95130225238E+03  0.46999998093E+01 0.  1.
</event>
<event>
 5   0  0.4494757E-05  0.1810154E+04  0.7818609E-02  0.8700918E-01
        1   -1    0    0  501    0  0.00000000000E+00  0.00000000000E+00  0.12267549801E+04  0.12267549802E+04  0.50400001928E-02 0. -1.
       -1   -1    0    0    0  501  0.00000000000E+00  0.00000000000E+00 -0.66774909942E+03  0.66774909944E+03  0.50400001928E-02 0.  1.
    10030    2    1    2    0    0  0.00000000000E+00  0.00000000000E+00  0.55900588072E+03  0.18945040796E+04  0.18101541738E+04 0.  0.
        4    1    3    3  502    0  0.87565151580E+03  0.21480609681E+03  0.36228140737E+03  0.97167724445E+03  0.12699999809E+01 0. -1.
       -4    1    3    3    0  502 -0.87565151580E+03 -0.21480609681E+03  0.19672447336E+03  0.92282683515E+03  0.12699999809E+01 0.  1.
</event>
<event>
 5   0  0.4535100E-05  0.1797066E+04  0.7818609E-02  0.8707861E-01
       -1   -1    0    0    0  501  0.00000000000E+00  0.00000000000E+00  0.10448757010E+04  0.10448757010E+04  0.50400001928E-02 0. -1.
        1   -1    0    0  501    0  0.00000000000E+00  0.00000000000E+00 -0.77268690525E+03  0.77268690527E+03  0.50400001928E-02 0.  1.
    10030    2    1    2    0    0  0.00000000000E+00  0.00000000000E+00  0.27218879577E+03  0.18175626063E+04  0.17970662446E+04 0.  0.
        1    1    3    3  502    0 -0.34023666102E+03  0.65196471592E+03  0.65826061027E+03  0.98697822031E+03  0.50400001928E-02 0. -1.
       -1    1    3    3    0  502  0.34023666102E+03 -0.65196471592E+03 -0.38607181449E+03  0.83058438600E+03  0.50400001928E-02 0.  1.
</event>
<event>
 5   0  0.8802655E-05  0.1796902E+04  0.7818609E-02  0.8707948E-01
       -2   -1    0    0    0  501  0.00000000000E+00  0.00000000000E+00  0.56322218936E+03  0.56322218936E+03  0.25500000920E-02 0. -1.
        2   -1    0    0  501    0  0.00000000000E+00  0.00000000000E+00 -0.14332081316E+04  0.14332081316E+04  0.25500000920E-02 0.  1.
    10030    2    1    2    0    0  0.00000000000E+00  0.00000000000E+00 -0.86998594221E+03  0.19964303209E+04  0.17969024700E+04 0.  0.
        2    1    3    3  502    0 -0.14494917302E+03  0.86287233416E+03 -0.66175317452E+03  0.10970306248E+04  0.25500000920E-02 0.  1.
       -2    1    3    3    0  502  0.14494917302E+03 -0.86287233416E+03 -0.20823276770E+03  0.89939969611E+03  0.25500000920E-02 0. -1.
</event>
<event>
 5   0  0.3270375E-05  0.1797169E+04  0.7818609E-02  0.8707807E-01
       -3   -1    0    0    0  501  0.00000000000E+00  0.00000000000E+00  0.12052696497E+04  0.12052696539E+04  0.10100000352E+00 0. -1.
        3   -1    0    0  501    0  0.00000000000E+00  0.00000000000E+00 -0.66993613385E+03  0.66993614146E+03  0.10100000352E+00 0.  1.
    10030    2    1    2    0    0  0.00000000000E+00  0.00000000000E+00  0.53533351584E+03  0.18752057954E+04  0.17971685513E+04 0.  0.
        3    1    3    3  502    0  0.20290721287E+03  0.43294002827E+03  0.10615221087E+04  0.11642326239E+04  0.10100000352E+00 0. -1.
       -3    1    3    3    0  502 -0.20290721287E+03 -0.43294002827E+03 -0.52618859285E+03  0.71097317148E+03  0.10100000352E+00 0.  1.
</event>
<event>
 5   0  0.4494757E-05  0.1801660E+04  0.7818609E-02  0.8705417E-01
       -1   -1    0    0    0  501  0.00000000000E+00  0.00000000000E+00  0.42601668997E+03  0.42601669000E+03  0.50400001928E-02 0. -1.
        1   -1    0    0  501    0  0.00000000000E+00  0.00000000000E+00 -0.19048434464E+04  0.19048434464E+04  0.50400001928E-02 0.  1.
    10030    2    1    2    0    0  0.00000000000E+00  0.00000000000E+00 -0.14788267564E+04  0.23308601364E+04  0.18016604564E+04 0.  0.
        4    1    3    3  502    0 -0.17492610213E+03 -0.59777193932E+03  0.10256764541E+03  0.63123067688E+03  0.12699999809E+01 0. -1.
       -4    1    3    3    0  502  0.17492610213E+03  0.59777193932E+03 -0.15813944018E+04  0.16996294595E+04  0.12699999809E+01 0.  1.
</event>
<event>
 5   0  0.8892280E-05  0.1804906E+04  0.7818609E-02  0.8703695E-01
       -2   -1    0    0    0  501  0.00000000000E+00  0.00000000000E+00  0.28845987635E+03  0.28845987636E+03  0.25500000920E-02 0. -1.
        2   -1    0    0  501    0  0.00000000000E+00  0.00000000000E+00 -0.28233453077E+04  0.28233453077E+04  0.25500000920E-02 0.  1.
    10030    2    1    2    0    0  0.00000000000E+00  0.00000000000E+00 -0.25348854314E+04  0.31118051841E+04  0.18049064667E+04 0.  0.
        4    1    3    3  502    0 -0.31731401639E+03  0.84348787205E+03 -0.11854762979E+04  0.14891325129E+04  0.12699999809E+01 0.  1.
       -4    1    3    3    0  502  0.31731401639E+03 -0.84348787205E+03 -0.13494091335E+04  0.16226726712E+04  0.12699999809E+01 0. -1.
</event>
<event>
 5   0  0.4623665E-05  0.1802375E+04  0.7818609E-02  0.8705038E-01
        1   -1    0    0  501    0  0.00000000000E+00  0.00000000000E+00  0.11257667745E+04  0.11257667745E+04  0.50400001928E-02 0. -1.
       -1   -1    0    0    0  501  0.00000000000E+00  0.00000000000E+00 -0.72140941258E+03  0.72140941260E+03  0.50400001928E-02 0.  1.
    10030    2    1    2    0    0  0.00000000000E+00  0.00000000000E+00  0.40435736194E+03  0.18471761871E+04  0.18023748195E+04 0.  0.
        5    1    3    3  502    0  0.28137884463E+03  0.24314531497E+03  0.10434500565E+04  0.11077471773E+04  0.46999998093E+01 0. -1.
       -5    1    3    3    0  502 -0.28137884463E+03 -0.24314531497E+03 -0.63909269454E+03  0.73942900985E+03  0.46999998093E+01 0.  1.
</event>
<event>
 5   0  0.9147432E-05  0.1798226E+04  0.7818609E-02  0.8707244E-01
       -2   -1    0    0    0  501  0.00000000000E+00  0.00000000000E+00  0.49647945342E+03  0.49647945342E+03  0.25500000920E-02 0.  1.
        2   -1    0    0  501    0  0.00000000000E+00  0.00000000000E+00 -0.16282724854E+04  0.16282724854E+04  0.25500000920E-02 0. -1.
    10030    2    1    2    0    0  0.00000000000E+00  0.00000000000E+00 -0.11317930320E+04  0.21247519389E+04  0.17982256072E+04 0.  0.
        3    1    3    3  502    0 -0.53268136500E+03  0.59244332828E+03 -0.10582993783E+04  0.13246645304E+04  0.10100000352E+00 0. -1.
       -3    1    3    3    0  502  0.53268136500E+03 -0.59244332828E+03 -0.73493653741E+02  0.80008740846E+03  0.10100000352E+00 0.  1.
</event>
<event>
 5   0  0.8893075E-05  0.1788874E+04  0.7818609E-02  0.8712238E-01
        2   -1    0    0  501    0  0.00000000000E+00  0.00000000000E+00  0.66627607564E+03  0.66627607565E+03  0.25500000920E-02 0.  1.
       -2   -1    0    0    0  501  0.00000000000E+00  0.00000000000E+00 -0.12007303694E+04  0.12007303694E+04  0.25500000920E-02 0. -1.
    10030    2    1    2    0    0  0.00000000000E+00  0.00000000000E+00 -0.53445429380E+03  0.18670064451E+04  0.17888744153E+04 0.  0.
        1    1    3    3  502    0  0.28046414683E+03  0.61840223653E+02  0.61684371293E+03  0.68042671694E+03  0.50400001928E-02 0.  1.
       -1    1    3    3    0  502 -0.28046414683E+03 -0.61840223653E+02 -0.11512980067E+04  0.11865797281E+04  0.50400001928E-02 0. -1.
</event>
<event>
 5   0  0.4335117E-05  0.1786269E+04  0.7818609E-02  0.8713636E-01
       -1   -1    0    0    0  501  0.00000000000E+00  0.00000000000E+00  0.84345626036E+03  0.84345626038E+03  0.50400001928E-02 0.  1.
        1   -1    0    0  501    0  0.00000000000E+00  0.00000000000E+00 -0.94573900759E+03  0.94573900761E+03  0.50400001928E-02 0. -1.
    10030    2    1    2    0    0  0.00000000000E+00  0.00000000000E+00 -0.10228274723E+03  0.17891952680E+04  0.17862692817E+04 0.  0.
        3    1    3    3  502    0  0.25927857940E+03 -0.40135229405E+03 -0.80695040906E+03  0.93780489365E+03  0.10100000352E+00 0. -1.
       -3    1    3    3    0  502 -0.25927857940E+03  0.40135229405E+03  0.70466766183E+03  0.85139037433E+03  0.10100000352E+00 0.  1.
</event>
<event>
 5   0  0.4494757E-05  0.1794013E+04  0.7818609E-02  0.8709490E-01
       -1   -1    0    0    0  501  0.00000000000E+00  0.00000000000E+00  0.78502272014E+03  0.78502272015E+03  0.50400001928E-02 0.  1.
        1   -1    0    0  501    0  0.00000000000E+00  0.00000000000E+00 -0.10249650758E+04  0.10249650758E+04  0.50400001928E-02 0. -1.
    10030    2    1    2    0    0  0.00000000000E+00  0.00000000000E+00 -0.23994235569E+03  0.18099877960E+04  0.17940132351E+04 0.  0.
        4    1    3    3  502    0 -0.40055794982E+03 -0.11580694275E+03  0.68130556497E+03  0.79877206067E+03  0.12699999809E+01 0.  1.
       -4    1    3    3    0  502  0.40055794982E+03  0.11580694275E+03 -0.92124792066E+03  0.10112157353E+04  0.12699999809E+01 0. -1.
</event>
<event>
 5   0  0.4494757E-05  0.1778210E+04  0.7818609E-02  0.8717974E-01
        1   -1    0    0  501    0  0.00000000000E+00  0.00000000000E+00  0.24174238336E+04  0.24174238336E+04  0.50400001928E-02 0. -1.
       -1   -1    0    0    0  501  0.00000000000E+00  0.00000000000E+00 -0.32700430757E+03  0.32700430761E+03  0.50400001928E-02 0.  1.
    10030    2    1    2    0    0  0.00000000000E+00  0.00000000000E+00  0.20904195261E+04  0.27444281413E+04  0.17782103440E+04 0.  0.
        4    1    3    3  502    0 -0.83717006440E+03  0.24469455931E+03  0.77888532177E+03  0.11693558489E+04  0.12699999809E+01 0.  1.
       -4    1    3    3    0  502  0.83717006440E+03 -0.24469455931E+03  0.13115342043E+04  0.15750722923E+04  0.12699999809E+01 0. -1.
</event>
<event>
 5   0  0.4494757E-05  0.1801049E+04  0.7818609E-02  0.8705742E-01
       -1   -1    0    0    0  501  0.00000000000E+00  0.00000000000E+00  0.62719173577E+03  0.62719173579E+03  0.50400001928E-02 0. -1.
        1   -1    0    0  501    0  0.00000000000E+00  0.00000000000E+00 -0.12929762722E+04  0.12929762722E+04  0.50400001928E-02 0.  1.
    10030    2    1    2    0    0  0.00000000000E+00  0.00000000000E+00 -0.66578453643E+03  0.19201680080E+04  0.18010486195E+04 0.  0.
        4    1    3    3  502    0 -0.39282744329E+03  0.22531896846E+03 -0.11627431693E+04  0.12478202308E+04  0.12699999809E+01 0.  1.
       -4    1    3    3    0  502  0.39282744329E+03 -0.22531896846E+03  0.49695863289E+03  0.67234777716E+03  0.12699999809E+01 0. -1.
</event>
<event>
 5   0  0.4335117E-05  0.1799636E+04  0.7818609E-02  0.8706493E-01
        1   -1    0    0  501    0  0.00000000000E+00  0.00000000000E+00  0.63120541544E+03  0.63120541546E+03  0.50400001928E-02 0. -1.
       -1   -1    0    0    0  501  0.00000000000E+00  0.00000000000E+00 -0.12827404303E+04  0.12827404303E+04  0.50400001928E-02 0.  1.
    10030    2    1    2    0    0  0.00000000000E+00  0.00000000000E+00 -0.65153501482E+03  0.19139458457E+04  0.17996363035E+04 0.  0.
        3    1    3    3  502    0 -0.74120095590E+03 -0.37987227996E+03 -0.68797450818E+03  0.10802734562E+04  0.10100000352E+00 0.  1.
       -3    1    3    3    0  502  0.74120095590E+03  0.37987227996E+03  0.36439493366E+02  0.83367238949E+03  0.10100000352E+00 0. -1.
</event>
<event>
 5   0  0.9184414E-05  0.1790269E+04  0.7818609E-02  0.8711491E-01
       -2   -1    0    0    0  501  0.00000000000E+00  0.00000000000E+00  0.48701973342E+03  0.48701973342E+03  0.25500000920E-02 0. -1.
        2   -1    0    0  501    0  0.00000000000E+00  0.00000000000E+00 -0.16452430042E+04  0.16452430042E+04  0.25500000920E-02 0.  1.
    10030    2    1    2    0    0  0.00000000000E+00  0.00000000000E+00 -0.11582232708E+04  0.21322627376E+04  0.17902690405E+04 0.  0.
        5    1    3    3  502    0 -0.85890786880E+02 -0.37969075805E+03 -0.15391295208E+04  0.15876032473E+04  0.46999998093E+01 0.  1.
       -5    1    3    3    0  502  0.85890786880E+02  0.37969075805E+03  0.38090625006E+03  0.54465949028E+03  0.46999998093E+01 0. -1.
</event>
<event>
 5   0  0.8802655E-05  0.1802123E+04  0.7818609E-02  0.8705171E-01
        2   -1    0    0  501    0  0.00000000000E+00  0.00000000000E+00  0.22896450660E+04  0.22896450660E+04  0.25500000920E-02 0. -1.
       -2   -1    0    0    0  501  0.00000000000E+00  0.00000000000E+00 -0.35460179038E+03  0.35460179039E+03  0.25500000920E-02 0.  1.
    10030    2    1    2    0    0  0.00000000000E+00  0.00000000000E+00  0.19350432756E+04  0.26442468564E+04  0.18021234583E+04 0.  0.
        2    1    3    3  502    0 -0.34875927324E+03 -0.40426627240E+03 -0.97504142516E+02  0.54274423764E+03  0.25500000920E-02 0.  1.
       -2    1    3    3    0  502  0.34875927324E+03  0.40426627240E+03  0.20325474181E+04  0.21015026187E+04  0.25500000920E-02 0. -1.
</event>
<event>
 5   0  0.4578107E-05  0.1800582E+04  0.7818609E-02  0.8705990E-01
        1   -1    0    0  501    0  0.00000000000E+00  0.00000000000E+00  0.18080996115E+04  0.18080996115E+04  0.50400001928E-02 0.  1.
       -1   -1    0    0    0  501  0.00000000000E+00  0.00000000000E+00 -0.44827387759E+03  0.44827387762E+03  0.50400001928E-02 0. -1.
    10030    2    1    2    0    0  0.00000000000E+00  0.00000000000E+00  0.13598257339E+04  0.22563734891E+04  0.18005819325E+04 0.  0.
        2    1    3    3  502    0 -0.82015843051E+02  0.26804222017E+03  0.17520219713E+04  0.17743038686E+04  0.25500000920E-02 0.  1.
       -2    1    3    3    0  502  0.82015843051E+02 -0.26804222017E+03 -0.39219623744E+03  0.48206962046E+03  0.25500000920E-02 0. -1.
</event>
<event>
 5   0  0.4535100E-05  0.1806515E+04  0.7818609E-02  0.8702842E-01
        1   -1    0    0  501    0  0.00000000000E+00  0.00000000000E+00  0.12254250878E+04  0.12254250878E+04  0.50400001928E-02 0. -1.
       -1   -1    0    0    0  501  0.00000000000E+00  0.00000000000E+00 -0.66578879063E+03  0.66578879065E+03  0.50400001928E-02 0.  1.
    10030    2    1    2    0    0  0.00000000000E+00  0.00000000000E+00  0.55963629718E+03  0.18912138785E+04  0.18065151948E+04 0.  0.
        1    1    3    3  502    0 -0.45933315853E+03 -0.51947071006E+03  0.88578064880E+03  0.11249196091E+04  0.50400001928E-02 0. -1.
       -1    1    3    3    0  502  0.45933315853E+03  0.51947071006E+03 -0.32614435163E+03  0.76629426936E+03  0.50400001928E-02 0.  1.
</event>
<event>
 5   0  0.4335117E-05  0.1806364E+04  0.7818609E-02  0.8702922E-01
        1   -1    0    0  501    0  0.00000000000E+00  0.00000000000E+00  0.20020118306E+04  0.20020118306E+04  0.50400001928E-02 0.  1.
       -1   -1    0    0    0  501  0.00000000000E+00  0.00000000000E+00 -0.40745911487E+03  0.40745911490E+03  0.50400001928E-02 0. -1.
    10030    2    1    2    0    0  0.00000000000E+00  0.00000000000E+00  0.15945527157E+04  0.24094709455E+04  0.18063642695E+04 0.  0.
        3    1    3    3  502    0 -0.38985826655E+03  0.33135179705E+03 -0.19550450701E+03  0.54772758181E+03  0.10100000352E+00 0. -1.
       -3    1    3    3    0  502  0.38985826655E+03 -0.33135179705E+03  0.17900572227E+04  0.18617433637E+04  0.10100000352E+00 0.  1.
</event>
<event>
 5   0  0.4535100E-05  0.1800373E+04  0.7818609E-02  0.8706101E-01
       -1   -1    0    0    0  501  0.00000000000E+00  0.00000000000E+00  0.88024523490E+03  0.88024523491E+03  0.50400001928E-02 0. -1.
        1   -1    0    0  501    0  0.00000000000E+00  0.00000000000E+00 -0.92057924117E+03  0.92057924119E+03  0.50400001928E-02 0.  1.
    10030    2    1    2    0    0  0.00000000000E+00  0.00000000000E+00 -0.40334006277E+02  0.18008244761E+04  0.18003727285E+04 0.  0.
        1    1    3    3  502    0 -0.88726469460E+03  0.13350100555E+03  0.52475827329E+02  0.89878521864E+03  0.50400001928E-02 0.  1.
       -1    1    3    3    0  502  0.88726469460E+03 -0.13350100555E+03 -0.92809833606E+02  0.90203925746E+03  0.50400001928E-02 0. -1.
</event>
<event>
 5   0  0.4494757E-05  0.1805252E+04  0.7818609E-02  0.8703511E-01
        1   -1    0    0  501    0  0.00000000000E+00  0.00000000000E+00  0.72580826083E+03  0.72580826084E+03  0.50400001928E-02 0.  1.
       -1   -1    0    0    0  501  0.00000000000E+00  0.00000000000E+00 -0.11225196529E+04  0.11225196529E+04  0.50400001928E-02 0. -1.
    10030    2    1    2    0    0  0.00000000000E+00  0.00000000000E+00 -0.39671139203E+03  0.18483279137E+04  0.18052523779E+04 0.  0.
        4    1    3    3  502    0  0.77952943289E+03 -0.22714702573E+03 -0.60206161479E+03  0.10108124005E+04  0.12699999809E+01 0. -1.
       -4    1    3    3    0  502 -0.77952943289E+03  0.22714702573E+03  0.20535022275E+03  0.83751551325E+03  0.12699999809E+01 0.  1.
</event>
<event>
 5   0  0.4494757E-05  0.1800880E+04  0.7818609E-02  0.8705832E-01
        1   -1    0    0  501    0  0.00000000000E+00  0.00000000000E+00  0.18249159112E+04  0.18249159112E+04  0.50400001928E-02 0. -1.
       -1   -1    0    0    0  501  0.00000000000E+00  0.00000000000E+00 -0.44429010083E+03  0.44429010086E+03  0.50400001928E-02 0.  1.
    10030    2    1    2    0    0  0.00000000000E+00  0.00000000000E+00  0.13806258104E+04  0.22692060121E+04  0.18008798675E+04 0.  0.
        4    1    3    3  502    0 -0.29924480655E+03  0.70000252925E+03  0.84386105351E+02  0.76594622715E+03  0.12699999809E+01 0.  1.
       -4    1    3    3    0  502  0.29924480655E+03 -0.70000252925E+03  0.12962397050E+04  0.15032597849E+04  0.12699999809E+01 0. -1.
</event>
<event>
 5   0  0.4335117E-05  0.1806410E+04  0.7818609E-02  0.8702898E-01
       -1   -1    0    0    0  501  0.00000000000E+00  0.00000000000E+00  0.84021097074E+03  0.84021097075E+03  0.50400001928E-02 0.  1.
        1   -1    0    0  501    0  0.00000000000E+00  0.00000000000E+00 -0.97092233910E+03  0.97092233912E+03  0.50400001928E-02 0. -1.
    10030    2    1    2    0    0  0.00000000000E+00  0.00000000000E+00 -0.13071136836E+03  0.18111333099E+04  0.18064103643E+04 0.  0.
        3    1    3    3  502    0 -0.51720998056E+03 -0.18713526956E+03 -0.78364614019E+03  0.95740642171E+03  0.10100000352E+00 0. -1.
       -3    1    3    3    0  502  0.51720998056E+03  0.18713526956E+03  0.65293477183E+03  0.85372688816E+03  0.10100000352E+00 0.  1.
</event>
<event>
 5   0  0.8802655E-05  0.1796027E+04  0.7818609E-02  0.8708415E-01
        2   -1    0    0  501    0  0.00000000000E+00  0.00000000000E+00  0.15935039866E+04  0.15935039866E+04  0.25500000920E-02 0. -1.
       -2   -1    0    0    0  501  0.00000000000E+00  0.00000000000E+00 -0.50607230849E+03  0.50607230849E+03  0.25500000920E-02 0.  1.
    10030    2    1    2    0    0  0.00000000000E+00  0.00000000000E+00  0.10874316781E+04  0.20995762951E+04  0.17960269943E+04 0.  0.
        2    1    3    3  502    0  0.55252156897E+03 -0.11662300606E+03 -0.27254159237E+03  0.62702466403E+03  0.25500000920E-02 0.  1.
       -2    1    3    3    0  502 -0.55252156897E+03  0.11662300606E+03  0.13599732704E+04  0.14725516310E+04  0.25500000920E-02 0. -1.
</event>
<event>
 5   0  0.4623665E-05  0.1802722E+04  0.7818609E-02  0.8704853E-01
       -1   -1    0    0    0  501  0.00000000000E+00  0.00000000000E+00  0.11815531774E+04  0.11815531775E+04  0.50400001928E-02 0.  1.
        1   -1    0    0  501    0  0.00000000000E+00  0.00000000000E+00 -0.68761322697E+03  0.68761322699E+03  0.50400001928E-02 0. -1.
    10030    2    1    2    0    0  0.00000000000E+00  0.00000000000E+00  0.49393995048E+03  0.18691664044E+04  0.18027219344E+04 0.  0.
        5    1    3    3  502    0  0.48001174594E+03 -0.12434318220E+03 -0.53347273514E+03  0.72834590157E+03  0.46999998093E+01 0. -1.
       -5    1    3    3    0  502 -0.48001174594E+03  0.12434318220E+03  0.10274126856E+04  0.11408205029E+04  0.46999998093E+01 0.  1.
</event>
<event>
 5   0  0.8893075E-05  0.1804896E+04  0.7818609E-02  0.8703700E-01
        2   -1    0    0  501    0  0.00000000000E+00  0.00000000000E+00  0.14582785267E+04  0.14582785267E+04  0.25500000920E-02 0.  1.
       -2   -1    0    0    0  501  0.00000000000E+00  0.00000000000E+00 -0.55847534759E+03  0.55847534759E+03  0.25500000920E-02 0. -1.
    10030    2    1    2    0    0  0.00000000000E+00  0.00000000000E+00  0.89980317909E+03  0.20167538743E+04  0.18048962375E+04 0.  0.
        1    1    3    3  502    0 -0.32434103383E+03  0.83670659307E+03  0.34309053386E+03  0.96072167851E+03  0.50400001928E-02 0. -1.
       -1    1    3    3    0  502  0.32434103383E+03 -0.83670659307E+03  0.55671264523E+03  0.10560321958E+04  0.50400001928E-02 0.  1.
</event>
<event>
 5   0  0.4335117E-05  0.1761250E+04  0.7818609E-02  0.8727182E-01
        1   -1    0    0  501    0  0.00000000000E+00  0.00000000000E+00  0.12014831937E+04  0.12014831937E+04  0.50400001928E-02 0. -1.
       -1   -1    0    0    0  501  0.00000000000E+00  0.00000000000E+00 -0.64545239967E+03  0.64545239969E+03  0.50400001928E-02 0.  1.
    10030    2    1    2    0    0  0.00000000000E+00  0.00000000000E+00  0.55603079404E+03  0.18469355934E+04  0.17612497955E+04 0.  0.
        3    1    3    3  502    0 -0.68600820197E+03  0.55216233584E+03  0.28128175064E+03  0.92445115162E+03  0.10100000352E+00 0. -1.
       -3    1    3    3    0  502  0.68600820197E+03 -0.55216233584E+03  0.27474904340E+03  0.92248444179E+03  0.10100000352E+00 0.  1.
</event>
<event>
 5   0  0.8893075E-05  0.1799068E+04  0.7818609E-02  0.8706795E-01
        2   -1    0    0  501    0  0.00000000000E+00  0.00000000000E+00  0.11731765719E+04  0.11731765719E+04  0.25500000920E-02 0. -1.
       -2   -1    0    0    0  501  0.00000000000E+00  0.00000000000E+00 -0.68971864401E+03  0.68971864401E+03  0.25500000920E-02 0.  1.
    10030    2    1    2    0    0  0.00000000000E+00  0.00000000000E+00  0.48345792792E+03  0.18628952159E+04  0.17990683749E+04 0.  0.
        1    1    3    3  502    0 -0.22650320165E+02  0.79345774320E+03  0.67991289979E+03  0.10451649528E+04  0.50400001928E-02 0. -1.
       -1    1    3    3    0  502  0.22650320165E+02 -0.79345774320E+03 -0.19645497187E+03  0.81773026314E+03  0.50400001928E-02 0.  1.
</event>
<event>
 5   0  0.4535100E-05  0.1799259E+04  0.7818609E-02  0.8706694E-01
       -1   -1    0    0    0  501  0.00000000000E+00  0.00000000000E+00  0.74278044359E+03  0.74278044361E+03  0.50400001928E-02 0.  1.
        1   -1    0    0  501    0  0.00000000000E+00  0.00000000000E+00 -0.10895996214E+04  0.10895996214E+04  0.50400001928E-02 0. -1.
    10030    2    1    2    0    0  0.00000000000E+00  0.00000000000E+00 -0.34681917778E+03  0.18323800650E+04  0.17992590587E+04 0.  0.
        1    1    3    3  502    0  0.89299653212E+03  0.10774738089E+03 -0.19048078385E+03  0.91942114045E+03  0.50400001928E-02 0. -1.
       -1    1    3    3    0  502 -0.89299653212E+03 -0.10774738089E+03 -0.15633839393E+03  0.91295892454E+03  0.50400001928E-02 0.  1.
</event>
<event>
 5   0  0.9184414E-05  0.1800414E+04  0.7818609E-02  0.8706079E-01
        2   -1    0    0  501    0  0.00000000000E+00  0.00000000000E+00  0.87239866899E+03  0.87239866899E+03  0.25500000920E-02 0.  1.
       -2   -1    0    0    0  501  0.00000000000E+00  0.00000000000E+00 -0.92890183082E+03  0.92890183082E+03  0.25500000920E-02 0. -1.
    10030    2    1    2    0    0  0.00000000000E+00  0.00000000000E+00 -0.56503161834E+02  0.18013004998E+04  0.18004140866E+04 0.  0.
        5    1    3    3  502    0  0.74907162450E+03 -0.41893457175E+03 -0.29992929617E+03  0.90917223162E+03  0.46999998093E+01 0. -1.
       -5    1    3    3    0  502 -0.74907162450E+03  0.41893457175E+03  0.24342613434E+03  0.89212826820E+03  0.46999998093E+01 0.  1.
</event>
<event>
 5   0  0.4578107E-05  0.1778471E+04  0.7818609E-02  0.8717833E-01
        1   -1    0    0  501    0  0.00000000000E+00  0.00000000000E+00  0.99978625948E+03  0.99978625950E+03  0.50400001928E-02 0.  1.
       -1   -1    0    0    0  501  0.00000000000E+00  0.00000000000E+00 -0.79090872677E+03  0.79090872679E+03  0.50400001928E-02 0. -1.
    10030    2    1    2    0    0  0.00000000000E+00  0.00000000000E+00  0.20887753271E+03  0.17906949863E+04  0.17784708910E+04 0.  0.
        2    1    3    3  502    0  0.38528292988E+02 -0.18295616442E+02  0.99875575773E+03  0.99966605552E+03  0.25500000920E-02 0.  1.
       -2    1    3    3    0  502 -0.38528292988E+02  0.18295616442E+02 -0.78987822502E+03  0.79102893077E+03  0.25500000920E-02 0. -1.
</event>
<event>
 5   0  0.9147432E-05  0.1798672E+04  0.7818609E-02  0.8707006E-01
        2   -1    0    0  501    0  0.00000000000E+00  0.00000000000E+00  0.70595800372E+03  0.70595800372E+03  0.25500000920E-02 0. -1.
       -2   -1    0    0    0  501  0.00000000000E+00  0.00000000000E+00 -0.11456841411E+04  0.11456841411E+04  0.25500000920E-02 0.  1.
    10030    2    1    2    0    0  0.00000000000E+00  0.00000000000E+00 -0.43972613740E+03  0.18516421448E+04  0.17986716089E+04 0.  0.
        3    1    3    3  502    0 -0.66283242479E+02  0.72916972459E+03  0.31774527375E+03  0.79815037724E+03  0.10100000352E+00 0. -1.
       -3    1    3    3    0  502  0.66283242479E+02 -0.72916972459E+03 -0.75747141115E+03  0.10534917676E+04  0.10100000352E+00 0.  1.
</event>
<event>
 5   0  0.8802655E-05  0.1859800E+04  0.7818609E-02  0.8675130E-01
       -2   -1    0    0    0  501  0.00000000000E+00  0.00000000000E+00  0.73752463819E+03  0.73752463819E+03  0.25500000920E-02 0.  1.
        2   -1    0    0  501    0  0.00000000000E+00  0.00000000000E+00 -0.11724539886E+04  0.11724539886E+04  0.25500000920E-02 0. -1.
    10030    2    1    2    0    0  0.00000000000E+00  0.00000000000E+00 -0.43492935045E+03  0.19099786268E+04  0.18597996707E+04 0.  0.
        2    1    3    3  502    0  0.54714890703E+03  0.71441184465E+03 -0.45821994372E+03  0.10098127188E+04  0.25500000920E-02 0.  1.
       -2    1    3    3    0  502 -0.54714890703E+03 -0.71441184465E+03  0.23290593267E+02  0.90016590803E+03  0.25500000920E-02 0. -1.
</event>
<event>
 5   0  0.4578107E-05  0.1783065E+04  0.7818609E-02  0.8715358E-01
       -1   -1    0    0    0  501  0.00000000000E+00  0.00000000000E+00  0.82022485518E+03  0.82022485519E+03  0.50400001928E-02 0. -1.
        1   -1    0    0  501    0  0.00000000000E+00  0.00000000000E+00 -0.96903904039E+03  0.96903904040E+03  0.50400001928E-02 0.  1.
    10030    2    1    2    0    0  0.00000000000E+00  0.00000000000E+00 -0.14881418521E+03  0.17892638956E+04  0.17830646725E+04 0.  0.
        2    1    3    3  502    0  0.74983104241E+03  0.12600042330E+02  0.40937334797E+03  0.85439562924E+03  0.25500000920E-02 0. -1.
       -2    1    3    3    0  502 -0.74983104241E+03 -0.12600042330E+02 -0.55818753318E+03  0.93486826635E+03  0.25500000920E-02 0.  1.
</event>
<event>
 5   0  0.9184414E-05  0.1800586E+04  0.7818609E-02  0.8705988E-01
       -2   -1    0    0    0  501  0.00000000000E+00  0.00000000000E+00  0.38263195409E+03  0.38263195410E+03  0.25500000920E-02 0.  1.
        2   -1    0    0  501    0  0.00000000000E+00  0.00000000000E+00 -0.21182950727E+04  0.21182950727E+04  0.25500000920E-02 0. -1.
    10030    2    1    2    0    0  0.00000000000E+00  0.00000000000E+00 -0.17356631187E+04  0.25009270268E+04  0.18005858858E+04 0.  0.
        5    1    3    3  502    0 -0.16209027200E+03 -0.34230245442E+02 -0.20969246833E+04  0.21034638536E+04  0.46999998093E+01 0. -1.
       -5    1    3    3    0  502  0.16209027200E+03  0.34230245442E+02  0.36126156465E+03  0.39746317323E+03  0.46999998093E+01 0.  1.
</event>
<event>
 5   0  0.9184414E-05  0.1808112E+04  0.7818609E-02  0.8701998E-01
        2   -1    0    0  501    0  0.00000000000E+00  0.00000000000E+00  0.11230155457E+04  0.11230155457E+04  0.25500000920E-02 0. -1.
       -2   -1    0    0    0  501  0.00000000000E+00  0.00000000000E+00 -0.72778780357E+03  0.72778780358E+03  0.25500000920E-02 0.  1.
    10030    2    1    2    0    0  0.00000000000E+00  0.00000000000E+00  0.39522774209E+03  0.18508033492E+04  0.18081117414E+04 0.  0.
        5    1    3    3  502    0 -0.20106436501E+03  0.47168759121E+03  0.95976016605E+03  0.10881533573E+04  0.46999998093E+01 0. -1.
       -5    1    3    3    0  502  0.20106436501E+03 -0.47168759121E+03 -0.56453242396E+03  0.76264999199E+03  0.46999998093E+01 0.  1.
</event>
<event>
 5   0  0.9147432E-05  0.1829201E+04  0.7818609E-02  0.8690923E-01
       -2   -1    0    0    0  501  0.00000000000E+00  0.00000000000E+00  0.87322988140E+03  0.87322988141E+03  0.25500000920E-02 0.  1.
        2   -1    0    0  501    0  0.00000000000E+00  0.00000000000E+00 -0.95793117649E+03  0.95793117649E+03  0.25500000920E-02 0. -1.
    10030    2    1    2    0    0  0.00000000000E+00  0.00000000000E+00 -0.84701295083E+02  0.18311610579E+04  0.18292010580E+04 0.  0.
        3    1    3    3  502    0 -0.51470058584E+03  0.45750692483E+03 -0.64487997624E+03  0.94345083246E+03  0.10100000352E+00 0. -1.
       -3    1    3    3    0  502  0.51470058584E+03 -0.45750692483E+03  0.56017868115E+03  0.88771022544E+03  0.10100000352E+00 0.  1.
</event>
<event>
 5   0  0.8893075E-05  0.1790705E+04  0.7818609E-02  0.8711258E-01
       -2   -1    0    0    0  501  0.00000000000E+00  0.00000000000E+00  0.31280115616E+03  0.31280115617E+03  0.25500000920E-02 0. -1.
        2   -1    0    0  501    0  0.00000000000E+00  0.00000000000E+00 -0.25628286410E+04  0.25628286410E+04  0.25500000920E-02 0.  1.
    10030    2    1    2    0    0  0.00000000000E+00  0.00000000000E+00 -0.22500274849E+04  0.28756297972E+04  0.17907046233E+04 0.  0.
        1    1    3    3  502    0 -0.36159835096E+03  0.46487147019E+03 -0.42040383280E+02  0.59044580197E+03  0.50400001928E-02 0. -1.
       -1    1    3    3    0  502  0.36159835096E+03 -0.46487147019E+03 -0.22079871016E+04  0.22851839952E+04  0.50400001928E-02 0.  1.
</event>
<event>
 5   0  0.4623665E-05  0.1798039E+04  0.7818609E-02  0.8707343E-01
        1   -1    0    0  501    0  0.00000000000E+00  0.00000000000E+00  0.69730265091E+03  0.69730265093E+03  0.50400001928E-02 0. -1.
       -1   -1    0    0    0  501  0.00000000000E+00  0.00000000000E+00 -0.11590893596E+04  0.11590893596E+04  0.50400001928E-02 0.  1.
    10030    2    1    2    0    0  0.00000000000E+00  0.00000000000E+00 -0.46178670868E+03  0.18563920105E+04  0.17980390242E+04 0.  0.
        5    1    3    3  502    0 -0.75787844501E+03  0.53912015635E+02 -0.72703837791E+03  0.10516145377E+04  0.46999998093E+01 0.  1.
       -5    1    3    3    0  502  0.75787844501E+03 -0.53912015635E+02  0.26525166923E+03  0.80477747289E+03  0.46999998093E+01 0. -1.
</event>
<event>
 5   0  0.4535100E-05  0.1779959E+04  0.7818609E-02  0.8717030E-01
       -1   -1    0    0    0  501  0.00000000000E+00  0.00000000000E+00  0.47399216578E+03  0.47399216581E+03  0.50400001928E-02 0. -1.
        1   -1    0    0  501    0  0.00000000000E+00  0.00000000000E+00 -0.16710481285E+04  0.16710481285E+04  0.50400001928E-02 0.  1.
    10030    2    1    2    0    0  0.00000000000E+00  0.00000000000E+00 -0.11970559627E+04  0.21450402943E+04  0.17799592373E+04 0.  0.
        1    1    3    3  502    0 -0.53916298373E+03  0.51634637246E+03 -0.11824184206E+04  0.13983646237E+04  0.50400001928E-02 0.  1.
       -1    1    3    3    0  502  0.53916298373E+03 -0.51634637246E+03 -0.14637542063E+02  0.74667567058E+03  0.50400001928E-02 0. -1.
</event>
<event>
 5   0  0.8802655E-05  0.1802400E+04  0.7818609E-02  0.8705024E-01
       -2   -1    0    0    0  501  0.00000000000E+00  0.00000000000E+00  0.66343572507E+03  0.66343572508E+03  0.25500000920E-02 0. -1.
        2   -1    0    0  501    0  0.00000000000E+00  0.00000000000E+00 -0.12241744423E+04  0.12241744423E+04  0.25500000920E-02 0.  1.
    10030    2    1    2    0    0  0.00000000000E+00  0.00000000000E+00 -0.56073871724E+03  0.18876101674E+04  0.18023995770E+04 0.  0.
        2    1    3    3  502    0  0.21758623668E+03 -0.81279627579E+03  0.57658403798E+02  0.84338961807E+03  0.25500000920E-02 0. -1.
       -2    1    3    3    0  502 -0.21758623668E+03  0.81279627579E+03 -0.61839712104E+03  0.10442205493E+04  0.25500000920E-02 0.  1.
</event>
<event>
 5   0  0.4578107E-05  0.1794448E+04  0.7818609E-02  0.8709258E-01
       -1   -1    0    0    0  501  0.00000000000E+00  0.00000000000E+00  0.80580817366E+03  0.80580817368E+03  0.50400001928E-02 0.  1.
        1   -1    0    0  501    0  0.00000000000E+00  0.00000000000E+00 -0.99901052775E+03  0.99901052776E+03  0.50400001928E-02 0. -1.
    10030    2    1    2    0    0  0.00000000000E+00  0.00000000000E+00 -0.19320235409E+03  0.18048187014E+04  0.17944479361E+04 0.  0.
        2    1    3    3  502    0 -0.66334735182E+03  0.42165657670E+02 -0.70274760681E+03  0.96729615461E+03  0.25500000920E-02 0. -1.
       -2    1    3    3    0  502  0.66334735182E+03 -0.42165657670E+02  0.50954525272E+03  0.83752254682E+03  0.25500000920E-02 0.  1.
</event>
<event>
 5   0  0.8893075E-05  0.1810110E+04  0.7818609E-02  0.8700941E-01
       -2   -1    0    0    0  501  0.00000000000E+00  0.00000000000E+00  0.40244900669E+03  0.40244900670E+03  0.25500000920E-02 0. -1.
        2   -1    0    0  501    0  0.00000000000E+00  0.00000000000E+00 -0.20353501361E+04  0.20353501361E+04  0.25500000920E-02 0.  1.
    10030    2    1    2    0    0  0.00000000000E+00  0.00000000000E+00 -0.16329011294E+04  0.24377991428E+04  0.18101100967E+04 0.  0.
        1    1    3    3  502    0  0.15402534980E+03  0.56350476268E+03 -0.17474399497E+04  0.18425004217E+04  0.50400001928E-02 0.  1.
       -1    1    3    3    0  502 -0.15402534980E+03 -0.56350476268E+03  0.11453882035E+03  0.59529872109E+03  0.50400001928E-02 0. -1.
</event>
<event>
 5   0  0.9184414E-05  0.1840743E+04  0.7818609E-02  0.8684928E-01
       -2   -1    0    0    0  501  0.00000000000E+00  0.00000000000E+00  0.32235016486E+03  0.32235016487E+03  0.25500000920E-02 0. -1.
        2   -1    0    0  501    0  0.00000000000E+00  0.00000000000E+00 -0.26278373690E+04  0.26278373690E+04  0.25500000920E-02 0.  1.
    10030    2    1    2    0    0  0.00000000000E+00  0.00000000000E+00 -0.23054872041E+04  0.29501875339E+04  0.18407431207E+04 0.  0.
        5    1    3    3  502    0 -0.54221657101E+03 -0.66147648641E+03 -0.60802833026E+03  0.10494143568E+04  0.46999998093E+01 0. -1.
       -5    1    3    3    0  502  0.54221657101E+03  0.66147648641E+03 -0.16974588739E+04  0.19007731770E+04  0.46999998093E+01 0.  1.
</event>
<event>
 5   0  0.4335117E-05  0.1800620E+04  0.7818609E-02  0.8705970E-01
        1   -1    0    0  501    0  0.00000000000E+00  0.00000000000E+00  0.70265858868E+03  0.70265858870E+03  0.50400001928E-02 0. -1.
       -1   -1    0    0    0  501  0.00000000000E+00  0.00000000000E+00 -0.11535590794E+04  0.11535590794E+04  0.50400001928E-02 0.  1.
    10030    2    1    2    0    0  0.00000000000E+00  0.00000000000E+00 -0.45090049070E+03  0.18562176681E+04  0.18006201095E+04 0.  0.
        3    1    3    3  502    0 -0.59067292837E+03 -0.64839690506E+03 -0.16090518567E+02  0.87725251199E+03  0.10100000352E+00 0. -1.
       -3    1    3    3    0  502  0.59067292837E+03  0.64839690506E+03 -0.43480997213E+03  0.97896515611E+03  0.10100000352E+00 0.  1.
</event>
<event>
 5   0  0.4623665E-05  0.1721148E+04  0.7818609E-02  0.8749394E-01
        1   -1    0    0  501    0  0.00000000000E+00  0.00000000000E+00  0.15511728221E+04  0.15511728221E+04  0.50400001928E-02 0.  1.
       -1   -1    0    0    0  501  0.00000000000E+00  0.00000000000E+00 -0.47743701656E+03  0.47743701659E+03  0.50400001928E-02 0. -1.
    10030    2    1    2    0    0  0.00000000000E+00  0.00000000000E+00  0.10737358055E+04  0.20286098387E+04  0.17211476687E+04 0.  0.
        5    1    3    3  502    0  0.47872437327E+03  0.71217685628E+03  0.46055317806E+03  0.97391181326E+03  0.46999998093E+01 0. -1.
       -5    1    3    3    0  502 -0.47872437327E+03 -0.71217685628E+03  0.61318262746E+03  0.10546980254E+04  0.46999998093E+01 0.  1.
</event>
<event>
 5   0  0.8893075E-05  0.1758185E+04  0.7818609E-02  0.8728858E-01
       -2   -1    0    0    0  501  0.00000000000E+00  0.00000000000E+00  0.13483319350E+04  0.13483319350E+04  0.25500000920E-02 0. -1.
        2   -1    0    0  501    0  0.00000000000E+00  0.00000000000E+00 -0.57315516193E+03  0.57315516194E+03  0.25500000920E-02 0.  1.
    10030    2    1    2    0    0  0.00000000000E+00  0.00000000000E+00  0.77517677308E+03  0.19214870970E+04  0.17581847554E+04 0.  0.
        1    1    3    3  502    0 -0.33492997341E+03  0.42713693741E+03  0.11433213658E+04  0.12656254564E+04  0.50400001928E-02 0. -1.
       -1    1    3    3    0  502  0.33492997341E+03 -0.42713693741E+03 -0.36814459270E+03  0.65586164056E+03  0.50400001928E-02 0.  1.
</event>
<event>
 5   0  0.8892280E-05  0.1795002E+04  0.7818609E-02  0.8708962E-01
       -2   -1    0    0    0  501  0.00000000000E+00  0.00000000000E+00  0.74769521807E+03  0.74769521807E+03  0.25500000920E-02 0. -1.
        2   -1    0    0  501    0  0.00000000000E+00  0.00000000000E+00 -0.10773208848E+04  0.10773208848E+04  0.25500000920E-02 0.  1.
    10030    2    1    2    0    0  0.00000000000E+00  0.00000000000E+00 -0.32962566673E+03  0.18250161029E+04  0.17950015865E+04 0.  0.
        4    1    3    3  502    0 -0.18500820340E+03  0.37173027485E+03  0.64416417406E+03  0.76639449933E+03  0.12699999809E+01 0. -1.
       -4    1    3    3    0  502  0.18500820340E+03 -0.37173027485E+03 -0.97378984079E+03  0.10586216035E+04  0.12699999809E+01 0.  1.
</event>
<event>
 5   0  0.3270375E-05  0.1763795E+04  0.7818609E-02  0.8725794E-01
       -4   -1    0    0    0  501  0.00000000000E+00  0.00000000000E+00  0.41433633003E+03  0.41433827639E+03  0.12699999809E+01 0. -1.
        4   -1    0    0  501    0  0.00000000000E+00  0.00000000000E+00 -0.18770744468E+04  0.18770748765E+04  0.12699999809E+01 0.  1.
    10030    2    1    2    0    0  0.00000000000E+00  0.00000000000E+00 -0.14627381168E+04  0.22914131529E+04  0.17637946135E+04 0.  0.
        5    1    3    3  502    0  0.18228116459E+03  0.63873454006E+03 -0.14849952996E+04  0.16267886665E+04  0.46999998093E+01 0.  1.
       -5    1    3    3    0  502 -0.18228116459E+03 -0.63873454006E+03  0.22257182833E+02  0.66462448632E+03  0.46999998093E+01 0. -1.
</event>
<event>
 5   0  0.4494757E-05  0.1804193E+04  0.7818609E-02  0.8704073E-01
        1   -1    0    0  501    0  0.00000000000E+00  0.00000000000E+00  0.17190063921E+04  0.17190063921E+04  0.50400001928E-02 0. -1.
       -1   -1    0    0    0  501  0.00000000000E+00  0.00000000000E+00 -0.47340044990E+03  0.47340044992E+03  0.50400001928E-02 0.  1.
    10030    2    1    2    0    0  0.00000000000E+00  0.00000000000E+00  0.12456059422E+04  0.21924068420E+04  0.18041933371E+04 0.  0.
        4    1    3    3  502    0 -0.27704157819E+02 -0.54384314992E+03  0.14967513087E+04  0.15927331807E+04  0.12699999809E+01 0. -1.
       -4    1    3    3    0  502  0.27704157819E+02  0.54384314992E+03 -0.25114536647E+03  0.59967366131E+03  0.12699999809E+01 0.  1.
</event>
<event>
 5   0  0.9147432E-05  0.1798651E+04  0.7818609E-02  0.8707017E-01
       -2   -1    0    0    0  501  0.00000000000E+00  0.00000000000E+00  0.60497245841E+03  0.60497245842E+03  0.25500000920E-02 0.  1.
        2   -1    0    0  501    0  0.00000000000E+00  0.00000000000E+00 -0.13368974611E+04  0.13368974611E+04  0.25500000920E-02 0. -1.
    10030    2    1    2    0    0  0.00000000000E+00  0.00000000000E+00 -0.73192500272E+03  0.19418699196E+04  0.17986507651E+04 0.  0.
        3    1    3    3  502    0 -0.11941567768E+03  0.49827996601E+03 -0.11638952168E+04  0.12716898657E+04  0.10100000352E+00 0. -1.
       -3    1    3    3    0  502  0.11941567768E+03 -0.49827996601E+03  0.43197021405E+03  0.67018005389E+03  0.10100000352E+00 0.  1.
</event>
<event>
 5   0  0.4535100E-05  0.1798154E+04  0.7818609E-02  0.8707282E-01
       -1   -1    0    0    0  501  0.00000000000E+00  0.00000000000E+00  0.68548141756E+03  0.68548141758E+03  0.50400001928E-02 0.  1.
        1   -1    0    0  501    0  0.00000000000E+00  0.00000000000E+00 -0.11792287723E+04  0.11792287724E+04  0.50400001928E-02 0. -1.
    10030    2    1    2    0    0  0.00000000000E+00  0.00000000000E+00 -0.49374735479E+03  0.18647101899E+04  0.17981539540E+04 0.  0.
        1    1    3    3  502    0  0.49364307912E+03  0.74889472926E+03 -0.18284192278E+03  0.91540044452E+03  0.50400001928E-02 0.  1.
       -1    1    3    3    0  502 -0.49364307912E+03 -0.74889472926E+03 -0.31090543200E+03  0.94930974542E+03  0.50400001928E-02 0. -1.
</event>
<event>
 5   0  0.9184414E-05  0.1792116E+04  0.7818609E-02  0.8710503E-01
        2   -1    0    0  501    0  0.00000000000E+00  0.00000000000E+00  0.13291910493E+04  0.13291910493E+04  0.25500000920E-02 0. -1.
       -2   -1    0    0    0  501  0.00000000000E+00  0.00000000000E+00 -0.60406693913E+03  0.60406693913E+03  0.25500000920E-02 0.  1.
    10030    2    1    2    0    0  0.00000000000E+00  0.00000000000E+00  0.72512411021E+03  0.19332579885E+04  0.17921164791E+04 0.  0.
        5    1    3    3  502    0  0.30206260352E+03 -0.14670455665E+03 -0.53360787173E+03  0.63049464245E+03  0.46999998093E+01 0.  1.
       -5    1    3    3    0  502 -0.30206260352E+03  0.14670455665E+03  0.12587319819E+04  0.13027633460E+04  0.46999998093E+01 0. -1.
</event>
<event>
 5   0  0.4578107E-05  0.1793973E+04  0.7818609E-02  0.8709511E-01
        1   -1    0    0  501    0  0.00000000000E+00  0.00000000000E+00  0.25487192022E+04  0.25487192022E+04  0.50400001928E-02 0. -1.
       -1   -1    0    0    0  501  0.00000000000E+00  0.00000000000E+00 -0.31568206047E+03  0.31568206051E+03  0.50400001928E-02 0.  1.
    10030    2    1    2    0    0  0.00000000000E+00  0.00000000000E+00  0.22330371417E+04  0.28644012627E+04  0.17939731652E+04 0.  0.
        2    1    3    3  502    0 -0.84469413052E+03 -0.81191416368E+02  0.15806136576E+04  0.17940010465E+04  0.25500000920E-02 0.  1.
       -2    1    3    3    0  502  0.84469413052E+03  0.81191416368E+02  0.65242348414E+03  0.10704002162E+04  0.25500000920E-02 0. -1.
</event>
<event>
 5   0  0.8893075E-05  0.1800914E+04  0.7818609E-02  0.8705813E-01
        2   -1    0    0  501    0  0.00000000000E+00  0.00000000000E+00  0.86525105524E+03  0.86525105524E+03  0.25500000920E-02 0.  1.
       -2   -1    0    0    0  501  0.00000000000E+00  0.00000000000E+00 -0.93709573975E+03  0.93709573975E+03  0.25500000920E-02 0. -1.
    10030    2    1    2    0    0  0.00000000000E+00  0.00000000000E+00 -0.71844684510E+02  0.18023467950E+04  0.18009142986E+04 0.  0.
        1    1    3    3  502    0  0.35819169392E+03 -0.36350377348E+03 -0.77839303417E+03  0.93076957331E+03  0.50400001928E-02 0. -1.
       -1    1    3    3    0  502 -0.35819169392E+03  0.36350377348E+03  0.70654834966E+03  0.87157722168E+03  0.50400001928E-02 0.  1.
</event>
<event>
 5   0  0.8802655E-05  0.1796649E+04  0.7818609E-02  0.8708084E-01
       -2   -1    0    0    0  501  0.00000000000E+00  0.00000000000E+00  0.10550526699E+04  0.10550526699E+04  0.25500000920E-02 0.  1.
        2   -1    0    0  501    0  0.00000000000E+00  0.00000000000E+00 -0.76487802643E+03  0.76487802644E+03  0.25500000920E-02 0. -1.
    10030    2    1    2    0    0  0.00000000000E+00  0.00000000000E+00  0.29017464351E+03  0.18199306964E+04  0.17966486623E+04 0.  0.
        2    1    3    3  502    0  0.82333035631E+03 -0.33421522275E+03  0.27875914752E+03  0.93127834350E+03  0.25500000920E-02 0. -1.
       -2    1    3    3    0  502 -0.82333035631E+03  0.33421522275E+03  0.11415495997E+02  0.88865235289E+03  0.25500000920E-02 0.  1.
</event>
<event>
 5   0  0.3270375E-05  0.1797726E+04  0.7818609E-02  0.8707510E-01
        3   -1    0    0  501    0  0.00000000000E+00  0.00000000000E+00  0.42945318386E+03  0.42945319573E+03  0.10100000352E+00 0. -1.
       -3   -1    0    0    0  501  0.00000000000E+00  0.00000000000E+00 -0.18813564161E+04  0.18813564189E+04  0.10100000352E+00 0.  1.
    10030    2    1    2    0    0  0.00000000000E+00  0.00000000000E+00 -0.14519032323E+04  0.23108096146E+04  0.17977258075E+04 0.  0.
        4    1    3    3  502    0 -0.27639818810E+02 -0.47472257428E+03  0.25452627874E+03  0.53936140165E+03  0.12699999809E+01 0. -1.
       -4    1    3    3    0  502  0.27639818810E+02  0.47472257428E+03 -0.17064295110E+04  0.17714482129E+04  0.12699999809E+01 0.  1.
</event>
<event>
 5   0  0.4494757E-05  0.1799298E+04  0.7818609E-02  0.8706673E-01
        1   -1    0    0  501    0  0.00000000000E+00  0.00000000000E+00  0.52559812921E+03  0.52559812923E+03  0.50400001928E-02 0.  1.
       -1   -1    0    0    0  501  0.00000000000E+00  0.00000000000E+00 -0.15398995362E+04  0.15398995362E+04  0.50400001928E-02 0. -1.
    10030    2    1    2    0    0  0.00000000000E+00  0.00000000000E+00 -0.10143014070E+04  0.20654976654E+04  0.17992979914E+04 0.  0.
        4    1    3    3  502    0  0.36216393096E+03  0.10062759004E+03 -0.14454366765E+04  0.14935117755E+04  0.12699999809E+01 0. -1.
       -4    1    3    3    0  502 -0.36216393096E+03 -0.10062759004E+03  0.43113526953E+03  0.57198588995E+03  0.12699999809E+01 0.  1.
</event>
<event>
 5   0  0.8892280E-05  0.1790017E+04  0.7818609E-02  0.8711626E-01
       -2   -1    0    0    0  501  0.00000000000E+00  0.00000000000E+00  0.99545106045E+03  0.99545106046E+03  0.25500000920E-02 0. -1.
        2   -1    0    0  501    0  0.00000000000E+00  0.00000000000E+00 -0.80470067535E+03  0.80470067535E+03  0.25500000920E-02 0.  1.
    10030    2    1    2    0    0  0.00000000000E+00  0.00000000000E+00  0.19075038510E+03  0.18001517358E+04  0.17900169168E+04 0.  0.
        4    1    3    3  502    0  0.82688422796E+03  0.32763885720E+03 -0.49583181423E+01  0.88944417757E+03  0.12699999809E+01 0.  1.
       -4    1    3    3    0  502 -0.82688422796E+03 -0.32763885720E+03  0.19570870325E+03  0.91070755824E+03  0.12699999809E+01 0. -1.
</event>
<event>
 5   0  0.9184414E-05  0.1802222E+04  0.7818609E-02  0.8705119E-01
        2   -1    0    0  501    0  0.00000000000E+00  0.00000000000E+00  0.16911431369E+04  0.16911431369E+04  0.25500000920E-02 0. -1.
       -2   -1    0    0    0  501  0.00000000000E+00  0.00000000000E+00 -0.48014905211E+03  0.48014905211E+03  0.25500000920E-02 0.  1.
    10030    2    1    2    0    0  0.00000000000E+00  0.00000000000E+00  0.12109940848E+04  0.21712921891E+04  0.18022217113E+04 0.  0.
        5    1    3    3  502    0 -0.73227456874E+03 -0.45107637733E+03  0.28158480041E+03  0.90499062538E+03  0.46999998093E+01 0. -1.
       -5    1    3    3    0  502  0.73227456874E+03  0.45107637733E+03  0.92940928443E+03  0.12663015637E+04  0.46999998093E+01 0.  1.
</event>
<event>
 5   0  0.4535100E-05  0.1792621E+04  0.7818609E-02  0.8710234E-01
        1   -1    0    0  501    0  0.00000000000E+00  0.00000000000E+00  0.12216411378E+04  0.12216411378E+04  0.50400001928E-02 0. -1.
       -1   -1    0    0    0  501  0.00000000000E+00  0.00000000000E+00 -0.65761714548E+03  0.65761714550E+03  0.50400001928E-02 0.  1.
    10030    2    1    2    0    0  0.00000000000E+00  0.00000000000E+00  0.56402399230E+03  0.18792582833E+04  0.17926206044E+04 0.  0.
        1    1    3    3  502    0  0.14455402963E+03  0.47915440044E+03  0.10615125289E+04  0.11735815506E+04  0.50400001928E-02 0. -1.
       -1    1    3    3    0  502 -0.14455402963E+03 -0.47915440044E+03 -0.49748853660E+03  0.70567673266E+03  0.50400001928E-02 0.  1.
</event>
<event>
 5   0  0.8892280E-05  0.1819587E+04  0.7818609E-02  0.8695952E-01
       -2   -1    0    0    0  501  0.00000000000E+00  0.00000000000E+00  0.64749181729E+03  0.64749181729E+03  0.25500000920E-02 0.  1.
        2   -1    0    0  501    0  0.00000000000E+00  0.00000000000E+00 -0.12783547087E+04  0.12783547087E+04  0.25500000920E-02 0. -1.
    10030    2    1    2    0    0  0.00000000000E+00  0.00000000000E+00 -0.63086289142E+03  0.19258465260E+04  0.18195870009E+04 0.  0.
        4    1    3    3  502    0 -0.29501460834E+03  0.27638399910E+03 -0.11780747552E+04  0.12455053095E+04  0.12699999809E+01 0. -1.
       -4    1    3    3    0  502  0.29501460834E+03 -0.27638399910E+03  0.54721186382E+03  0.68034121652E+03  0.12699999809E+01 0.  1.
</event>
<event>
 5   0  0.3270375E-05  0.1809357E+04  0.7818609E-02  0.8701339E-01
       -3   -1    0    0    0  501  0.00000000000E+00  0.00000000000E+00  0.17250596886E+04  0.17250596916E+04  0.10100000352E+00 0. -1.
        3   -1    0    0  501    0  0.00000000000E+00  0.00000000000E+00 -0.47444346919E+03  0.47444347994E+03  0.10100000352E+00 0.  1.
    10030    2    1    2    0    0  0.00000000000E+00  0.00000000000E+00  0.12506162194E+04  0.21995031715E+04  0.18093571436E+04 0.  0.
        5    1    3    3  502    0  0.35619362003E+03 -0.30096843489E+03 -0.31706959716E+03  0.56392474072E+03  0.46999998093E+01 0.  1.
       -5    1    3    3    0  502 -0.35619362003E+03  0.30096843489E+03  0.15676858166E+04  0.16355784308E+04  0.46999998093E+01 0. -1.
</event>
<event>
 5   0  0.4335117E-05  0.1801237E+04  0.7818609E-02  0.8705642E-01
        1   -1    0    0  501    0  0.00000000000E+00  0.00000000000E+00  0.13534765356E+04  0.13534765356E+04  0.50400001928E-02 0.  1.
       -1   -1    0    0    0  501  0.00000000000E+00  0.00000000000E+00 -0.59928176417E+03  0.59928176419E+03  0.50400001928E-02 0. -1.
    10030    2    1    2    0    0  0.00000000000E+00  0.00000000000E+00  0.75419477142E+03  0.19527582998E+04  0.18012371371E+04 0.  0.
        3    1    3    3  502    0 -0.22417473049E+02 -0.68857757354E+03  0.10059547911E+04  0.12192566054E+04  0.10100000352E+00 0.  1.
       -3    1    3    3    0  502  0.22417473049E+02  0.68857757354E+03 -0.25176001972E+03  0.73350169435E+03  0.10100000352E+00 0. -1.
</event>
<event>
 5   0  0.4578107E-05  0.1813659E+04  0.7818609E-02  0.8699069E-01
       -1   -1    0    0    0  501  0.00000000000E+00  0.00000000000E+00  0.47074702447E+03  0.47074702450E+03  0.50400001928E-02 0.  1.
        1   -1    0    0  501    0  0.00000000000E+00  0.00000000000E+00 -0.17468821701E+04  0.17468821701E+04  0.50400001928E-02 0. -1.
    10030    2    1    2    0    0  0.00000000000E+00  0.00000000000E+00 -0.12761351456E+04  0.22176291946E+04  0.18136588254E+04 0.  0.
        2    1    3    3  502    0 -0.36690989739E+03 -0.30197807208E+03  0.30631509766E+03  0.56536940834E+03  0.25500000920E-02 0.  1.
       -2    1    3    3    0  502  0.36690989739E+03  0.30197807208E+03 -0.15824502433E+04  0.16522597862E+04  0.25500000920E-02 0. -1.
</event>
<event>
 5   0  0.4578107E-05  0.1803566E+04  0.7818609E-02  0.8704405E-01
       -1   -1    0    0    0  501  0.00000000000E+00  0.00000000000E+00  0.63325010561E+03  0.63325010563E+03  0.50400001928E-02 0. -1.
        1   -1    0    0  501    0  0.00000000000E+00  0.00000000000E+00 -0.12841885414E+04  0.12841885414E+04  0.50400001928E-02 0.  1.
    10030    2    1    2    0    0  0.00000000000E+00  0.00000000000E+00 -0.65093843579E+03  0.19174386470E+04  0.18035659450E+04 0.  0.
        2    1    3    3  502    0 -0.74640808197E+03 -0.33967489307E+03 -0.72426409720E+03  0.10941035327E+04  0.25500000920E-02 0.  1.
       -2    1    3    3    0  502  0.74640808197E+03  0.33967489307E+03  0.73325661411E+02  0.82333511431E+03  0.25500000920E-02 0. -1.
</event>
<event>
 5   0  0.4535100E-05  0.1799922E+04  0.7818609E-02  0.8706341E-01
        1   -1    0    0  501    0  0.00000000000E+00  0.00000000000E+00  0.13144322685E+04  0.13144322685E+04  0.50400001928E-02 0. -1.
       -1   -1    0    0    0  501  0.00000000000E+00  0.00000000000E+00 -0.61618211603E+03  0.61618211605E+03  0.50400001928E-02 0.  1.
    10030    2    1    2    0    0  0.00000000000E+00  0.00000000000E+00  0.69825015246E+03  0.19306143846E+04  0.17999218390E+04 0.  0.
        1    1    3    3  502    0  0.88713318743E+03  0.12721252099E+03  0.43719243465E+03  0.99715873495E+03  0.50400001928E-02 0. -1.
       -1    1    3    3    0  502 -0.88713318743E+03 -0.12721252099E+03  0.26105771782E+03  0.93345564962E+03  0.50400001928E-02 0.  1.
</event>
<event>
 5   0  0.4623665E-05  0.1809941E+04  0.7818609E-02  0.8701031E-01
       -1   -1    0    0    0  501  0.00000000000E+00  0.00000000000E+00  0.13238303851E+04  0.13238303851E+04  0.50400001928E-02 0. -1.
        1   -1    0    0  501    0  0.00000000000E+00  0.00000000000E+00 -0.61863785365E+03  0.61863785367E+03  0.50400001928E-02 0.  1.
    10030    2    1    2    0    0  0.00000000000E+00  0.00000000000E+00  0.70519253142E+03  0.19424682387E+04  0.18099409803E+04 0.  0.
        5    1    3    3  502    0 -0.18762112571E+03  0.88167782723E+03  0.43840047278E+03  0.10023844284E+04  0.46999998093E+01 0. -1.
       -5    1    3    3    0  502  0.18762112571E+03 -0.88167782723E+03  0.26679205864E+03  0.94008381031E+03  0.46999998093E+01 0.  1.
</event>
<event>
 5   0  0.4578107E-05  0.1794437E+04  0.7818609E-02  0.8709264E-01
       -1   -1    0    0    0  501  0.00000000000E+00  0.00000000000E+00  0.79843592620E+03  0.79843592622E+03  0.50400001928E-02 0.  1.
        1   -1    0    0  501    0  0.00000000000E+00  0.00000000000E+00 -0.10082219823E+04  0.10082219823E+04  0.50400001928E-02 0. -1.
    10030    2    1    2    0    0  0.00000000000E+00  0.00000000000E+00 -0.20978605606E+03  0.18066579085E+04  0.17944365715E+04 0.  0.
        2    1    3    3  502    0 -0.79588302244E+03  0.38545135553E+03  0.47791129235E+02  0.88559952853E+03  0.25500000920E-02 0.  1.
       -2    1    3    3    0  502  0.79588302244E+03 -0.38545135553E+03 -0.25757718529E+03  0.92105837995E+03  0.25500000920E-02 0. -1.
</event>
<event>
 5   0  0.8892280E-05  0.1801027E+04  0.7818609E-02  0.8705754E-01
       -2   -1    0    0    0  501  0.00000000000E+00  0.00000000000E+00  0.71134263127E+03  0.71134263128E+03  0.25500000920E-02 0. -1.
        2   -1    0    0  501    0  0.00000000000E+00  0.00000000000E+00 -0.11399909712E+04  0.11399909712E+04  0.25500000920E-02 0.  1.
    10030    2    1    2    0    0  0.00000000000E+00  0.00000000000E+00 -0.42864833995E+03  0.18513336025E+04  0.18010265707E+04 0.  0.
        4    1    3    3  502    0 -0.85343657207E+02 -0.29096042095E+03 -0.10859363452E+04  0.11274754388E+04  0.12699999809E+01 0.  1.
       -4    1    3    3    0  502  0.85343657207E+02  0.29096042095E+03  0.65728800526E+03  0.72385816369E+03  0.12699999809E+01 0. -1.
</event>
<event>
 5   0  0.8892280E-05  0.1791839E+04  0.7818609E-02  0.8710651E-01
       -2   -1    0    0    0  501  0.00000000000E+00  0.00000000000E+00  0.17512484176E+04  0.17512484176E+04  0.25500000920E-02 0.  1.
        2   -1    0    0  501    0  0.00000000000E+00  0.00000000000E+00 -0.45834281155E+03  0.45834281156E+03  0.25500000920E-02 0. -1.
    10030    2    1    2    0    0  0.00000000000E+00  0.00000000000E+00  0.12929056060E+04  0.22095912291E+04  0.17918394163E+04 0.  0.
        4    1    3    3  502    0  0.12811249211E+02 -0.27332343600E+03 -0.40555528932E+03  0.48923055339E+03  0.12699999809E+01 0. -1.
       -4    1    3    3    0  502 -0.12811249211E+02  0.27332343600E+03  0.16984608953E+04  0.17203606757E+04  0.12699999809E+01 0.  1.
</event>
<event>
 5   0  0.8893075E-05  0.1807917E+04  0.7818609E-02  0.8702101E-01
        2   -1    0    0  501    0  0.00000000000E+00  0.00000000000E+00  0.10345913827E+04  0.10345913827E+04  0.25500000920E-02 0.  1.
       -2   -1    0    0    0  501  0.00000000000E+00  0.00000000000E+00 -0.78981966900E+03  0.78981966901E+03  0.25500000920E-02 0. -1.
    10030    2    1    2    0    0  0.00000000000E+00  0.00000000000E+00  0.24477171370E+03  0.18244110517E+04  0.18079166169E+04 0.  0.
        1    1    3    3  502    0  0.24030184085E+03 -0.79909028285E+03 -0.22842117291E+03  0.86513957667E+03  0.50400001928E-02 0. -1.
       -1    1    3    3    0  502 -0.24030184085E+03  0.79909028285E+03  0.47319288660E+03  0.95927147504E+03  0.50400001928E-02 0.  1.
</event>
<event>
 5   0  0.4494757E-05  0.1792851E+04  0.7818609E-02  0.8710110E-01
        1   -1    0    0  501    0  0.00000000000E+00  0.00000000000E+00  0.12024560926E+04  0.12024560926E+04  0.50400001928E-02 0. -1.
       -1   -1    0    0    0  501  0.00000000000E+00  0.00000000000E+00 -0.66828118250E+03  0.66828118252E+03  0.50400001928E-02 0.  1.
    10030    2    1    2    0    0  0.00000000000E+00  0.00000000000E+00  0.53417491007E+03  0.18707372751E+04  0.17928511143E+04 0.  0.
        4    1    3    3  502    0 -0.55817695071E+03  0.63645176654E+03  0.57476117226E+03  0.10232225454E+04  0.12699999809E+01 0. -1.
       -4    1    3    3    0  502  0.55817695071E+03 -0.63645176654E+03 -0.40586262193E+02  0.84751472967E+03  0.12699999809E+01 0.  1.
</event>
<event>
 5   0  0.4494757E-05  0.1755066E+04  0.7818609E-02  0.8730567E-01
       -1   -1    0    0    0  501  0.00000000000E+00  0.00000000000E+00  0.92146227238E+03  0.92146227239E+03  0.50400001928E-02 0.  1.
        1   -1    0    0  501    0  0.00000000000E+00  0.00000000000E+00 -0.83569789567E+03  0.83569789568E+03  0.50400001928E-02 0. -1.
    10030    2    1    2    0    0  0.00000000000E+00  0.00000000000E+00  0.85764376714E+02  0.17571601681E+04  0.17550659042E+04 0.  0.
        4    1    3    3  502    0 -0.13306914478E+03 -0.29771815785E+03 -0.77277944768E+03  0.83876885163E+03  0.12699999809E+01 0. -1.
       -4    1    3    3    0  502  0.13306914478E+03  0.29771815785E+03  0.85854382440E+03  0.91839131644E+03  0.12699999809E+01 0.  1.
</event>
<event>
 5   0  0.9184414E-05  0.1797282E+04  0.7818609E-02  0.8707746E-01
       -2   -1    0    0    0  501  0.00000000000E+00  0.00000000000E+00  0.64774126364E+03  0.64774126364E+03  0.25500000920E-02 0.  1.
        2   -1    0    0  501    0  0.00000000000E+00  0.00000000000E+00 -0.12467255944E+04  0.12467255944E+04  0.25500000920E-02 0. -1.
    10030    2    1    2    0    0  0.00000000000E+00  0.00000000000E+00 -0.59898433073E+03  0.18944668580E+04  0.17972819611E+04 0.  0.
        5    1    3    3  502    0  0.24663257119E+03 -0.77513480068E+03  0.10309198459E+03  0.81994611511E+03  0.46999998093E+01 0.  1.
       -5    1    3    3    0  502 -0.24663257119E+03  0.77513480068E+03 -0.70207631532E+03  0.10745207429E+04  0.46999998093E+01 0. -1.
</event>
<event>
 5   0  0.4623665E-05  0.1806181E+04  0.7818609E-02  0.8703019E-01
        1   -1    0    0  501    0  0.00000000000E+00  0.00000000000E+00  0.22616747369E+04  0.22616747369E+04  0.50400001928E-02 0. -1.
       -1   -1    0    0    0  501  0.00000000000E+00  0.00000000000E+00 -0.36060558505E+03  0.36060558509E+03  0.50400001928E-02 0.  1.
    10030    2    1    2    0    0  0.00000000000E+00  0.00000000000E+00  0.19010691519E+04  0.26222803220E+04  0.18061811003E+04 0.  0.
        5    1    3    3  502    0 -0.56735750252E+03  0.34219189486E+03  0.18414475315E+04  0.19570234873E+04  0.46999998093E+01 0. -1.
       -5    1    3    3    0  502  0.56735750252E+03 -0.34219189486E+03  0.59621620402E+02  0.66525683475E+03  0.46999998093E+01 0.  1.
</event>
<event>
 5   0  0.4623665E-05  0.1783091E+04  0.7818609E-02  0.8715344E-01
        1   -1    0    0  501    0  0.00000000000E+00  0.00000000000E+00  0.11110237258E+04  0.11110237258E+04  0.50400001928E-02 0.  1.
       -1   -1    0    0    0  501  0.00000000000E+00  0.00000000000E+00 -0.71542417478E+03  0.71542417480E+03  0.50400001928E-02 0. -1.
    10030    2    1    2    0    0  0.00000000000E+00  0.00000000000E+00  0.39559955098E+03  0.18264479006E+04  0.17830908358E+04 0.  0.
        5    1    3    3  502    0 -0.55324593606E+03  0.55521697578E+03  0.63296421461E+03  0.10074784082E+04  0.46999998093E+01 0. -1.
       -5    1    3    3    0  502  0.55324593606E+03 -0.55521697578E+03 -0.23736466362E+03  0.81896949241E+03  0.46999998093E+01 0.  1.
</event>
<event>
 5   0  0.8802655E-05  0.1801837E+04  0.7818609E-02  0.8705323E-01
        2   -1    0    0  501    0  0.00000000000E+00  0.00000000000E+00  0.15631547739E+04  0.15631547739E+04  0.25500000920E-02 0.  1.
       -2   -1    0    0    0  501  0.00000000000E+00  0.00000000000E+00 -0.51924126652E+03  0.51924126653E+03  0.25500000920E-02 0. -1.
    10030    2    1    2    0    0  0.00000000000E+00  0.00000000000E+00  0.10439135073E+04  0.20823960404E+04  0.18018373562E+04 0.  0.
        2    1    3    3  502    0  0.33437509506E+03  0.41620101968E+03  0.13606405664E+04  0.14616335875E+04  0.25500000920E-02 0.  1.
       -2    1    3    3    0  502 -0.33437509506E+03 -0.41620101968E+03 -0.31672705909E+03  0.62076245292E+03  0.25500000920E-02 0. -1.
</event>
<event>
 5   0  0.4335117E-05  0.1802338E+04  0.7818609E-02  0.8705057E-01
        1   -1    0    0  501    0  0.00000000000E+00  0.00000000000E+00  0.12441745012E+04  0.12441745012E+04  0.50400001928E-02 0.  1.
       -1   -1    0    0    0  501  0.00000000000E+00  0.00000000000E+00 -0.65272642221E+03  0.65272642223E+03  0.50400001928E-02 0. -1.
    10030    2    1    2    0    0  0.00000000000E+00  0.00000000000E+00  0.59144807902E+03  0.18969009235E+04  0.18023380047E+04 0.  0.
        3    1    3    3  502    0  0.14669215444E+03  0.86122547450E+03  0.63041611939E+02  0.87590077128E+03  0.10100000352E+00 0. -1.
       -3    1    3    3    0  502 -0.14669215444E+03 -0.86122547450E+03  0.52840646708E+03  0.10210001522E+04  0.10100000352E+00 0.  1.
</event>
<event>
 5   0  0.9147432E-05  0.1682173E+04  0.7818609E-02  0.8771598E-01
       -2   -1    0    0    0  501  0.00000000000E+00  0.00000000000E+00  0.58094692728E+03  0.58094692728E+03  0.25500000920E-02 0.  1.
        2   -1    0    0  501    0  0.00000000000E+00  0.00000000000E+00 -0.12177126205E+04  0.12177126205E+04  0.25500000920E-02 0. -1.
    10030    2    1    2    0    0  0.00000000000E+00  0.00000000000E+00 -0.63676569322E+03  0.17986595478E+04  0.16821728867E+04 0.  0.
        3    1    3    3  502    0 -0.61025335183E+03  0.57086357454E+03 -0.21620381423E+03  0.86315611198E+03  0.10100000352E+00 0.  1.
       -3    1    3    3    0  502  0.61025335183E+03 -0.57086357454E+03 -0.42056187899E+03  0.93550343581E+03  0.10100000352E+00 0. -1.
</event>
<event>
 5   0  0.8892280E-05  0.1799132E+04  0.7818609E-02  0.8706761E-01
       -2   -1    0    0    0  501  0.00000000000E+00  0.00000000000E+00  0.79112628657E+03  0.79112628657E+03  0.25500000920E-02 0. -1.
        2   -1    0    0  501    0  0.00000000000E+00  0.00000000000E+00 -0.10228698029E+04  0.10228698029E+04  0.25500000920E-02 0.  1.
    10030    2    1    2    0    0  0.00000000000E+00  0.00000000000E+00 -0.23174351633E+03  0.18139960895E+04  0.17991322228E+04 0.  0.
        4    1    3    3  502    0  0.82678886240E+03  0.35303123802E+03 -0.14786239222E+03  0.91108494551E+03  0.12699999809E+01 0.  1.
       -4    1    3    3    0  502 -0.82678886240E+03 -0.35303123802E+03 -0.83881124112E+02  0.90291114396E+03  0.12699999809E+01 0. -1.
</event>
<event>
 5   0  0.8892280E-05  0.1803863E+04  0.7818609E-02  0.8704248E-01
       -2   -1    0    0    0  501  0.00000000000E+00  0.00000000000E+00  0.13257473818E+04  0.13257473818E+04  0.25500000920E-02 0.  1.
        2   -1    0    0  501    0  0.00000000000E+00  0.00000000000E+00 -0.61360118759E+03  0.61360118760E+03  0.25500000920E-02 0. -1.
    10030    2    1    2    0    0  0.00000000000E+00  0.00000000000E+00  0.71214619424E+03  0.19393485694E+04  0.18038627087E+04 0.  0.
        4    1    3    3  502    0 -0.76760050823E+02 -0.70328710707E+03  0.95753249070E+03  0.11905355702E+04  0.12699999809E+01 0.  1.
       -4    1    3    3    0  502  0.76760050823E+02  0.70328710707E+03 -0.24538629645E+03  0.74881299919E+03  0.12699999809E+01 0. -1.
</event>
<event>
 5   0  0.4578107E-05  0.1800243E+04  0.7818609E-02  0.8706170E-01
        1   -1    0    0  501    0  0.00000000000E+00  0.00000000000E+00  0.17244841992E+04  0.17244841992E+04  0.50400001928E-02 0. -1.
       -1   -1    0    0    0  501  0.00000000000E+00  0.00000000000E+00 -0.46983272642E+03  0.46983272645E+03  0.50400001928E-02 0.  1.
    10030    2    1    2    0    0  0.00000000000E+00  0.00000000000E+00  0.12546514728E+04  0.21943169257E+04  0.18002434424E+04 0.  0.
        2    1    3    3  502    0  0.27029125074E+03  0.84537467216E+03  0.81017463303E+03  0.12017065501E+04  0.25500000920E-02 0. -1.
       -2    1    3    3    0  502 -0.27029125074E+03 -0.84537467216E+03  0.44447683975E+03  0.99261037554E+03  0.25500000920E-02 0.  1.
</event>
<event>
 5   0  0.8893075E-05  0.1799581E+04  0.7818609E-02  0.8706522E-01
       -2   -1    0    0    0  501  0.00000000000E+00  0.00000000000E+00  0.40101597516E+03  0.40101597517E+03  0.25500000920E-02 0.  1.
        2   -1    0    0  501    0  0.00000000000E+00  0.00000000000E+00 -0.20189287562E+04  0.20189287562E+04  0.25500000920E-02 0. -1.
    10030    2    1    2    0    0  0.00000000000E+00  0.00000000000E+00 -0.16179127811E+04  0.24199447314E+04  0.17995807111E+04 0.  0.
        1    1    3    3  502    0  0.42511092183E+03 -0.67621100824E+03 -0.25183994649E+03  0.83749864609E+03  0.50400001928E-02 0.  1.
       -1    1    3    3    0  502 -0.42511092183E+03  0.67621100824E+03 -0.13660728346E+04  0.15824460853E+04  0.50400001928E-02 0. -1.
</event>
<event>
 5   0  0.4535100E-05  0.1795264E+04  0.7818609E-02  0.8708822E-01
        1   -1    0    0  501    0  0.00000000000E+00  0.00000000000E+00  0.13475908697E+04  0.13475908697E+04  0.50400001928E-02 0.  1.
       -1   -1    0    0    0  501  0.00000000000E+00  0.00000000000E+00 -0.59791398229E+03  0.59791398232E+03  0.50400001928E-02 0. -1.
    10030    2    1    2    0    0  0.00000000000E+00  0.00000000000E+00  0.74967688741E+03  0.19455048520E+04  0.17952642406E+04 0.  0.
        1    1    3    3  502    0  0.16077381201E+03  0.33858857278E+03 -0.50904979124E+03  0.63215672917E+03  0.50400001928E-02 0. -1.
       -1    1    3    3    0  502 -0.16077381201E+03 -0.33858857278E+03  0.12587266787E+04  0.13133481229E+04  0.50400001928E-02 0.  1.
</event>
<event>
 5   0  0.4623665E-05  0.1801411E+04  0.7818609E-02  0.8705549E-01
       -1   -1    0    0    0  501  0.00000000000E+00  0.00000000000E+00  0.54088374665E+03  0.54088374667E+03  0.50400001928E-02 0. -1.
        1   -1    0    0  501    0  0.00000000000E+00  0.00000000000E+00 -0.14998978818E+04  0.14998978818E+04  0.50400001928E-02 0.  1.
    10030    2    1    2    0    0  0.00000000000E+00  0.00000000000E+00 -0.95901413515E+03  0.20407816285E+04  0.18014109869E+04 0.  0.
        5    1    3    3  502    0  0.34261107223E+03 -0.31222263043E+03 -0.13543827565E+04  0.14315166988E+04  0.46999998093E+01 0.  1.
       -5    1    3    3    0  502 -0.34261107223E+03  0.31222263043E+03  0.39536862137E+03  0.60926492968E+03  0.46999998093E+01 0. -1.
</event>
<event>
 5   0  0.8893075E-05  0.1845656E+04  0.7818609E-02  0.8682390E-01
        2   -1    0    0  501    0  0.00000000000E+00  0.00000000000E+00  0.10266307230E+04  0.10266307230E+04  0.25500000920E-02 0. -1.
       -2   -1    0    0    0  501  0.00000000000E+00  0.00000000000E+00 -0.82952117836E+03  0.82952117837E+03  0.25500000920E-02 0.  1.
    10030    2    1    2    0    0  0.00000000000E+00  0.00000000000E+00  0.19710954465E+03  0.18561519014E+04  0.18456564438E+04 0.  0.
        1    1    3    3  502    0  0.80587198241E+02  0.58171354684E+03  0.81445032659E+03  0.10040987410E+04  0.50400001928E-02 0. -1.
       -1    1    3    3    0  502 -0.80587198241E+02 -0.58171354684E+03 -0.61734078194E+03  0.85205316041E+03  0.50400001928E-02 0.  1.
</event>
<event>
 5   0  0.4623665E-05  0.1800510E+04  0.7818609E-02  0.8706028E-01
        1   -1    0    0  501    0  0.00000000000E+00  0.00000000000E+00  0.12123651405E+04  0.12123651405E+04  0.50400001928E-02 0. -1.
       -1   -1    0    0    0  501  0.00000000000E+00  0.00000000000E+00 -0.66849397411E+03  0.66849397413E+03  0.50400001928E-02 0.  1.
    10030    2    1    2    0    0  0.00000000000E+00  0.00000000000E+00  0.54387116636E+03  0.18808591146E+04  0.18005096954E+04 0.  0.
        5    1    3    3  502    0 -0.37922809160E+03  0.50390988058E+03 -0.39914823505E+03  0.74637826653E+03  0.46999998093E+01 0.  1.
       -5    1    3    3    0  502  0.37922809160E+03 -0.50390988058E+03  0.94301940141E+03  0.11344808481E+04  0.46999998093E+01 0. -1.
</event>
<event>
 5   0  0.4335117E-05  0.1789587E+04  0.7818609E-02  0.8711857E-01
       -1   -1    0    0    0  501  0.00000000000E+00  0.00000000000E+00  0.10192676260E+04  0.10192676261E+04  0.50400001928E-02 0.  1.
        1   -1    0    0  501    0  0.00000000000E+00  0.00000000000E+00 -0.78552027941E+03  0.78552027943E+03  0.50400001928E-02 0. -1.
    10030    2    1    2    0    0  0.00000000000E+00  0.00000000000E+00  0.23374734663E+03  0.18047879055E+04  0.17895869808E+04 0.  0.
        3    1    3    3  502    0 -0.84520930855E+03 -0.12176075138E+03 -0.15269988187E+03  0.86748009774E+03  0.10100000352E+00 0. -1.
       -3    1    3    3    0  502  0.84520930855E+03  0.12176075138E+03  0.38644722850E+03  0.93730780774E+03  0.10100000352E+00 0.  1.
</event>
<event>
 5   0  0.4494757E-05  0.1791932E+04  0.7818609E-02  0.8710602E-01
        1   -1    0    0  501    0  0.00000000000E+00  0.00000000000E+00  0.72350629118E+03  0.72350629120E+03  0.50400001928E-02 0. -1.
       -1   -1    0    0    0  501  0.00000000000E+00  0.00000000000E+00 -0.11095344865E+04  0.11095344865E+04  0.50400001928E-02 0.  1.
    10030    2    1    2    0    0  0.00000000000E+00  0.00000000000E+00 -0.38602819530E+03  0.18330407777E+04  0.17919321207E+04 0.  0.
        4    1    3    3  502    0  0.39688890352E+03  0.46662435475E+03  0.47581602838E+03  0.77566848328E+03  0.12699999809E+01 0. -1.
       -4    1    3    3    0  502 -0.39688890352E+03 -0.46662435475E+03 -0.86184422368E+03  0.10573722944E+04  0.12699999809E+01 0.  1.
</event>
<event>
 5   0  0.9184414E-05  0.1800252E+04  0.7818609E-02  0.8706165E-01
       -2   -1    0    0    0  501  0.00000000000E+00  0.00000000000E+00  0.45004962915E+03  0.45004962916E+03  0.25500000920E-02 0. -1.
        2   -1    0    0  501    0  0.00000000000E+00  0.00000000000E+00 -0.18003064506E+04  0.18003064506E+04  0.25500000920E-02 0.  1.
    10030    2    1    2    0    0  0.00000000000E+00  0.00000000000E+00 -0.13502568215E+04  0.22503560798E+04  0.18002524828E+04 0.  0.
        5    1    3    3  502    0  0.39200321627E+03  0.31049630864E+03 -0.16106687221E+04  0.16865201753E+04  0.46999998093E+01 0.  1.
       -5    1    3    3    0  502 -0.39200321627E+03 -0.31049630864E+03  0.26041190062E+03  0.56383590452E+03  0.46999998093E+01 0. -1.
</event>
<event>
 5   0  0.8893075E-05  0.1796796E+04  0.7818609E-02  0.8708005E-01
       -2   -1    0    0    0  501  0.00000000000E+00  0.00000000000E+00  0.42741994058E+03  0.42741994058E+03  0.25500000920E-02 0. -1.
        2   -1    0    0  501    0  0.00000000000E+00  0.00000000000E+00 -0.18883503954E+04  0.18883503954E+04  0.25500000920E-02 0.  1.
    10030    2    1    2    0    0  0.00000000000E+00  0.00000000000E+00 -0.14609304548E+04  0.23157703360E+04  0.17967956075E+04 0.  0.
        1    1    3    3  502    0 -0.54894531930E+03  0.54005636091E+03 -0.13268439745E+04  0.15341175865E+04  0.50400001928E-02 0.  1.
       -1    1    3    3    0  502  0.54894531930E+03 -0.54005636091E+03 -0.13408648034E+03  0.78165274949E+03  0.50400001928E-02 0. -1.
</event>
<event>
 5   0  0.4578107E-05  0.1809593E+04  0.7818609E-02  0.8701214E-01
       -1   -1    0    0    0  501  0.00000000000E+00  0.00000000000E+00  0.37195982782E+03  0.37195982785E+03  0.50400001928E-02 0.  1.
        1   -1    0    0  501    0  0.00000000000E+00  0.00000000000E+00 -0.22009286182E+04  0.22009286182E+04  0.50400001928E-02 0. -1.
    10030    2    1    2    0    0  0.00000000000E+00  0.00000000000E+00 -0.18289687904E+04  0.25728884461E+04  0.18095933576E+04 0.  0.
        2    1    3    3  502    0  0.12135193968E+02 -0.23627202824E+03 -0.21561728697E+04  0.21691134545E+04  0.25500000920E-02 0. -1.
       -2    1    3    3    0  502 -0.12135193968E+02  0.23627202824E+03  0.32720407936E+03  0.40377499157E+03  0.25500000920E-02 0.  1.
</event>
<event>
 5   0  0.4623665E-05  0.1791217E+04  0.7818609E-02  0.8710984E-01
        1   -1    0    0  501    0  0.00000000000E+00  0.00000000000E+00  0.98925804796E+03  0.98925804798E+03  0.50400001928E-02 0.  1.
       -1   -1    0    0    0  501  0.00000000000E+00  0.00000000000E+00 -0.81082432474E+03  0.81082432476E+03  0.50400001928E-02 0. -1.
    10030    2    1    2    0    0  0.00000000000E+00  0.00000000000E+00  0.17843372322E+03  0.18000823727E+04  0.17912168922E+04 0.  0.
        5    1    3    3  502    0  0.90360865194E+02  0.88285910065E+03  0.21017504330E+03  0.91203120362E+03  0.46999998093E+01 0. -1.
       -5    1    3    3    0  502 -0.90360865194E+02 -0.88285910065E+03 -0.31741320081E+02  0.88805116911E+03  0.46999998093E+01 0.  1.
</event>
<event>
 5   0  0.9147432E-05  0.1798985E+04  0.7818609E-02  0.8706839E-01
        2   -1    0    0  501    0  0.00000000000E+00  0.00000000000E+00  0.60628410324E+03  0.60628410325E+03  0.25500000920E-02 0. -1.
       -2   -1    0    0    0  501  0.00000000000E+00  0.00000000000E+00 -0.13345013350E+04  0.13345013350E+04  0.25500000920E-02 0.  1.
    10030    2    1    2    0    0  0.00000000000E+00  0.00000000000E+00 -0.72821723178E+03  0.19407854383E+04  0.17989852086E+04 0.  0.
        3    1    3    3  502    0 -0.65913926650E+03 -0.59883637353E+03 -0.50064405831E+03  0.10216232467E+04  0.10100000352E+00 0. -1.
       -3    1    3    3    0  502  0.65913926650E+03  0.59883637353E+03 -0.22757317347E+03  0.91916219156E+03  0.10100000352E+00 0.  1.
</event>
<event>
 5   0  0.8893075E-05  0.1796429E+04  0.7818609E-02  0.8708201E-01
       -2   -1    0    0    0  501  0.00000000000E+00  0.00000000000E+00  0.62334753454E+03  0.62334753455E+03  0.25500000920E-02 0. -1.
        2   -1    0    0  501    0  0.00000000000E+00  0.00000000000E+00 -0.12942853895E+04  0.12942853895E+04  0.25500000920E-02 0.  1.
    10030    2    1    2    0    0  0.00000000000E+00  0.00000000000E+00 -0.67093785500E+03  0.19176329241E+04  0.17964293547E+04 0.  0.
        1    1    3    3  502    0 -0.57452308830E+03 -0.94055512310E+02  0.39468808006E+03  0.70335048088E+03  0.50400001928E-02 0. -1.
       -1    1    3    3    0  502  0.57452308830E+03  0.94055512310E+02 -0.10656259351E+04  0.12142824432E+04  0.50400001928E-02 0.  1.
</event>
<event>
 5   0  0.3270375E-05  0.1798290E+04  0.7818609E-02  0.8707209E-01
       -3   -1    0    0    0  501  0.00000000000E+00  0.00000000000E+00  0.61006132351E+03  0.61006133187E+03  0.10100000352E+00 0. -1.
        3   -1    0    0  501    0  0.00000000000E+00  0.00000000000E+00 -0.13252135959E+04  0.13252135998E+04  0.10100000352E+00 0.  1.
    10030    2    1    2    0    0  0.00000000000E+00  0.00000000000E+00 -0.71515227242E+03  0.19352749317E+04  0.17982898232E+04 0.  0.
        2    1    3    3  502    0 -0.58857764350E+03 -0.38381394004E+03  0.24616179200E+03  0.74453502997E+03  0.25500000920E-02 0. -1.
       -2    1    3    3    0  502  0.58857764350E+03  0.38381394004E+03 -0.96131406442E+03  0.11907399017E+04  0.25500000920E-02 0.  1.
</event>
<event>
 5   0  0.4578107E-05  0.1784405E+04  0.7818609E-02  0.8714637E-01
       -1   -1    0    0    0  501  0.00000000000E+00  0.00000000000E+00  0.10324910092E+04  0.10324910092E+04  0.50400001928E-02 0.  1.
        1   -1    0    0  501    0  0.00000000000E+00  0.00000000000E+00 -0.77097536680E+03  0.77097536682E+03  0.50400001928E-02 0. -1.
    10030    2    1    2    0    0  0.00000000000E+00  0.00000000000E+00  0.26151564236E+03  0.18034663760E+04  0.17844048134E+04 0.  0.
        2    1    3    3  502    0 -0.45950695147E+03  0.88788810851E+02  0.89847402074E+03  0.10130575785E+04  0.25500000920E-02 0.  1.
       -2    1    3    3    0  502  0.45950695147E+03 -0.88788810851E+02 -0.63695837838E+03  0.79040879750E+03  0.25500000920E-02 0. -1.
</event>
<event>
 5   0  0.4623665E-05  0.1800170E+04  0.7818609E-02  0.8706209E-01
       -1   -1    0    0    0  501  0.00000000000E+00  0.00000000000E+00  0.37953425395E+03  0.37953425399E+03  0.50400001928E-02 0.  1.
        1   -1    0    0  501    0  0.00000000000E+00  0.00000000000E+00 -0.21345981875E+04  0.21345981875E+04  0.50400001928E-02 0. -1.
    10030    2    1    2    0    0  0.00000000000E+00  0.00000000000E+00 -0.17550639336E+04  0.25141324415E+04  0.18001701371E+04 0.  0.
        5    1    3    3  502    0 -0.57455833016E+03 -0.22285489615E+03 -0.17937212994E+04  0.18966390720E+04  0.46999998093E+01 0. -1.
       -5    1    3    3    0  502  0.57455833016E+03  0.22285489615E+03  0.38657365813E+02  0.61749336954E+03  0.46999998093E+01 0.  1.
</event>
<event>
 5   0  0.4578107E-05  0.1807208E+04  0.7818609E-02  0.8702476E-01
       -1   -1    0    0    0  501  0.00000000000E+00  0.00000000000E+00  0.49550776837E+03  0.49550776840E+03  0.50400001928E-02 0. -1.
        1   -1    0    0  501    0  0.00000000000E+00  0.00000000000E+00 -0.16478047551E+04  0.16478047551E+04  0.50400001928E-02 0.  1.
    10030    2    1    2    0    0  0.00000000000E+00  0.00000000000E+00 -0.11522969868E+04  0.21433125235E+04  0.18072078541E+04 0.  0.
        2    1    3    3  502    0 -0.56484143409E+03 -0.63043192948E+03 -0.20109029625E+03  0.87001584504E+03  0.25500000920E-02 0. -1.
       -2    1    3    3    0  502  0.56484143409E+03  0.63043192948E+03 -0.95120669050E+03  0.12732966785E+04  0.25500000920E-02 0.  1.
</event>
<event>
 5   0  0.4623665E-05  0.1800637E+04  0.7818609E-02  0.8705961E-01
       -1   -1    0    0    0  501  0.00000000000E+00  0.00000000000E+00  0.71111428777E+03  0.71111428779E+03  0.50400001928E-02 0.  1.
        1   -1    0    0  501    0  0.00000000000E+00  0.00000000000E+00 -0.11398636246E+04  0.11398636246E+04  0.50400001928E-02 0. -1.
    10030    2    1    2    0    0  0.00000000000E+00  0.00000000000E+00 -0.42874933685E+03  0.18509779124E+04  0.18006368980E+04 0.  0.
        5    1    3    3  502    0 -0.21959991834E+03 -0.55677813676E+03 -0.90572867483E+03  0.10856300199E+04  0.46999998093E+01 0. -1.
       -5    1    3    3    0  502  0.21959991834E+03  0.55677813676E+03  0.47697933798E+03  0.76534789251E+03  0.46999998093E+01 0.  1.
</event>
<event>
 5   0  0.4578107E-05  0.1797240E+04  0.7818609E-02  0.8707769E-01
        1   -1    0    0  501    0  0.00000000000E+00  0.00000000000E+00  0.81946559095E+03  0.81946559097E+03  0.50400001928E-02 0. -1.
       -1   -1    0    0    0  501  0.00000000000E+00  0.00000000000E+00 -0.98541975222E+03  0.98541975223E+03  0.50400001928E-02 0.  1.
    10030    2    1    2    0    0  0.00000000000E+00  0.00000000000E+00 -0.16595416126E+03  0.18048853432E+04  0.17972396386E+04 0.  0.
        2    1    3    3  502    0 -0.38946410232E+03  0.52631943582E+03 -0.70108154708E+03  0.95927564921E+03  0.25500000920E-02 0.  1.
       -2    1    3    3    0  502  0.38946410232E+03 -0.52631943582E+03  0.53512738582E+03  0.84560969399E+03  0.25500000920E-02 0. -1.
</event>
<event>
 5   0  0.9147432E-05  0.1801343E+04  0.7818609E-02  0.8705586E-01
       -2   -1    0    0    0  501  0.00000000000E+00  0.00000000000E+00  0.20898829115E+04  0.20898829115E+04  0.25500000920E-02 0. -1.
        2   -1    0    0  501    0  0.00000000000E+00  0.00000000000E+00 -0.38815997589E+03  0.38815997590E+03  0.25500000920E-02 0.  1.
    10030    2    1    2    0    0  0.00000000000E+00  0.00000000000E+00  0.17017229356E+04  0.24780428874E+04  0.18013427220E+04 0.  0.
        3    1    3    3  502    0 -0.52618844319E+03 -0.63477453044E+03  0.13495201553E+04  0.15814606040E+04  0.10100000352E+00 0.  1.
       -3    1    3    3    0  502  0.52618844319E+03  0.63477453044E+03  0.35220278032E+03  0.89658228340E+03  0.10100000352E+00 0. -1.
</event>
<event>
 5   0  0.8802655E-05  0.1801616E+04  0.7818609E-02  0.8705441E-01
        2   -1    0    0  501    0  0.00000000000E+00  0.00000000000E+00  0.85170046075E+03  0.85170046075E+03  0.25500000920E-02 0.  1.
       -2   -1    0    0    0  501  0.00000000000E+00  0.00000000000E+00 -0.95274676845E+03  0.95274676845E+03  0.25500000920E-02 0. -1.
    10030    2    1    2    0    0  0.00000000000E+00  0.00000000000E+00 -0.10104630770E+03  0.18044472292E+04  0.18016157878E+04 0.  0.
        2    1    3    3  502    0  0.42739902184E+03 -0.26811397450E+03 -0.79795319820E+03  0.94407856332E+03  0.25500000920E-02 0. -1.
       -2    1    3    3    0  502 -0.42739902184E+03  0.26811397450E+03  0.69690689050E+03  0.86036866588E+03  0.25500000920E-02 0.  1.
</event>
<event>
 5   0  0.8893075E-05  0.1805943E+04  0.7818609E-02  0.8703145E-01
        2   -1    0    0  501    0  0.00000000000E+00  0.00000000000E+00  0.11963322954E+04  0.11963322954E+04  0.25500000920E-02 0. -1.
       -2   -1    0    0    0  501  0.00000000000E+00  0.00000000000E+00 -0.68154763827E+03  0.68154763827E+03  0.25500000920E-02 0.  1.
    10030    2    1    2    0    0  0.00000000000E+00  0.00000000000E+00  0.51478465718E+03  0.18778799337E+04  0.18059429122E+04 0.  0.
        1    1    3    3  502    0 -0.54153460096E+03  0.71418752952E+03  0.37146115871E+03  0.97020974218E+03  0.50400001928E-02 0.  1.
       -1    1    3    3    0  502  0.54153460096E+03 -0.71418752952E+03  0.14332349847E+03  0.90767019154E+03  0.50400001928E-02 0. -1.
</event>
<event>
 5   0  0.4578107E-05  0.1790714E+04  0.7818609E-02  0.8711253E-01
       -1   -1    0    0    0  501  0.00000000000E+00  0.00000000000E+00  0.32597959673E+03  0.32597959677E+03  0.50400001928E-02 0.  1.
        1   -1    0    0  501    0  0.00000000000E+00  0.00000000000E+00 -0.24592467735E+04  0.24592467735E+04  0.50400001928E-02 0. -1.
    10030    2    1    2    0    0  0.00000000000E+00  0.00000000000E+00 -0.21332671768E+04  0.27852263703E+04  0.17907141275E+04 0.  0.
        2    1    3    3  502    0  0.59954936828E+03 -0.80481042355E+02 -0.20933293937E+04  0.21789824675E+04  0.25500000920E-02 0. -1.
       -2    1    3    3    0  502 -0.59954936828E+03  0.80481042355E+02 -0.39937783129E+02  0.60624390282E+03  0.25500000920E-02 0.  1.
</event>
<event>
 5   0  0.8892280E-05  0.1797962E+04  0.7818609E-02  0.8707384E-01
        2   -1    0    0  501    0  0.00000000000E+00  0.00000000000E+00  0.67202535029E+03  0.67202535030E+03  0.25500000920E-02 0. -1.
       -2   -1    0    0    0  501  0.00000000000E+00  0.00000000000E+00 -0.12025833445E+04  0.12025833445E+04  0.25500000920E-02 0.  1.
    10030    2    1    2    0    0  0.00000000000E+00  0.00000000000E+00 -0.53055799423E+03  0.18746086948E+04  0.17979616162E+04 0.  0.
        4    1    3    3  502    0 -0.59236143708E+03 -0.28434280640E+03 -0.90496625005E+03  0.11183507635E+04  0.12699999809E+01 0.  1.
       -4    1    3    3    0  502  0.59236143708E+03  0.28434280640E+03  0.37440825582E+03  0.75625793128E+03  0.12699999809E+01 0. -1.
</event>
<event>
 5   0  0.4535100E-05  0.1798736E+04  0.7818609E-02  0.8706972E-01
        1   -1    0    0  501    0  0.00000000000E+00  0.00000000000E+00  0.13705351334E+04  0.13705351334E+04  0.50400001928E-02 0.  1.
       -1   -1    0    0    0  501  0.00000000000E+00  0.00000000000E+00 -0.59018055162E+03  0.59018055164E+03  0.50400001928E-02 0. -1.
    10030    2    1    2    0    0  0.00000000000E+00  0.00000000000E+00  0.78035458181E+03  0.19607156851E+04  0.17987364244E+04 0.  0.
        1    1    3    3  502    0 -0.63258987035E+03  0.53838631250E+03  0.14412240931E+02  0.83080531912E+03  0.50400001928E-02 0. -1.
       -1    1    3    3    0  502  0.63258987035E+03 -0.53838631250E+03  0.76594234088E+03  0.11299103660E+04  0.50400001928E-02 0.  1.
</event>
<event>
 5   0  0.4494757E-05  0.1796227E+04  0.7818609E-02  0.8708308E-01
       -1   -1    0    0    0  501  0.00000000000E+00  0.00000000000E+00  0.17216783857E+04  0.17216783857E+04  0.50400001928E-02 0. -1.
        1   -1    0    0  501    0  0.00000000000E+00  0.00000000000E+00 -0.46850088376E+03  0.46850088379E+03  0.50400001928E-02 0.  1.
    10030    2    1    2    0    0  0.00000000000E+00  0.00000000000E+00  0.12531775019E+04  0.21901792695E+04  0.17962269849E+04 0.  0.
        4    1    3    3  502    0 -0.53232306099E+03 -0.38421170798E+03 -0.12070725259E+03  0.66750155920E+03  0.12699999809E+01 0.  1.
       -4    1    3    3    0  502  0.53232306099E+03  0.38421170798E+03  0.13738847545E+04  0.15226777103E+04  0.12699999809E+01 0. -1.
</event>
<event>
 5   0  0.9147432E-05  0.1747240E+04  0.7818609E-02  0.8734871E-01
       -2   -1    0    0    0  501  0.00000000000E+00  0.00000000000E+00  0.60001348251E+03  0.60001348252E+03  0.25500000920E-02 0. -1.
        2   -1    0    0  501    0  0.00000000000E+00  0.00000000000E+00 -0.12719913335E+04  0.12719913335E+04  0.25500000920E-02 0.  1.
    10030    2    1    2    0    0  0.00000000000E+00  0.00000000000E+00 -0.67197785101E+03  0.18720048160E+04  0.17472400519E+04 0.  0.
        3    1    3    3  502    0  0.44850761685E+03 -0.16542942651E+03  0.44744752932E+03  0.65477880175E+03  0.10100000352E+00 0. -1.
       -3    1    3    3    0  502 -0.44850761685E+03  0.16542942651E+03 -0.11194253803E+04  0.12172260143E+04  0.10100000352E+00 0.  1.
</event>
<event>
 5   0  0.4623665E-05  0.1796408E+04  0.7818609E-02  0.8708212E-01
        1   -1    0    0  501    0  0.00000000000E+00  0.00000000000E+00  0.13340876305E+04  0.13340876305E+04  0.50400001928E-02 0.  1.
       -1   -1    0    0    0  501  0.00000000000E+00  0.00000000000E+00 -0.60473591924E+03  0.60473591926E+03  0.50400001928E-02 0. -1.
    10030    2    1    2    0    0  0.00000000000E+00  0.00000000000E+00  0.72935171129E+03  0.19388235498E+04  0.17964083162E+04 0.  0.
        5    1    3    3  502    0  0.53319962458E+03 -0.69251188193E+02  0.11411943078E+04  0.12615245161E+04  0.46999998093E+01 0.  1.
       -5    1    3    3    0  502 -0.53319962458E+03  0.69251188193E+02 -0.41184259649E+03  0.67729903366E+03  0.46999998093E+01 0. -1.
</event>
<event>
 5   0  0.9147432E-05  0.1805948E+04  0.7818609E-02  0.8703143E-01
       -2   -1    0    0    0  501  0.00000000000E+00  0.00000000000E+00  0.99427524285E+03  0.99427524285E+03  0.25500000920E-02 0. -1.
        2   -1    0    0  501    0  0.00000000000E+00  0.00000000000E+00 -0.82005647351E+03  0.82005647351E+03  0.25500000920E-02 0.  1.
    10030    2    1    2    0    0  0.00000000000E+00  0.00000000000E+00  0.17421876934E+03  0.18143317164E+04  0.18059477837E+04 0.  0.
        3    1    3    3  502    0  0.35813276872E+03 -0.49412139512E+03  0.75574158939E+03  0.97137036874E+03  0.10100000352E+00 0. -1.
       -3    1    3    3    0  502 -0.35813276872E+03  0.49412139512E+03 -0.58152282005E+03  0.84296134762E+03  0.10100000352E+00 0.  1.
</event>
<event>
 5   0  0.4494757E-05  0.1800568E+04  0.7818609E-02  0.8705997E-01
       -1   -1    0    0    0  501  0.00000000000E+00  0.00000000000E+00  0.10386528089E+04  0.10386528089E+04  0.50400001928E-02 0.  1.
        1   -1    0    0  501    0  0.00000000000E+00  0.00000000000E+00 -0.78034866614E+03  0.78034866615E+03  0.50400001928E-02 0. -1.
    10030    2    1    2    0    0  0.00000000000E+00  0.00000000000E+00  0.25830414272E+03  0.18190014750E+04  0.18005680592E+04 0.  0.
        4    1    3    3  502    0 -0.21878980950E+03  0.76658765832E+03  0.55174556529E+03  0.96951039208E+03  0.12699999809E+01 0.  1.
       -4    1    3    3    0  502  0.21878980950E+03 -0.76658765832E+03 -0.29344142257E+03  0.84949108295E+03  0.12699999809E+01 0. -1.
</event>
<event>
 5   0  0.4623665E-05  0.1693193E+04  0.7818609E-02  0.8765256E-01
       -1   -1    0    0    0  501  0.00000000000E+00  0.00000000000E+00  0.11575624188E+04  0.11575624188E+04  0.50400001928E-02 0. -1.
        1   -1    0    0  501    0  0.00000000000E+00  0.00000000000E+00 -0.61916807768E+03  0.61916807770E+03  0.50400001928E-02 0.  1.
    10030    2    1    2    0    0  0.00000000000E+00  0.00000000000E+00  0.53839434115E+03  0.17767304965E+04  0.16931930754E+04 0.  0.
        5    1    3    3  502    0 -0.66881806630E+03  0.23450409189E+03  0.75506843798E+03  0.10355965483E+04  0.46999998093E+01 0. -1.
       -5    1    3    3    0  502  0.66881806630E+03 -0.23450409189E+03 -0.21667409683E+03  0.74113394819E+03  0.46999998093E+01 0.  1.
</event>
<event>
 5   0  0.9184414E-05  0.1810316E+04  0.7818609E-02  0.8700833E-01
       -2   -1    0    0    0  501  0.00000000000E+00  0.00000000000E+00  0.45838583691E+03  0.45838583692E+03  0.25500000920E-02 0. -1.
        2   -1    0    0  501    0  0.00000000000E+00  0.00000000000E+00 -0.17873834590E+04  0.17873834590E+04  0.25500000920E-02 0.  1.
    10030    2    1    2    0    0  0.00000000000E+00  0.00000000000E+00 -0.13289976221E+04  0.22457692959E+04  0.18103162848E+04 0.  0.
        5    1    3    3  502    0 -0.45040825242E+02  0.64095072596E+03 -0.14553783250E+04  0.15909100125E+04  0.46999998093E+01 0.  1.
       -5    1    3    3    0  502  0.45040825242E+02 -0.64095072596E+03  0.12638070287E+03  0.65485928344E+03  0.46999998093E+01 0. -1.
</event>
<event>
 5   0  0.4535100E-05  0.1793144E+04  0.7818609E-02  0.8709954E-01
        1   -1    0    0  501    0  0.00000000000E+00  0.00000000000E+00  0.19385965110E+04  0.19385965110E+04  0.50400001928E-02 0.  1.
       -1   -1    0    0    0  501  0.00000000000E+00  0.00000000000E+00 -0.41465105609E+03  0.41465105612E+03  0.50400001928E-02 0. -1.
    10030    2    1    2    0    0  0.00000000000E+00  0.00000000000E+00  0.15239454549E+04  0.23532475671E+04  0.17931437094E+04 0.  0.
        1    1    3    3  502    0 -0.65337183868E+03  0.29978567601E+02 -0.42801280855E+02  0.65545817850E+03  0.50400001928E-02 0. -1.
       -1    1    3    3    0  502  0.65337183868E+03 -0.29978567601E+02  0.15667467358E+04  0.16977893886E+04  0.50400001928E-02 0.  1.
</event>
<event>
 5   0  0.9184414E-05  0.1788732E+04  0.7818609E-02  0.8712315E-01
        2   -1    0    0  501    0  0.00000000000E+00  0.00000000000E+00  0.57024030519E+03  0.57024030520E+03  0.25500000920E-02 0. -1.
       -2   -1    0    0    0  501  0.00000000000E+00  0.00000000000E+00 -0.14027248099E+04  0.14027248099E+04  0.25500000920E-02 0.  1.
    10030    2    1    2    0    0  0.00000000000E+00  0.00000000000E+00 -0.83248450466E+03  0.19729651151E+04  0.17887316441E+04 0.  0.
        5    1    3    3  502    0  0.35889709494E+03 -0.71566605260E+03 -0.85589833141E+03  0.11719936294E+04  0.46999998093E+01 0.  1.
       -5    1    3    3    0  502 -0.35889709494E+03  0.71566605260E+03  0.23413826744E+02  0.80097148568E+03  0.46999998093E+01 0. -1.
</event>
<event>
 5   0  0.4578107E-05  0.1800018E+04  0.7818609E-02  0.8706290E-01
       -1   -1    0    0    0  501  0.00000000000E+00  0.00000000000E+00  0.63611109303E+03  0.63611109305E+03  0.50400001928E-02 0. -1.
        1   -1    0    0  501    0  0.00000000000E+00  0.00000000000E+00 -0.12733884208E+04  0.12733884208E+04  0.50400001928E-02 0.  1.
    10030    2    1    2    0    0  0.00000000000E+00  0.00000000000E+00 -0.63727732774E+03  0.19094995138E+04  0.18000183335E+04 0.  0.
        2    1    3    3  502    0 -0.82419433513E+03 -0.30430279159E+03 -0.11152005430E+03  0.88562588803E+03  0.25500000920E-02 0.  1.
       -2    1    3    3    0  502  0.82419433513E+03  0.30430279159E+03 -0.52575727344E+03  0.10238736258E+04  0.25500000920E-02 0. -1.
</event>
<event>
 5   0  0.4335117E-05  0.1817672E+04  0.7818609E-02  0.8696958E-01
       -1   -1    0    0    0  501  0.00000000000E+00  0.00000000000E+00  0.75341570556E+03  0.75341570557E+03  0.50400001928E-02 0.  1.
        1   -1    0    0  501    0  0.00000000000E+00  0.00000000000E+00 -0.10963170457E+04  0.10963170457E+04  0.50400001928E-02 0. -1.
    10030    2    1    2    0    0  0.00000000000E+00  0.00000000000E+00 -0.34290134018E+03  0.18497327513E+04  0.18176715661E+04 0.  0.
        3    1    3    3  502    0  0.54075297871E+03 -0.49654090937E+03  0.37373757578E+03  0.82380000268E+03  0.10100000352E+00 0. -1.
       -3    1    3    3    0  502 -0.54075297871E+03  0.49654090937E+03 -0.71663891596E+03  0.10259327486E+04  0.10100000352E+00 0.  1.
</event>
<event>
 5   0  0.4623665E-05  0.1806736E+04  0.7818609E-02  0.8702725E-01
        1   -1    0    0  501    0  0.00000000000E+00  0.00000000000E+00  0.56482686428E+03  0.56482686431E+03  0.50400001928E-02 0.  1.
       -1   -1    0    0    0  501  0.00000000000E+00  0.00000000000E+00 -0.14448214966E+04  0.14448214966E+04  0.50400001928E-02 0. -1.
    10030    2    1    2    0    0  0.00000000000E+00  0.00000000000E+00 -0.87999463228E+03  0.20096483609E+04  0.18067362789E+04 0.  0.
        5    1    3    3  502    0  0.18516186971E+03 -0.61863998173E+03 -0.11426485524E+04  0.13125045330E+04  0.46999998093E+01 0. -1.
       -5    1    3    3    0  502 -0.18516186971E+03  0.61863998173E+03  0.26265392008E+03  0.69714382786E+03  0.46999998093E+01 0.  1.
</event>
<event>
 5   0  0.8802655E-05  0.1800938E+04  0.7818609E-02  0.8705801E-01
        2   -1    0    0  501    0  0.00000000000E+00  0.00000000000E+00  0.19058090895E+04  0.19058090895E+04  0.25500000920E-02 0. -1.
       -2   -1    0    0    0  501  0.00000000000E+00  0.00000000000E+00 -0.42545938789E+03  0.42545938789E+03  0.25500000920E-02 0.  1.
    10030    2    1    2    0    0  0.00000000000E+00  0.00000000000E+00  0.14803497016E+04  0.23312684774E+04  0.18009379430E+04 0.  0.
        2    1    3    3  502    0 -0.30704689951E+03  0.47041681329E+03 -0.17082135387E+03  0.58715390799E+03  0.25500000920E-02 0.  1.
       -2    1    3    3    0  502  0.30704689951E+03 -0.47041681329E+03  0.16511710555E+04  0.17441145694E+04  0.25500000920E-02 0. -1.
</event>
<event>
 5   0  0.8893075E-05  0.1797305E+04  0.7818609E-02  0.8707734E-01
        2   -1    0    0  501    0  0.00000000000E+00  0.00000000000E+00  0.78734098412E+03  0.78734098412E+03  0.25500000920E-02 0.  1.
       -2   -1    0    0    0  501  0.00000000000E+00  0.00000000000E+00 -0.10257004470E+04  0.10257004470E+04  0.25500000920E-02 0. -1.
    10030    2    1    2    0    0  0.00000000000E+00  0.00000000000E+00 -0.23835946285E+03  0.18130414311E+04  0.17973046479E+04 0.  0.
        1    1    3    3  502    0  0.72946512623E+03 -0.42981113196E+03  0.18465345315E+03  0.86657595012E+03  0.50400001928E-02 0.  1.
       -1    1    3    3    0  502 -0.72946512623E+03  0.42981113196E+03 -0.42301291601E+03  0.94646548097E+03  0.50400001928E-02 0. -1.
</event>
<event>
 5   0  0.4535100E-05  0.1810673E+04  0.7818609E-02  0.8700644E-01
        1   -1    0    0  501    0  0.00000000000E+00  0.00000000000E+00  0.87294941285E+03  0.87294941286E+03  0.50400001928E-02 0. -1.
       -1   -1    0    0    0  501  0.00000000000E+00  0.00000000000E+00 -0.93892497947E+03  0.93892497948E+03  0.50400001928E-02 0.  1.
    10030    2    1    2    0    0  0.00000000000E+00  0.00000000000E+00 -0.65975566620E+02  0.18118743923E+04  0.18106728137E+04 0.  0.
        1    1    3    3  502    0  0.59931228449E+03  0.23246223961E+02 -0.71161067029E+03  0.93064781060E+03  0.50400001928E-02 0.  1.
       -1    1    3    3    0  502 -0.59931228449E+03 -0.23246223961E+02  0.64563510367E+03  0.88122658175E+03  0.50400001928E-02 0. -1.
</event>
<event>
 5   0  0.4335117E-05  0.1792962E+04  0.7818609E-02  0.8710051E-01
       -1   -1    0    0    0  501  0.00000000000E+00  0.00000000000E+00  0.57753670813E+03  0.57753670815E+03  0.50400001928E-02 0.  1.
        1   -1    0    0  501    0  0.00000000000E+00  0.00000000000E+00 -0.13915624878E+04  0.13915624878E+04  0.50400001928E-02 0. -1.
    10030    2    1    2    0    0  0.00000000000E+00  0.00000000000E+00 -0.81402577967E+03  0.19690991960E+04  0.17929622622E+04 0.  0.
        3    1    3    3  502    0  0.70662659238E+03  0.47371523603E+03 -0.96479157909E+02  0.85617492607E+03  0.10100000352E+00 0.  1.
       -3    1    3    3    0  502 -0.70662659238E+03 -0.47371523603E+03 -0.71754662176E+03  0.11129242699E+04  0.10100000352E+00 0. -1.
</event>
<event>
 5   0  0.4335117E-05  0.1814234E+04  0.7818609E-02  0.8698766E-01
        1   -1    0    0  501    0  0.00000000000E+00  0.00000000000E+00  0.16200496312E+04  0.16200496312E+04  0.50400001928E-02 0.  1.
       -1   -1    0    0    0  501  0.00000000000E+00  0.00000000000E+00 -0.50792352892E+03  0.50792352895E+03  0.50400001928E-02 0. -1.
    10030    2    1    2    0    0  0.00000000000E+00  0.00000000000E+00  0.11121261023E+04  0.21279731602E+04  0.18142340817E+04 0.  0.
        3    1    3    3  502    0  0.24576918121E+03  0.10026836612E+03 -0.46135323269E+03  0.53226220154E+03  0.10100000352E+00 0. -1.
       -3    1    3    3    0  502 -0.24576918121E+03 -0.10026836612E+03  0.15734793350E+04  0.15957109586E+04  0.10100000352E+00 0.  1.
</event>
<event>
 5   0  0.4578107E-05  0.1796559E+04  0.7818609E-02  0.8708132E-01
       -1   -1    0    0    0  501  0.00000000000E+00  0.00000000000E+00  0.61187046344E+03  0.61187046346E+03  0.50400001928E-02 0. -1.
        1   -1    0    0  501    0  0.00000000000E+00  0.00000000000E+00 -0.13187526457E+04  0.13187526457E+04  0.50400001928E-02 0.  1.
    10030    2    1    2    0    0  0.00000000000E+00  0.00000000000E+00 -0.70688218223E+03  0.19306231091E+04  0.17965587021E+04 0.  0.
        2    1    3    3  502    0 -0.41749392632E+03 -0.12026363125E+03  0.49144849892E+03  0.65596200089E+03  0.25500000920E-02 0. -1.
       -2    1    3    3    0  502  0.41749392632E+03  0.12026363125E+03 -0.11983306811E+04  0.12746611083E+04  0.25500000920E-02 0.  1.
</event>
<event>
 5   0  0.8893075E-05  0.1802561E+04  0.7818609E-02  0.8704939E-01
       -2   -1    0    0    0  501  0.00000000000E+00  0.00000000000E+00  0.35306532498E+03  0.35306532499E+03  0.25500000920E-02 0. -1.
        2   -1    0    0  501    0  0.00000000000E+00  0.00000000000E+00 -0.23007259315E+04  0.23007259315E+04  0.25500000920E-02 0.  1.
    10030    2    1    2    0    0  0.00000000000E+00  0.00000000000E+00 -0.19476606065E+04  0.26537912565E+04  0.18025610100E+04 0.  0.
        1    1    3    3  502    0  0.65148349039E+01  0.87910331225E+03 -0.68144647818E+03  0.11123103790E+04  0.50400001928E-02 0. -1.
       -1    1    3    3    0  502 -0.65148349039E+01 -0.87910331225E+03 -0.12662141283E+04  0.15414808774E+04  0.50400001928E-02 0.  1.
</event>
<event>
 5   0  0.9147432E-05  0.1799055E+04  0.7818609E-02  0.8706802E-01
        2   -1    0    0  501    0  0.00000000000E+00  0.00000000000E+00  0.59697076536E+03  0.59697076537E+03  0.25500000920E-02 0. -1.
       -2   -1    0    0    0  501  0.00000000000E+00  0.00000000000E+00 -0.13554265635E+04  0.13554265635E+04  0.25500000920E-02 0.  1.
    10030    2    1    2    0    0  0.00000000000E+00  0.00000000000E+00 -0.75845579810E+03  0.19523973288E+04  0.17990553443E+04 0.  0.
        3    1    3    3  502    0  0.48840712557E+03  0.37544018630E+02 -0.11979862184E+04  0.12942650669E+04  0.10100000352E+00 0.  1.
       -3    1    3    3    0  502 -0.48840712557E+03 -0.37544018630E+02  0.43953042032E+03  0.65813226195E+03  0.10100000352E+00 0. -1.
</event>
<event>
 5   0  0.4335117E-05  0.1797067E+04  0.7818609E-02  0.8707861E-01
        1   -1    0    0  501    0  0.00000000000E+00  0.00000000000E+00  0.44229424880E+03  0.44229424883E+03  0.50400001928E-02 0.  1.
       -1   -1    0    0    0  501  0.00000000000E+00  0.00000000000E+00 -0.18253973378E+04  0.18253973378E+04  0.50400001928E-02 0. -1.
    10030    2    1    2    0    0  0.00000000000E+00  0.00000000000E+00 -0.13831030890E+04  0.22676915866E+04  0.17970673269E+04 0.  0.
        3    1    3    3  502    0  0.57726753022E+03  0.15934442623E+03  0.15375507052E+03  0.61827912752E+03  0.10100000352E+00 0.  1.
       -3    1    3    3    0  502 -0.57726753022E+03 -0.15934442623E+03 -0.15368581595E+04  0.16494124591E+04  0.10100000352E+00 0. -1.
</event>
<event>
 5   0  0.8892280E-05  0.1794726E+04  0.7818609E-02  0.8709109E-01
       -2   -1    0    0    0  501  0.00000000000E+00  0.00000000000E+00  0.46110926892E+03  0.46110926893E+03  0.25500000920E-02 0.  1.
        2   -1    0    0  501    0  0.00000000000E+00  0.00000000000E+00 -0.17463553743E+04  0.17463553743E+04  0.25500000920E-02 0. -1.
    10030    2    1    2    0    0  0.00000000000E+00  0.00000000000E+00 -0.12852461054E+04  0.22074646432E+04  0.17947263300E+04 0.  0.
        4    1    3    3  502    0 -0.68763707300E+03  0.44754751594E+03 -0.19555624085E+03  0.84343783376E+03  0.12699999809E+01 0.  1.
       -4    1    3    3    0  502  0.68763707300E+03 -0.44754751594E+03 -0.10896898645E+04  0.13640268095E+04  0.12699999809E+01 0. -1.
</event>
<event>
 5   0  0.4335117E-05  0.1822577E+04  0.7818609E-02  0.8694385E-01
        1   -1    0    0  501    0  0.00000000000E+00  0.00000000000E+00  0.23413796889E+04  0.23413796889E+04  0.50400001928E-02 0.  1.
       -1   -1    0    0    0  501  0.00000000000E+00  0.00000000000E+00 -0.35468245052E+03  0.35468245056E+03  0.50400001928E-02 0. -1.
    10030    2    1    2    0    0  0.00000000000E+00  0.00000000000E+00  0.19866972384E+04  0.26960621395E+04  0.18225765122E+04 0.  0.
        3    1    3    3  502    0  0.47493824043E+03 -0.48371029650E+03  0.92451790390E+02  0.68417053935E+03  0.10100000352E+00 0. -1.
       -3    1    3    3    0  502 -0.47493824043E+03  0.48371029650E+03  0.18942454480E+04  0.20118916001E+04  0.10100000352E+00 0.  1.
</event>
<event>
 5   0  0.4335117E-05  0.1804475E+04  0.7818609E-02  0.8703923E-01
        1   -1    0    0  501    0  0.00000000000E+00  0.00000000000E+00  0.83264339160E+03  0.83264339162E+03  0.50400001928E-02 0.  1.
       -1   -1    0    0    0  501  0.00000000000E+00  0.00000000000E+00 -0.97764846957E+03  0.97764846958E+03  0.50400001928E-02 0. -1.
    10030    2    1    2    0    0  0.00000000000E+00  0.00000000000E+00 -0.14500507797E+03  0.18102918612E+04  0.18044750345E+04 0.  0.
        3    1    3    3  502    0  0.79677325972E+02  0.21593424004E+03 -0.94770021947E+03  0.97524960317E+03  0.10100000352E+00 0. -1.
       -3    1    3    3    0  502 -0.79677325972E+02 -0.21593424004E+03  0.80269514151E+03  0.83504225803E+03  0.10100000352E+00 0.  1.
</event>
<event>
 5   0  0.9147432E-05  0.1806528E+04  0.7818609E-02  0.8702836E-01
       -2   -1    0    0    0  501  0.00000000000E+00  0.00000000000E+00  0.12214114977E+04  0.12214114977E+04  0.25500000920E-02 0. -1.
        2   -1    0    0  501    0  0.00000000000E+00  0.00000000000E+00 -0.66798583254E+03  0.66798583255E+03  0.25500000920E-02 0.  1.
    10030    2    1    2    0    0  0.00000000000E+00  0.00000000000E+00  0.55342566512E+03  0.18893973302E+04  0.18065276927E+04 0.  0.
        3    1    3    3  502    0 -0.42164662220E+03 -0.17095467273E+03 -0.53938543710E+03  0.70565433046E+03  0.10100000352E+00 0.  1.
       -3    1    3    3    0  502  0.42164662220E+03  0.17095467273E+03  0.10928111022E+04  0.11837429998E+04  0.10100000352E+00 0. -1.
</event>
<event>
 5   0  0.4494757E-05  0.1806611E+04  0.7818609E-02  0.8702792E-01
       -1   -1    0    0    0  501  0.00000000000E+00  0.00000000000E+00  0.10545503935E+04  0.10545503935E+04  0.50400001928E-02 0. -1.
        1   -1    0    0  501    0  0.00000000000E+00  0.00000000000E+00 -0.77375237951E+03  0.77375237953E+03  0.50400001928E-02 0.  1.
    10030    2    1    2    0    0  0.00000000000E+00  0.00000000000E+00  0.28079801399E+03  0.18283027730E+04  0.18066110553E+04 0.  0.
        4    1    3    3  502    0 -0.14051155087E+03  0.68265439395E+03 -0.44112970775E+03  0.82483789284E+03  0.12699999809E+01 0. -1.
       -4    1    3    3    0  502  0.14051155087E+03 -0.68265439395E+03  0.72192772174E+03  0.10034648802E+04  0.12699999809E+01 0.  1.
</event>
<event>
 5   0  0.4335117E-05  0.1796541E+04  0.7818609E-02  0.8708141E-01
        1   -1    0    0  501    0  0.00000000000E+00  0.00000000000E+00  0.11668459644E+04  0.11668459644E+04  0.50400001928E-02 0.  1.
       -1   -1    0    0    0  501  0.00000000000E+00  0.00000000000E+00 -0.69151358848E+03  0.69151358850E+03  0.50400001928E-02 0. -1.
    10030    2    1    2    0    0  0.00000000000E+00  0.00000000000E+00  0.47533237590E+03  0.18583595529E+04  0.17965409431E+04 0.  0.
        3    1    3    3  502    0  0.36173818039E+03  0.52793331334E+03 -0.41435812041E+03  0.76240458854E+03  0.10100000352E+00 0. -1.
       -3    1    3    3    0  502 -0.36173818039E+03 -0.52793331334E+03  0.88969049631E+03  0.10959549644E+04  0.10100000352E+00 0.  1.
</event>
<event>
 5   0  0.8802655E-05  0.1799813E+04  0.7818609E-02  0.8706399E-01
       -2   -1    0    0    0  501  0.00000000000E+00  0.00000000000E+00  0.49830378500E+03  0.49830378501E+03  0.25500000920E-02 0.  1.
        2   -1    0    0  501    0  0.00000000000E+00  0.00000000000E+00 -0.16251758946E+04  0.16251758946E+04  0.25500000920E-02 0. -1.
    10030    2    1    2    0    0  0.00000000000E+00  0.00000000000E+00 -0.11268721096E+04  0.21234796796E+04  0.17998125453E+04 0.  0.
        2    1    3    3  502    0  0.53649650333E+02 -0.81471345386E+03 -0.11697378209E+03  0.82481462317E+03  0.25500000920E-02 0.  1.
       -2    1    3    3    0  502 -0.53649650333E+02  0.81471345386E+03 -0.10098983275E+04  0.12986650564E+04  0.25500000920E-02 0. -1.
</event>
<event>
 5   0  0.4494757E-05  0.1786692E+04  0.7818609E-02  0.8713409E-01
       -1   -1    0    0    0  501  0.00000000000E+00  0.00000000000E+00  0.99930368294E+03  0.99930368295E+03  0.50400001928E-02 0.  1.
        1   -1    0    0  501    0  0.00000000000E+00  0.00000000000E+00 -0.79862337792E+03  0.79862337794E+03  0.50400001928E-02 0. -1.
    10030    2    1    2    0    0  0.00000000000E+00  0.00000000000E+00  0.20068030502E+03  0.17979270609E+04  0.17866922319E+04 0.  0.
        4    1    3    3  502    0 -0.45434513612E+03 -0.49452714534E+03  0.69317883345E+03  0.96513476170E+03  0.12699999809E+01 0.  1.
       -4    1    3    3    0  502  0.45434513612E+03  0.49452714534E+03 -0.49249852843E+03  0.83279229919E+03  0.12699999809E+01 0. -1.
</event>
<event>
 5   0  0.8893075E-05  0.1794497E+04  0.7818609E-02  0.8709232E-01
       -2   -1    0    0    0  501  0.00000000000E+00  0.00000000000E+00  0.97787152467E+03  0.97787152468E+03  0.25500000920E-02 0. -1.
        2   -1    0    0  501    0  0.00000000000E+00  0.00000000000E+00 -0.82327218660E+03  0.82327218660E+03  0.25500000920E-02 0.  1.
    10030    2    1    2    0    0  0.00000000000E+00  0.00000000000E+00  0.15459933807E+03  0.18011437113E+04  0.17944965069E+04 0.  0.
        1    1    3    3  502    0  0.79643229041E+03  0.16993304129E+03 -0.30075561592E+03  0.86812186487E+03  0.50400001928E-02 0.  1.
       -1    1    3    3    0  502 -0.79643229041E+03 -0.16993304129E+03  0.45535495400E+03  0.93302184641E+03  0.50400001928E-02 0. -1.
</event>
<event>
 5   0  0.4578107E-05  0.1810018E+04  0.7818609E-02  0.8700990E-01
       -1   -1    0    0    0  501  0.00000000000E+00  0.00000000000E+00  0.72755949640E+03  0.72755949642E+03  0.50400001928E-02 0. -1.
        1   -1    0    0  501    0  0.00000000000E+00  0.00000000000E+00 -0.11257381193E+04  0.11257381194E+04  0.50400001928E-02 0.  1.
    10030    2    1    2    0    0  0.00000000000E+00  0.00000000000E+00 -0.39817862294E+03  0.18532976158E+04  0.18100181869E+04 0.  0.
        2    1    3    3  502    0  0.67187963323E+03 -0.17833167856E+03  0.39426429531E+03  0.79916754419E+03  0.25500000920E-02 0. -1.
       -2    1    3    3    0  502 -0.67187963323E+03  0.17833167856E+03 -0.79244291825E+03  0.10541300716E+04  0.25500000920E-02 0.  1.
</event>
<event>
 5   0  0.4494757E-05  0.1798142E+04  0.7818609E-02  0.8707288E-01
        1   -1    0    0  501    0  0.00000000000E+00  0.00000000000E+00  0.12121011810E+04  0.12121011810E+04  0.50400001928E-02 0. -1.
       -1   -1    0    0    0  501  0.00000000000E+00  0.00000000000E+00 -0.66688252304E+03  0.66688252306E+03  0.50400001928E-02 0.  1.
    10030    2    1    2    0    0  0.00000000000E+00  0.00000000000E+00  0.54521865795E+03  0.18789837040E+04  0.17981424791E+04 0.  0.
        4    1    3    3  502    0 -0.79088516181E+03  0.42670618675E+03  0.24399250666E+03  0.93118820073E+03  0.12699999809E+01 0.  1.
       -4    1    3    3    0  502  0.79088516181E+03 -0.42670618675E+03  0.30122615129E+03  0.94779550331E+03  0.12699999809E+01 0. -1.
</event>
<event>
 5   0  0.9147432E-05  0.1797299E+04  0.7818609E-02  0.8707737E-01
        2   -1    0    0  501    0  0.00000000000E+00  0.00000000000E+00  0.18813802641E+04  0.18813802641E+04  0.25500000920E-02 0. -1.
       -2   -1    0    0    0  501  0.00000000000E+00  0.00000000000E+00 -0.42924398496E+03  0.42924398497E+03  0.25500000920E-02 0.  1.
    10030    2    1    2    0    0  0.00000000000E+00  0.00000000000E+00  0.14521362791E+04  0.23106242491E+04  0.17972992648E+04 0.  0.
        3    1    3    3  502    0 -0.28261428624E+03  0.66052895471E+03  0.14200610880E+04  0.15914593425E+04  0.10100000352E+00 0. -1.
       -3    1    3    3    0  502  0.28261428624E+03 -0.66052895471E+03  0.32075191106E+02  0.71916490659E+03  0.10100000352E+00 0.  1.
</event>
<event>
 5   0  0.4335117E-05  0.1807213E+04  0.7818609E-02  0.8702473E-01
        1   -1    0    0  501    0  0.00000000000E+00  0.00000000000E+00  0.17207071852E+04  0.17207071852E+04  0.50400001928E-02 0.  1.
       -1   -1    0    0    0  501  0.00000000000E+00  0.00000000000E+00 -0.47451701366E+03  0.47451701369E+03  0.50400001928E-02 0. -1.
    10030    2    1    2    0    0  0.00000000000E+00  0.00000000000E+00  0.12461901716E+04  0.21952241989E+04  0.18072131418E+04 0.  0.
        3    1    3    3  502    0  0.51075936831E+03 -0.49148773621E+03  0.13038368335E+04  0.14840572178E+04  0.10100000352E+00 0.  1.
       -3    1    3    3    0  502 -0.51075936831E+03  0.49148773621E+03 -0.57646661946E+02  0.71116698109E+03  0.10100000352E+00 0. -1.
</event>
<event>
 5   0  0.8802655E-05  0.1794687E+04  0.7818609E-02  0.8709130E-01
       -2   -1    0    0    0  501  0.00000000000E+00  0.00000000000E+00  0.54157915623E+03  0.54157915624E+03  0.25500000920E-02 0. -1.
        2   -1    0    0  501    0  0.00000000000E+00  0.00000000000E+00 -0.14868108560E+04  0.14868108560E+04  0.25500000920E-02 0.  1.
    10030    2    1    2    0    0  0.00000000000E+00  0.00000000000E+00 -0.94523169976E+03  0.20283900122E+04  0.17946874590E+04 0.  0.
        2    1    3    3  502    0  0.82499898635E+03  0.34719830875E+03 -0.40063787816E+03  0.98065320196E+03  0.25500000920E-02 0.  1.
       -2    1    3    3    0  502 -0.82499898635E+03 -0.34719830875E+03 -0.54459382160E+03  0.10477368103E+04  0.25500000920E-02 0. -1.
</event>
<event>
 5   0  0.9147432E-05  0.1796153E+04  0.7818609E-02  0.8708348E-01
        2   -1    0    0  501    0  0.00000000000E+00  0.00000000000E+00  0.84488527184E+03  0.84488527184E+03  0.25500000920E-02 0. -1.
       -2   -1    0    0    0  501  0.00000000000E+00  0.00000000000E+00 -0.95461686143E+03  0.95461686143E+03  0.25500000920E-02 0.  1.
    10030    2    1    2    0    0  0.00000000000E+00  0.00000000000E+00 -0.10973158959E+03  0.17995021333E+04  0.17961533637E+04 0.  0.
        3    1    3    3  502    0  0.47775220689E+03 -0.60750364801E+03  0.40340790751E+03  0.87180605846E+03  0.10100000352E+00 0. -1.
       -3    1    3    3    0  502 -0.47775220689E+03  0.60750364801E+03 -0.51313949711E+03  0.92769607481E+03  0.10100000352E+00 0.  1.
</event>
<event>
 5   0  0.8802655E-05  0.1800714E+04  0.7818609E-02  0.8705920E-01
       -2   -1    0    0    0  501  0.00000000000E+00  0.00000000000E+00  0.85643723328E+03  0.85643723328E+03  0.25500000920E-02 0. -1.
        2   -1    0    0  501    0  0.00000000000E+00  0.00000000000E+00 -0.94652860142E+03  0.94652860142E+03  0.25500000920E-02 0.  1.
    10030    2    1    2    0    0  0.00000000000E+00  0.00000000000E+00 -0.90091368139E+02  0.18029658347E+04  0.18007135659E+04 0.  0.
        2    1    3    3  502    0  0.21352945011E+03  0.26336229582E+03 -0.88016794064E+03  0.94321266354E+03  0.25500000920E-02 0.  1.
       -2    1    3    3    0  502 -0.21352945011E+03 -0.26336229582E+03  0.79007657250E+03  0.85975317117E+03  0.25500000920E-02 0. -1.
</event>
<event>
 5   0  0.8802655E-05  0.1796459E+04  0.7818609E-02  0.8708185E-01
        2   -1    0    0  501    0  0.00000000000E+00  0.00000000000E+00  0.71696807886E+03  0.71696807887E+03  0.25500000920E-02 0.  1.
       -2   -1    0    0    0  501  0.00000000000E+00  0.00000000000E+00 -0.11253162365E+04  0.11253162365E+04  0.25500000920E-02 0. -1.
    10030    2    1    2    0    0  0.00000000000E+00  0.00000000000E+00 -0.40834815767E+03  0.18422843154E+04  0.17964585386E+04 0.  0.
        2    1    3    3  502    0 -0.71578167334E+03  0.30538183651E+03  0.25583767827E+03  0.81917909372E+03  0.25500000920E-02 0.  1.
       -2    1    3    3    0  502  0.71578167334E+03 -0.30538183651E+03 -0.66418583594E+03  0.10231052217E+04  0.25500000920E-02 0. -1.
</event>
<event>
 5   0  0.4623665E-05  0.1804334E+04  0.7818609E-02  0.8703998E-01
        1   -1    0    0  501    0  0.00000000000E+00  0.00000000000E+00  0.16538392459E+04  0.16538392459E+04  0.50400001928E-02 0. -1.
       -1   -1    0    0    0  501  0.00000000000E+00  0.00000000000E+00 -0.49213094920E+03  0.49213094922E+03  0.50400001928E-02 0.  1.
    10030    2    1    2    0    0  0.00000000000E+00  0.00000000000E+00  0.11617082967E+04  0.21459701952E+04  0.18043342018E+04 0.  0.
        5    1    3    3  502    0  0.16445253509E+03 -0.13751115632E+03 -0.46138495035E+03  0.50877511419E+03  0.46999998093E+01 0.  1.
       -5    1    3    3    0  502 -0.16445253509E+03  0.13751115632E+03  0.16230932471E+04  0.16371950810E+04  0.46999998093E+01 0. -1.
</event>
<event>
 5   0  0.4494757E-05  0.1797551E+04  0.7818609E-02  0.8707603E-01
       -1   -1    0    0    0  501  0.00000000000E+00  0.00000000000E+00  0.78791813715E+03  0.78791813717E+03  0.50400001928E-02 0. -1.
        1   -1    0    0  501    0  0.00000000000E+00  0.00000000000E+00 -0.10252300637E+04  0.10252300637E+04  0.50400001928E-02 0.  1.
    10030    2    1    2    0    0  0.00000000000E+00  0.00000000000E+00 -0.23731192655E+03  0.18131482009E+04  0.17975509584E+04 0.  0.
        4    1    3    3  502    0  0.62084287722E+03 -0.44916679408E+03 -0.59241109048E+03  0.96858102403E+03  0.12699999809E+01 0.  1.
       -4    1    3    3    0  502 -0.62084287722E+03  0.44916679408E+03  0.35509916393E+03  0.84456717685E+03  0.12699999809E+01 0. -1.
</event>
<event>
 5   0  0.8802655E-05  0.1806411E+04  0.7818609E-02  0.8702897E-01
        2   -1    0    0  501    0  0.00000000000E+00  0.00000000000E+00  0.15393449947E+04  0.15393449947E+04  0.25500000920E-02 0.  1.
       -2   -1    0    0    0  501  0.00000000000E+00  0.00000000000E+00 -0.52995299712E+03  0.52995299713E+03  0.25500000920E-02 0. -1.
    10030    2    1    2    0    0  0.00000000000E+00  0.00000000000E+00  0.10093919975E+04  0.20692979918E+04  0.18064113524E+04 0.  0.
        2    1    3    3  502    0  0.44443663104E+03 -0.47027473603E+03  0.12265599716E+04  0.13867702082E+04  0.25500000920E-02 0.  1.
       -2    1    3    3    0  502 -0.44443663104E+03  0.47027473603E+03 -0.21716797411E+03  0.68252778357E+03  0.25500000920E-02 0. -1.
</event>
<event>
 5   0  0.8802655E-05  0.1793530E+04  0.7818609E-02  0.8709748E-01
        2   -1    0    0  501    0  0.00000000000E+00  0.00000000000E+00  0.56470993879E+03  0.56470993880E+03  0.25500000920E-02 0. -1.
       -2   -1    0    0    0  501  0.00000000000E+00  0.00000000000E+00 -0.14240713770E+04  0.14240713770E+04  0.25500000920E-02 0.  1.
    10030    2    1    2    0    0  0.00000000000E+00  0.00000000000E+00 -0.85936143822E+03  0.19887813158E+04  0.17935297713E+04 0.  0.
        2    1    3    3  502    0  0.33140548477E+03  0.49634971902E+02 -0.13520359906E+04  0.13929445594E+04  0.25500000920E-02 0.  1.
       -2    1    3    3    0  502 -0.33140548477E+03 -0.49634971902E+02  0.49267455234E+03  0.59583675642E+03  0.25500000920E-02 0. -1.
</event>
<event>
 5   0  0.3270375E-05  0.1796862E+04  0.7818609E-02  0.8707970E-01
        3   -1    0    0  501    0  0.00000000000E+00  0.00000000000E+00  0.12303304797E+04  0.12303304838E+04  0.10100000352E+00 0.  1.
       -3   -1    0    0    0  501  0.00000000000E+00  0.00000000000E+00 -0.65606607326E+03  0.65606608104E+03  0.10100000352E+00 0. -1.
    10030    2    1    2    0    0  0.00000000000E+00  0.00000000000E+00  0.57426440642E+03  0.18863965649E+04  0.17968618176E+04 0.  0.
        3    1    3    3  502    0  0.83375086297E+03  0.13346946832E+03 -0.35121490023E+02  0.84509652096E+03  0.10100000352E+00 0. -1.
       -3    1    3    3    0  502 -0.83375086297E+03 -0.13346946832E+03  0.60938589645E+03  0.10413000439E+04  0.10100000352E+00 0.  1.
</event>
<event>
 5   0  0.9147432E-05  0.1804545E+04  0.7818609E-02  0.8703886E-01
        2   -1    0    0  501    0  0.00000000000E+00  0.00000000000E+00  0.87983216688E+03  0.87983216688E+03  0.25500000920E-02 0. -1.
       -2   -1    0    0    0  501  0.00000000000E+00  0.00000000000E+00 -0.92528560312E+03  0.92528560312E+03  0.25500000920E-02 0.  1.
    10030    2    1    2    0    0  0.00000000000E+00  0.00000000000E+00 -0.45453436242E+02  0.18051177700E+04  0.18045454133E+04 0.  0.
        3    1    3    3  502    0 -0.46237857115E+03 -0.74303931867E+03  0.19687572255E+03  0.89702922611E+03  0.10100000352E+00 0.  1.
       -3    1    3    3    0  502  0.46237857115E+03  0.74303931867E+03 -0.24232915879E+03  0.90808854390E+03  0.10100000352E+00 0. -1.
</event>
<event>
 5   0  0.3270375E-05  0.1825670E+04  0.7818609E-02  0.8692766E-01
        4   -1    0    0  501    0  0.00000000000E+00  0.00000000000E+00  0.99837474141E+03  0.99837554918E+03  0.12699999809E+01 0.  1.
       -4   -1    0    0    0  501  0.00000000000E+00  0.00000000000E+00 -0.83462235404E+03  0.83462332028E+03  0.12699999809E+01 0. -1.
    10030    2    1    2    0    0  0.00000000000E+00  0.00000000000E+00  0.16375238738E+03  0.18329988695E+04  0.18256697432E+04 0.  0.
        5    1    3    3  502    0  0.11407762964E+03  0.62576642895E+03 -0.57546435389E+03  0.85777540288E+03  0.46999998093E+01 0. -1.
       -5    1    3    3    0  502 -0.11407762964E+03 -0.62576642895E+03  0.73921674127E+03  0.97522346658E+03  0.46999998093E+01 0.  1.
</event>
<event>
 5   0  0.4535100E-05  0.1798871E+04  0.7818609E-02  0.8706900E-01
        1   -1    0    0  501    0  0.00000000000E+00  0.00000000000E+00  0.24311578497E+04  0.24311578497E+04  0.50400001928E-02 0.  1.
       -1   -1    0    0    0  501  0.00000000000E+00  0.00000000000E+00 -0.33275686301E+03  0.33275686305E+03  0.50400001928E-02 0. -1.
    10030    2    1    2    0    0  0.00000000000E+00  0.00000000000E+00  0.20984009866E+04  0.27639147127E+04  0.17988712679E+04 0.  0.
        1    1    3    3  502    0 -0.54899055536E+03  0.48803508831E+03  0.18467100717E+04  0.19874372861E+04  0.50400001928E-02 0.  1.
       -1    1    3    3    0  502  0.54899055536E+03 -0.48803508831E+03  0.25169091492E+03  0.77647742657E+03  0.50400001928E-02 0. -1.
</event>
<event>
 5   0  0.8802655E-05  0.1796988E+04  0.7818609E-02  0.8707903E-01
        2   -1    0    0  501    0  0.00000000000E+00  0.00000000000E+00  0.10400512734E+04  0.10400512734E+04  0.25500000920E-02 0.  1.
       -2   -1    0    0    0  501  0.00000000000E+00  0.00000000000E+00 -0.77620315742E+03  0.77620315742E+03  0.25500000920E-02 0. -1.
    10030    2    1    2    0    0  0.00000000000E+00  0.00000000000E+00  0.26384811600E+03  0.18162544308E+04  0.17969875707E+04 0.  0.
        2    1    3    3  502    0  0.24722059913E+03 -0.84581508482E+03  0.30921831001E+03  0.93388283290E+03  0.25500000920E-02 0. -1.
       -2    1    3    3    0  502 -0.24722059913E+03  0.84581508482E+03 -0.45370194015E+02  0.88237159794E+03  0.25500000920E-02 0.  1.
</event>
<event>
 5   0  0.9184414E-05  0.1803775E+04  0.7818609E-02  0.8704294E-01
       -2   -1    0    0    0  501  0.00000000000E+00  0.00000000000E+00  0.42038915505E+03  0.42038915506E+03  0.25500000920E-02 0. -1.
        2   -1    0    0  501    0  0.00000000000E+00  0.00000000000E+00 -0.19348774341E+04  0.19348774341E+04  0.25500000920E-02 0.  1.
    10030    2    1    2    0    0  0.00000000000E+00  0.00000000000E+00 -0.15144882790E+04  0.23552665891E+04  0.18037754734E+04 0.  0.
        5    1    3    3  502    0  0.42954264230E+03 -0.42025082884E+03  0.12087314912E+03  0.61298454212E+03  0.46999998093E+01 0. -1.
       -5    1    3    3    0  502 -0.42954264230E+03  0.42025082884E+03 -0.16353614282E+04  0.17422820470E+04  0.46999998093E+01 0.  1.
</event>
<event>
 5   0  0.3270375E-05  0.1774011E+04  0.7818609E-02  0.8720243E-01
        4   -1    0    0  501    0  0.00000000000E+00  0.00000000000E+00  0.83090931737E+03  0.83091028793E+03  0.12699999809E+01 0.  1.
       -4   -1    0    0    0  501  0.00000000000E+00  0.00000000000E+00 -0.94688740162E+03  0.94688825330E+03  0.12699999809E+01 0. -1.
    10030    2    1    2    0    0  0.00000000000E+00  0.00000000000E+00 -0.11597808425E+03  0.17777985412E+04  0.17740114817E+04 0.  0.
        5    1    3    3  502    0 -0.18100610238E+03  0.94592222816E+02 -0.92299225423E+03  0.94532940771E+03  0.46999998093E+01 0. -1.
       -5    1    3    3    0  502  0.18100610238E+03 -0.94592222816E+02  0.80701416998E+03  0.83246913352E+03  0.46999998093E+01 0.  1.
</event>
<event>
 5   0  0.4623665E-05  0.1802137E+04  0.7818609E-02  0.8705164E-01
       -1   -1    0    0    0  501  0.00000000000E+00  0.00000000000E+00  0.34417907428E+03  0.34417907431E+03  0.50400001928E-02 0. -1.
        1   -1    0    0  501    0  0.00000000000E+00  0.00000000000E+00 -0.23590186428E+04  0.23590186428E+04  0.50400001928E-02 0.  1.
    10030    2    1    2    0    0  0.00000000000E+00  0.00000000000E+00 -0.20148395686E+04  0.27031977172E+04  0.18021374562E+04 0.  0.
        5    1    3    3  502    0  0.15411588800E+03  0.55754705678E+03 -0.20437117446E+04  0.21240033456E+04  0.46999998093E+01 0.  1.
       -5    1    3    3    0  502 -0.15411588800E+03 -0.55754705678E+03  0.28872175994E+02  0.57919437152E+03  0.46999998093E+01 0. -1.
</event>
<event>
 5   0  0.8892280E-05  0.1786205E+04  0.7818609E-02  0.8713670E-01
        2   -1    0    0  501    0  0.00000000000E+00  0.00000000000E+00  0.60208697725E+03  0.60208697725E+03  0.25500000920E-02 0.  1.
       -2   -1    0    0    0  501  0.00000000000E+00  0.00000000000E+00 -0.13247793158E+04  0.13247793158E+04  0.25500000920E-02 0. -1.
    10030    2    1    2    0    0  0.00000000000E+00  0.00000000000E+00 -0.72269233858E+03  0.19268662931E+04  0.17862053340E+04 0.  0.
        4    1    3    3  502    0  0.47061690902E+03  0.69847602746E+03 -0.68186651517E+03  0.10836478180E+04  0.12699999809E+01 0. -1.
       -4    1    3    3    0  502 -0.47061690902E+03 -0.69847602746E+03 -0.40825823412E+02  0.84321847510E+03  0.12699999809E+01 0.  1.
</event>
<event>
 5   0  0.4335117E-05  0.1794794E+04  0.7818609E-02  0.8709073E-01
        1   -1    0    0  501    0  0.00000000000E+00  0.00000000000E+00  0.20029896081E+04  0.20029896081E+04  0.50400001928E-02 0. -1.
       -1   -1    0    0    0  501  0.00000000000E+00  0.00000000000E+00 -0.40205965277E+03  0.40205965280E+03  0.50400001928E-02 0.  1.
    10030    2    1    2    0    0  0.00000000000E+00  0.00000000000E+00  0.16009299554E+04  0.24050492609E+04  0.17947939229E+04 0.  0.
        3    1    3    3  502    0  0.12857402892E+03 -0.88796585097E+03  0.77699893074E+03  0.11869043693E+04  0.10100000352E+00 0. -1.
       -3    1    3    3    0  502 -0.12857402892E+03  0.88796585097E+03  0.82393102463E+03  0.12181448916E+04  0.10100000352E+00 0.  1.
</event>
<event>
 5   0  0.4578107E-05  0.1730664E+04  0.7818609E-02  0.8744066E-01
       -1   -1    0    0    0  501  0.00000000000E+00  0.00000000000E+00  0.59623709636E+03  0.59623709638E+03  0.50400001928E-02 0.  1.
        1   -1    0    0  501    0  0.00000000000E+00  0.00000000000E+00 -0.12558747183E+04  0.12558747183E+04  0.50400001928E-02 0. -1.
    10030    2    1    2    0    0  0.00000000000E+00  0.00000000000E+00 -0.65963762194E+03  0.18521118147E+04  0.17306635669E+04 0.  0.
        2    1    3    3  502    0 -0.31459681523E+03 -0.12166276144E+03  0.52298737646E+03  0.62232530048E+03  0.25500000920E-02 0.  1.
       -2    1    3    3    0  502  0.31459681523E+03  0.12166276144E+03 -0.11826249984E+04  0.12297865142E+04  0.25500000920E-02 0. -1.
</event>
<event>
 5   0  0.8802655E-05  0.1795963E+04  0.7818609E-02  0.8708449E-01
        2   -1    0    0  501    0  0.00000000000E+00  0.00000000000E+00  0.12597458662E+04  0.12597458662E+04  0.25500000920E-02 0. -1.
       -2   -1    0    0    0  501  0.00000000000E+00  0.00000000000E+00 -0.64010619086E+03  0.64010619087E+03  0.25500000920E-02 0.  1.
    10030    2    1    2    0    0  0.00000000000E+00  0.00000000000E+00  0.61963967534E+03  0.18998520571E+04  0.17959633937E+04 0.  0.
        2    1    3    3  502    0  0.25629369721E+03 -0.36641644409E+03  0.11335981821E+04  0.12186026047E+04  0.25500000920E-02 0. -1.
       -2    1    3    3    0  502 -0.25629369721E+03  0.36641644409E+03 -0.51395850673E+03  0.68124945239E+03  0.25500000920E-02 0.  1.
</event>
<event>
 5   0  0.9147432E-05  0.1801438E+04  0.7818609E-02  0.8705535E-01
       -2   -1    0    0    0  501  0.00000000000E+00  0.00000000000E+00  0.47882572844E+03  0.47882572844E+03  0.25500000920E-02 0.  1.
        2   -1    0    0  501    0  0.00000000000E+00  0.00000000000E+00 -0.16943420200E+04  0.16943420200E+04  0.25500000920E-02 0. -1.
    10030    2    1    2    0    0  0.00000000000E+00  0.00000000000E+00 -0.12155162915E+04  0.21731677484E+04  0.18014378168E+04 0.  0.
        3    1    3    3  502    0 -0.33937581162E+03  0.28476890381E+03 -0.15538220141E+04  0.16157450702E+04  0.10100000352E+00 0. -1.
       -3    1    3    3    0  502  0.33937581162E+03 -0.28476890381E+03  0.33830572257E+03  0.55742267824E+03  0.10100000352E+00 0.  1.
</event>
<event>
 5   0  0.4494757E-05  0.1846804E+04  0.7818609E-02  0.8681798E-01
       -1   -1    0    0    0  501  0.00000000000E+00  0.00000000000E+00  0.43840371303E+03  0.43840371306E+03  0.50400001928E-02 0.  1.
        1   -1    0    0  501    0  0.00000000000E+00  0.00000000000E+00 -0.19449447619E+04  0.19449447619E+04  0.50400001928E-02 0. -1.
    10030    2    1    2    0    0  0.00000000000E+00  0.00000000000E+00 -0.15065410488E+04  0.23833484749E+04  0.18468037311E+04 0.  0.
        4    1    3    3  502    0  0.96672149476E+02 -0.90521312286E+03 -0.95283565149E+03  0.13178215714E+04  0.12699999809E+01 0.  1.
       -4    1    3    3    0  502 -0.96672149476E+02  0.90521312286E+03 -0.55370539735E+03  0.10655269036E+04  0.12699999809E+01 0. -1.
</event>
<event>
 5   0  0.9147432E-05  0.1801773E+04  0.7818609E-02  0.8705357E-01
        2   -1    0    0  501    0  0.00000000000E+00  0.00000000000E+00  0.10537328447E+04  0.10537328447E+04  0.25500000920E-02 0. -1.
       -2   -1    0    0    0  501  0.00000000000E+00  0.00000000000E+00 -0.77021072176E+03  0.77021072176E+03  0.25500000920E-02 0.  1.
    10030    2    1    2    0    0  0.00000000000E+00  0.00000000000E+00  0.28352212298E+03  0.18239435665E+04  0.18017728324E+04 0.  0.
        3    1    3    3  502    0 -0.68849656736E+02  0.78378399284E+03  0.58595270358E+03  0.98101896195E+03  0.10100000352E+00 0.  1.
       -3    1    3    3    0  502  0.68849656736E+02 -0.78378399284E+03 -0.30243058061E+03  0.84292460455E+03  0.10100000352E+00 0. -1.
</event>
<event>
 5   0  0.4335117E-05  0.1801840E+04  0.7818609E-02  0.8705321E-01
        1   -1    0    0  501    0  0.00000000000E+00  0.00000000000E+00  0.12389347899E+04  0.12389347899E+04  0.50400001928E-02 0.  1.
       -1   -1    0    0    0  501  0.00000000000E+00  0.00000000000E+00 -0.65512491901E+03  0.65512491903E+03  0.50400001928E-02 0. -1.
    10030    2    1    2    0    0  0.00000000000E+00  0.00000000000E+00  0.58380987086E+03  0.18940597089E+04  0.18018402303E+04 0.  0.
        3    1    3    3  502    0  0.40714161753E+03  0.32275266744E+03  0.10655935559E+04  0.11855054693E+04  0.10100000352E+00 0.  1.
       -3    1    3    3    0  502 -0.40714161753E+03 -0.32275266744E+03 -0.48178368508E+03  0.70855423962E+03  0.10100000352E+00 0. -1.
</event>
<event>
 5   0  0.8802655E-05  0.1790453E+04  0.7818609E-02  0.8711393E-01
        2   -1    0    0  501    0  0.00000000000E+00  0.00000000000E+00  0.14718517783E+04  0.14718517783E+04  0.25500000920E-02 0.  1.
       -2   -1    0    0    0  501  0.00000000000E+00  0.00000000000E+00 -0.54450464896E+03  0.54450464896E+03  0.25500000920E-02 0. -1.
    10030    2    1    2    0    0  0.00000000000E+00  0.00000000000E+00  0.92734712930E+03  0.20163564272E+04  0.17904526085E+04 0.  0.
        2    1    3    3  502    0  0.30663222560E+03 -0.83879475301E+03  0.53337052868E+03  0.10402327049E+04  0.25500000920E-02 0.  1.
       -2    1    3    3    0  502 -0.30663222560E+03  0.83879475301E+03  0.39397660061E+03  0.97612372233E+03  0.25500000920E-02 0. -1.
</event>
<event>
 5   0  0.9147432E-05  0.1792344E+04  0.7818609E-02  0.8710381E-01
        2   -1    0    0  501    0  0.00000000000E+00  0.00000000000E+00  0.54969101533E+03  0.54969101533E+03  0.25500000920E-02 0. -1.
       -2   -1    0    0    0  501  0.00000000000E+00  0.00000000000E+00 -0.14610474122E+04  0.14610474122E+04  0.25500000920E-02 0.  1.
    10030    2    1    2    0    0  0.00000000000E+00  0.00000000000E+00 -0.91135639685E+03  0.20107384275E+04  0.17923444261E+04 0.  0.
        3    1    3    3  502    0  0.23909710418E+03 -0.58332132802E+03 -0.11702289735E+04  0.13292355162E+04  0.10100000352E+00 0.  1.
       -3    1    3    3    0  502 -0.23909710418E+03  0.58332132802E+03  0.25887257665E+03  0.68150291129E+03  0.10100000352E+00 0. -1.
</event>
<event>
 5   0  0.8893075E-05  0.1796583E+04  0.7818609E-02  0.8708119E-01
        2   -1    0    0  501    0  0.00000000000E+00  0.00000000000E+00  0.57096358823E+03  0.57096358824E+03  0.25500000920E-02 0.  1.
       -2   -1    0    0    0  501  0.00000000000E+00  0.00000000000E+00 -0.14132725748E+04  0.14132725748E+04  0.25500000920E-02 0. -1.
    10030    2    1    2    0    0  0.00000000000E+00  0.00000000000E+00 -0.84230898658E+03  0.19842361631E+04  0.17965825119E+04 0.  0.
        1    1    3    3  502    0  0.15377118830E+03 -0.82895699922E+03 -0.76355528792E+03  0.11374673457E+04  0.50400001928E-02 0. -1.
       -1    1    3    3    0  502 -0.15377118830E+03  0.82895699922E+03 -0.78753698663E+02  0.84676881732E+03  0.50400001928E-02 0.  1.
</event>
<event>
 5   0  0.4535100E-05  0.1799718E+04  0.7818609E-02  0.8706449E-01
        1   -1    0    0  501    0  0.00000000000E+00  0.00000000000E+00  0.17499524155E+04  0.17499524155E+04  0.50400001928E-02 0. -1.
       -1   -1    0    0    0  501  0.00000000000E+00  0.00000000000E+00 -0.46272472417E+03  0.46272472419E+03  0.50400001928E-02 0.  1.
    10030    2    1    2    0    0  0.00000000000E+00  0.00000000000E+00  0.12872276913E+04  0.22126771397E+04  0.17997180321E+04 0.  0.
        1    1    3    3  502    0  0.35045962588E+03 -0.81101847404E+03  0.43361997712E+03  0.98417437438E+03  0.50400001928E-02 0.  1.
       -1    1    3    3    0  502 -0.35045962588E+03  0.81101847404E+03  0.85360771420E+03  0.12285027653E+04  0.50400001928E-02 0. -1.
</event>
<event>
 5   0  0.9147432E-05  0.1803098E+04  0.7818609E-02  0.8704654E-01
        2   -1    0    0  501    0  0.00000000000E+00  0.00000000000E+00  0.88690420317E+03  0.88690420318E+03  0.25500000920E-02 0. -1.
       -2   -1    0    0    0  501  0.00000000000E+00  0.00000000000E+00 -0.91643525715E+03  0.91643525716E+03  0.25500000920E-02 0.  1.
    10030    2    1    2    0    0  0.00000000000E+00  0.00000000000E+00 -0.29531053982E+02  0.18033394603E+04  0.18030976474E+04 0.  0.
        3    1    3    3  502    0  0.51915245793E+03  0.29534274667E+03  0.66063508502E+03  0.89060953192E+03  0.10100000352E+00 0. -1.
       -3    1    3    3    0  502 -0.51915245793E+03 -0.29534274667E+03 -0.69016613901E+03  0.91272992841E+03  0.10100000352E+00 0.  1.
</event>
<event>
 5   0  0.4494757E-05  0.1802336E+04  0.7818609E-02  0.8705058E-01
        1   -1    0    0  501    0  0.00000000000E+00  0.00000000000E+00  0.88137855867E+03  0.88137855868E+03  0.50400001928E-02 0.  1.
       -1   -1    0    0    0  501  0.00000000000E+00  0.00000000000E+00 -0.92140198757E+03  0.92140198758E+03  0.50400001928E-02 0. -1.
    10030    2    1    2    0    0  0.00000000000E+00  0.00000000000E+00 -0.40023428902E+02  0.18027805463E+04  0.18023362126E+04 0.  0.
        4    1    3    3  502    0  0.35074567685E+02  0.37478320266E+03 -0.83899905521E+03  0.91957256474E+03  0.12699999809E+01 0. -1.
       -4    1    3    3    0  502 -0.35074567685E+02 -0.37478320266E+03  0.79897562630E+03  0.88320798152E+03  0.12699999809E+01 0.  1.
</event>
<event>
 5   0  0.9184414E-05  0.1800623E+04  0.7818609E-02  0.8705968E-01
       -2   -1    0    0    0  501  0.00000000000E+00  0.00000000000E+00  0.79603225486E+03  0.79603225487E+03  0.25500000920E-02 0. -1.
        2   -1    0    0  501    0  0.00000000000E+00  0.00000000000E+00 -0.10182512921E+04  0.10182512921E+04  0.25500000920E-02 0.  1.
    10030    2    1    2    0    0  0.00000000000E+00  0.00000000000E+00 -0.22221903723E+03  0.18142835470E+04  0.18006230833E+04 0.  0.
        5    1    3    3  502    0  0.17276911372E+03  0.87760587097E+03 -0.21434437032E+03  0.91978629611E+03  0.46999998093E+01 0. -1.
       -5    1    3    3    0  502 -0.17276911372E+03 -0.87760587097E+03 -0.78746669145E+01  0.89449725086E+03  0.46999998093E+01 0.  1.
</event>
<event>
 5   0  0.4494757E-05  0.1794029E+04  0.7818609E-02  0.8709481E-01
       -1   -1    0    0    0  501  0.00000000000E+00  0.00000000000E+00  0.76748995606E+03  0.76748995607E+03  0.50400001928E-02 0.  1.
        1   -1    0    0  501    0  0.00000000000E+00  0.00000000000E+00 -0.10483983775E+04  0.10483983775E+04  0.50400001928E-02 0. -1.
    10030    2    1    2    0    0  0.00000000000E+00  0.00000000000E+00 -0.28090842140E+03  0.18158883335E+04  0.17940292357E+04 0.  0.
        4    1    3    3  502    0  0.40512597670E+03 -0.64269404379E+03 -0.62318330205E+03  0.98261983075E+03  0.12699999809E+01 0. -1.
       -4    1    3    3    0  502 -0.40512597670E+03  0.64269404379E+03  0.34227488065E+03  0.83326850279E+03  0.12699999809E+01 0.  1.
</event>
<event>
 5   0  0.4335117E-05  0.1793105E+04  0.7818609E-02  0.8709975E-01
       -1   -1    0    0    0  501  0.00000000000E+00  0.00000000000E+00  0.74354781251E+03  0.74354781253E+03  0.50400001928E-02 0.  1.
        1   -1    0    0  501    0  0.00000000000E+00  0.00000000000E+00 -0.10810419724E+04  0.10810419724E+04  0.50400001928E-02 0. -1.
    10030    2    1    2    0    0  0.00000000000E+00  0.00000000000E+00 -0.33749415991E+03  0.18245897850E+04  0.17931050096E+04 0.  0.
        3    1    3    3  502    0 -0.63793660925E+03 -0.37188421379E+03 -0.68614886296E+03  0.10079986400E+04  0.10100000352E+00 0. -1.
       -3    1    3    3    0  502  0.63793660925E+03  0.37188421379E+03  0.34865470305E+03  0.81659114497E+03  0.10100000352E+00 0.  1.
</event>
<event>
 5   0  0.8893075E-05  0.1797521E+04  0.7818609E-02  0.8707619E-01
        2   -1    0    0  501    0  0.00000000000E+00  0.00000000000E+00  0.20953435982E+04  0.20953435982E+04  0.25500000920E-02 0.  1.
       -2   -1    0    0    0  501  0.00000000000E+00  0.00000000000E+00 -0.38550728999E+03  0.38550728999E+03  0.25500000920E-02 0. -1.
    10030    2    1    2    0    0  0.00000000000E+00  0.00000000000E+00  0.17098363083E+04  0.24808508882E+04  0.17975207728E+04 0.  0.
        1    1    3    3  502    0 -0.33510953792E+03 -0.27916335337E+02 -0.29541344908E+03  0.44760119538E+03  0.50400001928E-02 0. -1.
       -1    1    3    3    0  502  0.33510953792E+03  0.27916335337E+02  0.20052497573E+04  0.20332496929E+04  0.50400001928E-02 0.  1.
</event>
<event>
 5   0  0.8892280E-05  0.1798895E+04  0.7818609E-02  0.8706887E-01
       -2   -1    0    0    0  501  0.00000000000E+00  0.00000000000E+00  0.28328438264E+03  0.28328438265E+03  0.25500000920E-02 0.  1.
        2   -1    0    0  501    0  0.00000000000E+00  0.00000000000E+00 -0.28558071636E+04  0.28558071636E+04  0.25500000920E-02 0. -1.
    10030    2    1    2    0    0  0.00000000000E+00  0.00000000000E+00 -0.25725227809E+04  0.31390915462E+04  0.17988947377E+04 0.  0.
        4    1    3    3  502    0  0.59000418767E+02  0.34576460874E+03 -0.27315371206E+04  0.27539663884E+04  0.12699999809E+01 0. -1.
       -4    1    3    3    0  502 -0.59000418767E+02 -0.34576460874E+03  0.15901433970E+03  0.38512515784E+03  0.12699999809E+01 0.  1.
</event>
<event>
 5   0  0.9147432E-05  0.1804874E+04  0.7818609E-02  0.8703712E-01
       -2   -1    0    0    0  501  0.00000000000E+00  0.00000000000E+00  0.59900798734E+03  0.59900798735E+03  0.25500000920E-02 0.  1.
        2   -1    0    0  501    0  0.00000000000E+00  0.00000000000E+00 -0.13595690770E+04  0.13595690770E+04  0.25500000920E-02 0. -1.
    10030    2    1    2    0    0  0.00000000000E+00  0.00000000000E+00 -0.76056108964E+03  0.19585770643E+04  0.18048742188E+04 0.  0.
        3    1    3    3  502    0  0.82433369538E+03  0.17325132389E+03 -0.28898702993E+02  0.84283877925E+03  0.10100000352E+00 0.  1.
       -3    1    3    3    0  502 -0.82433369538E+03 -0.17325132389E+03 -0.73166238664E+03  0.11157382851E+04  0.10100000352E+00 0. -1.
</event>
<event>
 5   0  0.4494757E-05  0.1801084E+04  0.7818609E-02  0.8705723E-01
        1   -1    0    0  501    0  0.00000000000E+00  0.00000000000E+00  0.19973477218E+04  0.19973477218E+04  0.50400001928E-02 0.  1.
       -1   -1    0    0    0  501  0.00000000000E+00  0.00000000000E+00 -0.40602661611E+03  0.40602661614E+03  0.50400001928E-02 0. -1.
    10030    2    1    2    0    0  0.00000000000E+00  0.00000000000E+00  0.15913211057E+04  0.24033743380E+04  0.18010844919E+04 0.  0.
        4    1    3    3  502    0  0.50448224941E+03 -0.70587933578E+02  0.17866203748E+04  0.18578210282E+04  0.12699999809E+01 0.  1.
       -4    1    3    3    0  502 -0.50448224941E+03  0.70587933578E+02 -0.19529926911E+03  0.54555330972E+03  0.12699999809E+01 0. -1.
</event>
<event>
 5   0  0.4578107E-05  0.1811268E+04  0.7818609E-02  0.8700330E-01
       -1   -1    0    0    0  501  0.00000000000E+00  0.00000000000E+00  0.52771695630E+03  0.52771695633E+03  0.50400001928E-02 0. -1.
        1   -1    0    0  501    0  0.00000000000E+00  0.00000000000E+00 -0.15541908925E+04  0.15541908925E+04  0.50400001928E-02 0.  1.
    10030    2    1    2    0    0  0.00000000000E+00  0.00000000000E+00 -0.10264739362E+04  0.20819078489E+04  0.18112679397E+04 0.  0.
        2    1    3    3  502    0 -0.73185686267E+03 -0.18052925962E+02 -0.11260326255E+04  0.13430896654E+04  0.25500000920E-02 0.  1.
       -2    1    3    3    0  502  0.73185686267E+03  0.18052925962E+02  0.99558689308E+02  0.73881818345E+03  0.25500000920E-02 0. -1.
</event>
<event>
 5   0  0.9184414E-05  0.1799061E+04  0.7818609E-02  0.8706799E-01
        2   -1    0    0  501    0  0.00000000000E+00  0.00000000000E+00  0.16997687610E+04  0.16997687610E+04  0.25500000920E-02 0.  1.
       -2   -1    0    0    0  501  0.00000000000E+00  0.00000000000E+00 -0.47603852322E+03  0.47603852322E+03  0.25500000920E-02 0. -1.
    10030    2    1    2    0    0  0.00000000000E+00  0.00000000000E+00  0.12237302378E+04  0.21758072842E+04  0.17990613228E+04 0.  0.
        5    1    3    3  502    0 -0.76321953071E+03  0.34511715339E+03  0.10084407212E+04  0.13109480080E+04  0.46999998093E+01 0.  1.
       -5    1    3    3    0  502  0.76321953071E+03 -0.34511715339E+03  0.21528951658E+03  0.86485927617E+03  0.46999998093E+01 0. -1.
</event>
<event>
 5   0  0.4535100E-05  0.1769651E+04  0.7818609E-02  0.8722607E-01
        1   -1    0    0  501    0  0.00000000000E+00  0.00000000000E+00  0.52648972417E+03  0.52648972419E+03  0.50400001928E-02 0. -1.
       -1   -1    0    0    0  501  0.00000000000E+00  0.00000000000E+00 -0.14870500531E+04  0.14870500532E+04  0.50400001928E-02 0.  1.
    10030    2    1    2    0    0  0.00000000000E+00  0.00000000000E+00 -0.96056032898E+03  0.20135397773E+04  0.17696514598E+04 0.  0.
        1    1    3    3  502    0 -0.37044099545E+03 -0.33712349680E+03 -0.13102144666E+04  0.14026905331E+04  0.50400001928E-02 0.  1.
       -1    1    3    3    0  502  0.37044099545E+03  0.33712349680E+03  0.34965413761E+03  0.61084924423E+03  0.50400001928E-02 0. -1.
</event>
<event>
 5   0  0.9147432E-05  0.1800069E+04  0.7818609E-02  0.8706263E-01
       -2   -1    0    0    0  501  0.00000000000E+00  0.00000000000E+00  0.70318903678E+03  0.70318903678E+03  0.25500000920E-02 0. -1.
        2   -1    0    0  501    0  0.00000000000E+00  0.00000000000E+00 -0.11519839762E+04  0.11519839762E+04  0.25500000920E-02 0.  1.
    10030    2    1    2    0    0  0.00000000000E+00  0.00000000000E+00 -0.44879493941E+03  0.18551730130E+04  0.18000694460E+04 0.  0.
        3    1    3    3  502    0 -0.24446546001E+01 -0.57518224705E+03 -0.93784737635E+03  0.11001810329E+04  0.10100000352E+00 0.  1.
       -3    1    3    3    0  502  0.24446546001E+01  0.57518224705E+03  0.48905243694E+03  0.75499198005E+03  0.10100000352E+00 0. -1.
</event>
<event>
 5   0  0.4578107E-05  0.1797731E+04  0.7818609E-02  0.8707507E-01
        1   -1    0    0  501    0  0.00000000000E+00  0.00000000000E+00  0.99258845961E+03  0.99258845962E+03  0.50400001928E-02 0.  1.
       -1   -1    0    0    0  501  0.00000000000E+00  0.00000000000E+00 -0.81399241017E+03  0.81399241018E+03  0.50400001928E-02 0. -1.
    10030    2    1    2    0    0  0.00000000000E+00  0.00000000000E+00  0.17859604944E+03  0.18065808698E+04  0.17977313176E+04 0.  0.
        2    1    3    3  502    0 -0.57864162240E+03  0.68243416192E+03  0.17584374412E+03  0.91184622327E+03  0.25500000920E-02 0.  1.
       -2    1    3    3    0  502  0.57864162240E+03 -0.68243416192E+03  0.27523053281E+01  0.89473464654E+03  0.25500000920E-02 0. -1.
</event>
<event>
 5   0  0.4494757E-05  0.1795207E+04  0.7818609E-02  0.8708853E-01
        1   -1    0    0  501    0  0.00000000000E+00  0.00000000000E+00  0.13291477834E+04  0.13291477835E+04  0.50400001928E-02 0. -1.
       -1   -1    0    0    0  501  0.00000000000E+00  0.00000000000E+00 -0.60617168079E+03  0.60617168081E+03  0.50400001928E-02 0.  1.
    10030    2    1    2    0    0  0.00000000000E+00  0.00000000000E+00  0.72297610265E+03  0.19353194643E+04  0.17952066688E+04 0.  0.
        4    1    3    3  502    0 -0.55820607410E+03  0.64657001897E+03  0.65877014667E+03  0.10787152218E+04  0.12699999809E+01 0. -1.
       -4    1    3    3    0  502  0.55820607410E+03 -0.64657001897E+03  0.64205955979E+02  0.85660424251E+03  0.12699999809E+01 0.  1.
</event>
<event>
 5   0  0.3270375E-05  0.1797120E+04  0.7818609E-02  0.8707833E-01
        3   -1    0    0  501    0  0.00000000000E+00  0.00000000000E+00  0.15352656625E+04  0.15352656658E+04  0.10100000352E+00 0. -1.
       -3   -1    0    0    0  501  0.00000000000E+00  0.00000000000E+00 -0.52590897375E+03  0.52590898345E+03  0.10100000352E+00 0.  1.
    10030    2    1    2    0    0  0.00000000000E+00  0.00000000000E+00  0.10093566887E+04  0.20611746493E+04  0.17971199208E+04 0.  0.
        2    1    3    3  502    0 -0.31145866272E+03  0.67725472240E+03  0.10801246806E+04  0.13123832455E+04  0.25500000920E-02 0. -1.
       -2    1    3    3    0  502  0.31145866272E+03 -0.67725472240E+03 -0.70767991831E+02  0.74879140371E+03  0.25500000920E-02 0.  1.
</event>
<event>
 5   0  0.8892280E-05  0.1800670E+04  0.7818609E-02  0.8705943E-01
        2   -1    0    0  501    0  0.00000000000E+00  0.00000000000E+00  0.61244491183E+03  0.61244491183E+03  0.25500000920E-02 0.  1.
       -2   -1    0    0    0  501  0.00000000000E+00  0.00000000000E+00 -0.13235524911E+04  0.13235524911E+04  0.25500000920E-02 0. -1.
    10030    2    1    2    0    0  0.00000000000E+00  0.00000000000E+00 -0.71110757922E+03  0.19359974029E+04  0.18006698628E+04 0.  0.
        4    1    3    3  502    0 -0.11891735001E+03  0.30537304784E+03  0.54604303275E+03  0.63683486164E+03  0.12699999809E+01 0.  1.
       -4    1    3    3    0  502  0.11891735001E+03 -0.30537304784E+03 -0.12571506120E+04  0.12991625412E+04  0.12699999809E+01 0. -1.
</event>
<event>
 5   0  0.4623665E-05  0.1852223E+04  0.7818609E-02  0.8679010E-01
       -1   -1    0    0    0  501  0.00000000000E+00  0.00000000000E+00  0.66665801455E+03  0.66665801457E+03  0.50400001928E-02 0.  1.
        1   -1    0    0  501    0  0.00000000000E+00  0.00000000000E+00 -0.12865409538E+04  0.12865409538E+04  0.50400001928E-02 0. -1.
    10030    2    1    2    0    0  0.00000000000E+00  0.00000000000E+00 -0.61988293922E+03  0.19531989684E+04  0.18522233536E+04 0.  0.
        5    1    3    3  502    0  0.68563443885E+03  0.39248654048E+03  0.19964233578E+03  0.81487386780E+03  0.46999998093E+01 0.  1.
       -5    1    3    3    0  502 -0.68563443885E+03 -0.39248654048E+03 -0.81952527499E+03  0.11383251006E+04  0.46999998093E+01 0. -1.
</event>
<event>
 5   0  0.8802655E-05  0.1800249E+04  0.7818609E-02  0.8706167E-01
       -2   -1    0    0    0  501  0.00000000000E+00  0.00000000000E+00  0.73748269174E+03  0.73748269174E+03  0.25500000920E-02 0.  1.
        2   -1    0    0  501    0  0.00000000000E+00  0.00000000000E+00 -0.10986346605E+04  0.10986346605E+04  0.25500000920E-02 0. -1.
    10030    2    1    2    0    0  0.00000000000E+00  0.00000000000E+00 -0.36115196873E+03  0.18361173522E+04  0.18002489235E+04 0.  0.
        2    1    3    3  502    0 -0.62818269565E+03  0.64394902989E+03 -0.21184950044E+03  0.92420996697E+03  0.25500000920E-02 0. -1.
       -2    1    3    3    0  502  0.62818269565E+03 -0.64394902989E+03 -0.14930246830E+03  0.91190738524E+03  0.25500000920E-02 0.  1.
</event>
<event>
 5   0  0.4578107E-05  0.1787438E+04  0.7818609E-02  0.8713009E-01
        1   -1    0    0  501    0  0.00000000000E+00  0.00000000000E+00  0.16505345489E+04  0.16505345489E+04  0.50400001928E-02 0.  1.
       -1   -1    0    0    0  501  0.00000000000E+00  0.00000000000E+00 -0.48392409112E+03  0.48392409115E+03  0.50400001928E-02 0. -1.
    10030    2    1    2    0    0  0.00000000000E+00  0.00000000000E+00  0.11666104578E+04  0.21344586401E+04  0.17874377544E+04 0.  0.
        2    1    3    3  502    0  0.70050530920E+03  0.21445155908E+03  0.11945814797E+04  0.14013286806E+04  0.25500000920E-02 0.  1.
       -2    1    3    3    0  502 -0.70050530920E+03 -0.21445155908E+03 -0.27971021913E+02  0.73312995947E+03  0.25500000920E-02 0. -1.
</event>
<event>
 5   0  0.4535100E-05  0.1785787E+04  0.7818609E-02  0.8713895E-01
        1   -1    0    0  501    0  0.00000000000E+00  0.00000000000E+00  0.70262949772E+03  0.70262949774E+03  0.50400001928E-02 0. -1.
       -1   -1    0    0    0  501  0.00000000000E+00  0.00000000000E+00 -0.11346787288E+04  0.11346787288E+04  0.50400001928E-02 0.  1.
    10030    2    1    2    0    0  0.00000000000E+00  0.00000000000E+00 -0.43204923106E+03  0.18373082265E+04  0.17857869361E+04 0.  0.
        1    1    3    3  502    0  0.46434700062E+03 -0.59033541815E+03 -0.71280581742E+03  0.10354738897E+04  0.50400001928E-02 0.  1.
       -1    1    3    3    0  502 -0.46434700062E+03  0.59033541815E+03  0.28075658636E+03  0.80183433683E+03  0.50400001928E-02 0. -1.
</event>
<event>
 5   0  0.8802655E-05  0.1810018E+04  0.7818609E-02  0.8700990E-01
        2   -1    0    0  501    0  0.00000000000E+00  0.00000000000E+00  0.68877690097E+03  0.68877690097E+03  0.25500000920E-02 0.  1.
       -2   -1    0    0    0  501  0.00000000000E+00  0.00000000000E+00 -0.11891244260E+04  0.11891244260E+04  0.25500000920E-02 0. -1.
    10030    2    1    2    0    0  0.00000000000E+00  0.00000000000E+00 -0.50034752505E+03  0.18779013270E+04  0.18100181624E+04 0.  0.
        2    1    3    3  502    0 -0.31033461705E+03  0.78663586920E+03  0.84311314092E+02  0.84983054954E+03  0.25500000920E-02 0.  1.
       -2    1    3    3    0  502  0.31033461705E+03 -0.78663586920E+03 -0.58465883914E+03  0.10280707774E+04  0.25500000920E-02 0. -1.
</event>
<event>
 5   0  0.8892280E-05  0.1790230E+04  0.7818609E-02  0.8711512E-01
       -2   -1    0    0    0  501  0.00000000000E+00  0.00000000000E+00  0.89186112503E+03  0.89186112503E+03  0.25500000920E-02 0.  1.
        2   -1    0    0  501    0  0.00000000000E+00  0.00000000000E+00 -0.89838120537E+03  0.89838120538E+03  0.25500000920E-02 0. -1.
    10030    2    1    2    0    0  0.00000000000E+00  0.00000000000E+00 -0.65200803467E+01  0.17902423304E+04  0.17902304573E+04 0.  0.
        4    1    3    3  502    0  0.40606099636E+03  0.48129656952E+03 -0.63942283940E+03  0.89743807644E+03  0.12699999809E+01 0. -1.
       -4    1    3    3    0  502 -0.40606099636E+03 -0.48129656952E+03  0.63290275905E+03  0.89280425397E+03  0.12699999809E+01 0.  1.
</event>
<event>
 5   0  0.4578107E-05  0.1791674E+04  0.7818609E-02  0.8710740E-01
       -1   -1    0    0    0  501  0.00000000000E+00  0.00000000000E+00  0.43482446033E+03  0.43482446036E+03  0.50400001928E-02 0. -1.
        1   -1    0    0  501    0  0.00000000000E+00  0.00000000000E+00 -0.18456268851E+04  0.18456268851E+04  0.50400001928E-02 0.  1.
    10030    2    1    2    0    0  0.00000000000E+00  0.00000000000E+00 -0.14108024248E+04  0.22804513455E+04  0.17916737586E+04 0.  0.
        2    1    3    3  502    0 -0.31456111866E+03 -0.40892321319E+03  0.22675518086E+03  0.56354662958E+03  0.25500000920E-02 0. -1.
       -2    1    3    3    0  502  0.31456111866E+03  0.40892321319E+03 -0.16375576056E+04  0.17169047159E+04  0.25500000920E-02 0.  1.
</event>
<event>
 5   0  0.4535100E-05  0.1799791E+04  0.7818609E-02  0.8706411E-01
       -1   -1    0    0    0  501  0.00000000000E+00  0.00000000000E+00  0.31141900086E+03  0.31141900090E+03  0.50400001928E-02 0. -1.
        1   -1    0    0  501    0  0.00000000000E+00  0.00000000000E+00 -0.26003932131E+04  0.26003932131E+04  0.50400001928E-02 0.  1.
    10030    2    1    2    0    0  0.00000000000E+00  0.00000000000E+00 -0.22889742123E+04  0.29118122140E+04  0.17997909394E+04 0.  0.
        1    1    3    3  502    0 -0.62978619970E+02  0.75662537442E+02  0.30268126981E+03  0.31828772717E+03  0.50400001928E-02 0. -1.
       -1    1    3    3    0  502  0.62978619970E+02 -0.75662537442E+02 -0.25916554821E+04  0.25935244869E+04  0.50400001928E-02 0.  1.
</event>
<event>
 5   0  0.4494757E-05  0.1796893E+04  0.7818609E-02  0.8707954E-01
        1   -1    0    0  501    0  0.00000000000E+00  0.00000000000E+00  0.92980758169E+03  0.92980758170E+03  0.50400001928E-02 0. -1.
       -1   -1    0    0    0  501  0.00000000000E+00  0.00000000000E+00 -0.86814296623E+03  0.86814296624E+03  0.50400001928E-02 0.  1.
    10030    2    1    2    0    0  0.00000000000E+00  0.00000000000E+00  0.61664615459E+02  0.17979505479E+04  0.17968927759E+04 0.  0.
        4    1    3    3  502    0  0.30085254828E+03  0.56675664619E+03 -0.59840905726E+03  0.87739407595E+03  0.12699999809E+01 0.  1.
       -4    1    3    3    0  502 -0.30085254828E+03 -0.56675664619E+03  0.66007367272E+03  0.92055647199E+03  0.12699999809E+01 0. -1.
</event>
<event>
 5   0  0.8892280E-05  0.1795100E+04  0.7818609E-02  0.8708910E-01
       -2   -1    0    0    0  501  0.00000000000E+00  0.00000000000E+00  0.62637930873E+03  0.62637930873E+03  0.25500000920E-02 0.  1.
        2   -1    0    0  501    0  0.00000000000E+00  0.00000000000E+00 -0.12861149543E+04  0.12861149543E+04  0.25500000920E-02 0. -1.
    10030    2    1    2    0    0  0.00000000000E+00  0.00000000000E+00 -0.65973564556E+03  0.19124942630E+04  0.17950997699E+04 0.  0.
        4    1    3    3  502    0  0.47808945596E+02 -0.81282452313E+03 -0.73222249358E+03  0.10950437405E+04  0.12699999809E+01 0. -1.
       -4    1    3    3    0  502 -0.47808945596E+02  0.81282452313E+03  0.72486848018E+02  0.81745052249E+03  0.12699999809E+01 0.  1.
</event>
<event>
 5   0  0.4335117E-05  0.1803033E+04  0.7818609E-02  0.8704688E-01
        1   -1    0    0  501    0  0.00000000000E+00  0.00000000000E+00  0.10485881727E+04  0.10485881728E+04  0.50400001928E-02 0.  1.
       -1   -1    0    0    0  501  0.00000000000E+00  0.00000000000E+00 -0.77507275965E+03  0.77507275967E+03  0.50400001928E-02 0. -1.
    10030    2    1    2    0    0  0.00000000000E+00  0.00000000000E+00  0.27351541309E+03  0.18236609324E+04  0.18030331431E+04 0.  0.
        3    1    3    3  502    0  0.80053163587E+03 -0.18685371682E+03  0.51108216846E+03  0.96797221274E+03  0.10100000352E+00 0.  1.
       -3    1    3    3    0  502 -0.80053163587E+03  0.18685371682E+03 -0.23756675538E+03  0.85568871968E+03  0.10100000352E+00 0. -1.
</event>
<event>
 5   0  0.4535100E-05  0.1764989E+04  0.7818609E-02  0.8725143E-01
        1   -1    0    0  501    0  0.00000000000E+00  0.00000000000E+00  0.19165892690E+04  0.19165892690E+04  0.50400001928E-02 0. -1.
       -1   -1    0    0    0  501  0.00000000000E+00  0.00000000000E+00 -0.40634484479E+03  0.40634484482E+03  0.50400001928E-02 0.  1.
    10030    2    1    2    0    0  0.00000000000E+00  0.00000000000E+00  0.15102444242E+04  0.23229341138E+04  0.17649885768E+04 0.  0.
        1    1    3    3  502    0 -0.51093415191E+03  0.65907265637E+02  0.16981454022E+04  0.17745690413E+04  0.50400001928E-02 0. -1.
       -1    1    3    3    0  502  0.51093415191E+03 -0.65907265637E+02 -0.18790097797E+03  0.54836507256E+03  0.50400001928E-02 0.  1.
</event>
<event>
 5   0  0.4535100E-05  0.1799459E+04  0.7818609E-02  0.8706587E-01
       -1   -1    0    0    0  501  0.00000000000E+00  0.00000000000E+00  0.59811519984E+03  0.59811519986E+03  0.50400001928E-02 0. -1.
        1   -1    0    0  501    0  0.00000000000E+00  0.00000000000E+00 -0.13534406940E+04  0.13534406940E+04  0.50400001928E-02 0.  1.
    10030    2    1    2    0    0  0.00000000000E+00  0.00000000000E+00 -0.75532549416E+03  0.19515558939E+04  0.17994593090E+04 0.  0.
        1    1    3    3  502    0  0.47165949513E+03  0.50629675296E+03  0.24602253664E+03  0.73438829645E+03  0.50400001928E-02 0. -1.
       -1    1    3    3    0  502 -0.47165949513E+03 -0.50629675296E+03 -0.10013480308E+04  0.12171675974E+04  0.50400001928E-02 0.  1.
</event>
<event>
 5   0  0.8892280E-05  0.1803601E+04  0.7818609E-02  0.8704387E-01
        2   -1    0    0  501    0  0.00000000000E+00  0.00000000000E+00  0.11714693955E+04  0.11714693955E+04  0.25500000920E-02 0. -1.
       -2   -1    0    0    0  501  0.00000000000E+00  0.00000000000E+00 -0.69420843029E+03  0.69420843029E+03  0.25500000920E-02 0.  1.
    10030    2    1    2    0    0  0.00000000000E+00  0.00000000000E+00  0.47726096520E+03  0.18656778258E+04  0.18036007653E+04 0.  0.
        4    1    3    3  502    0  0.44040818963E+03 -0.52696449564E+03 -0.36594381533E+03  0.77818213937E+03  0.12699999809E+01 0.  1.
       -4    1    3    3    0  502 -0.44040818963E+03  0.52696449564E+03  0.84320478053E+03  0.10874956864E+04  0.12699999809E+01 0. -1.
</event>
<event>
 5   0  0.9147432E-05  0.1809283E+04  0.7818609E-02  0.8701379E-01
        2   -1    0    0  501    0  0.00000000000E+00  0.00000000000E+00  0.17668384310E+04  0.17668384310E+04  0.25500000920E-02 0. -1.
       -2   -1    0    0    0  501  0.00000000000E+00  0.00000000000E+00 -0.46318669549E+03  0.46318669549E+03  0.25500000920E-02 0.  1.
    10030    2    1    2    0    0  0.00000000000E+00  0.00000000000E+00  0.13036517355E+04  0.22300251265E+04  0.18092827908E+04 0.  0.
        3    1    3    3  502    0 -0.42714114723E+01  0.48343093482E+03 -0.29061073830E+03  0.56407297853E+03  0.10100000352E+00 0.  1.
       -3    1    3    3    0  502  0.42714114723E+01 -0.48343093482E+03  0.15942624738E+04  0.16659521479E+04  0.10100000352E+00 0. -1.
</event>
<event>
 5   0  0.9184414E-05  0.1782829E+04  0.7818609E-02  0.8715484E-01
        2   -1    0    0  501    0  0.00000000000E+00  0.00000000000E+00  0.13908053830E+04  0.13908053830E+04  0.25500000920E-02 0.  1.
       -2   -1    0    0    0  501  0.00000000000E+00  0.00000000000E+00 -0.57133818856E+03  0.57133818856E+03  0.25500000920E-02 0. -1.
    10030    2    1    2    0    0  0.00000000000E+00  0.00000000000E+00  0.81946719444E+03  0.19621435716E+04  0.17828294682E+04 0.  0.
        5    1    3    3  502    0 -0.31853668865E+02  0.42057586939E+03  0.12740201341E+04  0.13420313373E+04  0.46999998093E+01 0.  1.
       -5    1    3    3    0  502  0.31853668865E+02 -0.42057586939E+03 -0.45455293968E+03  0.62011223427E+03  0.46999998093E+01 0. -1.
</event>
<event>
 5   0  0.9147432E-05  0.1796337E+04  0.7818609E-02  0.8708250E-01
       -2   -1    0    0    0  501  0.00000000000E+00  0.00000000000E+00  0.39160772858E+03  0.39160772859E+03  0.25500000920E-02 0.  1.
        2   -1    0    0  501    0  0.00000000000E+00  0.00000000000E+00 -0.20599857775E+04  0.20599857775E+04  0.25500000920E-02 0. -1.
    10030    2    1    2    0    0  0.00000000000E+00  0.00000000000E+00 -0.16683780489E+04  0.24515935061E+04  0.17963366625E+04 0.  0.
        3    1    3    3  502    0  0.38008616346E+03  0.54743982431E+03 -0.12429066203E+02  0.66656608433E+03  0.10100000352E+00 0.  1.
       -3    1    3    3    0  502 -0.38008616346E+03 -0.54743982431E+03 -0.16559489827E+04  0.17850274218E+04  0.10100000352E+00 0. -1.
</event>
<event>
 5   0  0.4623665E-05  0.1812858E+04  0.7818609E-02  0.8699492E-01
        1   -1    0    0  501    0  0.00000000000E+00  0.00000000000E+00  0.89876957642E+03  0.89876957643E+03  0.50400001928E-02 0. -1.
       -1   -1    0    0    0  501  0.00000000000E+00  0.00000000000E+00 -0.91415361875E+03  0.91415361876E+03  0.50400001928E-02 0.  1.
    10030    2    1    2    0    0  0.00000000000E+00  0.00000000000E+00 -0.15384042329E+02  0.18129231952E+04  0.18128579213E+04 0.  0.
        5    1    3    3  502    0  0.75747486692E+03  0.23944666828E+03  0.42877356453E+03  0.90275785269E+03  0.46999998093E+01 0. -1.
       -5    1    3    3    0  502 -0.75747486692E+03 -0.23944666828E+03 -0.44415760686E+03  0.91016534250E+03  0.46999998093E+01 0.  1.
</event>
<event>
 5   0  0.9184414E-05  0.1799067E+04  0.7818609E-02  0.8706796E-01
        2   -1    0    0  501    0  0.00000000000E+00  0.00000000000E+00  0.17761132523E+04  0.17761132523E+04  0.25500000920E-02 0. -1.
       -2   -1    0    0    0  501  0.00000000000E+00  0.00000000000E+00 -0.45557937244E+03  0.45557937245E+03  0.25500000920E-02 0.  1.
    10030    2    1    2    0    0  0.00000000000E+00  0.00000000000E+00  0.13205338799E+04  0.22316926248E+04  0.17990670481E+04 0.  0.
        5    1    3    3  502    0 -0.28391973957E+03  0.75297260265E+03  0.16166453289E+03  0.82081402891E+03  0.46999998093E+01 0.  1.
       -5    1    3    3    0  502  0.28391973957E+03 -0.75297260265E+03  0.11588693470E+04  0.14108785959E+04  0.46999998093E+01 0. -1.
</event>
<event>
 5   0  0.8802655E-05  0.1802578E+04  0.7818609E-02  0.8704930E-01
        2   -1    0    0  501    0  0.00000000000E+00  0.00000000000E+00  0.12064730205E+04  0.12064730205E+04  0.25500000920E-02 0.  1.
       -2   -1    0    0    0  501  0.00000000000E+00  0.00000000000E+00 -0.67330285333E+03  0.67330285333E+03  0.25500000920E-02 0. -1.
    10030    2    1    2    0    0  0.00000000000E+00  0.00000000000E+00  0.53317016719E+03  0.18797758739E+04  0.18025778509E+04 0.  0.
        2    1    3    3  502    0  0.29036816825E+03 -0.86533724712E+02  0.11517721334E+04  0.11909579362E+04  0.25500000920E-02 0.  1.
       -2    1    3    3    0  502 -0.29036816825E+03  0.86533724712E+02 -0.61860196617E+03  0.68881793763E+03  0.25500000920E-02 0. -1.
</event>
<event>
 5   0  0.9184414E-05  0.1777735E+04  0.7818609E-02  0.8718230E-01
       -2   -1    0    0    0  501  0.00000000000E+00  0.00000000000E+00  0.63380633529E+03  0.63380633530E+03  0.25500000920E-02 0. -1.
        2   -1    0    0  501    0  0.00000000000E+00  0.00000000000E+00 -0.12465721215E+04  0.12465721215E+04  0.25500000920E-02 0.  1.
    10030    2    1    2    0    0  0.00000000000E+00  0.00000000000E+00 -0.61276578621E+03  0.18803784568E+04  0.17777348599E+04 0.  0.
        5    1    3    3  502    0  0.18873288078E+03 -0.16582993294E+03 -0.12082210830E+04  0.12340745287E+04  0.46999998093E+01 0.  1.
       -5    1    3    3    0  502 -0.18873288078E+03  0.16582993294E+03  0.59545529682E+03  0.64630392809E+03  0.46999998093E+01 0. -1.
</event>
<event>
 5   0  0.4535100E-05  0.1791765E+04  0.7818609E-02  0.8710691E-01
        1   -1    0    0  501    0  0.00000000000E+00  0.00000000000E+00  0.48450424424E+03  0.48450424427E+03  0.50400001928E-02 0.  1.
       -1   -1    0    0    0  501  0.00000000000E+00  0.00000000000E+00 -0.16565504070E+04  0.16565504070E+04  0.50400001928E-02 0. -1.
    10030    2    1    2    0    0  0.00000000000E+00  0.00000000000E+00 -0.11720461628E+04  0.21410546513E+04  0.17917652782E+04 0.  0.
        1    1    3    3  502    0  0.73350674097E+03  0.50583010022E+03 -0.69754047021E+03  0.11315736551E+04  0.50400001928E-02 0. -1.
       -1    1    3    3    0  502 -0.73350674097E+03 -0.50583010022E+03 -0.47450569257E+03  0.10094809962E+04  0.50400001928E-02 0.  1.
</event>
<event>
 5   0  0.8802655E-05  0.1800899E+04  0.7818609E-02  0.8705821E-01
        2   -1    0    0  501    0  0.00000000000E+00  0.00000000000E+00  0.12706851600E+04  0.12706851600E+04  0.25500000920E-02 0. -1.
       -2   -1    0    0    0  501  0.00000000000E+00  0.00000000000E+00 -0.63808850821E+03  0.63808850821E+03  0.25500000920E-02 0.  1.
    10030    2    1    2    0    0  0.00000000000E+00  0.00000000000E+00  0.63259665179E+03  0.19087736682E+04  0.18008993288E+04 0.  0.
        2    1    3    3  502    0  0.37488446354E+02 -0.83528007891E+03  0.67055150364E+03  0.10717917302E+04  0.25500000920E-02 0. -1.
       -2    1    3    3    0  502 -0.37488446354E+02  0.83528007891E+03 -0.37954851850E+02  0.83698193804E+03  0.25500000920E-02 0.  1.
</event>
<event>
 5   0  0.4623665E-05  0.1792858E+04  0.7818609E-02  0.8710107E-01
       -1   -1    0    0    0  501  0.00000000000E+00  0.00000000000E+00  0.35798865430E+03  0.35798865433E+03  0.50400001928E-02 0.  1.
        1   -1    0    0  501    0  0.00000000000E+00  0.00000000000E+00 -0.22447227731E+04  0.22447227731E+04  0.50400001928E-02 0. -1.
    10030    2    1    2    0    0  0.00000000000E+00  0.00000000000E+00 -0.18867341188E+04  0.26027114275E+04  0.17928583713E+04 0.  0.
        5    1    3    3  502    0  0.67009021206E+03  0.55807639030E+03 -0.64200843293E+03  0.10828975333E+04  0.46999998093E+01 0.  1.
       -5    1    3    3    0  502 -0.67009021206E+03 -0.55807639030E+03 -0.12447256859E+04  0.15198138941E+04  0.46999998093E+01 0. -1.
</event>
<event>
 5   0  0.4335117E-05  0.1799610E+04  0.7818609E-02  0.8706507E-01
        1   -1    0    0  501    0  0.00000000000E+00  0.00000000000E+00  0.13268882920E+04  0.13268882920E+04  0.50400001928E-02 0.  1.
       -1   -1    0    0    0  501  0.00000000000E+00  0.00000000000E+00 -0.61018623136E+03  0.61018623138E+03  0.50400001928E-02 0. -1.
    10030    2    1    2    0    0  0.00000000000E+00  0.00000000000E+00  0.71670206060E+03  0.19370745234E+04  0.17996099203E+04 0.  0.
        3    1    3    3  502    0 -0.85008125584E+03 -0.18634111559E+03  0.60448306899E+03  0.10596041449E+04  0.10100000352E+00 0.  1.
       -3    1    3    3    0  502  0.85008125584E+03  0.18634111559E+03  0.11221899161E+03  0.87747037851E+03  0.10100000352E+00 0. -1.
</event>
<event>
 5   0  0.8892280E-05  0.1803669E+04  0.7818609E-02  0.8704351E-01
        2   -1    0    0  501    0  0.00000000000E+00  0.00000000000E+00  0.11477160731E+04  0.11477160731E+04  0.25500000920E-02 0.  1.
       -2   -1    0    0    0  501  0.00000000000E+00  0.00000000000E+00 -0.70862949594E+03  0.70862949594E+03  0.25500000920E-02 0. -1.
    10030    2    1    2    0    0  0.00000000000E+00  0.00000000000E+00  0.43908657716E+03  0.18563455690E+04  0.18036689966E+04 0.  0.
        4    1    3    3  502    0 -0.55692946622E+03  0.70239782170E+03  0.11780949214E+03  0.90410940688E+03  0.12699999809E+01 0. -1.
       -4    1    3    3    0  502  0.55692946622E+03 -0.70239782170E+03  0.32127708501E+03  0.95223616216E+03  0.12699999809E+01 0.  1.
</event>
<event>
 5   0  0.4335117E-05  0.1778552E+04  0.7818609E-02  0.8717789E-01
        1   -1    0    0  501    0  0.00000000000E+00  0.00000000000E+00  0.17916495688E+04  0.17916495688E+04  0.50400001928E-02 0. -1.
       -1   -1    0    0    0  501  0.00000000000E+00  0.00000000000E+00 -0.44138769971E+03  0.44138769974E+03  0.50400001928E-02 0.  1.
    10030    2    1    2    0    0  0.00000000000E+00  0.00000000000E+00  0.13502618690E+04  0.22330372685E+04  0.17785523123E+04 0.  0.
        3    1    3    3  502    0  0.50837998699E+03 -0.37234652020E+03  0.14629437242E+04  0.15928893536E+04  0.10100000352E+00 0. -1.
       -3    1    3    3    0  502 -0.50837998699E+03  0.37234652020E+03 -0.11268185520E+03  0.64014791491E+03  0.10100000352E+00 0.  1.
</event>
<event>
 5   0  0.4535100E-05  0.1804938E+04  0.7818609E-02  0.8703678E-01
        1   -1    0    0  501    0  0.00000000000E+00  0.00000000000E+00  0.11848084112E+04  0.11848084113E+04  0.50400001928E-02 0. -1.
       -1   -1    0    0    0  501  0.00000000000E+00  0.00000000000E+00 -0.68741099729E+03  0.68741099731E+03  0.50400001928E-02 0.  1.
    10030    2    1    2    0    0  0.00000000000E+00  0.00000000000E+00  0.49739741395E+03  0.18722194086E+04  0.18049380395E+04 0.  0.
        1    1    3    3  502    0  0.12462267936E+03 -0.86532128049E+03  0.48096198472E+03  0.99781569513E+03  0.50400001928E-02 0. -1.
       -1    1    3    3    0  502 -0.12462267936E+03  0.86532128049E+03  0.16435429232E+02  0.87440371342E+03  0.50400001928E-02 0.  1.
</event>
<event>
 5   0  0.4335117E-05  0.1797561E+04  0.7818609E-02  0.8707598E-01
        1   -1    0    0  501    0  0.00000000000E+00  0.00000000000E+00  0.18278488008E+04  0.18278488008E+04  0.50400001928E-02 0.  1.
       -1   -1    0    0    0  501  0.00000000000E+00  0.00000000000E+00 -0.44194362129E+03  0.44194362132E+03  0.50400001928E-02 0. -1.
    10030    2    1    2    0    0  0.00000000000E+00  0.00000000000E+00  0.13859051795E+04  0.22697924221E+04  0.17975607008E+04 0.  0.
        3    1    3    3  502    0 -0.45278681051E+03 -0.69016364058E+03  0.11419942706E+04  0.14090751119E+04  0.10100000352E+00 0.  1.
       -3    1    3    3    0  502  0.45278681051E+03  0.69016364058E+03  0.24391090891E+03  0.86071731029E+03  0.10100000352E+00 0. -1.
</event>
<event>
 5   0  0.9184414E-05  0.1801053E+04  0.7818609E-02  0.8705740E-01
       -2   -1    0    0    0  501  0.00000000000E+00  0.00000000000E+00  0.14438342820E+04  0.14438342820E+04  0.25500000920E-02 0.  1.
        2   -1    0    0  501    0  0.00000000000E+00  0.00000000000E+00 -0.56166267668E+03  0.56166267669E+03  0.25500000920E-02 0. -1.
    10030    2    1    2    0    0  0.00000000000E+00  0.00000000000E+00  0.88217160527E+03  0.20054969586E+04  0.18010528338E+04 0.  0.
        5    1    3    3  502    0  0.48763671235E+03  0.32357207995E+03  0.12032021574E+04  0.13379857905E+04  0.46999998093E+01 0.  1.
       -5    1    3    3    0  502 -0.48763671235E+03 -0.32357207995E+03 -0.32103055212E+03  0.66751116810E+03  0.46999998093E+01 0. -1.
</event>
<event>
 5   0  0.4494757E-05  0.1801827E+04  0.7818609E-02  0.8705329E-01
       -1   -1    0    0    0  501  0.00000000000E+00  0.00000000000E+00  0.63340078594E+03  0.63340078596E+03  0.50400001928E-02 0.  1.
        1   -1    0    0  501    0  0.00000000000E+00  0.00000000000E+00 -0.12814079481E+04  0.12814079481E+04  0.50400001928E-02 0. -1.
    10030    2    1    2    0    0  0.00000000000E+00  0.00000000000E+00 -0.64800716214E+03  0.19148087340E+04  0.18018266303E+04 0.  0.
        4    1    3    3  502    0  0.73349832705E+03  0.20319025000E+03 -0.83624146488E+03  0.11307552670E+04  0.12699999809E+01 0. -1.
       -4    1    3    3    0  502 -0.73349832705E+03 -0.20319025000E+03  0.18823430274E+03  0.78405346700E+03  0.12699999809E+01 0.  1.
</event>
<event>
 5   0  0.4623665E-05  0.1799372E+04  0.7818609E-02  0.8706634E-01
       -1   -1    0    0    0  501  0.00000000000E+00  0.00000000000E+00  0.42358139331E+03  0.42358139334E+03  0.50400001928E-02 0.  1.
        1   -1    0    0  501    0  0.00000000000E+00  0.00000000000E+00 -0.19109303926E+04  0.19109303926E+04  0.50400001928E-02 0. -1.
    10030    2    1    2    0    0  0.00000000000E+00  0.00000000000E+00 -0.14873489993E+04  0.23345117860E+04  0.17993716217E+04 0.  0.
        5    1    3    3  502    0 -0.37625391048E+03 -0.38649924383E+03 -0.16778627965E+04  0.17624398783E+04  0.46999998093E+01 0. -1.
       -5    1    3    3    0  502  0.37625391048E+03  0.38649924383E+03  0.19051379721E+03  0.57207190768E+03  0.46999998093E+01 0.  1.
</event>
<event>
 5   0  0.9184414E-05  0.1794567E+04  0.7818609E-02  0.8709194E-01
       -2   -1    0    0    0  501  0.00000000000E+00  0.00000000000E+00  0.77001453753E+03  0.77001453754E+03  0.25500000920E-02 0.  1.
        2   -1    0    0  501    0  0.00000000000E+00  0.00000000000E+00 -0.10455880438E+04  0.10455880438E+04  0.25500000920E-02 0. -1.
    10030    2    1    2    0    0  0.00000000000E+00  0.00000000000E+00 -0.27557350629E+03  0.18156025814E+04  0.17945673507E+04 0.  0.
        5    1    3    3  502    0 -0.73484710803E+03  0.17936569910E+03 -0.62606542612E+03  0.98191258978E+03  0.46999998093E+01 0. -1.
       -5    1    3    3    0  502  0.73484710803E+03 -0.17936569910E+03  0.35049191983E+03  0.83368999158E+03  0.46999998093E+01 0.  1.
</event>
<event>
 5   0  0.4623665E-05  0.1802572E+04  0.7818609E-02  0.8704933E-01
        1   -1    0    0  501    0  0.00000000000E+00  0.00000000000E+00  0.21024168121E+04  0.21024168121E+04  0.50400001928E-02 0.  1.
       -1   -1    0    0    0  501  0.00000000000E+00  0.00000000000E+00 -0.38637265414E+03  0.38637265417E+03  0.50400001928E-02 0. -1.
    10030    2    1    2    0    0  0.00000000000E+00  0.00000000000E+00  0.17160441580E+04  0.24887894663E+04  0.18025719002E+04 0.  0.
        5    1    3    3  502    0  0.43064402754E+03  0.77875900625E+03  0.10551000293E+04  0.13802818662E+04  0.46999998093E+01 0. -1.
       -5    1    3    3    0  502 -0.43064402754E+03 -0.77875900625E+03  0.66094412866E+03  0.11085076001E+04  0.46999998093E+01 0.  1.
</event>
<event>
 5   0  0.8892280E-05  0.1806756E+04  0.7818609E-02  0.8702715E-01
        2   -1    0    0  501    0  0.00000000000E+00  0.00000000000E+00  0.18249870167E+04  0.18249870167E+04  0.25500000920E-02 0. -1.
       -2   -1    0    0    0  501  0.00000000000E+00  0.00000000000E+00 -0.44717679756E+03  0.44717679757E+03  0.25500000920E-02 0.  1.
    10030    2    1    2    0    0  0.00000000000E+00  0.00000000000E+00  0.13778102191E+04  0.22721638143E+04  0.18067560430E+04 0.  0.
        4    1    3    3  502    0 -0.81169681159E+03 -0.26831237832E+03  0.10560856453E+04  0.13587353493E+04  0.12699999809E+01 0. -1.
       -4    1    3    3    0  502  0.81169681159E+03  0.26831237832E+03  0.32172457382E+03  0.91342846496E+03  0.12699999809E+01 0.  1.
</event>
<event>
 5   0  0.4494757E-05  0.1805174E+04  0.7818609E-02  0.8703553E-01
        1   -1    0    0  501    0  0.00000000000E+00  0.00000000000E+00  0.15385897819E+04  0.15385897819E+04  0.50400001928E-02 0.  1.
       -1   -1    0    0    0  501  0.00000000000E+00  0.00000000000E+00 -0.52948685284E+03  0.52948685286E+03  0.50400001928E-02 0. -1.
    10030    2    1    2    0    0  0.00000000000E+00  0.00000000000E+00  0.10091029291E+04  0.20680766348E+04  0.18051737439E+04 0.  0.
        4    1    3    3  502    0 -0.88230016848E+03 -0.12564491717E+03  0.66826644468E+03  0.11139218494E+04  0.12699999809E+01 0. -1.
       -4    1    3    3    0  502  0.88230016848E+03  0.12564491717E+03  0.34083648439E+03  0.95415478540E+03  0.12699999809E+01 0.  1.
</event>
<event>
 5   0  0.4578107E-05  0.1793047E+04  0.7818609E-02  0.8710006E-01
       -1   -1    0    0    0  501  0.00000000000E+00  0.00000000000E+00  0.43485831277E+03  0.43485831280E+03  0.50400001928E-02 0.  1.
        1   -1    0    0  501    0  0.00000000000E+00  0.00000000000E+00 -0.18483130514E+04  0.18483130514E+04  0.50400001928E-02 0. -1.
    10030    2    1    2    0    0  0.00000000000E+00  0.00000000000E+00 -0.14134547386E+04  0.22831713642E+04  0.17930468985E+04 0.  0.
        2    1    3    3  502    0 -0.54925625096E+03 -0.16061897060E+03 -0.15854969776E+04  0.16856101414E+04  0.25500000920E-02 0. -1.
       -2    1    3    3    0  502  0.54925625096E+03  0.16061897060E+03  0.17204223899E+03  0.59756122275E+03  0.25500000920E-02 0.  1.
</event>
<event>
 5   0  0.4335117E-05  0.1795047E+04  0.7818609E-02  0.8708938E-01
       -1   -1    0    0    0  501  0.00000000000E+00  0.00000000000E+00  0.48736552481E+03  0.48736552483E+03  0.50400001928E-02 0.  1.
        1   -1    0    0  501    0  0.00000000000E+00  0.00000000000E+00 -0.16528633324E+04  0.16528633324E+04  0.50400001928E-02 0. -1.
    10030    2    1    2    0    0  0.00000000000E+00  0.00000000000E+00 -0.11654978076E+04  0.21402288573E+04  0.17950471921E+04 0.  0.
        3    1    3    3  502    0 -0.52810163336E+03  0.72496687898E+03 -0.54356087482E+03  0.10487739249E+04  0.10100000352E+00 0. -1.
       -3    1    3    3    0  502  0.52810163336E+03 -0.72496687898E+03 -0.62193693282E+03  0.10914549324E+04  0.10100000352E+00 0.  1.
</event>
<event>
 5   0  0.9147432E-05  0.1801014E+04  0.7818609E-02  0.8705760E-01
        2   -1    0    0  501    0  0.00000000000E+00  0.00000000000E+00  0.62803368092E+03  0.62803368093E+03  0.25500000920E-02 0.  1.
       -2   -1    0    0    0  501  0.00000000000E+00  0.00000000000E+00 -0.12911934252E+04  0.12911934252E+04  0.25500000920E-02 0. -1.
    10030    2    1    2    0    0  0.00000000000E+00  0.00000000000E+00 -0.66315974423E+03  0.19192271061E+04  0.18010141139E+04 0.  0.
        3    1    3    3  502    0 -0.52366070405E+03  0.60877874171E+02  0.44639805594E+03  0.69079510933E+03  0.10100000352E+00 0.  1.
       -3    1    3    3    0  502  0.52366070405E+03 -0.60877874171E+02 -0.11095578002E+04  0.12284319968E+04  0.10100000352E+00 0. -1.
</event>
<event>
 5   0  0.4578107E-05  0.1795944E+04  0.7818609E-02  0.8708459E-01
        1   -1    0    0  501    0  0.00000000000E+00  0.00000000000E+00  0.97353223458E+03  0.97353223459E+03  0.50400001928E-02 0.  1.
       -1   -1    0    0    0  501  0.00000000000E+00  0.00000000000E+00 -0.82827614879E+03  0.82827614880E+03  0.50400001928E-02 0. -1.
    10030    2    1    2    0    0  0.00000000000E+00  0.00000000000E+00  0.14525608579E+03  0.18018083834E+04  0.17959437965E+04 0.  0.
        2    1    3    3  502    0  0.43231068106E+03  0.68952508547E+03 -0.30810579582E+03  0.87021063535E+03  0.25500000920E-02 0. -1.
       -2    1    3    3    0  502 -0.43231068106E+03 -0.68952508547E+03  0.45336188161E+03  0.93159774804E+03  0.25500000920E-02 0.  1.
</event>
<event>
 5   0  0.4578107E-05  0.1927455E+04  0.7818609E-02  0.8641310E-01
        1   -1    0    0  501    0  0.00000000000E+00  0.00000000000E+00  0.85970614987E+03  0.85970614988E+03  0.50400001928E-02 0.  1.
       -1   -1    0    0    0  501  0.00000000000E+00  0.00000000000E+00 -0.10803345260E+04  0.10803345260E+04  0.50400001928E-02 0. -1.
    10030    2    1    2    0    0  0.00000000000E+00  0.00000000000E+00 -0.22062837617E+03  0.19400406759E+04  0.19274545245E+04 0.  0.
        2    1    3    3  502    0 -0.39801121028E+03 -0.87448995018E+03 -0.34826862099E+02  0.96143564881E+03  0.25500000920E-02 0.  1.
       -2    1    3    3    0  502  0.39801121028E+03  0.87448995018E+03 -0.18580151407E+03  0.97860502712E+03  0.25500000920E-02 0. -1.
</event>
<event>
 5   0  0.9184414E-05  0.1792709E+04  0.7818609E-02  0.8710187E-01
       -2   -1    0    0    0  501  0.00000000000E+00  0.00000000000E+00  0.50776938650E+03  0.50776938651E+03  0.25500000920E-02 0.  1.
        2   -1    0    0  501    0  0.00000000000E+00  0.00000000000E+00 -0.15823149924E+04  0.15823149924E+04  0.25500000920E-02 0. -1.
    10030    2    1    2    0    0  0.00000000000E+00  0.00000000000E+00 -0.10745456059E+04  0.20900843789E+04  0.17927086913E+04 0.  0.
        5    1    3    3  502    0 -0.35426324532E+03 -0.81838344280E+03 -0.64268747726E+03  0.10992375493E+04  0.46999998093E+01 0.  1.
       -5    1    3    3    0  502  0.35426324532E+03  0.81838344280E+03 -0.43185812866E+03  0.99084682960E+03  0.46999998093E+01 0. -1.
</event>
<event>
 5   0  0.8892280E-05  0.1805558E+04  0.7818609E-02  0.8703349E-01
       -2   -1    0    0    0  501  0.00000000000E+00  0.00000000000E+00  0.10671542433E+04  0.10671542433E+04  0.25500000920E-02 0. -1.
        2   -1    0    0  501    0  0.00000000000E+00  0.00000000000E+00 -0.76372298607E+03  0.76372298607E+03  0.25500000920E-02 0.  1.
    10030    2    1    2    0    0  0.00000000000E+00  0.00000000000E+00  0.30343125723E+03  0.18308772294E+04  0.18055583350E+04 0.  0.
        4    1    3    3  502    0  0.19468598994E+02 -0.80425297038E+03  0.56710215597E+03  0.98428061797E+03  0.12699999809E+01 0.  1.
       -4    1    3    3    0  502 -0.19468598994E+02  0.80425297038E+03 -0.26367089873E+03  0.84659661141E+03  0.12699999809E+01 0. -1.
</event>
<event>
 5   0  0.4578107E-05  0.1812116E+04  0.7818609E-02  0.8699883E-01
       -1   -1    0    0    0  501  0.00000000000E+00  0.00000000000E+00  0.16523037707E+04  0.16523037707E+04  0.50400001928E-02 0.  1.
        1   -1    0    0  501    0  0.00000000000E+00  0.00000000000E+00 -0.49684608940E+03  0.49684608942E+03  0.50400001928E-02 0. -1.
    10030    2    1    2    0    0  0.00000000000E+00  0.00000000000E+00  0.11554576813E+04  0.21491498602E+04  0.18121155228E+04 0.  0.
        2    1    3    3  502    0 -0.37815288975E+03  0.12364715205E+03  0.15431653545E+04  0.15936271639E+04  0.25500000920E-02 0.  1.
       -2    1    3    3    0  502  0.37815288975E+03 -0.12364715205E+03 -0.38770767315E+03  0.55552269626E+03  0.25500000920E-02 0. -1.
</event>
<event>
 5   0  0.4335117E-05  0.1794524E+04  0.7818609E-02  0.8709217E-01
       -1   -1    0    0    0  501  0.00000000000E+00  0.00000000000E+00  0.65699161877E+03  0.65699161879E+03  0.50400001928E-02 0. -1.
        1   -1    0    0  501    0  0.00000000000E+00  0.00000000000E+00 -0.12254020345E+04  0.12254020345E+04  0.50400001928E-02 0.  1.
    10030    2    1    2    0    0  0.00000000000E+00  0.00000000000E+00 -0.56841041568E+03  0.18823936532E+04  0.17945237433E+04 0.  0.
        3    1    3    3  502    0  0.29106694951E+02 -0.23439491297E+03  0.62379595924E+03  0.66701543002E+03  0.10100000352E+00 0. -1.
       -3    1    3    3    0  502 -0.29106694951E+02  0.23439491297E+03 -0.11922063749E+04  0.12153782232E+04  0.10100000352E+00 0.  1.
</event>
<event>
 5   0  0.4335117E-05  0.1795784E+04  0.7818609E-02  0.8708545E-01
       -1   -1    0    0    0  501  0.00000000000E+00  0.00000000000E+00  0.72674911106E+03  0.72674911107E+03  0.50400001928E-02 0.  1.
        1   -1    0    0  501    0  0.00000000000E+00  0.00000000000E+00 -0.11093372964E+04  0.11093372964E+04  0.50400001928E-02 0. -1.
    10030    2    1    2    0    0  0.00000000000E+00  0.00000000000E+00 -0.38258818538E+03  0.18360864075E+04  0.17957838334E+04 0.  0.
        3    1    3    3  502    0 -0.22420985363E+03  0.33375250124E+03  0.62956206227E+03  0.74700012785E+03  0.10100000352E+00 0.  1.
       -3    1    3    3    0  502  0.22420985363E+03 -0.33375250124E+03 -0.10121502477E+04  0.10890862797E+04  0.10100000352E+00 0. -1.
</event>
<event>
 5   0  0.8802655E-05  0.1798891E+04  0.7818609E-02  0.8706889E-01
       -2   -1    0    0    0  501  0.00000000000E+00  0.00000000000E+00  0.93550023332E+03  0.93550023333E+03  0.25500000920E-02 0. -1.
        2   -1    0    0  501    0  0.00000000000E+00  0.00000000000E+00 -0.86478062734E+03  0.86478062734E+03  0.25500000920E-02 0.  1.
    10030    2    1    2    0    0  0.00000000000E+00  0.00000000000E+00  0.70719605982E+02  0.18002808607E+04  0.17988913015E+04 0.  0.
        2    1    3    3  502    0  0.54394346313E+02  0.40123564829E+03 -0.76841293891E+03  0.86856619498E+03  0.25500000920E-02 0.  1.
       -2    1    3    3    0  502 -0.54394346313E+02 -0.40123564829E+03  0.83913254489E+03  0.93171466569E+03  0.25500000920E-02 0. -1.
</event>
<event>
 5   0  0.4535100E-05  0.1846491E+04  0.7818609E-02  0.8681959E-01
        1   -1    0    0  501    0  0.00000000000E+00  0.00000000000E+00  0.89486052250E+03  0.89486052252E+03  0.50400001928E-02 0. -1.
       -1   -1    0    0    0  501  0.00000000000E+00  0.00000000000E+00 -0.95253102133E+03  0.95253102134E+03  0.50400001928E-02 0.  1.
    10030    2    1    2    0    0  0.00000000000E+00  0.00000000000E+00 -0.57670498827E+02  0.18473915439E+04  0.18464911670E+04 0.  0.
        1    1    3    3  502    0 -0.13089565207E+03  0.84177857741E+03  0.32722810549E+03  0.91258045024E+03  0.50400001928E-02 0. -1.
       -1    1    3    3    0  502  0.13089565207E+03 -0.84177857741E+03 -0.38489860432E+03  0.93481109361E+03  0.50400001928E-02 0.  1.
</event>
<event>
 5   0  0.9184414E-05  0.1814970E+04  0.7818609E-02  0.8698379E-01
        2   -1    0    0  501    0  0.00000000000E+00  0.00000000000E+00  0.61217934298E+03  0.61217934299E+03  0.25500000920E-02 0. -1.
       -2   -1    0    0    0  501  0.00000000000E+00  0.00000000000E+00 -0.13452411819E+04  0.13452411819E+04  0.25500000920E-02 0.  1.
    10030    2    1    2    0    0  0.00000000000E+00  0.00000000000E+00 -0.73306183890E+03  0.19574205249E+04  0.18149698211E+04 0.  0.
        5    1    3    3  502    0  0.75025287784E+03  0.42944150638E+03 -0.66425451748E+03  0.10902089442E+04  0.46999998093E+01 0.  1.
       -5    1    3    3    0  502 -0.75025287784E+03 -0.42944150638E+03 -0.68807321416E+02  0.86721158063E+03  0.46999998093E+01 0. -1.
</event>
<event>
 5   0  0.4335117E-05  0.1800389E+04  0.7818609E-02  0.8706092E-01
        1   -1    0    0  501    0  0.00000000000E+00  0.00000000000E+00  0.73928248854E+03  0.73928248856E+03  0.50400001928E-02 0. -1.
       -1   -1    0    0    0  501  0.00000000000E+00  0.00000000000E+00 -0.10961310661E+04  0.10961310661E+04  0.50400001928E-02 0.  1.
    10030    2    1    2    0    0  0.00000000000E+00  0.00000000000E+00 -0.35684857757E+03  0.18354135547E+04  0.18003894049E+04 0.  0.
        3    1    3    3  502    0  0.35256238177E+02 -0.18521675048E+03  0.71892788961E+03  0.74323991257E+03  0.10100000352E+00 0. -1.
       -3    1    3    3    0  502 -0.35256238177E+02  0.18521675048E+03 -0.10757764672E+04  0.10921736421E+04  0.10100000352E+00 0.  1.
</event>
<event>
 5   0  0.8802655E-05  0.1809710E+04  0.7818609E-02  0.8701153E-01
        2   -1    0    0  501    0  0.00000000000E+00  0.00000000000E+00  0.10486146376E+04  0.10486146376E+04  0.25500000920E-02 0. -1.
       -2   -1    0    0    0  501  0.00000000000E+00  0.00000000000E+00 -0.78080396078E+03  0.78080396078E+03  0.25500000920E-02 0.  1.
    10030    2    1    2    0    0  0.00000000000E+00  0.00000000000E+00  0.26781067685E+03  0.18294185984E+04  0.18097098800E+04 0.  0.
        2    1    3    3  502    0  0.60378651902E+03  0.30109893670E+03  0.74341762314E+03  0.10039364983E+04  0.25500000920E-02 0. -1.
       -2    1    3    3    0  502 -0.60378651902E+03 -0.30109893670E+03 -0.47560694629E+03  0.82548210011E+03  0.25500000920E-02 0.  1.
</event>
<event>
 5   0  0.3270375E-05  0.1810310E+04  0.7818609E-02  0.8700836E-01
       -3   -1    0    0    0  501  0.00000000000E+00  0.00000000000E+00  0.67526448783E+03  0.67526449538E+03  0.10100000352E+00 0. -1.
        3   -1    0    0  501    0  0.00000000000E+00  0.00000000000E+00 -0.12133104754E+04  0.12133104796E+04  0.10100000352E+00 0.  1.
    10030    2    1    2    0    0  0.00000000000E+00  0.00000000000E+00 -0.53804598759E+03  0.18885749750E+04  0.18103099048E+04 0.  0.
        3    1    3    3  502    0 -0.70269391280E+03 -0.55067691477E+03 -0.11329910124E+03  0.89992249449E+03  0.10100000352E+00 0. -1.
       -3    1    3    3    0  502  0.70269391280E+03  0.55067691477E+03 -0.42474688636E+03  0.98865248051E+03  0.10100000352E+00 0.  1.
</event>
<event>
 5   0  0.9184414E-05  0.1801126E+04  0.7818609E-02  0.8705701E-01
       -2   -1    0    0    0  501  0.00000000000E+00  0.00000000000E+00  0.69830989746E+03  0.69830989747E+03  0.25500000920E-02 0.  1.
        2   -1    0    0  501    0  0.00000000000E+00  0.00000000000E+00 -0.11613956412E+04  0.11613956412E+04  0.25500000920E-02 0. -1.
    10030    2    1    2    0    0  0.00000000000E+00  0.00000000000E+00 -0.46308574373E+03  0.18597055387E+04  0.18011263933E+04 0.  0.
        5    1    3    3  502    0 -0.32593270947E+03  0.28403235036E+02 -0.10978499424E+04  0.11455721108E+04  0.46999998093E+01 0. -1.
       -5    1    3    3    0  502  0.32593270947E+03 -0.28403235036E+02  0.63476419872E+03  0.71413342789E+03  0.46999998093E+01 0.  1.
</event>
<event>
 5   0  0.4535100E-05  0.1799549E+04  0.7818609E-02  0.8706539E-01
       -1   -1    0    0    0  501  0.00000000000E+00  0.00000000000E+00  0.68861257517E+03  0.68861257519E+03  0.50400001928E-02 0.  1.
        1   -1    0    0  501    0  0.00000000000E+00  0.00000000000E+00 -0.11756885755E+04  0.11756885755E+04  0.50400001928E-02 0. -1.
    10030    2    1    2    0    0  0.00000000000E+00  0.00000000000E+00 -0.48707600035E+03  0.18643011507E+04  0.17995487630E+04 0.  0.
        1    1    3    3  502    0  0.68279185250E+03  0.46409258962E+02 -0.84871092621E+03  0.10902608722E+04  0.50400001928E-02 0. -1.
       -1    1    3    3    0  502 -0.68279185250E+03 -0.46409258962E+02  0.36163492586E+03  0.77404027852E+03  0.50400001928E-02 0.  1.
</event>
<event>
 5   0  0.4494757E-05  0.1794067E+04  0.7818609E-02  0.8709461E-01
        1   -1    0    0  501    0  0.00000000000E+00  0.00000000000E+00  0.98453147292E+03  0.98453147293E+03  0.50400001928E-02 0.  1.
       -1   -1    0    0    0  501  0.00000000000E+00  0.00000000000E+00 -0.81731189454E+03  0.81731189456E+03  0.50400001928E-02 0. -1.
    10030    2    1    2    0    0  0.00000000000E+00  0.00000000000E+00  0.16721957837E+03  0.18018433675E+04  0.17940672043E+04 0.  0.
        4    1    3    3  502    0  0.23032715852E+03 -0.82146829609E+03  0.36195161533E+03  0.92675312040E+03  0.12699999809E+01 0.  1.
       -4    1    3    3    0  502 -0.23032715852E+03  0.82146829609E+03 -0.19473203696E+03  0.87509024709E+03  0.12699999809E+01 0. -1.
</event>
<event>
 5   0  0.9147432E-05  0.1807568E+04  0.7818609E-02  0.8702285E-01
        2   -1    0    0  501    0  0.00000000000E+00  0.00000000000E+00  0.14478761515E+04  0.14478761515E+04  0.25500000920E-02 0.  1.
       -2   -1    0    0    0  501  0.00000000000E+00  0.00000000000E+00 -0.56415426447E+03  0.56415426448E+03  0.25500000920E-02 0. -1.
    10030    2    1    2    0    0  0.00000000000E+00  0.00000000000E+00  0.88372188700E+03  0.20120304160E+04  0.18075679852E+04 0.  0.
        3    1    3    3  502    0  0.86384977994E+03 -0.98561614494E+02  0.71649739470E+03  0.11266407417E+04  0.10100000352E+00 0. -1.
       -3    1    3    3    0  502 -0.86384977994E+03  0.98561614494E+02  0.16722449230E+03  0.88538967421E+03  0.10100000352E+00 0.  1.
</event>
<event>
 5   0  0.4623665E-05  0.1852619E+04  0.7818609E-02  0.8678807E-01
       -1   -1    0    0    0  501  0.00000000000E+00  0.00000000000E+00  0.18174009895E+04  0.18174009895E+04  0.50400001928E-02 0.  1.
        1   -1    0    0  501    0  0.00000000000E+00  0.00000000000E+00 -0.47212973275E+03  0.47212973278E+03  0.50400001928E-02 0. -1.
    10030    2    1    2    0    0  0.00000000000E+00  0.00000000000E+00  0.13452712567E+04  0.22895307222E+04  0.18526187341E+04 0.  0.
        5    1    3    3  502    0 -0.54821019896E+03 -0.25820967014E+03  0.15384438016E+04  0.16534926903E+04  0.46999998093E+01 0.  1.
       -5    1    3    3    0  502  0.54821019896E+03  0.25820967014E+03 -0.19317254494E+03  0.63603803197E+03  0.46999998093E+01 0. -1.
</event>
<event>
 5   0  0.8893075E-05  0.1799115E+04  0.7818609E-02  0.8706770E-01
        2   -1    0    0  501    0  0.00000000000E+00  0.00000000000E+00  0.21025253393E+04  0.21025253393E+04  0.25500000920E-02 0.  1.
       -2   -1    0    0    0  501  0.00000000000E+00  0.00000000000E+00 -0.38487242443E+03  0.38487242444E+03  0.25500000920E-02 0. -1.
    10030    2    1    2    0    0  0.00000000000E+00  0.00000000000E+00  0.17176529149E+04  0.24873977638E+04  0.17991153657E+04 0.  0.
        1    1    3    3  502    0  0.52431197874E+03  0.72689861888E+03  0.96519765002E+03  0.13171526703E+04  0.50400001928E-02 0.  1.
       -1    1    3    3    0  502 -0.52431197874E+03 -0.72689861888E+03  0.75245526489E+03  0.11702450935E+04  0.50400001928E-02 0. -1.
</event>
<event>
 5   0  0.4535100E-05  0.1812314E+04  0.7818609E-02  0.8699779E-01
        1   -1    0    0  501    0  0.00000000000E+00  0.00000000000E+00  0.13250921230E+04  0.13250921230E+04  0.50400001928E-02 0.  1.
       -1   -1    0    0    0  501  0.00000000000E+00  0.00000000000E+00 -0.61967020662E+03  0.61967020664E+03  0.50400001928E-02 0. -1.
    10030    2    1    2    0    0  0.00000000000E+00  0.00000000000E+00  0.70542191633E+03  0.19447623296E+04  0.18123135597E+04 0.  0.
        1    1    3    3  502    0 -0.58307406545E+03  0.65388802844E+03  0.10433185532E+03  0.88228683295E+03  0.50400001928E-02 0. -1.
       -1    1    3    3    0  502  0.58307406545E+03 -0.65388802844E+03  0.60109006101E+03  0.10624754967E+04  0.50400001928E-02 0.  1.
</event>
<event>
 5   0  0.8802655E-05  0.1799641E+04  0.7818609E-02  0.8706490E-01
        2   -1    0    0  501    0  0.00000000000E+00  0.00000000000E+00  0.91384959346E+03  0.91384959346E+03  0.25500000920E-02 0. -1.
       -2   -1    0    0    0  501  0.00000000000E+00  0.00000000000E+00 -0.88600664275E+03  0.88600664275E+03  0.25500000920E-02 0.  1.
    10030    2    1    2    0    0  0.00000000000E+00  0.00000000000E+00  0.27842950711E+02  0.17998562362E+04  0.17996408645E+04 0.  0.
        2    1    3    3  502    0 -0.12884546104E+03 -0.38216459935E+03  0.81839692628E+03  0.91237298446E+03  0.25500000920E-02 0. -1.
       -2    1    3    3    0  502  0.12884546104E+03  0.38216459935E+03 -0.79055397557E+03  0.88748325174E+03  0.25500000920E-02 0.  1.
</event>
<event>
 5   0  0.4335117E-05  0.1800206E+04  0.7818609E-02  0.8706190E-01
       -1   -1    0    0    0  501  0.00000000000E+00  0.00000000000E+00  0.12285246027E+04  0.12285246028E+04  0.50400001928E-02 0. -1.
        1   -1    0    0  501    0  0.00000000000E+00  0.00000000000E+00 -0.65947837470E+03  0.65947837472E+03  0.50400001928E-02 0.  1.
    10030    2    1    2    0    0  0.00000000000E+00  0.00000000000E+00  0.56904622805E+03  0.18880029775E+04  0.18002059975E+04 0.  0.
        3    1    3    3  502    0  0.19083780890E+03  0.87072621371E+03  0.41552370225E+03  0.98348521387E+03  0.10100000352E+00 0. -1.
       -3    1    3    3    0  502 -0.19083780890E+03 -0.87072621371E+03  0.15352252580E+03  0.90451776361E+03  0.10100000352E+00 0.  1.
</event>
<event>
 5   0  0.8892280E-05  0.1819176E+04  0.7818609E-02  0.8696168E-01
       -2   -1    0    0    0  501  0.00000000000E+00  0.00000000000E+00  0.45668927992E+03  0.45668927993E+03  0.25500000920E-02 0. -1.
        2   -1    0    0  501    0  0.00000000000E+00  0.00000000000E+00 -0.18116271681E+04  0.18116271681E+04  0.25500000920E-02 0.  1.
    10030    2    1    2    0    0  0.00000000000E+00  0.00000000000E+00 -0.13549378882E+04  0.22683164480E+04  0.18191764146E+04 0.  0.
        4    1    3    3  502    0 -0.38819828081E+03 -0.68471679219E+03 -0.12458849962E+04  0.14736912931E+04  0.12699999809E+01 0.  1.
       -4    1    3    3    0  502  0.38819828081E+03  0.68471679219E+03 -0.10905289202E+03  0.79462515495E+03  0.12699999809E+01 0. -1.
</event>
<event>
 5   0  0.8893075E-05  0.1789228E+04  0.7818609E-02  0.8712049E-01
       -2   -1    0    0    0  501  0.00000000000E+00  0.00000000000E+00  0.48724914867E+03  0.48724914868E+03  0.25500000920E-02 0. -1.
        2   -1    0    0  501    0  0.00000000000E+00  0.00000000000E+00 -0.16425569648E+04  0.16425569648E+04  0.25500000920E-02 0.  1.
    10030    2    1    2    0    0  0.00000000000E+00  0.00000000000E+00 -0.11553078161E+04  0.21298061135E+04  0.17892283060E+04 0.  0.
        1    1    3    3  502    0 -0.64357781418E+03  0.37453560094E+02  0.16068812044E+03  0.66439133358E+03  0.50400001928E-02 0. -1.
       -1    1    3    3    0  502  0.64357781418E+03 -0.37453560094E+02 -0.13159959366E+04  0.14654147799E+04  0.50400001928E-02 0.  1.
</event>
<event>
 5   0  0.4335117E-05  0.1801663E+04  0.7818609E-02  0.8705416E-01
       -1   -1    0    0    0  501  0.00000000000E+00  0.00000000000E+00  0.94771968014E+03  0.94771968015E+03  0.50400001928E-02 0. -1.
        1   -1    0    0  501    0  0.00000000000E+00  0.00000000000E+00 -0.85626325590E+03  0.85626325591E+03  0.50400001928E-02 0.  1.
    10030    2    1    2    0    0  0.00000000000E+00  0.00000000000E+00  0.91456424244E+02  0.18039829361E+04  0.18016631639E+04 0.  0.
        3    1    3    3  502    0 -0.33934152362E+03 -0.71107799166E+03 -0.39154101692E+03  0.87982325384E+03  0.10100000352E+00 0.  1.
       -3    1    3    3    0  502  0.33934152362E+03  0.71107799166E+03  0.48299744116E+03  0.92415968222E+03  0.10100000352E+00 0. -1.
</event>
<event>
 5   0  0.4623665E-05  0.1768010E+04  0.7818609E-02  0.8723499E-01
        1   -1    0    0  501    0  0.00000000000E+00  0.00000000000E+00  0.10540035459E+04  0.10540035459E+04  0.50400001928E-02 0. -1.
       -1   -1    0    0    0  501  0.00000000000E+00  0.00000000000E+00 -0.74142511756E+03  0.74142511757E+03  0.50400001928E-02 0.  1.
    10030    2    1    2    0    0  0.00000000000E+00  0.00000000000E+00  0.31257842832E+03  0.17954286635E+04  0.17680098449E+04 0.  0.
        5    1    3    3  502    0  0.40047945672E+03 -0.75915603038E+03 -0.58511649713E+02  0.86031818350E+03  0.46999998093E+01 0.  1.
       -5    1    3    3    0  502 -0.40047945672E+03  0.75915603038E+03  0.37109007804E+03  0.93511047996E+03  0.46999998093E+01 0. -1.
</event>
<event>
 5   0  0.4335117E-05  0.1797296E+04  0.7818609E-02  0.8707739E-01
        1   -1    0    0  501    0  0.00000000000E+00  0.00000000000E+00  0.14406632157E+04  0.14406632158E+04  0.50400001928E-02 0. -1.
       -1   -1    0    0    0  501  0.00000000000E+00  0.00000000000E+00 -0.56055302514E+03  0.56055302517E+03  0.50400001928E-02 0.  1.
    10030    2    1    2    0    0  0.00000000000E+00  0.00000000000E+00  0.88011019060E+03  0.20012162409E+04  0.17972958842E+04 0.  0.
        3    1    3    3  502    0 -0.89757458032E+03 -0.43840011864E+02  0.43731866740E+03  0.99940467326E+03  0.10100000352E+00 0.  1.
       -3    1    3    3    0  502  0.89757458032E+03  0.43840011864E+02  0.44279152320E+03  0.10018115677E+04  0.10100000352E+00 0. -1.
</event>
<event>
 5   0  0.4623665E-05  0.1797172E+04  0.7818609E-02  0.8707805E-01
       -1   -1    0    0    0  501  0.00000000000E+00  0.00000000000E+00  0.97515789669E+03  0.97515789670E+03  0.50400001928E-02 0. -1.
        1   -1    0    0  501    0  0.00000000000E+00  0.00000000000E+00 -0.82802698224E+03  0.82802698225E+03  0.50400001928E-02 0.  1.
    10030    2    1    2    0    0  0.00000000000E+00  0.00000000000E+00  0.14713091445E+03  0.18031848790E+04  0.17971722794E+04 0.  0.
        5    1    3    3  502    0  0.70047655604E+03  0.55278077200E+03 -0.32623271235E+02  0.89292796757E+03  0.46999998093E+01 0.  1.
       -5    1    3    3    0  502 -0.70047655604E+03 -0.55278077200E+03  0.17975418569E+03  0.91025691138E+03  0.46999998093E+01 0. -1.
</event>
<event>
 5   0  0.8802655E-05  0.1801093E+04  0.7818609E-02  0.8705719E-01
       -2   -1    0    0    0  501  0.00000000000E+00  0.00000000000E+00  0.41931089014E+03  0.41931089014E+03  0.25500000920E-02 0.  1.
        2   -1    0    0  501    0  0.00000000000E+00  0.00000000000E+00 -0.19340873844E+04  0.19340873844E+04  0.25500000920E-02 0. -1.
    10030    2    1    2    0    0  0.00000000000E+00  0.00000000000E+00 -0.15147764942E+04  0.23533982745E+04  0.18010928935E+04 0.  0.
        2    1    3    3  502    0  0.63570376528E+03  0.12144228535E+02  0.75919764546E+02  0.64033629456E+03  0.25500000920E-02 0. -1.
       -2    1    3    3    0  502 -0.63570376528E+03 -0.12144228535E+02 -0.15906962588E+04  0.17130619800E+04  0.25500000920E-02 0.  1.
</event>
<event>
 5   0  0.4335117E-05  0.1798199E+04  0.7818609E-02  0.8707258E-01
       -1   -1    0    0    0  501  0.00000000000E+00  0.00000000000E+00  0.16095057378E+04  0.16095057378E+04  0.50400001928E-02 0.  1.
        1   -1    0    0  501    0  0.00000000000E+00  0.00000000000E+00 -0.50225375456E+03  0.50225375458E+03  0.50400001928E-02 0. -1.
    10030    2    1    2    0    0  0.00000000000E+00  0.00000000000E+00  0.11072519832E+04  0.21117594924E+04  0.17981994326E+04 0.  0.
        3    1    3    3  502    0  0.81004641946E+03  0.33250691236E+03  0.31397232654E+03  0.93022291978E+03  0.10100000352E+00 0. -1.
       -3    1    3    3    0  502 -0.81004641946E+03 -0.33250691236E+03  0.79327965666E+03  0.11815365726E+04  0.10100000352E+00 0.  1.
</event>
<event>
 5   0  0.8893075E-05  0.1804449E+04  0.7818609E-02  0.8703937E-01
       -2   -1    0    0    0  501  0.00000000000E+00  0.00000000000E+00  0.69513429303E+03  0.69513429303E+03  0.25500000920E-02 0. -1.
        2   -1    0    0  501    0  0.00000000000E+00  0.00000000000E+00 -0.11710091641E+04  0.11710091641E+04  0.25500000920E-02 0.  1.
    10030    2    1    2    0    0  0.00000000000E+00  0.00000000000E+00 -0.47587487112E+03  0.18661434572E+04  0.18044485334E+04 0.  0.
        1    1    3    3  502    0 -0.25593195277E+03  0.68767148423E+03  0.30500309279E+03  0.79461948208E+03  0.50400001928E-02 0. -1.
       -1    1    3    3    0  502  0.25593195277E+03 -0.68767148423E+03 -0.78087796390E+03  0.10715239751E+04  0.50400001928E-02 0.  1.
</event>
<event>
 5   0  0.8892280E-05  0.1801167E+04  0.7818609E-02  0.8705679E-01
        2   -1    0    0  501    0  0.00000000000E+00  0.00000000000E+00  0.14634974210E+04  0.14634974210E+04  0.25500000920E-02 0.  1.
       -2   -1    0    0    0  501  0.00000000000E+00  0.00000000000E+00 -0.55418676909E+03  0.55418676910E+03  0.25500000920E-02 0. -1.
    10030    2    1    2    0    0  0.00000000000E+00  0.00000000000E+00  0.90931065193E+03  0.20176841901E+04  0.18011672963E+04 0.  0.
        4    1    3    3  502    0  0.33764825557E+03  0.60882106442E+03  0.10946270929E+04  0.12972584624E+04  0.12699999809E+01 0. -1.
       -4    1    3    3    0  502 -0.33764825557E+03 -0.60882106442E+03 -0.18531644093E+03  0.72042572771E+03  0.12699999809E+01 0.  1.
</event>
<event>
 5   0  0.4335117E-05  0.1796815E+04  0.7818609E-02  0.8707995E-01
       -1   -1    0    0    0  501  0.00000000000E+00  0.00000000000E+00  0.74361844073E+03  0.74361844074E+03  0.50400001928E-02 0.  1.
        1   -1    0    0  501    0  0.00000000000E+00  0.00000000000E+00 -0.10854172940E+04  0.10854172940E+04  0.50400001928E-02 0. -1.
    10030    2    1    2    0    0  0.00000000000E+00  0.00000000000E+00 -0.34179885325E+03  0.18290357347E+04  0.17968153113E+04 0.  0.
        3    1    3    3  502    0  0.74103262476E+03  0.19503076174E+03 -0.64831923635E+03  0.10037351201E+04  0.10100000352E+00 0. -1.
       -3    1    3    3    0  502 -0.74103262476E+03 -0.19503076174E+03  0.30652038310E+03  0.82530061459E+03  0.10100000352E+00 0.  1.
</event>
<event>
 5   0  0.9147432E-05  0.1700053E+04  0.7818609E-02  0.8761334E-01
       -2   -1    0    0    0  501  0.00000000000E+00  0.00000000000E+00  0.24022788005E+03  0.24022788007E+03  0.25500000920E-02 0.  1.
        2   -1    0    0  501    0  0.00000000000E+00  0.00000000000E+00 -0.30077502319E+04  0.30077502319E+04  0.25500000920E-02 0. -1.
    10030    2    1    2    0    0  0.00000000000E+00  0.00000000000E+00 -0.27675223519E+04  0.32479781120E+04  0.17000534838E+04 0.  0.
        3    1    3    3  502    0 -0.10361603419E+03  0.81406578922E+03 -0.96039315102E+03  0.12632475634E+04  0.10100000352E+00 0.  1.
       -3    1    3    3    0  502  0.10361603419E+03 -0.81406578922E+03 -0.18071292009E+04  0.19847305486E+04  0.10100000352E+00 0. -1.
</event>
<event>
 5   0  0.9147432E-05  0.1797468E+04  0.7818609E-02  0.8707647E-01
       -2   -1    0    0    0  501  0.00000000000E+00  0.00000000000E+00  0.62384248817E+03  0.62384248818E+03  0.25500000920E-02 0.  1.
        2   -1    0    0  501    0  0.00000000000E+00  0.00000000000E+00 -0.12947544093E+04  0.12947544093E+04  0.25500000920E-02 0. -1.
    10030    2    1    2    0    0  0.00000000000E+00  0.00000000000E+00 -0.67091192117E+03  0.19185968975E+04  0.17974680106E+04 0.  0.
        3    1    3    3  502    0 -0.34124068099E+03 -0.20971246678E+03  0.52330994654E+03  0.65899759592E+03  0.10100000352E+00 0.  1.
       -3    1    3    3    0  502  0.34124068099E+03  0.20971246678E+03 -0.11942218677E+04  0.12595993016E+04  0.10100000352E+00 0. -1.
</event>
<event>
 5   0  0.4578107E-05  0.1792206E+04  0.7818609E-02  0.8710455E-01
       -1   -1    0    0    0  501  0.00000000000E+00  0.00000000000E+00  0.50463061788E+03  0.50463061791E+03  0.50400001928E-02 0.  1.
        1   -1    0    0  501    0  0.00000000000E+00  0.00000000000E+00 -0.15912647499E+04  0.15912647499E+04  0.50400001928E-02 0. -1.
    10030    2    1    2    0    0  0.00000000000E+00  0.00000000000E+00 -0.10866341320E+04  0.20958953678E+04  0.17922063653E+04 0.  0.
        2    1    3    3  502    0 -0.26671795531E+02 -0.45411789739E+03  0.35956063408E+03  0.57984334005E+03  0.25500000920E-02 0.  1.
       -2    1    3    3    0  502  0.26671795531E+02  0.45411789739E+03 -0.14461947661E+04  0.15160520278E+04  0.25500000920E-02 0. -1.
</event>
<event>
 5   0  0.4623665E-05  0.1802817E+04  0.7818609E-02  0.8704803E-01
       -1   -1    0    0    0  501  0.00000000000E+00  0.00000000000E+00  0.15844673659E+04  0.15844673659E+04  0.50400001928E-02 0.  1.
        1   -1    0    0  501    0  0.00000000000E+00  0.00000000000E+00 -0.51281390511E+03  0.51281390513E+03  0.50400001928E-02 0. -1.
    10030    2    1    2    0    0  0.00000000000E+00  0.00000000000E+00  0.10716534608E+04  0.20972812710E+04  0.18028165713E+04 0.  0.
        5    1    3    3  502    0 -0.10692792780E+03 -0.54931402546E+03 -0.28622904252E+03  0.62859258275E+03  0.46999998093E+01 0. -1.
       -5    1    3    3    0  502  0.10692792780E+03  0.54931402546E+03  0.13578825033E+04  0.14686886883E+04  0.46999998093E+01 0.  1.
</event>
<event>
 5   0  0.4535100E-05  0.1801902E+04  0.7818609E-02  0.8705288E-01
        1   -1    0    0  501    0  0.00000000000E+00  0.00000000000E+00  0.84415957980E+03  0.84415957982E+03  0.50400001928E-02 0. -1.
       -1   -1    0    0    0  501  0.00000000000E+00  0.00000000000E+00 -0.96156344937E+03  0.96156344939E+03  0.50400001928E-02 0.  1.
    10030    2    1    2    0    0  0.00000000000E+00  0.00000000000E+00 -0.11740386957E+03  0.18057230292E+04  0.18019023252E+04 0.  0.
        1    1    3    3  502    0 -0.50410096000E+03 -0.49670631765E+03  0.50004470342E+03  0.86653312073E+03  0.50400001928E-02 0. -1.
       -1    1    3    3    0  502  0.50410096000E+03  0.49670631765E+03 -0.61744857299E+03  0.93918990848E+03  0.50400001928E-02 0.  1.
</event>
<event>
 5   0  0.9184414E-05  0.1800492E+04  0.7818609E-02  0.8706038E-01
       -2   -1    0    0    0  501  0.00000000000E+00  0.00000000000E+00  0.47712368327E+03  0.47712368328E+03  0.25500000920E-02 0.  1.
        2   -1    0    0  501    0  0.00000000000E+00  0.00000000000E+00 -0.16986015479E+04  0.16986015479E+04  0.25500000920E-02 0. -1.
    10030    2    1    2    0    0  0.00000000000E+00  0.00000000000E+00 -0.12214778646E+04  0.21757252312E+04  0.18004921849E+04 0.  0.
        5    1    3    3  502    0 -0.36094809325E+03  0.47908352369E+03 -0.14219171846E+04  0.15432676756E+04  0.46999998093E+01 0. -1.
       -5    1    3    3    0  502  0.36094809325E+03 -0.47908352369E+03  0.20043931992E+03  0.63245755563E+03  0.46999998093E+01 0.  1.
</event>
<event>
 5   0  0.9147432E-05  0.1799363E+04  0.7818609E-02  0.8706638E-01
        2   -1    0    0  501    0  0.00000000000E+00  0.00000000000E+00  0.19413913256E+04  0.19413913256E+04  0.25500000920E-02 0.  1.
       -2   -1    0    0    0  501  0.00000000000E+00  0.00000000000E+00 -0.41693115694E+03  0.41693115695E+03  0.25500000920E-02 0. -1.
    10030    2    1    2    0    0  0.00000000000E+00  0.00000000000E+00  0.15244601687E+04  0.23583224826E+04  0.17993626999E+04 0.  0.
        3    1    3    3  502    0 -0.47070719030E+03 -0.64097703193E+03  0.21080944284E+03  0.82271346522E+03  0.10100000352E+00 0. -1.
       -3    1    3    3    0  502  0.47070719030E+03  0.64097703193E+03  0.13136507259E+04  0.15356090174E+04  0.10100000352E+00 0.  1.
</event>
<event>
 5   0  0.8892280E-05  0.1800667E+04  0.7818609E-02  0.8705945E-01
       -2   -1    0    0    0  501  0.00000000000E+00  0.00000000000E+00  0.71556379279E+03  0.71556379279E+03  0.25500000920E-02 0. -1.
        2   -1    0    0  501    0  0.00000000000E+00  0.00000000000E+00 -0.11328134679E+04  0.11328134679E+04  0.25500000920E-02 0.  1.
    10030    2    1    2    0    0  0.00000000000E+00  0.00000000000E+00 -0.41724967512E+03  0.18483772607E+04  0.18006668783E+04 0.  0.
        4    1    3    3  502    0  0.23068796712E+03  0.10981789917E+03 -0.10948195348E+04  0.11242367793E+04  0.12699999809E+01 0.  1.
       -4    1    3    3    0  502 -0.23068796712E+03 -0.10981789917E+03  0.67756985971E+03  0.72414048142E+03  0.12699999809E+01 0. -1.
</event>
<event>
 5   0  0.9147432E-05  0.1770810E+04  0.7818609E-02  0.8721978E-01
       -2   -1    0    0    0  501  0.00000000000E+00  0.00000000000E+00  0.68342420361E+03  0.68342420362E+03  0.25500000920E-02 0. -1.
        2   -1    0    0  501    0  0.00000000000E+00  0.00000000000E+00 -0.11470797084E+04  0.11470797085E+04  0.25500000920E-02 0.  1.
    10030    2    1    2    0    0  0.00000000000E+00  0.00000000000E+00 -0.46365550484E+03  0.18305039121E+04  0.17708100251E+04 0.  0.
        3    1    3    3  502    0 -0.12130803235E+03 -0.44971908273E+03 -0.10101908317E+04  0.11124065887E+04  0.10100000352E+00 0.  1.
       -3    1    3    3    0  502  0.12130803235E+03  0.44971908273E+03  0.54653532684E+03  0.71809732332E+03  0.10100000352E+00 0. -1.
</event>
<event>
 5   0  0.4623665E-05  0.1750755E+04  0.7818609E-02  0.8732935E-01
        1   -1    0    0  501    0  0.00000000000E+00  0.00000000000E+00  0.10506454433E+04  0.10506454433E+04  0.50400001928E-02 0.  1.
       -1   -1    0    0    0  501  0.00000000000E+00  0.00000000000E+00 -0.72934744588E+03  0.72934744590E+03  0.50400001928E-02 0. -1.
    10030    2    1    2    0    0  0.00000000000E+00  0.00000000000E+00  0.32129799743E+03  0.17799928892E+04  0.17507547751E+04 0.  0.
        5    1    3    3  502    0 -0.82217941868E+03 -0.11916260812E+03  0.44109017281E+03  0.94061753876E+03  0.46999998093E+01 0. -1.
       -5    1    3    3    0  502  0.82217941868E+03  0.11916260812E+03 -0.11979217538E+03  0.83937535046E+03  0.46999998093E+01 0.  1.
</event>
<event>
 5   0  0.4494757E-05  0.1803548E+04  0.7818609E-02  0.8704415E-01
        1   -1    0    0  501    0  0.00000000000E+00  0.00000000000E+00  0.10221689981E+04  0.10221689981E+04  0.50400001928E-02 0. -1.
       -1   -1    0    0    0  501  0.00000000000E+00  0.00000000000E+00 -0.79555926130E+03  0.79555926131E+03  0.50400001928E-02 0.  1.
    10030    2    1    2    0    0  0.00000000000E+00  0.00000000000E+00  0.22660973682E+03  0.18177282594E+04  0.18035476296E+04 0.  0.
        4    1    3    3  502    0  0.13624151698E+03 -0.59307852093E+02  0.10097448441E+04  0.10206201229E+04  0.12699999809E+01 0. -1.
       -4    1    3    3    0  502 -0.13624151698E+03  0.59307852093E+02 -0.78313510723E+03  0.79710813655E+03  0.12699999809E+01 0.  1.
</event>
<event>
 5   0  0.4623665E-05  0.1799381E+04  0.7818609E-02  0.8706628E-01
       -1   -1    0    0    0  501  0.00000000000E+00  0.00000000000E+00  0.14516480037E+04  0.14516480037E+04  0.50400001928E-02 0. -1.
        1   -1    0    0  501    0  0.00000000000E+00  0.00000000000E+00 -0.55760310035E+03  0.55760310037E+03  0.50400001928E-02 0.  1.
    10030    2    1    2    0    0  0.00000000000E+00  0.00000000000E+00  0.89404490337E+03  0.20092511041E+04  0.17993814799E+04 0.  0.
        5    1    3    3  502    0 -0.22040510367E+03  0.52653465961E+02 -0.52520029821E+03  0.57202118880E+03  0.46999998093E+01 0.  1.
       -5    1    3    3    0  502  0.22040510367E+03 -0.52653465961E+02  0.14192452016E+04  0.14372299153E+04  0.46999998093E+01 0. -1.
</event>
<event>
 5   0  0.4494757E-05  0.1795546E+04  0.7818609E-02  0.8708672E-01
       -1   -1    0    0    0  501  0.00000000000E+00  0.00000000000E+00  0.35574678485E+03  0.35574678489E+03  0.50400001928E-02 0. -1.
        1   -1    0    0  501    0  0.00000000000E+00  0.00000000000E+00 -0.22656450670E+04  0.22656450670E+04  0.50400001928E-02 0.  1.
    10030    2    1    2    0    0  0.00000000000E+00  0.00000000000E+00 -0.19098982822E+04  0.26213918519E+04  0.17955455419E+04 0.  0.
        4    1    3    3  502    0 -0.48649073191E+03  0.74519503270E+03 -0.78217278608E+03  0.11848142256E+04  0.12699999809E+01 0. -1.
       -4    1    3    3    0  502  0.48649073191E+03 -0.74519503270E+03 -0.11277254961E+04  0.14365776263E+04  0.12699999809E+01 0.  1.
</event>
<event>
 5   0  0.9147432E-05  0.1799150E+04  0.7818609E-02  0.8706751E-01
        2   -1    0    0  501    0  0.00000000000E+00  0.00000000000E+00  0.11248949791E+04  0.11248949791E+04  0.25500000920E-02 0.  1.
       -2   -1    0    0    0  501  0.00000000000E+00  0.00000000000E+00 -0.71938763375E+03  0.71938763375E+03  0.25500000920E-02 0. -1.
    10030    2    1    2    0    0  0.00000000000E+00  0.00000000000E+00  0.40550734540E+03  0.18442826129E+04  0.17991503965E+04 0.  0.
        3    1    3    3  502    0 -0.36036406264E+03  0.62578420966E+03 -0.34714262255E+03  0.80123413887E+03  0.10100000352E+00 0. -1.
       -3    1    3    3    0  502  0.36036406264E+03 -0.62578420966E+03  0.75264996795E+03  0.10430484740E+04  0.10100000352E+00 0.  1.
</event>
<event>
 5   0  0.4335117E-05  0.1799726E+04  0.7818609E-02  0.8706445E-01
        1   -1    0    0  501    0  0.00000000000E+00  0.00000000000E+00  0.73146338462E+03  0.73146338464E+03  0.50400001928E-02 0.  1.
       -1   -1    0    0    0  501  0.00000000000E+00  0.00000000000E+00 -0.11070318567E+04  0.11070318567E+04  0.50400001928E-02 0. -1.
    10030    2    1    2    0    0  0.00000000000E+00  0.00000000000E+00 -0.37556847207E+03  0.18384952413E+04  0.17997258333E+04 0.  0.
        3    1    3    3  502    0  0.10727351081E+03 -0.62531666989E+03  0.46410411949E+03  0.78607963191E+03  0.10100000352E+00 0.  1.
       -3    1    3    3    0  502 -0.10727351081E+03  0.62531666989E+03 -0.83967259156E+03  0.10524156094E+04  0.10100000352E+00 0. -1.
</event>
<event>
 5   0  0.9184414E-05  0.1847049E+04  0.7818609E-02  0.8681672E-01
       -2   -1    0    0    0  501  0.00000000000E+00  0.00000000000E+00  0.51418556849E+03  0.51418556850E+03  0.25500000920E-02 0.  1.
        2   -1    0    0  501    0  0.00000000000E+00  0.00000000000E+00 -0.16587340140E+04  0.16587340140E+04  0.25500000920E-02 0. -1.
    10030    2    1    2    0    0  0.00000000000E+00  0.00000000000E+00 -0.11445484455E+04  0.21729195825E+04  0.18470485559E+04 0.  0.
        5    1    3    3  502    0 -0.66205121876E+03 -0.62852450973E+03 -0.73663820470E+03  0.11730357242E+04  0.46999998093E+01 0. -1.
       -5    1    3    3    0  502  0.66205121876E+03  0.62852450973E+03 -0.40791024084E+03  0.99988385834E+03  0.46999998093E+01 0.  1.
</event>
<event>
 5   0  0.9147432E-05  0.1795701E+04  0.7818609E-02  0.8708589E-01
       -2   -1    0    0    0  501  0.00000000000E+00  0.00000000000E+00  0.65092324214E+03  0.65092324214E+03  0.25500000920E-02 0. -1.
        2   -1    0    0  501    0  0.00000000000E+00  0.00000000000E+00 -0.12384489492E+04  0.12384489492E+04  0.25500000920E-02 0.  1.
    10030    2    1    2    0    0  0.00000000000E+00  0.00000000000E+00 -0.58752570706E+03  0.18893721913E+04  0.17957006490E+04 0.  0.
        3    1    3    3  502    0 -0.91866479048E+02  0.10366616695E+03  0.63961371202E+03  0.65444009272E+03  0.10100000352E+00 0. -1.
       -3    1    3    3    0  502  0.91866479048E+02 -0.10366616695E+03 -0.12271394191E+04  0.12349320986E+04  0.10100000352E+00 0.  1.
</event>
<event>
 5   0  0.4335117E-05  0.1809315E+04  0.7818609E-02  0.8701361E-01
       -1   -1    0    0    0  501  0.00000000000E+00  0.00000000000E+00  0.11766221845E+04  0.11766221845E+04  0.50400001928E-02 0. -1.
        1   -1    0    0  501    0  0.00000000000E+00  0.00000000000E+00 -0.69555496582E+03  0.69555496584E+03  0.50400001928E-02 0.  1.
    10030    2    1    2    0    0  0.00000000000E+00  0.00000000000E+00  0.48106721867E+03  0.18721771503E+04  0.18093152333E+04 0.  0.
        3    1    3    3  502    0 -0.41906784405E+03  0.28671704519E+03 -0.53419900279E+03  0.73701635443E+03  0.10100000352E+00 0.  1.
       -3    1    3    3    0  502  0.41906784405E+03 -0.28671704519E+03  0.10152662215E+04  0.11351607959E+04  0.10100000352E+00 0. -1.
</event>
<event>
 5   0  0.8892280E-05  0.1804053E+04  0.7818609E-02  0.8704147E-01
       -2   -1    0    0    0  501  0.00000000000E+00  0.00000000000E+00  0.36638970507E+03  0.36638970508E+03  0.25500000920E-02 0. -1.
        2   -1    0    0  501    0  0.00000000000E+00  0.00000000000E+00 -0.22207271795E+04  0.22207271795E+04  0.25500000920E-02 0.  1.
    10030    2    1    2    0    0  0.00000000000E+00  0.00000000000E+00 -0.18543374745E+04  0.25871168846E+04  0.18040527447E+04 0.  0.
        4    1    3    3  502    0  0.73677791158E+02  0.87939733625E+03 -0.11950033549E+04  0.14855311249E+04  0.12699999809E+01 0.  1.
       -4    1    3    3    0  502 -0.73677791158E+02 -0.87939733625E+03 -0.65933411956E+03  0.11015857597E+04  0.12699999809E+01 0. -1.
</event>
<event>
 5   0  0.3270375E-05  0.1797234E+04  0.7818609E-02  0.8707772E-01
        4   -1    0    0  501    0  0.00000000000E+00  0.00000000000E+00  0.57783030837E+03  0.57783170402E+03  0.12699999809E+01 0. -1.
       -4   -1    0    0    0  501  0.00000000000E+00  0.00000000000E+00 -0.13974874943E+04  0.13974880713E+04  0.12699999809E+01 0.  1.
    10030    2    1    2    0    0  0.00000000000E+00  0.00000000000E+00 -0.81965718589E+03  0.19753197754E+04  0.17972340728E+04 0.  0.
        2    1    3    3  502    0 -0.60238065839E+02  0.54213547145E+02  0.57380663288E+03  0.57950132460E+03  0.25500000920E-02 0. -1.
       -2    1    3    3    0  502  0.60238065839E+02 -0.54213547145E+02 -0.13934638188E+04  0.13958184508E+04  0.25500000920E-02 0.  1.
</event>
<event>
 5   0  0.4578107E-05  0.1796458E+04  0.7818609E-02  0.8708185E-01
       -1   -1    0    0    0  501  0.00000000000E+00  0.00000000000E+00  0.11810004681E+04  0.11810004681E+04  0.50400001928E-02 0.  1.
        1   -1    0    0  501    0  0.00000000000E+00  0.00000000000E+00 -0.68316289103E+03  0.68316289105E+03  0.50400001928E-02 0. -1.
    10030    2    1    2    0    0  0.00000000000E+00  0.00000000000E+00  0.49783757708E+03  0.18641633592E+04  0.17964583982E+04 0.  0.
        2    1    3    3  502    0 -0.51251272842E+02 -0.29582358135E+03 -0.62955470275E+03  0.69747932444E+03  0.25500000920E-02 0. -1.
       -2    1    3    3    0  502  0.51251272842E+02  0.29582358135E+03  0.11273922798E+04  0.11666840347E+04  0.25500000920E-02 0.  1.
</event>
<event>
 5   0  0.4494757E-05  0.1808252E+04  0.7818609E-02  0.8701923E-01
       -1   -1    0    0    0  501  0.00000000000E+00  0.00000000000E+00  0.40717224729E+03  0.40717224733E+03  0.50400001928E-02 0.  1.
        1   -1    0    0  501    0  0.00000000000E+00  0.00000000000E+00 -0.20076116317E+04  0.20076116317E+04  0.50400001928E-02 0. -1.
    10030    2    1    2    0    0  0.00000000000E+00  0.00000000000E+00 -0.16004393844E+04  0.24147838791E+04  0.18082519070E+04 0.  0.
        4    1    3    3  502    0 -0.82676680084E+03 -0.35189300358E+03 -0.93422937662E+03  0.12962091536E+04  0.12699999809E+01 0. -1.
       -4    1    3    3    0  502  0.82676680084E+03  0.35189300358E+03 -0.66621000780E+03  0.11185747254E+04  0.12699999809E+01 0.  1.
</event>
<event>
 5   0  0.4335117E-05  0.1785041E+04  0.7818609E-02  0.8714295E-01
       -1   -1    0    0    0  501  0.00000000000E+00  0.00000000000E+00  0.46409896093E+03  0.46409896096E+03  0.50400001928E-02 0. -1.
        1   -1    0    0  501    0  0.00000000000E+00  0.00000000000E+00 -0.17164296071E+04  0.17164296071E+04  0.50400001928E-02 0.  1.
    10030    2    1    2    0    0  0.00000000000E+00  0.00000000000E+00 -0.12523306461E+04  0.21805285680E+04  0.17850413969E+04 0.  0.
        3    1    3    3  502    0 -0.72503549633E+03  0.43994299075E+03 -0.28639062683E+03  0.89512340344E+03  0.10100000352E+00 0.  1.
       -3    1    3    3    0  502  0.72503549633E+03 -0.43994299075E+03 -0.96594001930E+03  0.12854051646E+04  0.10100000352E+00 0. -1.
</event>
<event>
 5   0  0.4623665E-05  0.1799795E+04  0.7818609E-02  0.8706409E-01
        1   -1    0    0  501    0  0.00000000000E+00  0.00000000000E+00  0.14642995192E+04  0.14642995192E+04  0.50400001928E-02 0. -1.
       -1   -1    0    0    0  501  0.00000000000E+00  0.00000000000E+00 -0.55303948687E+03  0.55303948689E+03  0.50400001928E-02 0.  1.
    10030    2    1    2    0    0  0.00000000000E+00  0.00000000000E+00  0.91126003231E+03  0.20173390061E+04  0.17997949380E+04 0.  0.
        5    1    3    3  502    0  0.29307686326E+03  0.10603560336E+03  0.14018579439E+04  0.14360937929E+04  0.46999998093E+01 0. -1.
       -5    1    3    3    0  502 -0.29307686326E+03 -0.10603560336E+03 -0.49059791163E+03  0.58124521319E+03  0.46999998093E+01 0.  1.
</event>
<event>
 5   0  0.8893075E-05  0.1798302E+04  0.7818609E-02  0.8707203E-01
        2   -1    0    0  501    0  0.00000000000E+00  0.00000000000E+00  0.14217998035E+04  0.14217998035E+04  0.25500000920E-02 0.  1.
       -2   -1    0    0    0  501  0.00000000000E+00  0.00000000000E+00 -0.56862610921E+03  0.56862610922E+03  0.25500000920E-02 0. -1.
    10030    2    1    2    0    0  0.00000000000E+00  0.00000000000E+00  0.85317369430E+03  0.19904259127E+04  0.17983019661E+04 0.  0.
        1    1    3    3  502    0  0.32593128252E+03  0.18421816022E+03 -0.47825096233E+03  0.60736440008E+03  0.50400001928E-02 0. -1.
       -1    1    3    3    0  502 -0.32593128252E+03 -0.18421816022E+03  0.13314246566E+04  0.13830615127E+04  0.50400001928E-02 0.  1.
</event>
<event>
 5   0  0.4535100E-05  0.1821666E+04  0.7818609E-02  0.8694862E-01
        1   -1    0    0  501    0  0.00000000000E+00  0.00000000000E+00  0.10953222389E+04  0.10953222389E+04  0.50400001928E-02 0.  1.
       -1   -1    0    0    0  501  0.00000000000E+00  0.00000000000E+00 -0.75741802786E+03  0.75741802787E+03  0.50400001928E-02 0. -1.
    10030    2    1    2    0    0  0.00000000000E+00  0.00000000000E+00  0.33790421105E+03  0.18527402668E+04  0.18216660617E+04 0.  0.
        1    1    3    3  502    0  0.24111181320E+03 -0.74726751204E+02 -0.72113229290E+03  0.76403584844E+03  0.50400001928E-02 0. -1.
       -1    1    3    3    0  502 -0.24111181320E+03  0.74726751204E+02  0.10590365039E+04  0.10887044183E+04  0.50400001928E-02 0.  1.
</event>
<event>
 5   0  0.8893075E-05  0.1802157E+04  0.7818609E-02  0.8705153E-01
        2   -1    0    0  501    0  0.00000000000E+00  0.00000000000E+00  0.19360885203E+04  0.19360885203E+04  0.25500000920E-02 0. -1.
       -2   -1    0    0    0  501  0.00000000000E+00  0.00000000000E+00 -0.41937264070E+03  0.41937264071E+03  0.25500000920E-02 0.  1.
    10030    2    1    2    0    0  0.00000000000E+00  0.00000000000E+00  0.15167158796E+04  0.23554611610E+04  0.18021571024E+04 0.  0.
        1    1    3    3  502    0 -0.39355392999E+03  0.57186802392E+03  0.15092138492E+04  0.16612176785E+04  0.50400001928E-02 0. -1.
       -1    1    3    3    0  502  0.39355392999E+03 -0.57186802392E+03  0.75020304114E+01  0.69424348256E+03  0.50400001928E-02 0.  1.
</event>
<event>
 5   0  0.4335117E-05  0.1806409E+04  0.7818609E-02  0.8702899E-01
        1   -1    0    0  501    0  0.00000000000E+00  0.00000000000E+00  0.11531743051E+04  0.11531743051E+04  0.50400001928E-02 0. -1.
       -1   -1    0    0    0  501  0.00000000000E+00  0.00000000000E+00 -0.70741966695E+03  0.70741966697E+03  0.50400001928E-02 0.  1.
    10030    2    1    2    0    0  0.00000000000E+00  0.00000000000E+00  0.44575463818E+03  0.18605939721E+04  0.18064087942E+04 0.  0.
        3    1    3    3  502    0  0.25136470227E+02  0.22572424010E+03  0.11232817794E+04  0.11460127577E+04  0.10100000352E+00 0. -1.
       -3    1    3    3    0  502 -0.25136470227E+02 -0.22572424010E+03 -0.67752714121E+03  0.71458121441E+03  0.10100000352E+00 0.  1.
</event>
<event>
 5   0  0.4578107E-05  0.1801660E+04  0.7818609E-02  0.8705417E-01
       -1   -1    0    0    0  501  0.00000000000E+00  0.00000000000E+00  0.56079574806E+03  0.56079574808E+03  0.50400001928E-02 0.  1.
        1   -1    0    0  501    0  0.00000000000E+00  0.00000000000E+00 -0.14470419073E+04  0.14470419073E+04  0.50400001928E-02 0. -1.
    10030    2    1    2    0    0  0.00000000000E+00  0.00000000000E+00 -0.88624615926E+03  0.20078376554E+04  0.18016602886E+04 0.  0.
        2    1    3    3  502    0  0.89838811235E+03 -0.66053517709E+02 -0.43695013246E+03  0.10011941300E+04  0.25500000920E-02 0.  1.
       -2    1    3    3    0  502 -0.89838811235E+03  0.66053517709E+02 -0.44929602680E+03  0.10066435254E+04  0.25500000920E-02 0. -1.
</event>
<event>
 5   0  0.4623665E-05  0.1809355E+04  0.7818609E-02  0.8701340E-01
       -1   -1    0    0    0  501  0.00000000000E+00  0.00000000000E+00  0.13125805286E+04  0.13125805286E+04  0.50400001928E-02 0. -1.
        1   -1    0    0  501    0  0.00000000000E+00  0.00000000000E+00 -0.62353606802E+03  0.62353606804E+03  0.50400001928E-02 0.  1.
    10030    2    1    2    0    0  0.00000000000E+00  0.00000000000E+00  0.68904446059E+03  0.19361165967E+04  0.18093549147E+04 0.  0.
        5    1    3    3  502    0  0.35087598592E+03  0.37829491972E+03 -0.45063907852E+03  0.68506837094E+03  0.46999998093E+01 0.  1.
       -5    1    3    3    0  502 -0.35087598592E+03 -0.37829491972E+03  0.11396835391E+04  0.12510482257E+04  0.46999998093E+01 0. -1.
</event>
<event>
 5   0  0.9184414E-05  0.1804535E+04  0.7818609E-02  0.8703891E-01
       -2   -1    0    0    0  501  0.00000000000E+00  0.00000000000E+00  0.10345458182E+04  0.10345458182E+04  0.25500000920E-02 0.  1.
        2   -1    0    0  501    0  0.00000000000E+00  0.00000000000E+00 -0.78690259430E+03  0.78690259431E+03  0.25500000920E-02 0. -1.
    10030    2    1    2    0    0  0.00000000000E+00  0.00000000000E+00  0.24764322389E+03  0.18214484125E+04  0.18045351626E+04 0.  0.
        5    1    3    3  502    0 -0.88137150614E+03 -0.15162715436E+03  0.24434836549E+03  0.92711096396E+03  0.46999998093E+01 0.  1.
       -5    1    3    3    0  502  0.88137150614E+03  0.15162715436E+03  0.32948584006E+01  0.89433744854E+03  0.46999998093E+01 0. -1.
</event>
<event>
 5   0  0.9184414E-05  0.1797375E+04  0.7818609E-02  0.8707696E-01
       -2   -1    0    0    0  501  0.00000000000E+00  0.00000000000E+00  0.52488311164E+03  0.52488311165E+03  0.25500000920E-02 0. -1.
        2   -1    0    0  501    0  0.00000000000E+00  0.00000000000E+00 -0.15387038324E+04  0.15387038324E+04  0.25500000920E-02 0.  1.
    10030    2    1    2    0    0  0.00000000000E+00  0.00000000000E+00 -0.10138207208E+04  0.20635869441E+04  0.17973754816E+04 0.  0.
        5    1    3    3  502    0 -0.53469231630E+03  0.12634545124E+03 -0.13234091814E+04  0.14329316095E+04  0.46999998093E+01 0.  1.
       -5    1    3    3    0  502  0.53469231630E+03 -0.12634545124E+03  0.30958846056E+03  0.63065533461E+03  0.46999998093E+01 0. -1.
</event>
<event>
 5   0  0.9184414E-05  0.1816648E+04  0.7818609E-02  0.8697496E-01
        2   -1    0    0  501    0  0.00000000000E+00  0.00000000000E+00  0.18588198273E+04  0.18588198273E+04  0.25500000920E-02 0.  1.
       -2   -1    0    0    0  501  0.00000000000E+00  0.00000000000E+00 -0.44385801900E+03  0.44385801900E+03  0.25500000920E-02 0. -1.
    10030    2    1    2    0    0  0.00000000000E+00  0.00000000000E+00  0.14149618083E+04  0.23026778463E+04  0.18166475566E+04 0.  0.
        5    1    3    3  502    0  0.72793170664E+02 -0.50948842399E+03 -0.24119030176E+03  0.56839436269E+03  0.46999998093E+01 0. -1.
       -5    1    3    3    0  502 -0.72793170664E+02  0.50948842399E+03  0.16561521101E+04  0.17342834836E+04  0.46999998093E+01 0.  1.
</event>
<event>
 5   0  0.4494757E-05  0.1805995E+04  0.7818609E-02  0.8703118E-01
       -1   -1    0    0    0  501  0.00000000000E+00  0.00000000000E+00  0.86606941518E+03  0.86606941520E+03  0.50400001928E-02 0. -1.
        1   -1    0    0  501    0  0.00000000000E+00  0.00000000000E+00 -0.94150058049E+03  0.94150058050E+03  0.50400001928E-02 0.  1.
    10030    2    1    2    0    0  0.00000000000E+00  0.00000000000E+00 -0.75431165306E+02  0.18075699957E+04  0.18059954121E+04 0.  0.
        4    1    3    3  502    0  0.22400610887E+03  0.85477835215E+03  0.14839942998E+03  0.89601828767E+03  0.12699999809E+01 0.  1.
       -4    1    3    3    0  502 -0.22400610887E+03 -0.85477835215E+03 -0.22383059529E+03  0.91155170803E+03  0.12699999809E+01 0. -1.
</event>
<event>
 5   0  0.8802655E-05  0.1794864E+04  0.7818609E-02  0.8709036E-01
        2   -1    0    0  501    0  0.00000000000E+00  0.00000000000E+00  0.15101596941E+04  0.15101596941E+04  0.25500000920E-02 0. -1.
       -2   -1    0    0    0  501  0.00000000000E+00  0.00000000000E+00 -0.53331033815E+03  0.53331033815E+03  0.25500000920E-02 0.  1.
    10030    2    1    2    0    0  0.00000000000E+00  0.00000000000E+00  0.97684935595E+03  0.20434700322E+04  0.17948635348E+04 0.  0.
        2    1    3    3  502    0  0.11230027491E+03  0.14636340431E+03  0.14883386367E+04  0.14997284739E+04  0.25500000920E-02 0. -1.
       -2    1    3    3    0  502 -0.11230027491E+03 -0.14636340431E+03 -0.51148928080E+03  0.54374155832E+03  0.25500000920E-02 0.  1.
</event>
<event>
 5   0  0.9147432E-05  0.1809742E+04  0.7818609E-02  0.8701136E-01
        2   -1    0    0  501    0  0.00000000000E+00  0.00000000000E+00  0.63076927564E+03  0.63076927564E+03  0.25500000920E-02 0.  1.
       -2   -1    0    0    0  501  0.00000000000E+00  0.00000000000E+00 -0.12980834860E+04  0.12980834860E+04  0.25500000920E-02 0. -1.
    10030    2    1    2    0    0  0.00000000000E+00  0.00000000000E+00 -0.66731421036E+03  0.19288527616E+04  0.18097416171E+04 0.  0.
        3    1    3    3  502    0 -0.54692763235E+03 -0.70797864938E+03 -0.47833977119E+03  0.10144814192E+04  0.10100000352E+00 0.  1.
       -3    1    3    3    0  502  0.54692763235E+03  0.70797864938E+03 -0.18897443918E+03  0.91437134244E+03  0.10100000352E+00 0. -1.
</event>
<event>
 5   0  0.4535100E-05  0.1802216E+04  0.7818609E-02  0.8705122E-01
       -1   -1    0    0    0  501  0.00000000000E+00  0.00000000000E+00  0.12601681774E+04  0.12601681774E+04  0.50400001928E-02 0.  1.
        1   -1    0    0  501    0  0.00000000000E+00  0.00000000000E+00 -0.64435461422E+03  0.64435461424E+03  0.50400001928E-02 0. -1.
    10030    2    1    2    0    0  0.00000000000E+00  0.00000000000E+00  0.61581356314E+03  0.19045227916E+04  0.18022155030E+04 0.  0.
        1    1    3    3  502    0 -0.42182670345E+03 -0.53918965643E+03 -0.31130120348E+03  0.75204500707E+03  0.50400001928E-02 0. -1.
       -1    1    3    3    0  502  0.42182670345E+03  0.53918965643E+03  0.92711476662E+03  0.11524777845E+04  0.50400001928E-02 0.  1.
</event>
<event>
 5   0  0.9147432E-05  0.1809428E+04  0.7818609E-02  0.8701302E-01
        2   -1    0    0  501    0  0.00000000000E+00  0.00000000000E+00  0.21004212716E+04  0.21004212716E+04  0.25500000920E-02 0. -1.
       -2   -1    0    0    0  501  0.00000000000E+00  0.00000000000E+00 -0.38968708715E+03  0.38968708716E+03  0.25500000920E-02 0.  1.
    10030    2    1    2    0    0  0.00000000000E+00  0.00000000000E+00  0.17107341844E+04  0.24901083587E+04  0.18094275859E+04 0.  0.
        3    1    3    3  502    0 -0.10428763166E+03 -0.55927591014E+03 -0.11271042214E+03  0.57997336425E+03  0.10100000352E+00 0.  1.
       -3    1    3    3    0  502  0.10428763166E+03  0.55927591014E+03  0.18234446065E+04  0.19101349945E+04  0.10100000352E+00 0. -1.
</event>
<event>
 5   0  0.4494757E-05  0.1807401E+04  0.7818609E-02  0.8702374E-01
       -1   -1    0    0    0  501  0.00000000000E+00  0.00000000000E+00  0.56527812441E+03  0.56527812443E+03  0.50400001928E-02 0. -1.
        1   -1    0    0  501    0  0.00000000000E+00  0.00000000000E+00 -0.14447308079E+04  0.14447308079E+04  0.50400001928E-02 0.  1.
    10030    2    1    2    0    0  0.00000000000E+00  0.00000000000E+00 -0.87945268349E+03  0.20100089323E+04  0.18074011413E+04 0.  0.
        4    1    3    3  502    0 -0.73493403046E+03 -0.33853106690E+02  0.14388624722E+03  0.74965253752E+03  0.12699999809E+01 0. -1.
       -4    1    3    3    0  502  0.73493403046E+03  0.33853106690E+02 -0.10233389307E+04  0.12603563948E+04  0.12699999809E+01 0.  1.
</event>
<event>
 5   0  0.9184414E-05  0.1790413E+04  0.7818609E-02  0.8711414E-01
        2   -1    0    0  501    0  0.00000000000E+00  0.00000000000E+00  0.18682734038E+04  0.18682734039E+04  0.25500000920E-02 0. -1.
       -2   -1    0    0    0  501  0.00000000000E+00  0.00000000000E+00 -0.42894949310E+03  0.42894949310E+03  0.25500000920E-02 0.  1.
    10030    2    1    2    0    0  0.00000000000E+00  0.00000000000E+00  0.14393239108E+04  0.22972228970E+04  0.17904132814E+04 0.  0.
        5    1    3    3  502    0  0.26023225237E+03  0.65698196509E+02 -0.37609339496E+03  0.46206645619E+03  0.46999998093E+01 0.  1.
       -5    1    3    3    0  502 -0.26023225237E+03 -0.65698196509E+02  0.18154173057E+04  0.18351564408E+04  0.46999998093E+01 0. -1.
</event>
<event>
 5   0  0.4335117E-05  0.1797610E+04  0.7818609E-02  0.8707572E-01
       -1   -1    0    0    0  501  0.00000000000E+00  0.00000000000E+00  0.44996556765E+03  0.44996556767E+03  0.50400001928E-02 0. -1.
        1   -1    0    0  501    0  0.00000000000E+00  0.00000000000E+00 -0.17953598568E+04  0.17953598568E+04  0.50400001928E-02 0.  1.
    10030    2    1    2    0    0  0.00000000000E+00  0.00000000000E+00 -0.13453942891E+04  0.22453254245E+04  0.17976096541E+04 0.  0.
        3    1    3    3  502    0  0.60907773160E+03  0.60067092678E+03 -0.10171956645E+04  0.13290855035E+04  0.10100000352E+00 0.  1.
       -3    1    3    3    0  502 -0.60907773160E+03 -0.60067092678E+03 -0.32819862461E+03  0.91623992099E+03  0.10100000352E+00 0. -1.
</event>
<event>
 5   0  0.8802655E-05  0.1815293E+04  0.7818609E-02  0.8698209E-01
        2   -1    0    0  501    0  0.00000000000E+00  0.00000000000E+00  0.84305455078E+03  0.84305455079E+03  0.25500000920E-02 0.  1.
       -2   -1    0    0    0  501  0.00000000000E+00  0.00000000000E+00 -0.97718761495E+03  0.97718761495E+03  0.25500000920E-02 0. -1.
    10030    2    1    2    0    0  0.00000000000E+00  0.00000000000E+00 -0.13413306416E+03  0.18202421657E+04  0.18152933270E+04 0.  0.
        2    1    3    3  502    0 -0.39498818179E+03 -0.20169768280E+03 -0.86113758275E+03  0.96863592512E+03  0.25500000920E-02 0. -1.
       -2    1    3    3    0  502  0.39498818179E+03  0.20169768280E+03  0.72700451859E+03  0.85160624061E+03  0.25500000920E-02 0.  1.
</event>
<event>
 5   0  0.4623665E-05  0.1803455E+04  0.7818609E-02  0.8704464E-01
       -1   -1    0    0    0  501  0.00000000000E+00  0.00000000000E+00  0.88408630487E+03  0.88408630488E+03  0.50400001928E-02 0.  1.
        1   -1    0    0  501    0  0.00000000000E+00  0.00000000000E+00 -0.91972091847E+03  0.91972091848E+03  0.50400001928E-02 0. -1.
    10030    2    1    2    0    0  0.00000000000E+00  0.00000000000E+00 -0.35634613598E+02  0.18038072234E+04  0.18034552042E+04 0.  0.
        5    1    3    3  502    0 -0.21764913495E+03  0.70611098435E+03  0.49912659936E+03  0.89169126964E+03  0.46999998093E+01 0.  1.
       -5    1    3    3    0  502  0.21764913495E+03 -0.70611098435E+03 -0.53476121295E+03  0.91211595373E+03  0.46999998093E+01 0. -1.
</event>
<event>
 5   0  0.4578107E-05  0.1795950E+04  0.7818609E-02  0.8708456E-01
        1   -1    0    0  501    0  0.00000000000E+00  0.00000000000E+00  0.89226272050E+03  0.89226272052E+03  0.50400001928E-02 0.  1.
       -1   -1    0    0    0  501  0.00000000000E+00  0.00000000000E+00 -0.90372374428E+03  0.90372374430E+03  0.50400001928E-02 0. -1.
    10030    2    1    2    0    0  0.00000000000E+00  0.00000000000E+00 -0.11461023780E+02  0.17959864648E+04  0.17959498954E+04 0.  0.
        2    1    3    3  502    0 -0.54580987694E+03  0.43512527608E+03  0.55918503487E+03  0.89438824393E+03  0.25500000920E-02 0.  1.
       -2    1    3    3    0  502  0.54580987694E+03 -0.43512527608E+03 -0.57064605865E+03  0.90159822089E+03  0.25500000920E-02 0. -1.
</event>
<event>
 5   0  0.4623665E-05  0.1799095E+04  0.7818609E-02  0.8706781E-01
       -1   -1    0    0    0  501  0.00000000000E+00  0.00000000000E+00  0.53574313305E+03  0.53574313307E+03  0.50400001928E-02 0. -1.
        1   -1    0    0  501    0  0.00000000000E+00  0.00000000000E+00 -0.15103986504E+04  0.15103986504E+04  0.50400001928E-02 0.  1.
    10030    2    1    2    0    0  0.00000000000E+00  0.00000000000E+00 -0.97465551736E+03  0.20461417835E+04  0.17990950005E+04 0.  0.
        5    1    3    3  502    0  0.45641998467E+03  0.30460258519E+03  0.32333429839E+03  0.63692157745E+03  0.46999998093E+01 0. -1.
       -5    1    3    3    0  502 -0.45641998467E+03 -0.30460258519E+03 -0.12979898158E+04  0.14092202060E+04  0.46999998093E+01 0.  1.
</event>
<event>
 5   0  0.9184414E-05  0.1795771E+04  0.7818609E-02  0.8708552E-01
        2   -1    0    0  501    0  0.00000000000E+00  0.00000000000E+00  0.72809547318E+03  0.72809547318E+03  0.25500000920E-02 0. -1.
       -2   -1    0    0    0  501  0.00000000000E+00  0.00000000000E+00 -0.11072700034E+04  0.11072700034E+04  0.25500000920E-02 0.  1.
    10030    2    1    2    0    0  0.00000000000E+00  0.00000000000E+00 -0.37917453025E+03  0.18353654766E+04  0.17957708953E+04 0.  0.
        5    1    3    3  502    0 -0.53610184175E+02 -0.70054956024E+03 -0.76095957200E+03  0.10357245282E+04  0.46999998093E+01 0.  1.
       -5    1    3    3    0  502  0.53610184175E+02  0.70054956024E+03  0.38178504175E+03  0.79964094836E+03  0.46999998093E+01 0. -1.
</event>
<event>
 5   0  0.4623665E-05  0.1803714E+04  0.7818609E-02  0.8704327E-01
        1   -1    0    0  501    0  0.00000000000E+00  0.00000000000E+00  0.86318993153E+03  0.86318993155E+03  0.50400001928E-02 0. -1.
       -1   -1    0    0    0  501  0.00000000000E+00  0.00000000000E+00 -0.94225618915E+03  0.94225618917E+03  0.50400001928E-02 0.  1.
    10030    2    1    2    0    0  0.00000000000E+00  0.00000000000E+00 -0.79066257618E+02  0.18054461207E+04  0.18037140077E+04 0.  0.
        5    1    3    3  502    0 -0.65680121408E+02  0.26297843339E+03  0.82143962266E+03  0.86501831105E+03  0.46999998093E+01 0. -1.
       -5    1    3    3    0  502  0.65680121408E+02 -0.26297843339E+03 -0.90050588028E+03  0.94042780967E+03  0.46999998093E+01 0.  1.
</event>
<event>
 5   0  0.8893075E-05  0.1794692E+04  0.7818609E-02  0.8709128E-01
       -2   -1    0    0    0  501  0.00000000000E+00  0.00000000000E+00  0.73886359969E+03  0.73886359969E+03  0.25500000920E-02 0.  1.
        2   -1    0    0  501    0  0.00000000000E+00  0.00000000000E+00 -0.10898214731E+04  0.10898214731E+04  0.25500000920E-02 0. -1.
    10030    2    1    2    0    0  0.00000000000E+00  0.00000000000E+00 -0.35095787343E+03  0.18286850728E+04  0.17946915241E+04 0.  0.
        1    1    3    3  502    0  0.29551254812E+03 -0.83394272809E+03 -0.32812052958E+03  0.94363722997E+03  0.50400001928E-02 0.  1.
       -1    1    3    3    0  502 -0.29551254812E+03  0.83394272809E+03 -0.22837343852E+02  0.88504784285E+03  0.50400001928E-02 0. -1.
</event>
<event>
 5   0  0.9184414E-05  0.1788936E+04  0.7818609E-02  0.8712205E-01
        2   -1    0    0  501    0  0.00000000000E+00  0.00000000000E+00  0.66842544960E+03  0.66842544960E+03  0.25500000920E-02 0.  1.
       -2   -1    0    0    0  501  0.00000000000E+00  0.00000000000E+00 -0.11969518733E+04  0.11969518733E+04  0.25500000920E-02 0. -1.
    10030    2    1    2    0    0  0.00000000000E+00  0.00000000000E+00 -0.52852642369E+03  0.18653773229E+04  0.17889361018E+04 0.  0.
        5    1    3    3  502    0 -0.37528671373E+03 -0.73526975388E+03  0.94819562870E+02  0.83094799354E+03  0.46999998093E+01 0. -1.
       -5    1    3    3    0  502  0.37528671373E+03  0.73526975388E+03 -0.62334598656E+03  0.10344293294E+04  0.46999998093E+01 0.  1.
</event>
<event>
 5   0  0.9184414E-05  0.1800280E+04  0.7818609E-02  0.8706150E-01
        2   -1    0    0  501    0  0.00000000000E+00  0.00000000000E+00  0.38152752405E+03  0.38152752406E+03  0.25500000920E-02 0.  1.
       -2   -1    0    0    0  501  0.00000000000E+00  0.00000000000E+00 -0.21237059181E+04  0.21237059181E+04  0.25500000920E-02 0. -1.
    10030    2    1    2    0    0  0.00000000000E+00  0.00000000000E+00 -0.17421783941E+04  0.25052334422E+04  0.18002802679E+04 0.  0.
        5    1    3    3  502    0 -0.45849503037E+03 -0.25493195234E+03  0.14678468628E+03  0.54477135325E+03  0.46999998093E+01 0.  1.
       -5    1    3    3    0  502  0.45849503037E+03  0.25493195234E+03 -0.18889630804E+04  0.19604620889E+04  0.46999998093E+01 0. -1.
</event>
<event>
 5   0  0.4623665E-05  0.1795413E+04  0.7818609E-02  0.8708743E-01
        1   -1    0    0  501    0  0.00000000000E+00  0.00000000000E+00  0.21654356356E+04  0.21654356356E+04  0.50400001928E-02 0. -1.
       -1   -1    0    0    0  501  0.00000000000E+00  0.00000000000E+00 -0.37215470161E+03  0.37215470165E+03  0.50400001928E-02 0.  1.
    10030    2    1    2    0    0  0.00000000000E+00  0.00000000000E+00  0.17932809340E+04  0.25375903372E+04  0.17954131033E+04 0.  0.
        5    1    3    3  502    0  0.46171167208E+03  0.76932464729E+03  0.93703631545E+03  0.12973423710E+04  0.46999998093E+01 0.  1.
       -5    1    3    3    0  502 -0.46171167208E+03 -0.76932464729E+03  0.85624461850E+03  0.12402479662E+04  0.46999998093E+01 0. -1.
</event>
<event>
 5   0  0.4623665E-05  0.1802245E+04  0.7818609E-02  0.8705107E-01
       -1   -1    0    0    0  501  0.00000000000E+00  0.00000000000E+00  0.12555433517E+04  0.12555433517E+04  0.50400001928E-02 0.  1.
        1   -1    0    0  501    0  0.00000000000E+00  0.00000000000E+00 -0.64674918068E+03  0.64674918070E+03  0.50400001928E-02 0. -1.
    10030    2    1    2    0    0  0.00000000000E+00  0.00000000000E+00  0.60879417106E+03  0.19022925324E+04  0.18022448602E+04 0.  0.
        5    1    3    3  502    0 -0.71827101678E+03  0.16925623150E+03 -0.24145574614E+03  0.77645598252E+03  0.46999998093E+01 0. -1.
       -5    1    3    3    0  502  0.71827101678E+03 -0.16925623150E+03  0.85024991720E+03  0.11258365499E+04  0.46999998093E+01 0.  1.
</event>
<event>
 5   0  0.9184414E-05  0.1800386E+04  0.7818609E-02  0.8706094E-01
       -2   -1    0    0    0  501  0.00000000000E+00  0.00000000000E+00  0.59099011160E+03  0.59099011160E+03  0.25500000920E-02 0.  1.
        2   -1    0    0  501    0  0.00000000000E+00  0.00000000000E+00 -0.13711686755E+04  0.13711686755E+04  0.25500000920E-02 0. -1.
    10030    2    1    2    0    0  0.00000000000E+00  0.00000000000E+00 -0.78017856390E+03  0.19621587871E+04  0.18003856571E+04 0.  0.
        5    1    3    3  502    0 -0.58444963702E+03  0.54123658935E+03  0.66879162010E+02  0.79938309726E+03  0.46999998093E+01 0. -1.
       -5    1    3    3    0  502  0.58444963702E+03 -0.54123658935E+03 -0.84705772591E+03  0.11627756898E+04  0.46999998093E+01 0.  1.
</event>
<event>
 5   0  0.4494757E-05  0.1808398E+04  0.7818609E-02  0.8701846E-01
       -1   -1    0    0    0  501  0.00000000000E+00  0.00000000000E+00  0.42181524760E+03  0.42181524763E+03  0.50400001928E-02 0.  1.
        1   -1    0    0  501    0  0.00000000000E+00  0.00000000000E+00 -0.19382312389E+04  0.19382312389E+04  0.50400001928E-02 0. -1.
    10030    2    1    2    0    0  0.00000000000E+00  0.00000000000E+00 -0.15164159913E+04  0.23600464865E+04  0.18083976222E+04 0.  0.
        4    1    3    3  502    0 -0.79949219064E+03  0.40729990796E+03 -0.61234059381E+03  0.10862981145E+04  0.12699999809E+01 0. -1.
       -4    1    3    3    0  502  0.79949219064E+03 -0.40729990796E+03 -0.90407539746E+03  0.12737483720E+04  0.12699999809E+01 0.  1.
</event>
<event>
 5   0  0.8893075E-05  0.1796331E+04  0.7818609E-02  0.8708253E-01
       -2   -1    0    0    0  501  0.00000000000E+00  0.00000000000E+00  0.59796345882E+03  0.59796345882E+03  0.25500000920E-02 0. -1.
        2   -1    0    0  501    0  0.00000000000E+00  0.00000000000E+00 -0.13490804709E+04  0.13490804709E+04  0.25500000920E-02 0.  1.
    10030    2    1    2    0    0  0.00000000000E+00  0.00000000000E+00 -0.75111701207E+03  0.19470439297E+04  0.17963305092E+04 0.  0.
        1    1    3    3  502    0  0.20995201545E+03  0.29628550023E+03  0.51484853635E+03  0.63002695327E+03  0.50400001928E-02 0. -1.
       -1    1    3    3    0  502 -0.20995201545E+03 -0.29628550023E+03 -0.12659655484E+04  0.13170169764E+04  0.50400001928E-02 0.  1.
</event>
<event>
 5   0  0.4623665E-05  0.1795395E+04  0.7818609E-02  0.8708752E-01
       -1   -1    0    0    0  501  0.00000000000E+00  0.00000000000E+00  0.10517431456E+04  0.10517431457E+04  0.50400001928E-02 0.  1.
        1   -1    0    0  501    0  0.00000000000E+00  0.00000000000E+00 -0.76621412231E+03  0.76621412232E+03  0.50400001928E-02 0. -1.
    10030    2    1    2    0    0  0.00000000000E+00  0.00000000000E+00  0.28552902334E+03  0.18179572680E+04  0.17953946098E+04 0.  0.
        5    1    3    3  502    0  0.14513920821E+03  0.13518446976E+03 -0.74373663910E+03  0.76974444393E+03  0.46999998093E+01 0. -1.
       -5    1    3    3    0  502 -0.14513920821E+03 -0.13518446976E+03  0.10292656624E+04  0.10482128240E+04  0.46999998093E+01 0.  1.
</event>
<event>
 5   0  0.4535100E-05  0.1795067E+04  0.7818609E-02  0.8708927E-01
        1   -1    0    0  501    0  0.00000000000E+00  0.00000000000E+00  0.16230764363E+04  0.16230764363E+04  0.50400001928E-02 0.  1.
       -1   -1    0    0    0  501  0.00000000000E+00  0.00000000000E+00 -0.49632042983E+03  0.49632042986E+03  0.50400001928E-02 0. -1.
    10030    2    1    2    0    0  0.00000000000E+00  0.00000000000E+00  0.11267560065E+04  0.21193968662E+04  0.17950665665E+04 0.  0.
        1    1    3    3  502    0 -0.34218663782E+02 -0.39417790980E+03 -0.38779690669E+03  0.55401586836E+03  0.50400001928E-02 0. -1.
       -1    1    3    3    0  502  0.34218663782E+02  0.39417790980E+03  0.15145529132E+04  0.15653809978E+04  0.50400001928E-02 0.  1.
</event>
<event>
 5   0  0.4535100E-05  0.1798976E+04  0.7818609E-02  0.8706844E-01
       -1   -1    0    0    0  501  0.00000000000E+00  0.00000000000E+00  0.47001157928E+03  0.47001157931E+03  0.50400001928E-02 0.  1.
        1   -1    0    0  501    0  0.00000000000E+00  0.00000000000E+00 -0.17214025059E+04  0.17214025059E+04  0.50400001928E-02 0. -1.
    10030    2    1    2    0    0  0.00000000000E+00  0.00000000000E+00 -0.12513909266E+04  0.21914140852E+04  0.17989764984E+04 0.  0.
        1    1    3    3  502    0 -0.38590412200E+03 -0.42730983437E+02 -0.16140691437E+04  0.16601105774E+04  0.50400001928E-02 0. -1.
       -1    1    3    3    0  502  0.38590412200E+03  0.42730983437E+02  0.36267821708E+03  0.53130350789E+03  0.50400001928E-02 0.  1.
</event>
<event>
 5   0  0.4494757E-05  0.1803126E+04  0.7818609E-02  0.8704639E-01
        1   -1    0    0  501    0  0.00000000000E+00  0.00000000000E+00  0.81985668088E+03  0.81985668089E+03  0.50400001928E-02 0. -1.
       -1   -1    0    0    0  501  0.00000000000E+00  0.00000000000E+00 -0.99141246928E+03  0.99141246930E+03  0.50400001928E-02 0.  1.
    10030    2    1    2    0    0  0.00000000000E+00  0.00000000000E+00 -0.17155578841E+03  0.18112691502E+04  0.18031263255E+04 0.  0.
        4    1    3    3  502    0 -0.41307796026E+03  0.73948564968E+03  0.22439167315E+03  0.87625661950E+03  0.12699999809E+01 0.  1.
       -4    1    3    3    0  502  0.41307796026E+03 -0.73948564968E+03 -0.39594746155E+03  0.93501253069E+03  0.12699999809E+01 0. -1.
</event>
<event>
 5   0  0.8892280E-05  0.1801694E+04  0.7818609E-02  0.8705399E-01
        2   -1    0    0  501    0  0.00000000000E+00  0.00000000000E+00  0.10208563455E+04  0.10208563455E+04  0.25500000920E-02 0.  1.
       -2   -1    0    0    0  501  0.00000000000E+00  0.00000000000E+00 -0.79494592406E+03  0.79494592407E+03  0.25500000920E-02 0. -1.
    10030    2    1    2    0    0  0.00000000000E+00  0.00000000000E+00  0.22591042148E+03  0.18158022696E+04  0.18016943036E+04 0.  0.
        4    1    3    3  502    0  0.34888377867E+03 -0.82336943824E+03  0.22274331116E+03  0.92156026304E+03  0.12699999809E+01 0. -1.
       -4    1    3    3    0  502 -0.34888377867E+03  0.82336943824E+03  0.31671103159E+01  0.89424200658E+03  0.12699999809E+01 0.  1.
</event>
<event>
 5   0  0.8893075E-05  0.1869550E+04  0.7818609E-02  0.8670164E-01
       -2   -1    0    0    0  501  0.00000000000E+00  0.00000000000E+00  0.98734546289E+03  0.98734546290E+03  0.25500000920E-02 0. -1.
        2   -1    0    0  501    0  0.00000000000E+00  0.00000000000E+00 -0.88500328677E+03  0.88500328677E+03  0.25500000920E-02 0.  1.
    10030    2    1    2    0    0  0.00000000000E+00  0.00000000000E+00  0.10234217612E+03  0.18723487497E+04  0.18695496568E+04 0.  0.
        1    1    3    3  502    0  0.66054341186E+02  0.65472389622E+03 -0.61373362464E+03  0.89983082761E+03  0.50400001928E-02 0.  1.
       -1    1    3    3    0  502 -0.66054341186E+02 -0.65472389622E+03  0.71607580076E+03  0.97251792206E+03  0.50400001928E-02 0. -1.
</event>
<event>
 5   0  0.4494757E-05  0.1792584E+04  0.7818609E-02  0.8710253E-01
        1   -1    0    0  501    0  0.00000000000E+00  0.00000000000E+00  0.62895673331E+03  0.62895673333E+03  0.50400001928E-02 0.  1.
       -1   -1    0    0    0  501  0.00000000000E+00  0.00000000000E+00 -0.12772575242E+04  0.12772575242E+04  0.50400001928E-02 0. -1.
    10030    2    1    2    0    0  0.00000000000E+00  0.00000000000E+00 -0.64830079087E+03  0.19062142575E+04  0.17925844137E+04 0.  0.
        4    1    3    3  502    0 -0.11993756227E+03 -0.68927062643E+03  0.27159329917E+03  0.75049553520E+03  0.12699999809E+01 0. -1.
       -4    1    3    3    0  502  0.11993756227E+03  0.68927062643E+03 -0.91989409004E+03  0.11557187223E+04  0.12699999809E+01 0.  1.
</event>
<event>
 5   0  0.9184414E-05  0.1799335E+04  0.7818609E-02  0.8706653E-01
       -2   -1    0    0    0  501  0.00000000000E+00  0.00000000000E+00  0.40512988646E+03  0.40512988647E+03  0.25500000920E-02 0.  1.
        2   -1    0    0  501    0  0.00000000000E+00  0.00000000000E+00 -0.19978817666E+04  0.19978817666E+04  0.25500000920E-02 0. -1.
    10030    2    1    2    0    0  0.00000000000E+00  0.00000000000E+00 -0.15927518801E+04  0.24030116531E+04  0.17993350030E+04 0.  0.
        5    1    3    3  502    0 -0.22734068280E+03 -0.13352203160E+03 -0.19451135872E+04  0.19629062321E+04  0.46999998093E+01 0. -1.
       -5    1    3    3    0  502  0.22734068280E+03  0.13352203160E+03  0.35236170704E+03  0.44010542097E+03  0.46999998093E+01 0.  1.
</event>
<event>
 5   0  0.9147432E-05  0.1793686E+04  0.7818609E-02  0.8709664E-01
       -2   -1    0    0    0  501  0.00000000000E+00  0.00000000000E+00  0.86094190787E+03  0.86094190787E+03  0.25500000920E-02 0.  1.
        2   -1    0    0  501    0  0.00000000000E+00  0.00000000000E+00 -0.93424120113E+03  0.93424120113E+03  0.25500000920E-02 0. -1.
    10030    2    1    2    0    0  0.00000000000E+00  0.00000000000E+00 -0.73299293259E+02  0.17951831090E+04  0.17936860395E+04 0.  0.
        3    1    3    3  502    0  0.77994476492E+03 -0.10681027989E+03 -0.46666523161E+03  0.91514956199E+03  0.10100000352E+00 0.  1.
       -3    1    3    3    0  502 -0.77994476492E+03  0.10681027989E+03  0.39336593835E+03  0.88003354701E+03  0.10100000352E+00 0. -1.
</event>
<event>
 5   0  0.8892280E-05  0.1800508E+04  0.7818609E-02  0.8706029E-01
        2   -1    0    0  501    0  0.00000000000E+00  0.00000000000E+00  0.10052347762E+04  0.10052347762E+04  0.25500000920E-02 0.  1.
       -2   -1    0    0    0  501  0.00000000000E+00  0.00000000000E+00 -0.80623706386E+03  0.80623706387E+03  0.25500000920E-02 0. -1.
    10030    2    1    2    0    0  0.00000000000E+00  0.00000000000E+00  0.19899771235E+03  0.18114718401E+04  0.18005082999E+04 0.  0.
        4    1    3    3  502    0  0.74412439867E+02 -0.86699978707E+03  0.33162016853E+03  0.93123541119E+03  0.12699999809E+01 0.  1.
       -4    1    3    3    0  502 -0.74412439867E+02  0.86699978707E+03 -0.13262245617E+03  0.88023642890E+03  0.12699999809E+01 0. -1.
</event>
<event>
 5   0  0.8802655E-05  0.1797128E+04  0.7818609E-02  0.8707828E-01
        2   -1    0    0  501    0  0.00000000000E+00  0.00000000000E+00  0.16966594667E+04  0.16966594667E+04  0.25500000920E-02 0. -1.
       -2   -1    0    0    0  501  0.00000000000E+00  0.00000000000E+00 -0.47588644765E+03  0.47588644766E+03  0.25500000920E-02 0.  1.
    10030    2    1    2    0    0  0.00000000000E+00  0.00000000000E+00  0.12207730190E+04  0.21725459143E+04  0.17971279826E+04 0.  0.
        2    1    3    3  502    0 -0.14635025699E+03 -0.74432686373E+03  0.28133382106E+02  0.75909970689E+03  0.25500000920E-02 0.  1.
       -2    1    3    3    0  502  0.14635025699E+03  0.74432686373E+03  0.11926396369E+04  0.14134462075E+04  0.25500000920E-02 0. -1.
</event>
<event>
 5   0  0.8802655E-05  0.1743547E+04  0.7818609E-02  0.8736910E-01
       -2   -1    0    0    0  501  0.00000000000E+00  0.00000000000E+00  0.59824231035E+03  0.59824231036E+03  0.25500000920E-02 0.  1.
        2   -1    0    0  501    0  0.00000000000E+00  0.00000000000E+00 -0.12703700550E+04  0.12703700550E+04  0.25500000920E-02 0. -1.
    10030    2    1    2    0    0  0.00000000000E+00  0.00000000000E+00 -0.67212774462E+03  0.18686123653E+04  0.17435470934E+04 0.  0.
        2    1    3    3  502    0  0.20103243710E+03  0.74273848166E+03  0.10310322657E+03  0.77634062643E+03  0.25500000920E-02 0.  1.
       -2    1    3    3    0  502 -0.20103243710E+03 -0.74273848166E+03 -0.77523097119E+03  0.10922717389E+04  0.25500000920E-02 0. -1.
</event>
<event>
 5   0  0.8802655E-05  0.1799830E+04  0.7818609E-02  0.8706390E-01
       -2   -1    0    0    0  501  0.00000000000E+00  0.00000000000E+00  0.10839627007E+04  0.10839627007E+04  0.25500000920E-02 0. -1.
        2   -1    0    0  501    0  0.00000000000E+00  0.00000000000E+00 -0.74711675976E+03  0.74711675976E+03  0.25500000920E-02 0.  1.
    10030    2    1    2    0    0  0.00000000000E+00  0.00000000000E+00  0.33684594095E+03  0.18310794605E+04  0.17998296593E+04 0.  0.
        2    1    3    3  502    0 -0.76770378182E+03 -0.45764334442E+03  0.61526409622E+02  0.89587500601E+03  0.25500000920E-02 0.  1.
       -2    1    3    3    0  502  0.76770378182E+03  0.45764334442E+03  0.27531953133E+03  0.93520445447E+03  0.25500000920E-02 0. -1.
</event>
<event>
 5   0  0.9147432E-05  0.1807804E+04  0.7818609E-02  0.8702161E-01
       -2   -1    0    0    0  501  0.00000000000E+00  0.00000000000E+00  0.36864428710E+04  0.36864428710E+04  0.25500000920E-02 0.  1.
        2   -1    0    0  501    0  0.00000000000E+00  0.00000000000E+00 -0.22163332118E+03  0.22163332119E+03  0.25500000920E-02 0. -1.
    10030    2    1    2    0    0  0.00000000000E+00  0.00000000000E+00  0.34648095499E+04  0.39080761922E+04  0.18078037248E+04 0.  0.
        3    1    3    3  502    0 -0.12307916594E+03 -0.27196466414E+03 -0.11199539879E+03  0.31883575580E+03  0.10100000352E+00 0. -1.
       -3    1    3    3    0  502  0.12307916594E+03  0.27196466414E+03  0.35768049487E+04  0.35892404364E+04  0.10100000352E+00 0.  1.
</event>
<event>
 5   0  0.8892280E-05  0.1794388E+04  0.7818609E-02  0.8709290E-01
       -2   -1    0    0    0  501  0.00000000000E+00  0.00000000000E+00  0.52841142205E+03  0.52841142206E+03  0.25500000920E-02 0.  1.
        2   -1    0    0  501    0  0.00000000000E+00  0.00000000000E+00 -0.15233520966E+04  0.15233520966E+04  0.25500000920E-02 0. -1.
    10030    2    1    2    0    0  0.00000000000E+00  0.00000000000E+00 -0.99494067452E+03  0.20517635186E+04  0.17943875252E+04 0.  0.
        4    1    3    3  502    0 -0.10699090438E+03 -0.11347461406E+03  0.51279184549E+03  0.53598566339E+03  0.12699999809E+01 0.  1.
       -4    1    3    3    0  502  0.10699090438E+03  0.11347461406E+03 -0.15077325200E+04  0.15157778553E+04  0.12699999809E+01 0. -1.
</event>
<event>
 5   0  0.8893075E-05  0.1814538E+04  0.7818609E-02  0.8698607E-01
        2   -1    0    0  501    0  0.00000000000E+00  0.00000000000E+00  0.23398327142E+04  0.23398327142E+04  0.25500000920E-02 0.  1.
       -2   -1    0    0    0  501  0.00000000000E+00  0.00000000000E+00 -0.35179296962E+03  0.35179296963E+03  0.25500000920E-02 0. -1.
    10030    2    1    2    0    0  0.00000000000E+00  0.00000000000E+00  0.19880397445E+04  0.26916256838E+04  0.18145376259E+04 0.  0.
        1    1    3    3  502    0  0.81411262136E+03 -0.39986505832E+03  0.96202333443E+03  0.13221801394E+04  0.50400001928E-02 0.  1.
       -1    1    3    3    0  502 -0.81411262136E+03  0.39986505832E+03  0.10260164101E+04  0.13694455444E+04  0.50400001928E-02 0. -1.
</event>
<event>
 5   0  0.4535100E-05  0.1796093E+04  0.7818609E-02  0.8708380E-01
        1   -1    0    0  501    0  0.00000000000E+00  0.00000000000E+00  0.20989399968E+04  0.20989399968E+04  0.50400001928E-02 0.  1.
       -1   -1    0    0    0  501  0.00000000000E+00  0.00000000000E+00 -0.38423570283E+03  0.38423570286E+03  0.50400001928E-02 0. -1.
    10030    2    1    2    0    0  0.00000000000E+00  0.00000000000E+00  0.17147042940E+04  0.24831756997E+04  0.17960931879E+04 0.  0.
        1    1    3    3  502    0  0.87095201984E+03  0.10294668015E+03  0.59022339324E+03  0.10571277566E+04  0.50400001928E-02 0.  1.
       -1    1    3    3    0  502 -0.87095201984E+03 -0.10294668015E+03  0.11244809008E+04  0.14260479431E+04  0.50400001928E-02 0. -1.
</event>
<event>
 5   0  0.4335117E-05  0.1798763E+04  0.7818609E-02  0.8706958E-01
       -1   -1    0    0    0  501  0.00000000000E+00  0.00000000000E+00  0.17018492602E+04  0.17018492602E+04  0.50400001928E-02 0.  1.
        1   -1    0    0  501    0  0.00000000000E+00  0.00000000000E+00 -0.47529884860E+03  0.47529884863E+03  0.50400001928E-02 0. -1.
    10030    2    1    2    0    0  0.00000000000E+00  0.00000000000E+00  0.12265504116E+04  0.21771481088E+04  0.17987629015E+04 0.  0.
        3    1    3    3  502    0 -0.60233670892E+02  0.31855452666E+03  0.16286657157E+04  0.16606194944E+04  0.10100000352E+00 0.  1.
       -3    1    3    3    0  502  0.60233670892E+02 -0.31855452666E+03 -0.40211530408E+03  0.51652861444E+03  0.10100000352E+00 0. -1.
</event>
<event>
 5   0  0.4535100E-05  0.1791927E+04  0.7818609E-02  0.8710604E-01
        1   -1    0    0  501    0  0.00000000000E+00  0.00000000000E+00  0.11105677927E+04  0.11105677927E+04  0.50400001928E-02 0. -1.
       -1   -1    0    0    0  501  0.00000000000E+00  0.00000000000E+00 -0.72282919390E+03  0.72282919391E+03  0.50400001928E-02 0.  1.
    10030    2    1    2    0    0  0.00000000000E+00  0.00000000000E+00  0.38773859876E+03  0.18333969866E+04  0.17919272556E+04 0.  0.
        1    1    3    3  502    0 -0.77588411779E+03  0.20176338211E+03  0.60318538829E+03  0.10032632951E+04  0.50400001928E-02 0. -1.
       -1    1    3    3    0  502  0.77588411779E+03 -0.20176338211E+03 -0.21544678953E+03  0.83013369149E+03  0.50400001928E-02 0.  1.
</event>
<event>
 5   0  0.8892280E-05  0.1798129E+04  0.7818609E-02  0.8707295E-01
       -2   -1    0    0    0  501  0.00000000000E+00  0.00000000000E+00  0.70082506254E+03  0.70082506255E+03  0.25500000920E-02 0. -1.
        2   -1    0    0  501    0  0.00000000000E+00  0.00000000000E+00 -0.11533792657E+04  0.11533792657E+04  0.25500000920E-02 0.  1.
    10030    2    1    2    0    0  0.00000000000E+00  0.00000000000E+00 -0.45255420313E+03  0.18542043282E+04  0.17981291344E+04 0.  0.
        4    1    3    3  502    0 -0.56814879410E+03  0.17175655900E+03  0.47007624180E+03  0.75714374712E+03  0.12699999809E+01 0.  1.
       -4    1    3    3    0  502  0.56814879410E+03 -0.17175655900E+03 -0.92263044493E+03  0.10970605811E+04  0.12699999809E+01 0. -1.
</event>
<event>
 5   0  0.8802655E-05  0.1800434E+04  0.7818609E-02  0.8706069E-01
        2   -1    0    0  501    0  0.00000000000E+00  0.00000000000E+00  0.95690052415E+03  0.95690052415E+03  0.25500000920E-02 0.  1.
       -2   -1    0    0    0  501  0.00000000000E+00  0.00000000000E+00 -0.84689131110E+03  0.84689131110E+03  0.25500000920E-02 0. -1.
    10030    2    1    2    0    0  0.00000000000E+00  0.00000000000E+00  0.11000921306E+03  0.18037918353E+04  0.18004341026E+04 0.  0.
        2    1    3    3  502    0 -0.39888048128E+03  0.27883083422E+03 -0.70373099383E+03  0.85562233734E+03  0.25500000920E-02 0. -1.
       -2    1    3    3    0  502  0.39888048128E+03 -0.27883083422E+03  0.81374020689E+03  0.94816949792E+03  0.25500000920E-02 0.  1.
</event>
<event>
 5   0  0.8802655E-05  0.1807677E+04  0.7818609E-02  0.8702228E-01
        2   -1    0    0  501    0  0.00000000000E+00  0.00000000000E+00  0.13398902479E+04  0.13398902479E+04  0.25500000920E-02 0. -1.
       -2   -1    0    0    0  501  0.00000000000E+00  0.00000000000E+00 -0.60969460401E+03  0.60969460401E+03  0.25500000920E-02 0.  1.
    10030    2    1    2    0    0  0.00000000000E+00  0.00000000000E+00  0.73019564391E+03  0.19495848519E+04  0.18076768009E+04 0.  0.
        2    1    3    3  502    0 -0.17062933689E+03  0.63426790666E+02 -0.58971942228E+03  0.61717608946E+03  0.25500000920E-02 0.  1.
       -2    1    3    3    0  502  0.17062933689E+03 -0.63426790666E+02  0.13199150662E+04  0.13324087625E+04  0.25500000920E-02 0. -1.
</event>
<event>
 5   0  0.8893075E-05  0.1801311E+04  0.7818609E-02  0.8705603E-01
        2   -1    0    0  501    0  0.00000000000E+00  0.00000000000E+00  0.13487977881E+04  0.13487977881E+04  0.25500000920E-02 0. -1.
       -2   -1    0    0    0  501  0.00000000000E+00  0.00000000000E+00 -0.60140973088E+03  0.60140973088E+03  0.25500000920E-02 0.  1.
    10030    2    1    2    0    0  0.00000000000E+00  0.00000000000E+00  0.74738805723E+03  0.19502075190E+04  0.18013107614E+04 0.  0.
        1    1    3    3  502    0  0.46559280758E+02 -0.20858531238E+03 -0.57355912839E+03  0.61208306050E+03  0.50400001928E-02 0.  1.
       -1    1    3    3    0  502 -0.46559280758E+02  0.20858531238E+03  0.13209471856E+04  0.13381244585E+04  0.50400001928E-02 0. -1.
</event>
<event>
 5   0  0.9184414E-05  0.1806316E+04  0.7818609E-02  0.8702948E-01
        2   -1    0    0  501    0  0.00000000000E+00  0.00000000000E+00  0.93571082083E+03  0.93571082083E+03  0.25500000920E-02 0.  1.
       -2   -1    0    0    0  501  0.00000000000E+00  0.00000000000E+00 -0.87173738336E+03  0.87173738337E+03  0.25500000920E-02 0. -1.
    10030    2    1    2    0    0  0.00000000000E+00  0.00000000000E+00  0.63973437467E+02  0.18074482042E+04  0.18063157006E+04 0.  0.
        5    1    3    3  502    0 -0.89221454414E+03 -0.13545966314E+03 -0.37554109496E+01  0.90245903298E+03  0.46999998093E+01 0. -1.
       -5    1    3    3    0  502  0.89221454414E+03  0.13545966314E+03  0.67728848417E+02  0.90498917121E+03  0.46999998093E+01 0.  1.
</event>
<event>
 5   0  0.4578107E-05  0.1799431E+04  0.7818609E-02  0.8706602E-01
       -1   -1    0    0    0  501  0.00000000000E+00  0.00000000000E+00  0.77191990464E+03  0.77191990466E+03  0.50400001928E-02 0. -1.
        1   -1    0    0  501    0  0.00000000000E+00  0.00000000000E+00 -0.10486683743E+04  0.10486683743E+04  0.50400001928E-02 0.  1.
    10030    2    1    2    0    0  0.00000000000E+00  0.00000000000E+00 -0.27674846966E+03  0.18205882790E+04  0.17994310118E+04 0.  0.
        2    1    3    3  502    0 -0.73048959584E+03  0.47366055308E+03  0.91271647153E+02  0.87538556234E+03  0.25500000920E-02 0. -1.
       -2    1    3    3    0  502  0.73048959584E+03 -0.47366055308E+03 -0.36802011682E+03  0.94520271664E+03  0.25500000920E-02 0.  1.
</event>
<event>
 5   0  0.4335117E-05  0.1798368E+04  0.7818609E-02  0.8707168E-01
       -1   -1    0    0    0  501  0.00000000000E+00  0.00000000000E+00  0.55168689969E+03  0.55168689971E+03  0.50400001928E-02 0. -1.
        1   -1    0    0  501    0  0.00000000000E+00  0.00000000000E+00 -0.14655624323E+04  0.14655624323E+04  0.50400001928E-02 0.  1.
    10030    2    1    2    0    0  0.00000000000E+00  0.00000000000E+00 -0.91387553261E+03  0.20172493320E+04  0.17983676983E+04 0.  0.
        3    1    3    3  502    0  0.24061689763E+03  0.81845771880E+03 -0.13816238864E+03  0.86420968794E+03  0.10100000352E+00 0. -1.
       -3    1    3    3    0  502 -0.24061689763E+03 -0.81845771880E+03 -0.77571314397E+03  0.11530396441E+04  0.10100000352E+00 0.  1.
</event>
<event>
 5   0  0.4535100E-05  0.1800487E+04  0.7818609E-02  0.8706041E-01
        1   -1    0    0  501    0  0.00000000000E+00  0.00000000000E+00  0.10021612063E+04  0.10021612064E+04  0.50400001928E-02 0. -1.
       -1   -1    0    0    0  501  0.00000000000E+00  0.00000000000E+00 -0.80869059153E+03  0.80869059155E+03  0.50400001928E-02 0.  1.
    10030    2    1    2    0    0  0.00000000000E+00  0.00000000000E+00  0.19347061481E+03  0.18108517979E+04  0.18004869772E+04 0.  0.
        1    1    3    3  502    0  0.68647334530E+03  0.41442139506E+03 -0.31482395266E+03  0.86145508744E+03  0.50400001928E-02 0.  1.
       -1    1    3    3    0  502 -0.68647334530E+03 -0.41442139506E+03  0.50829456747E+03  0.94939671046E+03  0.50400001928E-02 0. -1.
</event>
<event>
 5   0  0.4578107E-05  0.1799075E+04  0.7818609E-02  0.8706791E-01
        1   -1    0    0  501    0  0.00000000000E+00  0.00000000000E+00  0.15227115799E+04  0.15227115799E+04  0.50400001928E-02 0.  1.
       -1   -1    0    0    0  501  0.00000000000E+00  0.00000000000E+00 -0.53139929579E+03  0.53139929581E+03  0.50400001928E-02 0. -1.
    10030    2    1    2    0    0  0.00000000000E+00  0.00000000000E+00  0.99131228407E+03  0.20541108757E+04  0.17990751638E+04 0.  0.
        2    1    3    3  502    0  0.43071934002E+03 -0.33740700617E+03  0.13108796871E+04  0.14204816759E+04  0.25500000920E-02 0.  1.
       -2    1    3    3    0  502 -0.43071934002E+03  0.33740700617E+03 -0.31956740301E+03  0.63362919973E+03  0.25500000920E-02 0. -1.
</event>
<event>
 5   0  0.9147432E-05  0.1798295E+04  0.7818609E-02  0.8707206E-01
       -2   -1    0    0    0  501  0.00000000000E+00  0.00000000000E+00  0.79538544632E+03  0.79538544632E+03  0.25500000920E-02 0.  1.
        2   -1    0    0  501    0  0.00000000000E+00  0.00000000000E+00 -0.10164463670E+04  0.10164463670E+04  0.25500000920E-02 0. -1.
    10030    2    1    2    0    0  0.00000000000E+00  0.00000000000E+00 -0.22106092072E+03  0.18118318134E+04  0.17982954677E+04 0.  0.
        3    1    3    3  502    0  0.82988056630E+03  0.33154203870E+03 -0.21049808752E+03  0.91811291942E+03  0.10100000352E+00 0. -1.
       -3    1    3    3    0  502 -0.82988056630E+03 -0.33154203870E+03 -0.10562833206E+02  0.89371889395E+03  0.10100000352E+00 0.  1.
</event>
<event>
 5   0  0.4578107E-05  0.1776835E+04  0.7818609E-02  0.8718716E-01
        1   -1    0    0  501    0  0.00000000000E+00  0.00000000000E+00  0.68369074145E+03  0.68369074147E+03  0.50400001928E-02 0.  1.
       -1   -1    0    0    0  501  0.00000000000E+00  0.00000000000E+00 -0.11544487424E+04  0.11544487424E+04  0.50400001928E-02 0. -1.
    10030    2    1    2    0    0  0.00000000000E+00  0.00000000000E+00 -0.47075800094E+03  0.18381394839E+04  0.17768352953E+04 0.  0.
        2    1    3    3  502    0  0.34847925293E+03 -0.16792345579E+03  0.59199608547E+03  0.70717426561E+03  0.25500000920E-02 0.  1.
       -2    1    3    3    0  502 -0.34847925293E+03  0.16792345579E+03 -0.10627540864E+04  0.11309652183E+04  0.25500000920E-02 0. -1.
</event>
<event>
 5   0  0.9184414E-05  0.1795000E+04  0.7818609E-02  0.8708963E-01
       -2   -1    0    0    0  501  0.00000000000E+00  0.00000000000E+00  0.10173368560E+04  0.10173368560E+04  0.25500000920E-02 0. -1.
        2   -1    0    0  501    0  0.00000000000E+00  0.00000000000E+00 -0.79177920695E+03  0.79177920695E+03  0.25500000920E-02 0.  1.
    10030    2    1    2    0    0  0.00000000000E+00  0.00000000000E+00  0.22555764906E+03  0.18091160630E+04  0.17949999098E+04 0.  0.
        5    1    3    3  502    0 -0.84470578502E+03 -0.35242597490E+02  0.41633535233E+03  0.94240496578E+03  0.46999998093E+01 0. -1.
       -5    1    3    3    0  502  0.84470578502E+03  0.35242597490E+02 -0.19077770327E+03  0.86671109719E+03  0.46999998093E+01 0.  1.
</event>
<event>
 5   0  0.8892280E-05  0.1801234E+04  0.7818609E-02  0.8705644E-01
       -2   -1    0    0    0  501  0.00000000000E+00  0.00000000000E+00  0.64401284754E+03  0.64401284754E+03  0.25500000920E-02 0. -1.
        2   -1    0    0  501    0  0.00000000000E+00  0.00000000000E+00 -0.12594639757E+04  0.12594639757E+04  0.25500000920E-02 0.  1.
    10030    2    1    2    0    0  0.00000000000E+00  0.00000000000E+00 -0.61545112818E+03  0.19034768233E+04  0.18012340008E+04 0.  0.
        4    1    3    3  502    0  0.75065286224E+03 -0.11897457416E+03 -0.81834503301E+03  0.11168369956E+04  0.12699999809E+01 0.  1.
       -4    1    3    3    0  502 -0.75065286224E+03  0.11897457416E+03  0.20289390483E+03  0.78663982762E+03  0.12699999809E+01 0. -1.
</event>
<event>
 5   0  0.4623665E-05  0.1776206E+04  0.7818609E-02  0.8719056E-01
        1   -1    0    0  501    0  0.00000000000E+00  0.00000000000E+00  0.73373487917E+03  0.73373487919E+03  0.50400001928E-02 0.  1.
       -1   -1    0    0    0  501  0.00000000000E+00  0.00000000000E+00 -0.10749481872E+04  0.10749481873E+04  0.50400001928E-02 0. -1.
    10030    2    1    2    0    0  0.00000000000E+00  0.00000000000E+00 -0.34121330807E+03  0.18086830664E+04  0.17762060447E+04 0.  0.
        5    1    3    3  502    0  0.63386437572E+03 -0.58470246008E+03  0.45509385219E+02  0.86357061539E+03  0.46999998093E+01 0.  1.
       -5    1    3    3    0  502 -0.63386437572E+03  0.58470246008E+03 -0.38672269329E+03  0.94511245105E+03  0.46999998093E+01 0. -1.
</event>
<event>
 5   0  0.4335117E-05  0.1792030E+04  0.7818609E-02  0.8710549E-01
       -1   -1    0    0    0  501  0.00000000000E+00  0.00000000000E+00  0.71845437038E+03  0.71845437040E+03  0.50400001928E-02 0.  1.
        1   -1    0    0  501    0  0.00000000000E+00  0.00000000000E+00 -0.11174587015E+04  0.11174587015E+04  0.50400001928E-02 0. -1.
    10030    2    1    2    0    0  0.00000000000E+00  0.00000000000E+00 -0.39900433114E+03  0.18359130719E+04  0.17920302317E+04 0.  0.
        3    1    3    3  502    0 -0.13286253311E+03 -0.51325505481E+03  0.54051555622E+03  0.75712633075E+03  0.10100000352E+00 0.  1.
       -3    1    3    3    0  502  0.13286253311E+03  0.51325505481E+03 -0.93951988737E+03  0.10787867412E+04  0.10100000352E+00 0. -1.
</event>
<event>
 5   0  0.4494757E-05  0.1776796E+04  0.7818609E-02  0.8718737E-01
       -1   -1    0    0    0  501  0.00000000000E+00  0.00000000000E+00  0.83276046111E+03  0.83276046113E+03  0.50400001928E-02 0. -1.
        1   -1    0    0  501    0  0.00000000000E+00  0.00000000000E+00 -0.94775278971E+03  0.94775278972E+03  0.50400001928E-02 0.  1.
    10030    2    1    2    0    0  0.00000000000E+00  0.00000000000E+00 -0.11499232860E+03  0.17805132509E+04  0.17767960493E+04 0.  0.
        4    1    3    3  502    0 -0.43207539221E+03 -0.55371571887E+03 -0.60265561997E+03  0.92546509986E+03  0.12699999809E+01 0.  1.
       -4    1    3    3    0  502  0.43207539221E+03  0.55371571887E+03  0.48766329137E+03  0.85504815100E+03  0.12699999809E+01 0. -1.
</event>
<event>
 5   0  0.4623665E-05  0.1798917E+04  0.7818609E-02  0.8706876E-01
        1   -1    0    0  501    0  0.00000000000E+00  0.00000000000E+00  0.69694675224E+03  0.69694675226E+03  0.50400001928E-02 0.  1.
       -1   -1    0    0    0  501  0.00000000000E+00  0.00000000000E+00 -0.11608140441E+04  0.11608140442E+04  0.50400001928E-02 0. -1.
    10030    2    1    2    0    0  0.00000000000E+00  0.00000000000E+00 -0.46386729190E+03  0.18577607964E+04  0.17989169831E+04 0.  0.
        5    1    3    3  502    0 -0.71873376841E+03 -0.32978143594E+03 -0.67451911369E+03  0.10393902780E+04  0.46999998093E+01 0. -1.
       -5    1    3    3    0  502  0.71873376841E+03  0.32978143594E+03  0.21065182179E+03  0.81837051838E+03  0.46999998093E+01 0.  1.
</event>
<event>
 5   0  0.8802655E-05  0.1770959E+04  0.7818609E-02  0.8721897E-01
       -2   -1    0    0    0  501  0.00000000000E+00  0.00000000000E+00  0.16765074953E+04  0.16765074953E+04  0.25500000920E-02 0. -1.
        2   -1    0    0  501    0  0.00000000000E+00  0.00000000000E+00 -0.46768316230E+03  0.46768316230E+03  0.25500000920E-02 0.  1.
    10030    2    1    2    0    0  0.00000000000E+00  0.00000000000E+00  0.12088243330E+04  0.21441906576E+04  0.17709594315E+04 0.  0.
        2    1    3    3  502    0 -0.45047641622E+01 -0.51577733257E+03 -0.26701543314E+03  0.58081304327E+03  0.25500000920E-02 0.  1.
       -2    1    3    3    0  502  0.45047641622E+01  0.51577733257E+03  0.14758397661E+04  0.15633776143E+04  0.25500000920E-02 0. -1.
</event>
<event>
 5   0  0.4578107E-05  0.1800252E+04  0.7818609E-02  0.8706165E-01
       -1   -1    0    0    0  501  0.00000000000E+00  0.00000000000E+00  0.53441561178E+03  0.53441561180E+03  0.50400001928E-02 0. -1.
        1   -1    0    0  501    0  0.00000000000E+00  0.00000000000E+00 -0.15160995050E+04  0.15160995050E+04  0.50400001928E-02 0.  1.
    10030    2    1    2    0    0  0.00000000000E+00  0.00000000000E+00 -0.98168389321E+03  0.20505151168E+04  0.18002524762E+04 0.  0.
        2    1    3    3  502    0  0.49325642645E+03  0.44865495303E+03  0.19789422144E+03  0.69552519149E+03  0.25500000920E-02 0. -1.
       -2    1    3    3    0  502 -0.49325642645E+03 -0.44865495303E+03 -0.11795781147E+04  0.13549899253E+04  0.25500000920E-02 0.  1.
</event>
<event>
 5   0  0.9184414E-05  0.1798170E+04  0.7818609E-02  0.8707273E-01
       -2   -1    0    0    0  501  0.00000000000E+00  0.00000000000E+00  0.84379705375E+03  0.84379705375E+03  0.25500000920E-02 0.  1.
        2   -1    0    0  501    0  0.00000000000E+00  0.00000000000E+00 -0.95799588750E+03  0.95799588751E+03  0.25500000920E-02 0. -1.
    10030    2    1    2    0    0  0.00000000000E+00  0.00000000000E+00 -0.11419883376E+03  0.18017929413E+04  0.17981703005E+04 0.  0.
        5    1    3    3  502    0 -0.33760231951E+03 -0.72639979181E+03 -0.46621112138E+03  0.92682624228E+03  0.46999998093E+01 0.  1.
       -5    1    3    3    0  502  0.33760231951E+03  0.72639979181E+03  0.35201228762E+03  0.87496669898E+03  0.46999998093E+01 0. -1.
</event>
<event>
 5   0  0.4535100E-05  0.1791088E+04  0.7818609E-02  0.8711053E-01
       -1   -1    0    0    0  501  0.00000000000E+00  0.00000000000E+00  0.18365244376E+04  0.18365244376E+04  0.50400001928E-02 0.  1.
        1   -1    0    0  501    0  0.00000000000E+00  0.00000000000E+00 -0.43669374853E+03  0.43669374856E+03  0.50400001928E-02 0. -1.
    10030    2    1    2    0    0  0.00000000000E+00  0.00000000000E+00  0.13998306891E+04  0.22732181862E+04  0.17910876483E+04 0.  0.
        1    1    3    3  502    0 -0.85114363855E+02 -0.76322530384E+03  0.12846237753E+04  0.14966681541E+04  0.50400001928E-02 0.  1.
       -1    1    3    3    0  502  0.85114363855E+02  0.76322530384E+03  0.11520691380E+03  0.77655003211E+03  0.50400001928E-02 0. -1.
</event>
<event>
 5   0  0.9147432E-05  0.1803654E+04  0.7818609E-02  0.8704359E-01
       -2   -1    0    0    0  501  0.00000000000E+00  0.00000000000E+00  0.12111779619E+04  0.12111779619E+04  0.25500000920E-02 0.  1.
        2   -1    0    0  501    0  0.00000000000E+00  0.00000000000E+00 -0.67148803515E+03  0.67148803515E+03  0.25500000920E-02 0. -1.
    10030    2    1    2    0    0  0.00000000000E+00  0.00000000000E+00  0.53968992675E+03  0.18826659971E+04  0.18036535253E+04 0.  0.
        3    1    3    3  502    0  0.73481297649E+03  0.46022879940E+03  0.52876555514E+03  0.10155558482E+04  0.10100000352E+00 0.  1.
       -3    1    3    3    0  502 -0.73481297649E+03 -0.46022879940E+03  0.10924371608E+02  0.86711014889E+03  0.10100000352E+00 0. -1.
</event>
<event>
 5   0  0.9184414E-05  0.1806966E+04  0.7818609E-02  0.8702604E-01
        2   -1    0    0  501    0  0.00000000000E+00  0.00000000000E+00  0.16420093060E+04  0.16420093060E+04  0.25500000920E-02 0.  1.
       -2   -1    0    0    0  501  0.00000000000E+00  0.00000000000E+00 -0.49712364679E+03  0.49712364680E+03  0.25500000920E-02 0. -1.
    10030    2    1    2    0    0  0.00000000000E+00  0.00000000000E+00  0.11448856592E+04  0.21391329528E+04  0.18069661361E+04 0.  0.
        5    1    3    3  502    0 -0.18239648547E+03  0.85334349928E+03  0.84955910222E+03  0.12178819170E+04  0.46999998093E+01 0. -1.
       -5    1    3    3    0  502  0.18239648547E+03 -0.85334349928E+03  0.29532655702E+03  0.92125103580E+03  0.46999998093E+01 0.  1.
</event>
<event>
 5   0  0.9184414E-05  0.1756268E+04  0.7818609E-02  0.8729908E-01
        2   -1    0    0  501    0  0.00000000000E+00  0.00000000000E+00  0.15558427541E+04  0.15558427541E+04  0.25500000920E-02 0. -1.
       -2   -1    0    0    0  501  0.00000000000E+00  0.00000000000E+00 -0.49562793832E+03  0.49562793833E+03  0.25500000920E-02 0.  1.
    10030    2    1    2    0    0  0.00000000000E+00  0.00000000000E+00  0.10602148158E+04  0.20514706924E+04  0.17562677889E+04 0.  0.
        5    1    3    3  502    0 -0.28997549984E+03 -0.42638529760E+03 -0.30014317500E+03  0.59665587068E+03  0.46999998093E+01 0.  1.
       -5    1    3    3    0  502  0.28997549984E+03  0.42638529760E+03  0.13603579908E+04  0.14548148218E+04  0.46999998093E+01 0. -1.
</event>
<event>
 5   0  0.9147432E-05  0.1811437E+04  0.7818609E-02  0.8700241E-01
        2   -1    0    0  501    0  0.00000000000E+00  0.00000000000E+00  0.12396452342E+04  0.12396452342E+04  0.25500000920E-02 0.  1.
       -2   -1    0    0    0  501  0.00000000000E+00  0.00000000000E+00 -0.66174222219E+03  0.66174222219E+03  0.25500000920E-02 0. -1.
    10030    2    1    2    0    0  0.00000000000E+00  0.00000000000E+00  0.57790301200E+03  0.19013874564E+04  0.18114365482E+04 0.  0.
        3    1    3    3  502    0  0.39162546267E+03 -0.79449941794E+03  0.48734992101E+03  0.10109944529E+04  0.10100000352E+00 0.  1.
       -3    1    3    3    0  502 -0.39162546267E+03  0.79449941794E+03  0.90553090985E+02  0.89039300346E+03  0.10100000352E+00 0. -1.
</event>
<event>
 5   0  0.4535100E-05  0.1801444E+04  0.7818609E-02  0.8705532E-01
        1   -1    0    0  501    0  0.00000000000E+00  0.00000000000E+00  0.12024509903E+04  0.12024509903E+04  0.50400001928E-02 0.  1.
       -1   -1    0    0    0  501  0.00000000000E+00  0.00000000000E+00 -0.67470558787E+03  0.67470558789E+03  0.50400001928E-02 0. -1.
    10030    2    1    2    0    0  0.00000000000E+00  0.00000000000E+00  0.52774540239E+03  0.18771565782E+04  0.18014443120E+04 0.  0.
        1    1    3    3  502    0  0.44362782744E+03 -0.34194746597E+03  0.99890310693E+03  0.11452253646E+04  0.50400001928E-02 0.  1.
       -1    1    3    3    0  502 -0.44362782744E+03  0.34194746597E+03 -0.47115770453E+03  0.73193121352E+03  0.50400001928E-02 0. -1.
</event>
<event>
 5   0  0.4494757E-05  0.1806872E+04  0.7818609E-02  0.8702653E-01
       -1   -1    0    0    0  501  0.00000000000E+00  0.00000000000E+00  0.52564813775E+03  0.52564813778E+03  0.50400001928E-02 0.  1.
        1   -1    0    0  501    0  0.00000000000E+00  0.00000000000E+00 -0.15527440286E+04  0.15527440286E+04  0.50400001928E-02 0. -1.
    10030    2    1    2    0    0  0.00000000000E+00  0.00000000000E+00 -0.10270958909E+04  0.20783921664E+04  0.18068724439E+04 0.  0.
        4    1    3    3  502    0 -0.26467497480E+03  0.85762649670E+03 -0.63208355797E+03  0.10977737869E+04  0.12699999809E+01 0. -1.
       -4    1    3    3    0  502  0.26467497480E+03 -0.85762649670E+03 -0.39501233292E+03  0.98061837949E+03  0.12699999809E+01 0.  1.
</event>
<event>
 5   0  0.4623665E-05  0.1808604E+04  0.7818609E-02  0.8701737E-01
        1   -1    0    0  501    0  0.00000000000E+00  0.00000000000E+00  0.24987399737E+04  0.24987399737E+04  0.50400001928E-02 0. -1.
       -1   -1    0    0    0  501  0.00000000000E+00  0.00000000000E+00 -0.32726966058E+03  0.32726966062E+03  0.50400001928E-02 0.  1.
    10030    2    1    2    0    0  0.00000000000E+00  0.00000000000E+00  0.21714703131E+04  0.28260096343E+04  0.18086036416E+04 0.  0.
        5    1    3    3  502    0 -0.10337417344E+03  0.54803198678E+03 -0.26539051501E+02  0.55834728397E+03  0.46999998093E+01 0.  1.
       -5    1    3    3    0  502  0.10337417344E+03 -0.54803198678E+03  0.21980093646E+04  0.22676623504E+04  0.46999998093E+01 0. -1.
</event>
<event>
 5   0  0.8802655E-05  0.1803552E+04  0.7818609E-02  0.8704413E-01
       -2   -1    0    0    0  501  0.00000000000E+00  0.00000000000E+00  0.84281679610E+03  0.84281679610E+03  0.25500000920E-02 0.  1.
        2   -1    0    0  501    0  0.00000000000E+00  0.00000000000E+00 -0.96485922135E+03  0.96485922135E+03  0.25500000920E-02 0. -1.
    10030    2    1    2    0    0  0.00000000000E+00  0.00000000000E+00 -0.12204242525E+03  0.18076760175E+04  0.18035515603E+04 0.  0.
        2    1    3    3  502    0  0.76030747393E+03  0.35610277562E+03  0.26885591534E+03  0.88156686924E+03  0.25500000920E-02 0.  1.
       -2    1    3    3    0  502 -0.76030747393E+03 -0.35610277562E+03 -0.39089834059E+03  0.92610914821E+03  0.25500000920E-02 0. -1.
</event>
<event>
 5   0  0.4335117E-05  0.1790646E+04  0.7818609E-02  0.8711289E-01
        1   -1    0    0  501    0  0.00000000000E+00  0.00000000000E+00  0.14928330019E+04  0.14928330019E+04  0.50400001928E-02 0. -1.
       -1   -1    0    0    0  501  0.00000000000E+00  0.00000000000E+00 -0.53696804783E+03  0.53696804786E+03  0.50400001928E-02 0.  1.
    10030    2    1    2    0    0  0.00000000000E+00  0.00000000000E+00  0.95586495407E+03  0.20298010498E+04  0.17906463892E+04 0.  0.
        3    1    3    3  502    0 -0.85841714248E+03  0.22353949661E+03  0.34024503089E+03  0.95006136028E+03  0.10100000352E+00 0.  1.
       -3    1    3    3    0  502  0.85841714248E+03 -0.22353949661E+03  0.61561992318E+03  0.10797396895E+04  0.10100000352E+00 0. -1.
</event>
<event>
 5   0  0.4494757E-05  0.1800640E+04  0.7818609E-02  0.8705959E-01
       -1   -1    0    0    0  501  0.00000000000E+00  0.00000000000E+00  0.79571078602E+03  0.79571078603E+03  0.50400001928E-02 0. -1.
        1   -1    0    0  501    0  0.00000000000E+00  0.00000000000E+00 -0.10186821625E+04  0.10186821625E+04  0.50400001928E-02 0.  1.
    10030    2    1    2    0    0  0.00000000000E+00  0.00000000000E+00 -0.22297137645E+03  0.18143929485E+04  0.18006403130E+04 0.  0.
        4    1    3    3  502    0  0.10431491669E+03  0.65356431070E+03 -0.72651361274E+03  0.98277746844E+03  0.12699999809E+01 0. -1.
       -4    1    3    3    0  502 -0.10431491669E+03 -0.65356431070E+03  0.50354223630E+03  0.83161548007E+03  0.12699999809E+01 0.  1.
</event>
<event>
 5   0  0.8892280E-05  0.1855856E+04  0.7818609E-02  0.8677147E-01
       -2   -1    0    0    0  501  0.00000000000E+00  0.00000000000E+00  0.64507142689E+03  0.64507142690E+03  0.25500000920E-02 0. -1.
        2   -1    0    0  501    0  0.00000000000E+00  0.00000000000E+00 -0.13348144022E+04  0.13348144022E+04  0.25500000920E-02 0.  1.
    10030    2    1    2    0    0  0.00000000000E+00  0.00000000000E+00 -0.68974297534E+03  0.19798858291E+04  0.18558562779E+04 0.  0.
        4    1    3    3  502    0 -0.34051490951E+03  0.69461117550E+03 -0.89157855224E+03  0.11804020571E+04  0.12699999809E+01 0.  1.
       -4    1    3    3    0  502  0.34051490951E+03 -0.69461117550E+03  0.20183557689E+03  0.79948377202E+03  0.12699999809E+01 0. -1.
</event>
<event>
 5   0  0.4494757E-05  0.1850488E+04  0.7818609E-02  0.8679902E-01
       -1   -1    0    0    0  501  0.00000000000E+00  0.00000000000E+00  0.15809124816E+04  0.15809124816E+04  0.50400001928E-02 0.  1.
        1   -1    0    0  501    0  0.00000000000E+00  0.00000000000E+00 -0.54150787426E+03  0.54150787429E+03  0.50400001928E-02 0. -1.
    10030    2    1    2    0    0  0.00000000000E+00  0.00000000000E+00  0.10394046074E+04  0.21224203559E+04  0.18504881057E+04 0.  0.
        4    1    3    3  502    0 -0.18184104063E+03  0.26206385213E+02  0.15597806637E+04  0.15705636792E+04  0.12699999809E+01 0.  1.
       -4    1    3    3    0  502  0.18184104063E+03 -0.26206385213E+02 -0.52037605636E+03  0.55185667670E+03  0.12699999809E+01 0. -1.
</event>
<event>
 5   0  0.4494757E-05  0.1807911E+04  0.7818609E-02  0.8702104E-01
        1   -1    0    0  501    0  0.00000000000E+00  0.00000000000E+00  0.18181688549E+04  0.18181688549E+04  0.50400001928E-02 0. -1.
       -1   -1    0    0    0  501  0.00000000000E+00  0.00000000000E+00 -0.44942777626E+03  0.44942777629E+03  0.50400001928E-02 0.  1.
    10030    2    1    2    0    0  0.00000000000E+00  0.00000000000E+00  0.13687410786E+04  0.22675966312E+04  0.18079110436E+04 0.  0.
        4    1    3    3  502    0  0.75906077931E+03 -0.27489057227E+03  0.11944655642E+04  0.14416961158E+04  0.12699999809E+01 0. -1.
       -4    1    3    3    0  502 -0.75906077931E+03  0.27489057227E+03  0.17427551440E+03  0.82590051533E+03  0.12699999809E+01 0.  1.
</event>
<event>
 5   0  0.4535100E-05  0.1790917E+04  0.7818609E-02  0.8711145E-01
        1   -1    0    0  501    0  0.00000000000E+00  0.00000000000E+00  0.40356276947E+03  0.40356276950E+03  0.50400001928E-02 0. -1.
       -1   -1    0    0    0  501  0.00000000000E+00  0.00000000000E+00 -0.19869176419E+04  0.19869176419E+04  0.50400001928E-02 0.  1.
    10030    2    1    2    0    0  0.00000000000E+00  0.00000000000E+00 -0.15833548725E+04  0.23904804114E+04  0.17909170682E+04 0.  0.
        1    1    3    3  502    0  0.58799435113E+03 -0.65902211109E+03 -0.59460636217E+03  0.10647085168E+04  0.50400001928E-02 0. -1.
       -1    1    3    3    0  502 -0.58799435113E+03  0.65902211109E+03 -0.98874851029E+03  0.13257718946E+04  0.50400001928E-02 0.  1.
</event>
<event>
 5   0  0.8893075E-05  0.1792567E+04  0.7818609E-02  0.8710262E-01
        2   -1    0    0  501    0  0.00000000000E+00  0.00000000000E+00  0.21454741557E+04  0.21454741557E+04  0.25500000920E-02 0.  1.
       -2   -1    0    0    0  501  0.00000000000E+00  0.00000000000E+00 -0.37442721411E+03  0.37442721412E+03  0.25500000920E-02 0. -1.
    10030    2    1    2    0    0  0.00000000000E+00  0.00000000000E+00  0.17710469415E+04  0.25199013698E+04  0.17925667754E+04 0.  0.
        1    1    3    3  502    0 -0.27208322911E+03 -0.76168688540E+02 -0.31018513295E+03  0.41957808499E+03  0.50400001928E-02 0. -1.
       -1    1    3    3    0  502  0.27208322911E+03  0.76168688540E+02  0.20812320745E+04  0.21003232848E+04  0.50400001928E-02 0.  1.
</event>
<event>
 5   0  0.4335117E-05  0.1820986E+04  0.7818609E-02  0.8695218E-01
       -1   -1    0    0    0  501  0.00000000000E+00  0.00000000000E+00  0.13502640207E+04  0.13502640207E+04  0.50400001928E-02 0.  1.
        1   -1    0    0  501    0  0.00000000000E+00  0.00000000000E+00 -0.61395231253E+03  0.61395231255E+03  0.50400001928E-02 0. -1.
    10030    2    1    2    0    0  0.00000000000E+00  0.00000000000E+00  0.73631170813E+03  0.19642163332E+04  0.18209862361E+04 0.  0.
        3    1    3    3  502    0 -0.71183676084E+03 -0.56042563121E+03  0.46588729010E+03  0.10187440500E+04  0.10100000352E+00 0. -1.
       -3    1    3    3    0  502  0.71183676084E+03  0.56042563121E+03  0.27042441803E+03  0.94547228319E+03  0.10100000352E+00 0.  1.
</event>
<event>
 5   0  0.8802655E-05  0.1808112E+04  0.7818609E-02  0.8701997E-01
       -2   -1    0    0    0  501  0.00000000000E+00  0.00000000000E+00  0.60713197501E+03  0.60713197502E+03  0.25500000920E-02 0. -1.
        2   -1    0    0  501    0  0.00000000000E+00  0.00000000000E+00 -0.13461936765E+04  0.13461936765E+04  0.25500000920E-02 0.  1.
    10030    2    1    2    0    0  0.00000000000E+00  0.00000000000E+00 -0.73906170147E+03  0.19533256515E+04  0.18081119717E+04 0.  0.
        2    1    3    3  502    0  0.32139807648E+03 -0.33449279988E+03 -0.12078247247E+04  0.12938403001E+04  0.25500000920E-02 0.  1.
       -2    1    3    3    0  502 -0.32139807648E+03  0.33449279988E+03  0.46876302320E+03  0.65948535136E+03  0.25500000920E-02 0. -1.
</event>
<event>
 5   0  0.9147432E-05  0.1818736E+04  0.7818609E-02  0.8696399E-01
       -2   -1    0    0    0  501  0.00000000000E+00  0.00000000000E+00  0.52590631450E+03  0.52590631451E+03  0.25500000920E-02 0.  1.
        2   -1    0    0  501    0  0.00000000000E+00  0.00000000000E+00 -0.15724283646E+04  0.15724283646E+04  0.25500000920E-02 0. -1.
    10030    2    1    2    0    0  0.00000000000E+00  0.00000000000E+00 -0.10465220501E+04  0.20983346791E+04  0.18187358313E+04 0.  0.
        3    1    3    3  502    0  0.13872411387E+03  0.45496342066E+03  0.37094785131E+03  0.60319019596E+03  0.10100000352E+00 0.  1.
       -3    1    3    3    0  502 -0.13872411387E+03 -0.45496342066E+03 -0.14174699014E+04  0.14951444831E+04  0.10100000352E+00 0. -1.
</event>
<event>
 5   0  0.3270375E-05  0.1793440E+04  0.7818609E-02  0.8709796E-01
       -3   -1    0    0    0  501  0.00000000000E+00  0.00000000000E+00  0.77989707611E+03  0.77989708265E+03  0.10100000352E+00 0. -1.
        3   -1    0    0  501    0  0.00000000000E+00  0.00000000000E+00 -0.10310420556E+04  0.10310420606E+04  0.10100000352E+00 0.  1.
    10030    2    1    2    0    0  0.00000000000E+00  0.00000000000E+00 -0.25114497952E+03  0.18109391432E+04  0.17934399292E+04 0.  0.
        3    1    3    3  502    0 -0.77359595005E+03  0.45014186170E+03 -0.70005595786E+02  0.89776343389E+03  0.10100000352E+00 0.  1.
       -3    1    3    3    0  502  0.77359595005E+03 -0.45014186170E+03 -0.18113938373E+03  0.91317570934E+03  0.10100000352E+00 0. -1.
</event>
<event>
 5   0  0.4623665E-05  0.1798997E+04  0.7818609E-02  0.8706833E-01
        1   -1    0    0  501    0  0.00000000000E+00  0.00000000000E+00  0.84317669376E+03  0.84317669378E+03  0.50400001928E-02 0. -1.
       -1   -1    0    0    0  501  0.00000000000E+00  0.00000000000E+00 -0.95958281311E+03  0.95958281313E+03  0.50400001928E-02 0.  1.
    10030    2    1    2    0    0  0.00000000000E+00  0.00000000000E+00 -0.11640611935E+03  0.18027595069E+04  0.17989973472E+04 0.  0.
        5    1    3    3  502    0  0.57191901347E+03  0.12276364276E+03  0.62653660977E+03  0.85716537689E+03  0.46999998093E+01 0. -1.
       -5    1    3    3    0  502 -0.57191901347E+03 -0.12276364276E+03 -0.74294272913E+03  0.94559413001E+03  0.46999998093E+01 0.  1.
</event>
<event>
 5   0  0.8892280E-05  0.1786496E+04  0.7818609E-02  0.8713514E-01
       -2   -1    0    0    0  501  0.00000000000E+00  0.00000000000E+00  0.52001027302E+03  0.52001027303E+03  0.25500000920E-02 0.  1.
        2   -1    0    0  501    0  0.00000000000E+00  0.00000000000E+00 -0.15343779152E+04  0.15343779152E+04  0.25500000920E-02 0. -1.
    10030    2    1    2    0    0  0.00000000000E+00  0.00000000000E+00 -0.10143676422E+04  0.20543881883E+04  0.17864963237E+04 0.  0.
        4    1    3    3  502    0 -0.10012801448E+03  0.45909903563E+03  0.36639748451E+03  0.59585759487E+03  0.12699999809E+01 0.  1.
       -4    1    3    3    0  502  0.10012801448E+03 -0.45909903563E+03 -0.13807651267E+04  0.14585305934E+04  0.12699999809E+01 0. -1.
</event>
<event>
 5   0  0.8892280E-05  0.1803150E+04  0.7818609E-02  0.8704626E-01
        2   -1    0    0  501    0  0.00000000000E+00  0.00000000000E+00  0.15235226988E+04  0.15235226988E+04  0.25500000920E-02 0. -1.
       -2   -1    0    0    0  501  0.00000000000E+00  0.00000000000E+00 -0.53352472993E+03  0.53352472993E+03  0.25500000920E-02 0.  1.
    10030    2    1    2    0    0  0.00000000000E+00  0.00000000000E+00  0.98999796886E+03  0.20570474287E+04  0.18031495073E+04 0.  0.
        4    1    3    3  502    0 -0.79989925560E+03 -0.33693959958E+03  0.77319785873E+03  0.11624128589E+04  0.12699999809E+01 0. -1.
       -4    1    3    3    0  502  0.79989925560E+03  0.33693959958E+03  0.21680011014E+03  0.89463456983E+03  0.12699999809E+01 0.  1.
</event>
<event>
 5   0  0.8802655E-05  0.1810563E+04  0.7818609E-02  0.8700702E-01
       -2   -1    0    0    0  501  0.00000000000E+00  0.00000000000E+00  0.52935644377E+03  0.52935644377E+03  0.25500000920E-02 0.  1.
        2   -1    0    0  501    0  0.00000000000E+00  0.00000000000E+00 -0.15481714435E+04  0.15481714435E+04  0.25500000920E-02 0. -1.
    10030    2    1    2    0    0  0.00000000000E+00  0.00000000000E+00 -0.10188149997E+04  0.20775278873E+04  0.18105629287E+04 0.  0.
        2    1    3    3  502    0  0.43130691539E+03  0.79194273268E+03 -0.60074024595E+03  0.10835533167E+04  0.25500000920E-02 0. -1.
       -2    1    3    3    0  502 -0.43130691539E+03 -0.79194273268E+03 -0.41807475379E+03  0.99397457054E+03  0.25500000920E-02 0.  1.
</event>
<event>
 5   0  0.4623665E-05  0.1806763E+04  0.7818609E-02  0.8702711E-01
        1   -1    0    0  501    0  0.00000000000E+00  0.00000000000E+00  0.11732605902E+04  0.11732605903E+04  0.50400001928E-02 0. -1.
       -1   -1    0    0    0  501  0.00000000000E+00  0.00000000000E+00 -0.69558144637E+03  0.69558144639E+03  0.50400001928E-02 0.  1.
    10030    2    1    2    0    0  0.00000000000E+00  0.00000000000E+00  0.47767914388E+03  0.18688420366E+04  0.18067631813E+04 0.  0.
        5    1    3    3  502    0 -0.16769169185E+03 -0.63659693572E+03 -0.40104349818E+03  0.77086583756E+03  0.46999998093E+01 0.  1.
       -5    1    3    3    0  502  0.16769169185E+03  0.63659693572E+03  0.87872264206E+03  0.10979761991E+04  0.46999998093E+01 0. -1.
</event>
<event>
 5   0  0.9147432E-05  0.1797024E+04  0.7818609E-02  0.8707883E-01
       -2   -1    0    0    0  501  0.00000000000E+00  0.00000000000E+00  0.76563976003E+03  0.76563976003E+03  0.25500000920E-02 0. -1.
        2   -1    0    0  501    0  0.00000000000E+00  0.00000000000E+00 -0.10544440082E+04  0.10544440082E+04  0.25500000920E-02 0.  1.
    10030    2    1    2    0    0  0.00000000000E+00  0.00000000000E+00 -0.28880424816E+03  0.18200837682E+04  0.17970244933E+04 0.  0.
        3    1    3    3  502    0  0.87766875705E+03  0.16290854037E+03 -0.40703726841E+02  0.89358740099E+03  0.10100000352E+00 0. -1.
       -3    1    3    3    0  502 -0.87766875705E+03 -0.16290854037E+03 -0.24810052132E+03  0.92649636724E+03  0.10100000352E+00 0.  1.
</event>
<event>
 5   0  0.3270375E-05  0.1800203E+04  0.7818609E-02  0.8706191E-01
       -3   -1    0    0    0  501  0.00000000000E+00  0.00000000000E+00  0.55821110472E+03  0.55821111386E+03  0.10100000352E+00 0. -1.
        3   -1    0    0  501    0  0.00000000000E+00  0.00000000000E+00 -0.14513914372E+04  0.14513914407E+04  0.10100000352E+00 0.  1.
    10030    2    1    2    0    0  0.00000000000E+00  0.00000000000E+00 -0.89318033243E+03  0.20096025545E+04  0.18002031332E+04 0.  0.
        4    1    3    3  502    0  0.60498477134E+03  0.60845063811E+03 -0.75018498011E+03  0.11397358772E+04  0.12699999809E+01 0.  1.
       -4    1    3    3    0  502 -0.60498477134E+03 -0.60845063811E+03 -0.14299535232E+03  0.86986667729E+03  0.12699999809E+01 0. -1.
</event>
<event>
 5   0  0.4335117E-05  0.1836030E+04  0.7818609E-02  0.8687370E-01
       -1   -1    0    0    0  501  0.00000000000E+00  0.00000000000E+00  0.61118311916E+03  0.61118311918E+03  0.50400001928E-02 0. -1.
        1   -1    0    0  501    0  0.00000000000E+00  0.00000000000E+00 -0.13788855047E+04  0.13788855047E+04  0.50400001928E-02 0.  1.
    10030    2    1    2    0    0  0.00000000000E+00  0.00000000000E+00 -0.76770238551E+03  0.19900686239E+04  0.18360300038E+04 0.  0.
        3    1    3    3  502    0 -0.37120073377E+03 -0.28115495018E+03  0.47367109785E+03  0.66423069027E+03  0.10100000352E+00 0. -1.
       -3    1    3    3    0  502  0.37120073377E+03  0.28115495018E+03 -0.12413734834E+04  0.13258379336E+04  0.10100000352E+00 0.  1.
</event>
<event>
 5   0  0.3270375E-05  0.1807985E+04  0.7818609E-02  0.8702065E-01
        3   -1    0    0  501    0  0.00000000000E+00  0.00000000000E+00  0.73514966033E+03  0.73514966727E+03  0.10100000352E+00 0. -1.
       -3   -1    0    0    0  501  0.00000000000E+00  0.00000000000E+00 -0.11116140080E+04  0.11116140126E+04  0.10100000352E+00 0.  1.
    10030    2    1    2    0    0  0.00000000000E+00  0.00000000000E+00 -0.37646434766E+03  0.18467636799E+04  0.18079852555E+04 0.  0.
        1    1    3    3  502    0 -0.61550504283E+03  0.25157178388E+03  0.43733126777E+03  0.79586020003E+03  0.50400001928E-02 0. -1.
       -1    1    3    3    0  502  0.61550504283E+03 -0.25157178388E+03 -0.81379561544E+03  0.10509034798E+04  0.50400001928E-02 0.  1.
</event>
<event>
 5   0  0.8892280E-05  0.1781184E+04  0.7818609E-02  0.8716370E-01
        2   -1    0    0  501    0  0.00000000000E+00  0.00000000000E+00  0.13034211843E+04  0.13034211843E+04  0.25500000920E-02 0.  1.
       -2   -1    0    0    0  501  0.00000000000E+00  0.00000000000E+00 -0.60851719260E+03  0.60851719261E+03  0.25500000920E-02 0. -1.
    10030    2    1    2    0    0  0.00000000000E+00  0.00000000000E+00  0.69490399167E+03  0.19119383769E+04  0.17811841004E+04 0.  0.
        4    1    3    3  502    0 -0.67033956360E+03  0.50883925435E+03  0.34723148296E+02  0.84230625501E+03  0.12699999809E+01 0. -1.
       -4    1    3    3    0  502  0.67033956360E+03 -0.50883925435E+03  0.66018084338E+03  0.10696321219E+04  0.12699999809E+01 0.  1.
</event>
<event>
 5   0  0.4494757E-05  0.1801782E+04  0.7818609E-02  0.8705353E-01
       -1   -1    0    0    0  501  0.00000000000E+00  0.00000000000E+00  0.89661094072E+03  0.89661094073E+03  0.50400001928E-02 0. -1.
        1   -1    0    0  501    0  0.00000000000E+00  0.00000000000E+00 -0.90519123366E+03  0.90519123368E+03  0.50400001928E-02 0.  1.
    10030    2    1    2    0    0  0.00000000000E+00  0.00000000000E+00 -0.85802929441E+01  0.18018021744E+04  0.18017817444E+04 0.  0.
        4    1    3    3  502    0 -0.77893826775E+03  0.40695850784E+03  0.19380979934E+03  0.89995772306E+03  0.12699999809E+01 0. -1.
       -4    1    3    3    0  502  0.77893826775E+03 -0.40695850784E+03 -0.20239009228E+03  0.90184445135E+03  0.12699999809E+01 0.  1.
</event>
<event>
 5   0  0.4335117E-05  0.1826615E+04  0.7818609E-02  0.8692273E-01
       -1   -1    0    0    0  501  0.00000000000E+00  0.00000000000E+00  0.10917774936E+04  0.10917774936E+04  0.50400001928E-02 0. -1.
        1   -1    0    0  501    0  0.00000000000E+00  0.00000000000E+00 -0.76401148357E+03  0.76401148359E+03  0.50400001928E-02 0.  1.
    10030    2    1    2    0    0  0.00000000000E+00  0.00000000000E+00  0.32776601005E+03  0.18557889772E+04  0.18266149487E+04 0.  0.
        3    1    3    3  502    0 -0.74183129836E+03  0.42202125335E+03  0.49421430306E+03  0.98623699031E+03  0.10100000352E+00 0. -1.
       -3    1    3    3    0  502  0.74183129836E+03 -0.42202125335E+03 -0.16644829300E+03  0.86955198692E+03  0.10100000352E+00 0.  1.
</event>
<event>
 5   0  0.8802655E-05  0.1801121E+04  0.7818609E-02  0.8705703E-01
        2   -1    0    0  501    0  0.00000000000E+00  0.00000000000E+00  0.12442826582E+04  0.12442826582E+04  0.25500000920E-02 0.  1.
       -2   -1    0    0    0  501  0.00000000000E+00  0.00000000000E+00 -0.65178870636E+03  0.65178870636E+03  0.25500000920E-02 0. -1.
    10030    2    1    2    0    0  0.00000000000E+00  0.00000000000E+00  0.59249395184E+03  0.18960713646E+04  0.18011211887E+04 0.  0.
        2    1    3    3  502    0 -0.16483694857E+03  0.75279205264E+03  0.78679773351E+03  0.11013254594E+04  0.25500000920E-02 0.  1.
       -2    1    3    3    0  502  0.16483694857E+03 -0.75279205264E+03 -0.19430378166E+03  0.79474590513E+03  0.25500000920E-02 0. -1.
</event>
<event>
 5   0  0.4335117E-05  0.1796329E+04  0.7818609E-02  0.8708254E-01
        1   -1    0    0  501    0  0.00000000000E+00  0.00000000000E+00  0.70130082777E+03  0.70130082778E+03  0.50400001928E-02 0.  1.
       -1   -1    0    0    0  501  0.00000000000E+00  0.00000000000E+00 -0.11502896769E+04  0.11502896769E+04  0.50400001928E-02 0. -1.
    10030    2    1    2    0    0  0.00000000000E+00  0.00000000000E+00 -0.44898884917E+03  0.18515905047E+04  0.17963285920E+04 0.  0.
        3    1    3    3  502    0 -0.48610228054E+03 -0.72652926045E+03 -0.11849826540E+02  0.87423144648E+03  0.10100000352E+00 0.  1.
       -3    1    3    3    0  502  0.48610228054E+03  0.72652926045E+03 -0.43713902263E+03  0.97735905825E+03  0.10100000352E+00 0. -1.
</event>
<event>
 5   0  0.8892280E-05  0.1798703E+04  0.7818609E-02  0.8706990E-01
        2   -1    0    0  501    0  0.00000000000E+00  0.00000000000E+00  0.14869617660E+04  0.14869617660E+04  0.25500000920E-02 0. -1.
       -2   -1    0    0    0  501  0.00000000000E+00  0.00000000000E+00 -0.54395014870E+03  0.54395014871E+03  0.25500000920E-02 0.  1.
    10030    2    1    2    0    0  0.00000000000E+00  0.00000000000E+00  0.94301161728E+03  0.20309119147E+04  0.17987029479E+04 0.  0.
        4    1    3    3  502    0 -0.61136330347E+02  0.40543476227E+03  0.13752896717E+04  0.14351091566E+04  0.12699999809E+01 0. -1.
       -4    1    3    3    0  502  0.61136330347E+02 -0.40543476227E+03 -0.43227805441E+03  0.59580275811E+03  0.12699999809E+01 0.  1.
</event>
<event>
 5   0  0.8893075E-05  0.1790758E+04  0.7818609E-02  0.8711230E-01
       -2   -1    0    0    0  501  0.00000000000E+00  0.00000000000E+00  0.97508737945E+03  0.97508737945E+03  0.25500000920E-02 0. -1.
        2   -1    0    0  501    0  0.00000000000E+00  0.00000000000E+00 -0.82218665453E+03  0.82218665453E+03  0.25500000920E-02 0.  1.
    10030    2    1    2    0    0  0.00000000000E+00  0.00000000000E+00  0.15290072492E+03  0.17972740340E+04  0.17907583091E+04 0.  0.
        1    1    3    3  502    0  0.43065616414E+03 -0.29373300996E+03  0.80708267950E+03  0.96079460054E+03  0.50400001928E-02 0. -1.
       -1    1    3    3    0  502 -0.43065616414E+03  0.29373300996E+03 -0.65418195458E+03  0.83647943345E+03  0.50400001928E-02 0.  1.
</event>
<event>
 5   0  0.8893075E-05  0.1799957E+04  0.7818609E-02  0.8706322E-01
        2   -1    0    0  501    0  0.00000000000E+00  0.00000000000E+00  0.86152873988E+03  0.86152873989E+03  0.25500000920E-02 0. -1.
       -2   -1    0    0    0  501  0.00000000000E+00  0.00000000000E+00 -0.94014423264E+03  0.94014423264E+03  0.25500000920E-02 0.  1.
    10030    2    1    2    0    0  0.00000000000E+00  0.00000000000E+00 -0.78615492755E+02  0.18016729725E+04  0.17999569729E+04 0.  0.
        1    1    3    3  502    0  0.47938688857E+03  0.52838791098E+02  0.72125712823E+03  0.86764945216E+03  0.50400001928E-02 0. -1.
       -1    1    3    3    0  502 -0.47938688857E+03 -0.52838791098E+02 -0.79987262099E+03  0.93402352037E+03  0.50400001928E-02 0.  1.
</event>
<event>
 5   0  0.9147432E-05  0.1801483E+04  0.7818609E-02  0.8705511E-01
        2   -1    0    0  501    0  0.00000000000E+00  0.00000000000E+00  0.70897894730E+03  0.70897894730E+03  0.25500000920E-02 0. -1.
       -2   -1    0    0    0  501  0.00000000000E+00  0.00000000000E+00 -0.11443712784E+04  0.11443712784E+04  0.25500000920E-02 0.  1.
    10030    2    1    2    0    0  0.00000000000E+00  0.00000000000E+00 -0.43539233109E+03  0.18533502257E+04  0.18014828828E+04 0.  0.
        3    1    3    3  502    0 -0.24281477222E+03 -0.67018659280E+03 -0.78421011819E+03  0.10597615781E+04  0.10100000352E+00 0.  1.
       -3    1    3    3    0  502  0.24281477222E+03  0.67018659280E+03  0.34881778710E+03  0.79358864758E+03  0.10100000352E+00 0. -1.
</event>
<event>
 5   0  0.9184414E-05  0.1805522E+04  0.7818609E-02  0.8703368E-01
       -2   -1    0    0    0  501  0.00000000000E+00  0.00000000000E+00  0.68488084758E+03  0.68488084758E+03  0.25500000920E-02 0.  1.
        2   -1    0    0  501    0  0.00000000000E+00  0.00000000000E+00 -0.11899555553E+04  0.11899555553E+04  0.25500000920E-02 0. -1.
    10030    2    1    2    0    0  0.00000000000E+00  0.00000000000E+00 -0.50507470771E+03  0.18748364029E+04  0.18055223835E+04 0.  0.
        5    1    3    3  502    0 -0.28450868161E+03 -0.54210821763E+03 -0.94142845843E+03  0.11230031798E+04  0.46999998093E+01 0. -1.
       -5    1    3    3    0  502  0.28450868161E+03  0.54210821763E+03  0.43635375072E+03  0.75183322306E+03  0.46999998093E+01 0.  1.
</event>
<event>
 5   0  0.4335117E-05  0.1801085E+04  0.7818609E-02  0.8705723E-01
       -1   -1    0    0    0  501  0.00000000000E+00  0.00000000000E+00  0.55043670737E+03  0.55043670739E+03  0.50400001928E-02 0. -1.
        1   -1    0    0  501    0  0.00000000000E+00  0.00000000000E+00 -0.14733335378E+04  0.14733335378E+04  0.50400001928E-02 0.  1.
    10030    2    1    2    0    0  0.00000000000E+00  0.00000000000E+00 -0.92289683043E+03  0.20237702452E+04  0.18010850745E+04 0.  0.
        3    1    3    3  502    0 -0.55339537444E+03  0.40066164855E+03  0.19777530345E+03  0.71126034469E+03  0.10100000352E+00 0. -1.
       -3    1    3    3    0  502  0.55339537444E+03 -0.40066164855E+03 -0.11206721339E+04  0.13125099005E+04  0.10100000352E+00 0.  1.
</event>
<event>
 5   0  0.4494757E-05  0.1801303E+04  0.7818609E-02  0.8705607E-01
       -1   -1    0    0    0  501  0.00000000000E+00  0.00000000000E+00  0.48447292636E+03  0.48447292639E+03  0.50400001928E-02 0. -1.
        1   -1    0    0  501    0  0.00000000000E+00  0.00000000000E+00 -0.16743411116E+04  0.16743411116E+04  0.50400001928E-02 0.  1.
    10030    2    1    2    0    0  0.00000000000E+00  0.00000000000E+00 -0.11898681852E+04  0.21588140380E+04  0.18013027931E+04 0.  0.
        4    1    3    3  502    0 -0.17671095274E+03 -0.26226769523E+03 -0.16056107585E+04  0.16364591731E+04  0.12699999809E+01 0.  1.
       -4    1    3    3    0  502  0.17671095274E+03  0.26226769523E+03  0.41574257321E+03  0.52235486487E+03  0.12699999809E+01 0. -1.
</event>
<event>
 5   0  0.8892280E-05  0.1804741E+04  0.7818609E-02  0.8703782E-01
        2   -1    0    0  501    0  0.00000000000E+00  0.00000000000E+00  0.97106304630E+03  0.97106304630E+03  0.25500000920E-02 0.  1.
       -2   -1    0    0    0  501  0.00000000000E+00  0.00000000000E+00 -0.83853713151E+03  0.83853713151E+03  0.25500000920E-02 0. -1.
    10030    2    1    2    0    0  0.00000000000E+00  0.00000000000E+00  0.13252591479E+03  0.18096001778E+04  0.18047408915E+04 0.  0.
        4    1    3    3  502    0 -0.19306811466E+03 -0.50197086340E+02  0.94867553049E+03  0.96942349849E+03  0.12699999809E+01 0.  1.
       -4    1    3    3    0  502  0.19306811466E+03  0.50197086340E+02 -0.81614961570E+03  0.84017667933E+03  0.12699999809E+01 0. -1.
</event>
<event>
 5   0  0.4335117E-05  0.1799587E+04  0.7818609E-02  0.8706519E-01
        1   -1    0    0  501    0  0.00000000000E+00  0.00000000000E+00  0.10804710234E+04  0.10804710234E+04  0.50400001928E-02 0. -1.
       -1   -1    0    0    0  501  0.00000000000E+00  0.00000000000E+00 -0.74932876974E+03  0.74932876975E+03  0.50400001928E-02 0.  1.
    10030    2    1    2    0    0  0.00000000000E+00  0.00000000000E+00  0.33114225369E+03  0.18297997932E+04  0.17995866445E+04 0.  0.
        3    1    3    3  502    0  0.67347242683E+02  0.59189309995E+02 -0.74477528270E+03  0.75015282272E+03  0.10100000352E+00 0.  1.
       -3    1    3    3    0  502 -0.67347242683E+02 -0.59189309995E+02  0.10759175364E+04  0.10796469705E+04  0.10100000352E+00 0. -1.
</event>
<event>
 5   0  0.4578107E-05  0.1798711E+04  0.7818609E-02  0.8706985E-01
       -1   -1    0    0    0  501  0.00000000000E+00  0.00000000000E+00  0.53664798223E+03  0.53664798225E+03  0.50400001928E-02 0. -1.
        1   -1    0    0  501    0  0.00000000000E+00  0.00000000000E+00 -0.15072091334E+04  0.15072091334E+04  0.50400001928E-02 0.  1.
    10030    2    1    2    0    0  0.00000000000E+00  0.00000000000E+00 -0.97056115117E+03  0.20438571157E+04  0.17987114724E+04 0.  0.
        2    1    3    3  502    0  0.48130886806E+03  0.63675395798E+03 -0.95615836445E+03  0.12455330776E+04  0.25500000920E-02 0.  1.
       -2    1    3    3    0  502 -0.48130886806E+03 -0.63675395798E+03 -0.14402786719E+02  0.79832403806E+03  0.25500000920E-02 0. -1.
</event>
<event>
 5   0  0.4335117E-05  0.1797190E+04  0.7818609E-02  0.8707795E-01
       -1   -1    0    0    0  501  0.00000000000E+00  0.00000000000E+00  0.99687470406E+03  0.99687470407E+03  0.50400001928E-02 0.  1.
        1   -1    0    0  501    0  0.00000000000E+00  0.00000000000E+00 -0.81000483956E+03  0.81000483958E+03  0.50400001928E-02 0. -1.
    10030    2    1    2    0    0  0.00000000000E+00  0.00000000000E+00  0.18686986450E+03  0.18068795436E+04  0.17971904014E+04 0.  0.
        3    1    3    3  502    0 -0.65820389655E+03  0.27998349041E+03 -0.45341862870E+03  0.84688345561E+03  0.10100000352E+00 0. -1.
       -3    1    3    3    0  502  0.65820389655E+03 -0.27998349041E+03  0.64028849320E+03  0.95999608804E+03  0.10100000352E+00 0.  1.
</event>
<event>
 5   0  0.4335117E-05  0.1801054E+04  0.7818609E-02  0.8705739E-01
        1   -1    0    0  501    0  0.00000000000E+00  0.00000000000E+00  0.14036341202E+04  0.14036341202E+04  0.50400001928E-02 0.  1.
       -1   -1    0    0    0  501  0.00000000000E+00  0.00000000000E+00 -0.57774941645E+03  0.57774941647E+03  0.50400001928E-02 0. -1.
    10030    2    1    2    0    0  0.00000000000E+00  0.00000000000E+00  0.82588470379E+03  0.19813835367E+04  0.18010539069E+04 0.  0.
        3    1    3    3  502    0  0.30404903049E+03 -0.17014160120E+03 -0.50059484058E+03  0.60990915882E+03  0.10100000352E+00 0. -1.
       -3    1    3    3    0  502 -0.30404903049E+03  0.17014160120E+03  0.13264795444E+04  0.13714743779E+04  0.10100000352E+00 0.  1.
</event>
<event>
 5   0  0.4623665E-05  0.1779684E+04  0.7818609E-02  0.8717178E-01
        1   -1    0    0  501    0  0.00000000000E+00  0.00000000000E+00  0.85617616908E+03  0.85617616909E+03  0.50400001928E-02 0. -1.
       -1   -1    0    0    0  501  0.00000000000E+00  0.00000000000E+00 -0.92483194068E+03  0.92483194069E+03  0.50400001928E-02 0.  1.
    10030    2    1    2    0    0  0.00000000000E+00  0.00000000000E+00 -0.68655771596E+02  0.17810081098E+04  0.17796843181E+04 0.  0.
        5    1    3    3  502    0 -0.26287887482E+03 -0.77484947528E+03 -0.38430213564E+03  0.90399515133E+03  0.46999998093E+01 0.  1.
       -5    1    3    3    0  502  0.26287887482E+03  0.77484947528E+03  0.31564636405E+03  0.87701295846E+03  0.46999998093E+01 0. -1.
</event>
<event>
 5   0  0.4578107E-05  0.1792304E+04  0.7818609E-02  0.8710403E-01
        1   -1    0    0  501    0  0.00000000000E+00  0.00000000000E+00  0.10350675786E+04  0.10350675786E+04  0.50400001928E-02 0.  1.
       -1   -1    0    0    0  501  0.00000000000E+00  0.00000000000E+00 -0.77588039339E+03  0.77588039340E+03  0.50400001928E-02 0. -1.
    10030    2    1    2    0    0  0.00000000000E+00  0.00000000000E+00  0.25918718524E+03  0.18109479720E+04  0.17923042600E+04 0.  0.
        2    1    3    3  502    0 -0.40716176095E+03 -0.76716339898E+03  0.35272611028E+03  0.93740924318E+03  0.25500000920E-02 0.  1.
       -2    1    3    3    0  502  0.40716176095E+03  0.76716339898E+03 -0.93538925033E+02  0.87353872886E+03  0.25500000920E-02 0. -1.
</event>
<event>
 5   0  0.4578107E-05  0.1821993E+04  0.7818609E-02  0.8694691E-01
        1   -1    0    0  501    0  0.00000000000E+00  0.00000000000E+00  0.47552301313E+03  0.47552301315E+03  0.50400001928E-02 0.  1.
       -1   -1    0    0    0  501  0.00000000000E+00  0.00000000000E+00 -0.17452665091E+04  0.17452665091E+04  0.50400001928E-02 0. -1.
    10030    2    1    2    0    0  0.00000000000E+00  0.00000000000E+00 -0.12697434960E+04  0.22207895223E+04  0.18219927433E+04 0.  0.
        2    1    3    3  502    0 -0.17315830924E+03  0.57358193944E+02  0.45303578047E+03  0.48838016018E+03  0.25500000920E-02 0.  1.
       -2    1    3    3    0  502  0.17315830924E+03 -0.57358193944E+02 -0.17227792765E+04  0.17324093621E+04  0.25500000920E-02 0. -1.
</event>
<event>
 5   0  0.9184414E-05  0.1825778E+04  0.7818609E-02  0.8692710E-01
        2   -1    0    0  501    0  0.00000000000E+00  0.00000000000E+00  0.67028554973E+03  0.67028554973E+03  0.25500000920E-02 0.  1.
       -2   -1    0    0    0  501  0.00000000000E+00  0.00000000000E+00 -0.12432998455E+04  0.12432998455E+04  0.25500000920E-02 0. -1.
    10030    2    1    2    0    0  0.00000000000E+00  0.00000000000E+00 -0.57301429577E+03  0.19135853952E+04  0.18257775554E+04 0.  0.
        5    1    3    3  502    0  0.56397948135E+03  0.17730375038E+03 -0.10155420747E+04  0.11750988345E+04  0.46999998093E+01 0. -1.
       -5    1    3    3    0  502 -0.56397948135E+03 -0.17730375038E+03  0.44252777894E+03  0.73848656076E+03  0.46999998093E+01 0.  1.
</event>
<event>
 5   0  0.4335117E-05  0.1794546E+04  0.7818609E-02  0.8709205E-01
       -1   -1    0    0    0  501  0.00000000000E+00  0.00000000000E+00  0.49223139020E+03  0.49223139022E+03  0.50400001928E-02 0. -1.
        1   -1    0    0  501    0  0.00000000000E+00  0.00000000000E+00 -0.16356099652E+04  0.16356099652E+04  0.50400001928E-02 0.  1.
    10030    2    1    2    0    0  0.00000000000E+00  0.00000000000E+00 -0.11433785750E+04  0.21278413554E+04  0.17945456996E+04 0.  0.
        3    1    3    3  502    0 -0.61637511075E+03 -0.26028611165E+03  0.13720436217E+03  0.68300233109E+03  0.10100000352E+00 0. -1.
       -3    1    3    3    0  502  0.61637511075E+03  0.26028611165E+03 -0.12805829372E+04  0.14448390243E+04  0.10100000352E+00 0.  1.
</event>
<event>
 5   0  0.9184414E-05  0.1799235E+04  0.7818609E-02  0.8706706E-01
        2   -1    0    0  501    0  0.00000000000E+00  0.00000000000E+00  0.71450416658E+03  0.71450416659E+03  0.25500000920E-02 0. -1.
       -2   -1    0    0    0  501  0.00000000000E+00  0.00000000000E+00 -0.11326899060E+04  0.11326899060E+04  0.25500000920E-02 0.  1.
    10030    2    1    2    0    0  0.00000000000E+00  0.00000000000E+00 -0.41818573944E+03  0.18471940726E+04  0.17992350122E+04 0.  0.
        5    1    3    3  502    0  0.64003229115E+03 -0.58307357870E+03 -0.45988572110E+03  0.98037395843E+03  0.46999998093E+01 0.  1.
       -5    1    3    3    0  502 -0.64003229115E+03  0.58307357870E+03  0.41699981660E+02  0.86682011419E+03  0.46999998093E+01 0. -1.
</event>
<event>
 5   0  0.4335117E-05  0.1790601E+04  0.7818609E-02  0.8711314E-01
       -1   -1    0    0    0  501  0.00000000000E+00  0.00000000000E+00  0.44100237290E+03  0.44100237293E+03  0.50400001928E-02 0. -1.
        1   -1    0    0  501    0  0.00000000000E+00  0.00000000000E+00 -0.18175942000E+04  0.18175942000E+04  0.50400001928E-02 0.  1.
    10030    2    1    2    0    0  0.00000000000E+00  0.00000000000E+00 -0.13765918271E+04  0.22585965729E+04  0.17906014132E+04 0.  0.
        3    1    3    3  502    0  0.32606022842E+03 -0.12443564427E+03  0.35166920323E+03  0.49545003867E+03  0.10100000352E+00 0. -1.
       -3    1    3    3    0  502 -0.32606022842E+03  0.12443564427E+03 -0.17282610303E+04  0.17631465342E+04  0.10100000352E+00 0.  1.
</event>
<event>
 5   0  0.8892280E-05  0.1795378E+04  0.7818609E-02  0.8708761E-01
       -2   -1    0    0    0  501  0.00000000000E+00  0.00000000000E+00  0.68653389221E+03  0.68653389222E+03  0.25500000920E-02 0.  1.
        2   -1    0    0  501    0  0.00000000000E+00  0.00000000000E+00 -0.11737886671E+04  0.11737886671E+04  0.25500000920E-02 0. -1.
    10030    2    1    2    0    0  0.00000000000E+00  0.00000000000E+00 -0.48725477490E+03  0.18603225593E+04  0.17953781800E+04 0.  0.
        4    1    3    3  502    0  0.63135448282E+03 -0.38145449317E+03 -0.77372697491E+03  0.10690047044E+04  0.12699999809E+01 0. -1.
       -4    1    3    3    0  502 -0.63135448282E+03  0.38145449317E+03  0.28647220001E+03  0.79131785498E+03  0.12699999809E+01 0.  1.
</event>
<event>
 5   0  0.4494757E-05  0.1792130E+04  0.7818609E-02  0.8710496E-01
       -1   -1    0    0    0  501  0.00000000000E+00  0.00000000000E+00  0.17317633320E+04  0.17317633320E+04  0.50400001928E-02 0.  1.
        1   -1    0    0  501    0  0.00000000000E+00  0.00000000000E+00 -0.46365012453E+03  0.46365012456E+03  0.50400001928E-02 0. -1.
    10030    2    1    2    0    0  0.00000000000E+00  0.00000000000E+00  0.12681132075E+04  0.21954134566E+04  0.17921297772E+04 0.  0.
        4    1    3    3  502    0 -0.27638654278E+03  0.24838045836E+03  0.16329247109E+04  0.16746722358E+04  0.12699999809E+01 0.  1.
       -4    1    3    3    0  502  0.27638654278E+03 -0.24838045836E+03 -0.36481150338E+03  0.52074122078E+03  0.12699999809E+01 0. -1.
</event>
<event>
 5   0  0.8892280E-05  0.1810660E+04  0.7818609E-02  0.8700651E-01
       -2   -1    0    0    0  501  0.00000000000E+00  0.00000000000E+00  0.83169111813E+03  0.83169111813E+03  0.25500000920E-02 0.  1.
        2   -1    0    0  501    0  0.00000000000E+00  0.00000000000E+00 -0.98548848557E+03  0.98548848557E+03  0.25500000920E-02 0. -1.
    10030    2    1    2    0    0  0.00000000000E+00  0.00000000000E+00 -0.15379736744E+03  0.18171796037E+04  0.18106595709E+04 0.  0.
        4    1    3    3  502    0  0.85623043984E+03 -0.97155209023E+02 -0.35547831707E+03  0.93216744610E+03  0.12699999809E+01 0. -1.
       -4    1    3    3    0  502 -0.85623043984E+03  0.97155209023E+02  0.20168094963E+03  0.88501215760E+03  0.12699999809E+01 0.  1.
</event>
<event>
 5   0  0.8802655E-05  0.1806964E+04  0.7818609E-02  0.8702605E-01
        2   -1    0    0  501    0  0.00000000000E+00  0.00000000000E+00  0.12100795621E+04  0.12100795621E+04  0.25500000920E-02 0.  1.
       -2   -1    0    0    0  501  0.00000000000E+00  0.00000000000E+00 -0.67456721694E+03  0.67456721695E+03  0.25500000920E-02 0. -1.
    10030    2    1    2    0    0  0.00000000000E+00  0.00000000000E+00  0.53551234515E+03  0.18846467790E+04  0.18069643079E+04 0.  0.
        2    1    3    3  502    0  0.17913140627E+03 -0.87094681857E+03  0.10073569223E+03  0.89486540954E+03  0.25500000920E-02 0. -1.
       -2    1    3    3    0  502 -0.17913140627E+03  0.87094681857E+03  0.43477665293E+03  0.98978136951E+03  0.25500000920E-02 0.  1.
</event>
<event>
 5   0  0.4535100E-05  0.1798948E+04  0.7818609E-02  0.8706859E-01
        1   -1    0    0  501    0  0.00000000000E+00  0.00000000000E+00  0.12553915892E+04  0.12553915892E+04  0.50400001928E-02 0. -1.
       -1   -1    0    0    0  501  0.00000000000E+00  0.00000000000E+00 -0.64446322001E+03  0.64446322002E+03  0.50400001928E-02 0.  1.
    10030    2    1    2    0    0  0.00000000000E+00  0.00000000000E+00  0.61092836916E+03  0.18998548092E+04  0.17989482549E+04 0.  0.
        1    1    3    3  502    0  0.22026306933E+02  0.82449849795E+03  0.68443903933E+03  0.10717927644E+04  0.50400001928E-02 0. -1.
       -1    1    3    3    0  502 -0.22026306933E+02 -0.82449849795E+03 -0.73510670170E+02  0.82806204476E+03  0.50400001928E-02 0.  1.
</event>
<event>
 5   0  0.3270375E-05  0.1783796E+04  0.7818609E-02  0.8714965E-01
       -3   -1    0    0    0  501  0.00000000000E+00  0.00000000000E+00  0.45743166941E+03  0.45743168056E+03  0.10100000352E+00 0. -1.
        3   -1    0    0  501    0  0.00000000000E+00  0.00000000000E+00 -0.17390174797E+04  0.17390174826E+04  0.10100000352E+00 0.  1.
    10030    2    1    2    0    0  0.00000000000E+00  0.00000000000E+00 -0.12815858103E+04  0.21964491632E+04  0.17837955985E+04 0.  0.
        1    1    3    3  502    0 -0.32008451564E+03 -0.71804667496E+03 -0.11594706599E+04  0.14008630682E+04  0.50400001928E-02 0.  1.
       -1    1    3    3    0  502  0.32008451564E+03  0.71804667496E+03 -0.12211515038E+03  0.79558609500E+03  0.50400001928E-02 0. -1.
</event>
<event>
 5   0  0.4535100E-05  0.1812646E+04  0.7818609E-02  0.8699603E-01
       -1   -1    0    0    0  501  0.00000000000E+00  0.00000000000E+00  0.47461858621E+03  0.47461858623E+03  0.50400001928E-02 0. -1.
        1   -1    0    0  501    0  0.00000000000E+00  0.00000000000E+00 -0.17306976436E+04  0.17306976436E+04  0.50400001928E-02 0.  1.
    10030    2    1    2    0    0  0.00000000000E+00  0.00000000000E+00 -0.12560790574E+04  0.22053162298E+04  0.18126458769E+04 0.  0.
        1    1    3    3  502    0  0.53179300724E+03  0.64483068768E+03 -0.10543993539E+04  0.13454993184E+04  0.50400001928E-02 0.  1.
       -1    1    3    3    0  502 -0.53179300724E+03 -0.64483068768E+03 -0.20167970346E+03  0.85981691140E+03  0.50400001928E-02 0. -1.
</event>
<event>
 5   0  0.9184414E-05  0.1799718E+04  0.7818609E-02  0.8706450E-01
        2   -1    0    0  501    0  0.00000000000E+00  0.00000000000E+00  0.13504542197E+04  0.13504542197E+04  0.25500000920E-02 0. -1.
       -2   -1    0    0    0  501  0.00000000000E+00  0.00000000000E+00 -0.59961011942E+03  0.59961011943E+03  0.25500000920E-02 0.  1.
    10030    2    1    2    0    0  0.00000000000E+00  0.00000000000E+00  0.75084410023E+03  0.19500643391E+04  0.17997177734E+04 0.  0.
        5    1    3    3  502    0 -0.52488674710E+03  0.70402648212E+03  0.58820587873E+03  0.10569615086E+04  0.46999998093E+01 0. -1.
       -5    1    3    3    0  502  0.52488674710E+03 -0.70402648212E+03  0.16263822150E+03  0.89310283053E+03  0.46999998093E+01 0.  1.
</event>
<event>
 5   0  0.9147432E-05  0.1800848E+04  0.7818609E-02  0.8705848E-01
       -2   -1    0    0    0  501  0.00000000000E+00  0.00000000000E+00  0.37244523814E+03  0.37244523815E+03  0.25500000920E-02 0.  1.
        2   -1    0    0  501    0  0.00000000000E+00  0.00000000000E+00 -0.21768669246E+04  0.21768669246E+04  0.25500000920E-02 0. -1.
    10030    2    1    2    0    0  0.00000000000E+00  0.00000000000E+00 -0.18044216865E+04  0.25493121628E+04  0.18008483780E+04 0.  0.
        3    1    3    3  502    0  0.68895310837E+03  0.49405094777E+03 -0.13316378055E+04  0.15786076079E+04  0.10100000352E+00 0. -1.
       -3    1    3    3    0  502 -0.68895310837E+03 -0.49405094777E+03 -0.47278388101E+03  0.97070455488E+03  0.10100000352E+00 0.  1.
</event>
<event>
 5   0  0.9184414E-05  0.1810218E+04  0.7818609E-02  0.8700884E-01
        2   -1    0    0  501    0  0.00000000000E+00  0.00000000000E+00  0.98624937222E+03  0.98624937223E+03  0.25500000920E-02 0.  1.
       -2   -1    0    0    0  501  0.00000000000E+00  0.00000000000E+00 -0.83064457996E+03  0.83064457996E+03  0.25500000920E-02 0. -1.
    10030    2    1    2    0    0  0.00000000000E+00  0.00000000000E+00  0.15560479226E+03  0.18168939522E+04  0.18102184349E+04 0.  0.
        5    1    3    3  502    0  0.23900644331E+03  0.51778634198E+03  0.78322694065E+03  0.96886186139E+03  0.46999998093E+01 0.  1.
       -5    1    3    3    0  502 -0.23900644331E+03 -0.51778634198E+03 -0.62762214839E+03  0.84803209080E+03  0.46999998093E+01 0. -1.
</event>
<event>
 5   0  0.4578107E-05  0.1797986E+04  0.7818609E-02  0.8707371E-01
        1   -1    0    0  501    0  0.00000000000E+00  0.00000000000E+00  0.94297201009E+03  0.94297201010E+03  0.50400001928E-02 0. -1.
       -1   -1    0    0    0  501  0.00000000000E+00  0.00000000000E+00 -0.85706545350E+03  0.85706545351E+03  0.50400001928E-02 0.  1.
    10030    2    1    2    0    0  0.00000000000E+00  0.00000000000E+00  0.85906556585E+02  0.18000374636E+04  0.17979863553E+04 0.  0.
        2    1    3    3  502    0  0.52923856868E+02  0.37192574765E+03  0.86062181838E+03  0.93904185778E+03  0.25500000920E-02 0. -1.
       -2    1    3    3    0  502 -0.52923856868E+02 -0.37192574765E+03 -0.77471526180E+03  0.86099560583E+03  0.25500000920E-02 0.  1.
</event>
<event>
 5   0  0.8892280E-05  0.1782919E+04  0.7818609E-02  0.8715436E-01
       -2   -1    0    0    0  501  0.00000000000E+00  0.00000000000E+00  0.11412712825E+04  0.11412712825E+04  0.25500000920E-02 0.  1.
        2   -1    0    0  501    0  0.00000000000E+00  0.00000000000E+00 -0.69632916284E+03  0.69632916285E+03  0.25500000920E-02 0. -1.
    10030    2    1    2    0    0  0.00000000000E+00  0.00000000000E+00  0.44494211966E+03  0.18376004453E+04  0.17829194897E+04 0.  0.
        4    1    3    3  502    0  0.33725194898E+03  0.72533711011E+03  0.62804443736E+03  0.10170025706E+04  0.12699999809E+01 0. -1.
       -4    1    3    3    0  502 -0.33725194898E+03 -0.72533711011E+03 -0.18310231771E+03  0.82059787475E+03  0.12699999809E+01 0.  1.
</event>
<event>
 5   0  0.4535100E-05  0.1804067E+04  0.7818609E-02  0.8704140E-01
       -1   -1    0    0    0  501  0.00000000000E+00  0.00000000000E+00  0.95487028266E+03  0.95487028267E+03  0.50400001928E-02 0.  1.
        1   -1    0    0  501    0  0.00000000000E+00  0.00000000000E+00 -0.85212021050E+03  0.85212021051E+03  0.50400001928E-02 0. -1.
    10030    2    1    2    0    0  0.00000000000E+00  0.00000000000E+00  0.10275007216E+03  0.18069904932E+04  0.18040668128E+04 0.  0.
        1    1    3    3  502    0  0.74972920509E+02  0.60478376841E+03 -0.61474402605E+03  0.86561802369E+03  0.50400001928E-02 0. -1.
       -1    1    3    3    0  502 -0.74972920509E+02 -0.60478376841E+03  0.71749409821E+03  0.94137246950E+03  0.50400001928E-02 0.  1.
</event>
<event>
 5   0  0.9147432E-05  0.1801024E+04  0.7818609E-02  0.8705755E-01
       -2   -1    0    0    0  501  0.00000000000E+00  0.00000000000E+00  0.12770674126E+04  0.12770674126E+04  0.25500000920E-02 0. -1.
        2   -1    0    0  501    0  0.00000000000E+00  0.00000000000E+00 -0.63498730843E+03  0.63498730844E+03  0.25500000920E-02 0.  1.
    10030    2    1    2    0    0  0.00000000000E+00  0.00000000000E+00  0.64208010417E+03  0.19120547210E+04  0.18010237078E+04 0.  0.
        3    1    3    3  502    0  0.39848471104E+03  0.80596646570E+03  0.26743382838E+03  0.93802605056E+03  0.10100000352E+00 0.  1.
       -3    1    3    3    0  502 -0.39848471104E+03 -0.80596646570E+03  0.37464627579E+03  0.97402867048E+03  0.10100000352E+00 0. -1.
</event>
<event>
 5   0  0.4535100E-05  0.1800155E+04  0.7818609E-02  0.8706217E-01
       -1   -1    0    0    0  501  0.00000000000E+00  0.00000000000E+00  0.53014942984E+03  0.53014942986E+03  0.50400001928E-02 0. -1.
        1   -1    0    0  501    0  0.00000000000E+00  0.00000000000E+00 -0.15281339077E+04  0.15281339077E+04  0.50400001928E-02 0.  1.
    10030    2    1    2    0    0  0.00000000000E+00  0.00000000000E+00 -0.99798447781E+03  0.20582833375E+04  0.18001547932E+04 0.  0.
        1    1    3    3  502    0 -0.18625336704E+02  0.71748646170E+03  0.12203469047E+03  0.72802897717E+03  0.50400001928E-02 0. -1.
       -1    1    3    3    0  502  0.18625336704E+02 -0.71748646170E+03 -0.11200191683E+04  0.13302543604E+04  0.50400001928E-02 0.  1.
</event>
<event>
 5   0  0.9184414E-05  0.1797721E+04  0.7818609E-02  0.8707512E-01
       -2   -1    0    0    0  501  0.00000000000E+00  0.00000000000E+00  0.72585849664E+03  0.72585849664E+03  0.25500000920E-02 0.  1.
        2   -1    0    0  501    0  0.00000000000E+00  0.00000000000E+00 -0.11130963897E+04  0.11130963897E+04  0.25500000920E-02 0. -1.
    10030    2    1    2    0    0  0.00000000000E+00  0.00000000000E+00 -0.38723789306E+03  0.18389548863E+04  0.17977213044E+04 0.  0.
        5    1    3    3  502    0 -0.64069527151E+03  0.62853525015E+03 -0.14370016082E+03  0.90896579574E+03  0.46999998093E+01 0.  1.
       -5    1    3    3    0  502  0.64069527151E+03 -0.62853525015E+03 -0.24353773224E+03  0.92998909060E+03  0.46999998093E+01 0. -1.
</event>
<event>
 5   0  0.3270375E-05  0.1797574E+04  0.7818609E-02  0.8707591E-01
        3   -1    0    0  501    0  0.00000000000E+00  0.00000000000E+00  0.19544049894E+04  0.19544049920E+04  0.10100000352E+00 0. -1.
       -3   -1    0    0    0  501  0.00000000000E+00  0.00000000000E+00 -0.41333194550E+03  0.41333195784E+03  0.10100000352E+00 0.  1.
    10030    2    1    2    0    0  0.00000000000E+00  0.00000000000E+00  0.15410730439E+04  0.23677369498E+04  0.17975739587E+04 0.  0.
        3    1    3    3  502    0  0.66091343638E+03  0.42962414720E+03  0.20180162321E+03  0.81369981171E+03  0.10100000352E+00 0.  1.
       -3    1    3    3    0  502 -0.66091343638E+03 -0.42962414720E+03  0.13392714207E+04  0.15540371381E+04  0.10100000352E+00 0. -1.
</event>
<event>
 5   0  0.4494757E-05  0.1809746E+04  0.7818609E-02  0.8701134E-01
        1   -1    0    0  501    0  0.00000000000E+00  0.00000000000E+00  0.74042114546E+03  0.74042114547E+03  0.50400001928E-02 0.  1.
       -1   -1    0    0    0  501  0.00000000000E+00  0.00000000000E+00 -0.11058503455E+04  0.11058503455E+04  0.50400001928E-02 0. -1.
    10030    2    1    2    0    0  0.00000000000E+00  0.00000000000E+00 -0.36542920003E+03  0.18462714910E+04  0.18097458159E+04 0.  0.
        4    1    3    3  502    0  0.18101407321E+03 -0.45389701085E+03 -0.95966584526E+03  0.10769163099E+04  0.12699999809E+01 0. -1.
       -4    1    3    3    0  502 -0.18101407321E+03  0.45389701085E+03  0.59423664523E+03  0.76935518103E+03  0.12699999809E+01 0.  1.
</event>
<event>
 5   0  0.8802655E-05  0.1801989E+04  0.7818609E-02  0.8705243E-01
        2   -1    0    0  501    0  0.00000000000E+00  0.00000000000E+00  0.21587481297E+04  0.21587481297E+04  0.25500000920E-02 0.  1.
       -2   -1    0    0    0  501  0.00000000000E+00  0.00000000000E+00 -0.37604711199E+03  0.37604711199E+03  0.25500000920E-02 0. -1.
    10030    2    1    2    0    0  0.00000000000E+00  0.00000000000E+00  0.17827010177E+04  0.25347952417E+04  0.18019889008E+04 0.  0.
        2    1    3    3  502    0  0.31091259909E+03 -0.42397823429E+03 -0.13788910759E+03  0.54354171268E+03  0.25500000920E-02 0. -1.
       -2    1    3    3    0  502 -0.31091259909E+03  0.42397823429E+03  0.19205901253E+04  0.19912535290E+04  0.25500000920E-02 0.  1.
</event>
<event>
 5   0  0.9147432E-05  0.1798842E+04  0.7818609E-02  0.8706915E-01
        2   -1    0    0  501    0  0.00000000000E+00  0.00000000000E+00  0.98030041900E+03  0.98030041901E+03  0.25500000920E-02 0.  1.
       -2   -1    0    0    0  501  0.00000000000E+00  0.00000000000E+00 -0.82521490066E+03  0.82521490066E+03  0.25500000920E-02 0. -1.
    10030    2    1    2    0    0  0.00000000000E+00  0.00000000000E+00  0.15508551834E+03  0.18055153197E+04  0.17988424199E+04 0.  0.
        3    1    3    3  502    0 -0.26853112872E+03 -0.14693429723E+03 -0.77132488532E+03  0.82984380681E+03  0.10100000352E+00 0. -1.
       -3    1    3    3    0  502  0.26853112872E+03  0.14693429723E+03  0.92641040366E+03  0.97567151286E+03  0.10100000352E+00 0.  1.
</event>
<event>
 5   0  0.4623665E-05  0.1762906E+04  0.7818609E-02  0.8726278E-01
        1   -1    0    0  501    0  0.00000000000E+00  0.00000000000E+00  0.44325972899E+03  0.44325972901E+03  0.50400001928E-02 0.  1.
       -1   -1    0    0    0  501  0.00000000000E+00  0.00000000000E+00 -0.17528315708E+04  0.17528315708E+04  0.50400001928E-02 0. -1.
    10030    2    1    2    0    0  0.00000000000E+00  0.00000000000E+00 -0.13095718418E+04  0.21960912998E+04  0.17629062903E+04 0.  0.
        5    1    3    3  502    0 -0.20607970086E+02 -0.11491883976E+03  0.43356926904E+03  0.44903833825E+03  0.46999998093E+01 0.  1.
       -5    1    3    3    0  502  0.20607970086E+02  0.11491883976E+03 -0.17431411108E+04  0.17470529616E+04  0.46999998093E+01 0. -1.
</event>
<event>
 5   0  0.3270375E-05  0.1798760E+04  0.7818609E-02  0.8706959E-01
        4   -1    0    0  501    0  0.00000000000E+00  0.00000000000E+00  0.59509904041E+03  0.59510039556E+03  0.12699999809E+01 0.  1.
       -4   -1    0    0    0  501  0.00000000000E+00  0.00000000000E+00 -0.13592408308E+04  0.13592414241E+04  0.12699999809E+01 0. -1.
    10030    2    1    2    0    0  0.00000000000E+00  0.00000000000E+00 -0.76414179036E+03  0.19543418196E+04  0.17987604822E+04 0.  0.
        4    1    3    3  502    0  0.14747147000E+03  0.72352038097E+02 -0.13428044246E+04  0.13528148385E+04  0.12699999809E+01 0. -1.
       -4    1    3    3    0  502 -0.14747147000E+03 -0.72352038097E+02  0.57866263419E+03  0.60152698110E+03  0.12699999809E+01 0.  1.
</event>
<event>
 5   0  0.8892280E-05  0.1799367E+04  0.7818609E-02  0.8706636E-01
       -2   -1    0    0    0  501  0.00000000000E+00  0.00000000000E+00  0.56951289974E+03  0.56951289974E+03  0.25500000920E-02 0. -1.
        2   -1    0    0  501    0  0.00000000000E+00  0.00000000000E+00 -0.14212674608E+04  0.14212674608E+04  0.25500000920E-02 0.  1.
    10030    2    1    2    0    0  0.00000000000E+00  0.00000000000E+00 -0.85175456103E+03  0.19907803605E+04  0.17993667251E+04 0.  0.
        4    1    3    3  502    0 -0.47863283509E+03  0.53899442240E+03 -0.10214995910E+04  0.12502269416E+04  0.12699999809E+01 0.  1.
       -4    1    3    3    0  502  0.47863283509E+03 -0.53899442240E+03  0.16974502994E+03  0.74055341893E+03  0.12699999809E+01 0. -1.
</event>
<event>
 5   0  0.8802655E-05  0.1804197E+04  0.7818609E-02  0.8704071E-01
        2   -1    0    0  501    0  0.00000000000E+00  0.00000000000E+00  0.50118103735E+03  0.50118103735E+03  0.25500000920E-02 0. -1.
       -2   -1    0    0    0  501  0.00000000000E+00  0.00000000000E+00 -0.16237281396E+04  0.16237281396E+04  0.25500000920E-02 0.  1.
    10030    2    1    2    0    0  0.00000000000E+00  0.00000000000E+00 -0.11225471023E+04  0.21249091770E+04  0.18041970551E+04 0.  0.
        2    1    3    3  502    0  0.35365013753E+03 -0.70300495267E+03 -0.10806870944E+04  0.13368503952E+04  0.25500000920E-02 0.  1.
       -2    1    3    3    0  502 -0.35365013753E+03  0.70300495267E+03 -0.41860007913E+02  0.78805878177E+03  0.25500000920E-02 0. -1.
</event>
<event>
 5   0  0.4578107E-05  0.1800394E+04  0.7818609E-02  0.8706090E-01
        1   -1    0    0  501    0  0.00000000000E+00  0.00000000000E+00  0.11991945088E+04  0.11991945088E+04  0.50400001928E-02 0. -1.
       -1   -1    0    0    0  501  0.00000000000E+00  0.00000000000E+00 -0.67574892272E+03  0.67574892274E+03  0.50400001928E-02 0.  1.
    10030    2    1    2    0    0  0.00000000000E+00  0.00000000000E+00  0.52344558609E+03  0.18749434316E+04  0.18003937319E+04 0.  0.
        2    1    3    3  502    0  0.67756135694E+03  0.10296526708E+03  0.86955437500E+03  0.11071657734E+04  0.25500000920E-02 0. -1.
       -2    1    3    3    0  502 -0.67756135694E+03 -0.10296526708E+03 -0.34610878891E+03  0.76777765819E+03  0.25500000920E-02 0.  1.
</event>
<event>
 5   0  0.8802655E-05  0.1794882E+04  0.7818609E-02  0.8709026E-01
       -2   -1    0    0    0  501  0.00000000000E+00  0.00000000000E+00  0.52967510125E+03  0.52967510125E+03  0.25500000920E-02 0. -1.
        2   -1    0    0  501    0  0.00000000000E+00  0.00000000000E+00 -0.15205553037E+04  0.15205553037E+04  0.25500000920E-02 0.  1.
    10030    2    1    2    0    0  0.00000000000E+00  0.00000000000E+00 -0.99088020246E+03  0.20502304050E+04  0.17948819286E+04 0.  0.
        2    1    3    3  502    0 -0.88275776062E+03 -0.41955308449E+01 -0.31082587706E+03  0.93589080147E+03  0.25500000920E-02 0. -1.
       -2    1    3    3    0  502  0.88275776062E+03  0.41955308449E+01 -0.68005432539E+03  0.11143396035E+04  0.25500000920E-02 0.  1.
</event>
<event>
 5   0  0.9184414E-05  0.1799838E+04  0.7818609E-02  0.8706385E-01
        2   -1    0    0  501    0  0.00000000000E+00  0.00000000000E+00  0.15061942028E+04  0.15061942028E+04  0.25500000920E-02 0.  1.
       -2   -1    0    0    0  501  0.00000000000E+00  0.00000000000E+00 -0.53768271852E+03  0.53768271853E+03  0.25500000920E-02 0. -1.
    10030    2    1    2    0    0  0.00000000000E+00  0.00000000000E+00  0.96851148425E+03  0.20438769213E+04  0.17998384301E+04 0.  0.
        5    1    3    3  502    0 -0.41674644304E+03  0.45639346229E+03 -0.25854446921E+03  0.66995516474E+03  0.46999998093E+01 0. -1.
       -5    1    3    3    0  502  0.41674644304E+03 -0.45639346229E+03  0.12270559535E+04  0.13739217566E+04  0.46999998093E+01 0.  1.
</event>
<event>
 5   0  0.8892280E-05  0.1808970E+04  0.7818609E-02  0.8701544E-01
        2   -1    0    0  501    0  0.00000000000E+00  0.00000000000E+00  0.61823339232E+03  0.61823339232E+03  0.25500000920E-02 0.  1.
       -2   -1    0    0    0  501  0.00000000000E+00  0.00000000000E+00 -0.13232752186E+04  0.13232752186E+04  0.25500000920E-02 0. -1.
    10030    2    1    2    0    0  0.00000000000E+00  0.00000000000E+00 -0.70504182631E+03  0.19415086110E+04  0.18089697923E+04 0.  0.
        4    1    3    3  502    0 -0.40726965139E+03 -0.66001815368E+03 -0.85202151033E+03  0.11521435670E+04  0.12699999809E+01 0. -1.
       -4    1    3    3    0  502  0.40726965139E+03  0.66001815368E+03  0.14697968402E+03  0.78936504390E+03  0.12699999809E+01 0.  1.
</event>
<event>
 5   0  0.8802655E-05  0.1807055E+04  0.7818609E-02  0.8702557E-01
       -2   -1    0    0    0  501  0.00000000000E+00  0.00000000000E+00  0.72537643336E+03  0.72537643337E+03  0.25500000920E-02 0.  1.
        2   -1    0    0  501    0  0.00000000000E+00  0.00000000000E+00 -0.11254323094E+04  0.11254323094E+04  0.25500000920E-02 0. -1.
    10030    2    1    2    0    0  0.00000000000E+00  0.00000000000E+00 -0.40005587608E+03  0.18508087428E+04  0.18070551454E+04 0.  0.
        2    1    3    3  502    0  0.22318893420E+03  0.65833869980E+03  0.39112905308E+03  0.79762464868E+03  0.25500000920E-02 0.  1.
       -2    1    3    3    0  502 -0.22318893420E+03 -0.65833869980E+03 -0.79118492917E+03  0.10531840941E+04  0.25500000920E-02 0. -1.
</event>
<event>
 5   0  0.9184414E-05  0.1802132E+04  0.7818609E-02  0.8705166E-01
        2   -1    0    0  501    0  0.00000000000E+00  0.00000000000E+00  0.84215850161E+03  0.84215850161E+03  0.25500000920E-02 0. -1.
       -2   -1    0    0    0  501  0.00000000000E+00  0.00000000000E+00 -0.96409434596E+03  0.96409434597E+03  0.25500000920E-02 0.  1.
    10030    2    1    2    0    0  0.00000000000E+00  0.00000000000E+00 -0.12193584436E+03  0.18062528476E+04  0.18021323479E+04 0.  0.
        5    1    3    3  502    0  0.61211755854E+03  0.53317218206E+03 -0.45293456525E+03  0.92958716191E+03  0.46999998093E+01 0.  1.
       -5    1    3    3    0  502 -0.61211755854E+03 -0.53317218206E+03  0.33099872089E+03  0.87666568567E+03  0.46999998093E+01 0. -1.
</event>
<event>
 5   0  0.4535100E-05  0.1796568E+04  0.7818609E-02  0.8708127E-01
        1   -1    0    0  501    0  0.00000000000E+00  0.00000000000E+00  0.11702264673E+04  0.11702264673E+04  0.50400001928E-02 0. -1.
       -1   -1    0    0    0  501  0.00000000000E+00  0.00000000000E+00 -0.68953653056E+03  0.68953653058E+03  0.50400001928E-02 0.  1.
    10030    2    1    2    0    0  0.00000000000E+00  0.00000000000E+00  0.48068993675E+03  0.18597629979E+04  0.17965677257E+04 0.  0.
        1    1    3    3  502    0  0.47897437342E+03 -0.72949937998E+03  0.19951977515E+02  0.87291687875E+03  0.50400001928E-02 0.  1.
       -1    1    3    3    0  502 -0.47897437342E+03  0.72949937998E+03  0.46073795924E+03  0.98684611915E+03  0.50400001928E-02 0. -1.
</event>
<event>
 5   0  0.9147432E-05  0.1794317E+04  0.7818609E-02  0.8709327E-01
       -2   -1    0    0    0  501  0.00000000000E+00  0.00000000000E+00  0.33957337070E+03  0.33957337071E+03  0.25500000920E-02 0. -1.
        2   -1    0    0  501    0  0.00000000000E+00  0.00000000000E+00 -0.23703084420E+04  0.23703084420E+04  0.25500000920E-02 0.  1.
    10030    2    1    2    0    0  0.00000000000E+00  0.00000000000E+00 -0.20307350713E+04  0.27098818127E+04  0.17943172821E+04 0.  0.
        3    1    3    3  502    0 -0.16511896200E+02  0.72577351984E+03 -0.18114808524E+04  0.19515334313E+04  0.10100000352E+00 0.  1.
       -3    1    3    3    0  502  0.16511896200E+02 -0.72577351984E+03 -0.21925421890E+03  0.75834838136E+03  0.10100000352E+00 0. -1.
</event>
<event>
 5   0  0.4535100E-05  0.1784054E+04  0.7818609E-02  0.8714826E-01
       -1   -1    0    0    0  501  0.00000000000E+00  0.00000000000E+00  0.65652756223E+03  0.65652756225E+03  0.50400001928E-02 0. -1.
        1   -1    0    0  501    0  0.00000000000E+00  0.00000000000E+00 -0.12120009210E+04  0.12120009210E+04  0.50400001928E-02 0.  1.
    10030    2    1    2    0    0  0.00000000000E+00  0.00000000000E+00 -0.55547335880E+03  0.18685284833E+04  0.17840538222E+04 0.  0.
        1    1    3    3  502    0  0.42076660285E+03  0.64371745696E+02 -0.10987706145E+04  0.11783399845E+04  0.50400001928E-02 0.  1.
       -1    1    3    3    0  502 -0.42076660285E+03 -0.64371745696E+02  0.54329725573E+03  0.69018849877E+03  0.50400001928E-02 0. -1.
</event>
<event>
 5   0  0.8802655E-05  0.1820721E+04  0.7818609E-02  0.8695357E-01
       -2   -1    0    0    0  501  0.00000000000E+00  0.00000000000E+00  0.54490598899E+03  0.54490598899E+03  0.25500000920E-02 0. -1.
        2   -1    0    0  501    0  0.00000000000E+00  0.00000000000E+00 -0.15209154295E+04  0.15209154295E+04  0.25500000920E-02 0.  1.
    10030    2    1    2    0    0  0.00000000000E+00  0.00000000000E+00 -0.97600944051E+03  0.20658214185E+04  0.18207206554E+04 0.  0.
        2    1    3    3  502    0  0.54391555908E+03  0.31796731956E+03  0.25757671852E+03  0.68065638735E+03  0.25500000920E-02 0. -1.
       -2    1    3    3    0  502 -0.54391555908E+03 -0.31796731956E+03 -0.12335861590E+04  0.13851650311E+04  0.25500000920E-02 0.  1.
</event>
<event>
 5   0  0.9184414E-05  0.1814065E+04  0.7818609E-02  0.8698855E-01
        2   -1    0    0  501    0  0.00000000000E+00  0.00000000000E+00  0.44742658511E+03  0.44742658512E+03  0.25500000920E-02 0.  1.
       -2   -1    0    0    0  501  0.00000000000E+00  0.00000000000E+00 -0.18387560023E+04  0.18387560023E+04  0.25500000920E-02 0. -1.
    10030    2    1    2    0    0  0.00000000000E+00  0.00000000000E+00 -0.13913294172E+04  0.22861825874E+04  0.18140654001E+04 0.  0.
        5    1    3    3  502    0  0.18939680340E+03 -0.74268090691E+03 -0.84421992683E+02  0.77110002041E+03  0.46999998093E+01 0.  1.
       -5    1    3    3    0  502 -0.18939680340E+03  0.74268090691E+03 -0.13069074245E+04  0.15150825670E+04  0.46999998093E+01 0. -1.
</event>
<event>
 5   0  0.4335117E-05  0.1804008E+04  0.7818609E-02  0.8704171E-01
        1   -1    0    0  501    0  0.00000000000E+00  0.00000000000E+00  0.15742083040E+04  0.15742083040E+04  0.50400001928E-02 0. -1.
       -1   -1    0    0    0  501  0.00000000000E+00  0.00000000000E+00 -0.51683838338E+03  0.51683838341E+03  0.50400001928E-02 0.  1.
    10030    2    1    2    0    0  0.00000000000E+00  0.00000000000E+00  0.10573699206E+04  0.20910466874E+04  0.18040080654E+04 0.  0.
        3    1    3    3  502    0  0.87049324196E+03 -0.84062273181E+02  0.78470517719E+03  0.11749839043E+04  0.10100000352E+00 0. -1.
       -3    1    3    3    0  502 -0.87049324196E+03  0.84062273181E+02  0.27266474342E+03  0.91606278310E+03  0.10100000352E+00 0.  1.
</event>
<event>
 5   0  0.4494757E-05  0.1797352E+04  0.7818609E-02  0.8707709E-01
       -1   -1    0    0    0  501  0.00000000000E+00  0.00000000000E+00  0.52431284131E+03  0.52431284133E+03  0.50400001928E-02 0.  1.
        1   -1    0    0  501    0  0.00000000000E+00  0.00000000000E+00 -0.15403371839E+04  0.15403371839E+04  0.50400001928E-02 0. -1.
    10030    2    1    2    0    0  0.00000000000E+00  0.00000000000E+00 -0.10160243425E+04  0.20646500252E+04  0.17973520139E+04 0.  0.
        4    1    3    3  502    0  0.68165626924E+03  0.34581600253E+03  0.34898799863E+02  0.76515587702E+03  0.12699999809E+01 0.  1.
       -4    1    3    3    0  502 -0.68165626924E+03 -0.34581600253E+03 -0.10509231424E+04  0.12994941482E+04  0.12699999809E+01 0. -1.
</event>
<event>
 5   0  0.4623665E-05  0.1798025E+04  0.7818609E-02  0.8707350E-01
       -1   -1    0    0    0  501  0.00000000000E+00  0.00000000000E+00  0.28722241285E+03  0.28722241289E+03  0.50400001928E-02 0.  1.
        1   -1    0    0  501    0  0.00000000000E+00  0.00000000000E+00 -0.28139299090E+04  0.28139299090E+04  0.50400001928E-02 0. -1.
    10030    2    1    2    0    0  0.00000000000E+00  0.00000000000E+00 -0.25267074961E+04  0.31011523219E+04  0.17980252925E+04 0.  0.
        5    1    3    3  502    0 -0.31235812837E+03  0.81300826733E+03 -0.87903289683E+03  0.12374453389E+04  0.46999998093E+01 0.  1.
       -5    1    3    3    0  502  0.31235812837E+03 -0.81300826733E+03 -0.16476745993E+04  0.18637069829E+04  0.46999998093E+01 0. -1.
</event>
<event>
 5   0  0.3270375E-05  0.1786259E+04  0.7818609E-02  0.8713641E-01
       -3   -1    0    0    0  501  0.00000000000E+00  0.00000000000E+00  0.15122647779E+04  0.15122647813E+04  0.10100000352E+00 0. -1.
        3   -1    0    0  501    0  0.00000000000E+00  0.00000000000E+00 -0.52747415704E+03  0.52747416671E+03  0.10100000352E+00 0.  1.
    10030    2    1    2    0    0  0.00000000000E+00  0.00000000000E+00  0.98479062084E+03  0.20397389480E+04  0.17862593342E+04 0.  0.
        3    1    3    3  502    0  0.15475882320E+03 -0.83914725601E+03  0.79356875338E+03  0.11652766998E+04  0.10100000352E+00 0. -1.
       -3    1    3    3    0  502 -0.15475882320E+03  0.83914725601E+03  0.19122186746E+03  0.87446224814E+03  0.10100000352E+00 0.  1.
</event>
<event>
 5   0  0.3270375E-05  0.1804941E+04  0.7818609E-02  0.8703676E-01
       -3   -1    0    0    0  501  0.00000000000E+00  0.00000000000E+00  0.89368596175E+03  0.89368596745E+03  0.10100000352E+00 0. -1.
        3   -1    0    0  501    0  0.00000000000E+00  0.00000000000E+00 -0.91134125756E+03  0.91134126316E+03  0.10100000352E+00 0.  1.
    10030    2    1    2    0    0  0.00000000000E+00  0.00000000000E+00 -0.17655295820E+02  0.18050272306E+04  0.18049408837E+04 0.  0.
        4    1    3    3  502    0  0.88707558923E+03 -0.16379797149E+03  0.17976788508E+02  0.90225143630E+03  0.12699999809E+01 0. -1.
       -4    1    3    3    0  502 -0.88707558923E+03  0.16379797149E+03 -0.35632084328E+02  0.90277579432E+03  0.12699999809E+01 0.  1.
</event>
<event>
 5   0  0.4335117E-05  0.1801281E+04  0.7818609E-02  0.8705619E-01
       -1   -1    0    0    0  501  0.00000000000E+00  0.00000000000E+00  0.71068847884E+03  0.71068847886E+03  0.50400001928E-02 0.  1.
        1   -1    0    0  501    0  0.00000000000E+00  0.00000000000E+00 -0.11413625489E+04  0.11413625489E+04  0.50400001928E-02 0. -1.
    10030    2    1    2    0    0  0.00000000000E+00  0.00000000000E+00 -0.43067407002E+03  0.18520510277E+04  0.18012808928E+04 0.  0.
        3    1    3    3  502    0 -0.70576852788E+03  0.43121585612E+01  0.35991914270E+03  0.79225602499E+03  0.10100000352E+00 0.  1.
       -3    1    3    3    0  502  0.70576852788E+03 -0.43121585612E+01 -0.79059321271E+03  0.10597950027E+04  0.10100000352E+00 0. -1.
</event>
<event>
 5   0  0.9184414E-05  0.1796564E+04  0.7818609E-02  0.8708129E-01
       -2   -1    0    0    0  501  0.00000000000E+00  0.00000000000E+00  0.56368678501E+03  0.56368678501E+03  0.25500000920E-02 0.  1.
        2   -1    0    0  501    0  0.00000000000E+00  0.00000000000E+00 -0.14314871852E+04  0.14314871852E+04  0.25500000920E-02 0. -1.
    10030    2    1    2    0    0  0.00000000000E+00  0.00000000000E+00 -0.86780040024E+03  0.19951739703E+04  0.17965638416E+04 0.  0.
        5    1    3    3  502    0  0.27915968973E+03 -0.22915196892E+03  0.47948755154E+03  0.60030921974E+03  0.46999998093E+01 0.  1.
       -5    1    3    3    0  502 -0.27915968973E+03  0.22915196892E+03 -0.13472879518E+04  0.13948647505E+04  0.46999998093E+01 0. -1.
</event>
<event>
 5   0  0.3270375E-05  0.1790015E+04  0.7818609E-02  0.8711627E-01
       -3   -1    0    0    0  501  0.00000000000E+00  0.00000000000E+00  0.11588317736E+04  0.11588317780E+04  0.10100000352E+00 0. -1.
        3   -1    0    0  501    0  0.00000000000E+00  0.00000000000E+00 -0.69124668141E+03  0.69124668879E+03  0.10100000352E+00 0.  1.
    10030    2    1    2    0    0  0.00000000000E+00  0.00000000000E+00  0.46758509219E+03  0.18500784668E+04  0.17900152275E+04 0.  0.
        4    1    3    3  502    0 -0.73404416610E+03 -0.20828575774E+03 -0.24970029654E+03  0.80284222962E+03  0.12699999809E+01 0.  1.
       -4    1    3    3    0  502  0.73404416610E+03  0.20828575774E+03  0.71728538873E+03  0.10472362372E+04  0.12699999809E+01 0. -1.
</event>
<event>
 5   0  0.9184414E-05  0.1826355E+04  0.7818609E-02  0.8692408E-01
       -2   -1    0    0    0  501  0.00000000000E+00  0.00000000000E+00  0.83080015319E+03  0.83080015320E+03  0.25500000920E-02 0. -1.
        2   -1    0    0  501    0  0.00000000000E+00  0.00000000000E+00 -0.10037227985E+04  0.10037227985E+04  0.25500000920E-02 0.  1.
    10030    2    1    2    0    0  0.00000000000E+00  0.00000000000E+00 -0.17292264531E+03  0.18345229517E+04  0.18263548995E+04 0.  0.
        5    1    3    3  502    0  0.58430044711E+03  0.35628077097E+03 -0.69375432870E+03  0.97450508406E+03  0.46999998093E+01 0.  1.
       -5    1    3    3    0  502 -0.58430044711E+03 -0.35628077097E+03  0.52083168339E+03  0.86001786765E+03  0.46999998093E+01 0. -1.
</event>
<event>
 5   0  0.4535100E-05  0.1813313E+04  0.7818609E-02  0.8699252E-01
       -1   -1    0    0    0  501  0.00000000000E+00  0.00000000000E+00  0.53676258902E+03  0.53676258904E+03  0.50400001928E-02 0. -1.
        1   -1    0    0  501    0  0.00000000000E+00  0.00000000000E+00 -0.15314513464E+04  0.15314513464E+04  0.50400001928E-02 0.  1.
    10030    2    1    2    0    0  0.00000000000E+00  0.00000000000E+00 -0.99468875740E+03  0.20682139355E+04  0.18133127581E+04 0.  0.
        1    1    3    3  502    0 -0.80469606775E+03  0.16764176073E+03 -0.60956265064E+02  0.82423005749E+03  0.50400001928E-02 0.  1.
       -1    1    3    3    0  502  0.80469606775E+03 -0.16764176073E+03 -0.93373249234E+03  0.12439838780E+04  0.50400001928E-02 0. -1.
</event>
<event>
 5   0  0.4623665E-05  0.1821184E+04  0.7818609E-02  0.8695115E-01
        1   -1    0    0  501    0  0.00000000000E+00  0.00000000000E+00  0.54991494202E+03  0.54991494204E+03  0.50400001928E-02 0.  1.
       -1   -1    0    0    0  501  0.00000000000E+00  0.00000000000E+00 -0.15078288126E+04  0.15078288126E+04  0.50400001928E-02 0. -1.
    10030    2    1    2    0    0  0.00000000000E+00  0.00000000000E+00 -0.95791387060E+03  0.20577437547E+04  0.18211837844E+04 0.  0.
        5    1    3    3  502    0 -0.44947346942E+03 -0.50994559836E+03 -0.11635312414E+04  0.13475525789E+04  0.46999998093E+01 0.  1.
       -5    1    3    3    0  502  0.44947346942E+03  0.50994559836E+03  0.20561737084E+03  0.71019117580E+03  0.46999998093E+01 0. -1.
</event>
<event>
 5   0  0.9147432E-05  0.1801785E+04  0.7818609E-02  0.8705351E-01
       -2   -1    0    0    0  501  0.00000000000E+00  0.00000000000E+00  0.75380244745E+03  0.75380244745E+03  0.25500000920E-02 0. -1.
        2   -1    0    0  501    0  0.00000000000E+00  0.00000000000E+00 -0.10766849250E+04  0.10766849250E+04  0.25500000920E-02 0.  1.
    10030    2    1    2    0    0  0.00000000000E+00  0.00000000000E+00 -0.32288247752E+03  0.18304873724E+04  0.18017854829E+04 0.  0.
        3    1    3    3  502    0 -0.73907146785E+03  0.47772797547E+03 -0.35727356094E+03  0.94978685013E+03  0.10100000352E+00 0.  1.
       -3    1    3    3    0  502  0.73907146785E+03 -0.47772797547E+03  0.34391083423E+02  0.88070052229E+03  0.10100000352E+00 0. -1.
</event>
<event>
 5   0  0.9184414E-05  0.1807642E+04  0.7818609E-02  0.8702246E-01
       -2   -1    0    0    0  501  0.00000000000E+00  0.00000000000E+00  0.51846450667E+03  0.51846450667E+03  0.25500000920E-02 0. -1.
        2   -1    0    0  501    0  0.00000000000E+00  0.00000000000E+00 -0.15755992896E+04  0.15755992896E+04  0.25500000920E-02 0.  1.
    10030    2    1    2    0    0  0.00000000000E+00  0.00000000000E+00 -0.10571347829E+04  0.20940637962E+04  0.18076418986E+04 0.  0.
        5    1    3    3  502    0 -0.35672013116E+03 -0.41519893724E+03  0.30457590105E+03  0.62644072262E+03  0.46999998093E+01 0. -1.
       -5    1    3    3    0  502  0.35672013116E+03  0.41519893724E+03 -0.13617106839E+04  0.14676230736E+04  0.46999998093E+01 0.  1.
</event>
<event>
 5   0  0.3270375E-05  0.1801435E+04  0.7818609E-02  0.8705537E-01
       -3   -1    0    0    0  501  0.00000000000E+00  0.00000000000E+00  0.97338527571E+03  0.97338528095E+03  0.10100000352E+00 0.  1.
        3   -1    0    0  501    0  0.00000000000E+00  0.00000000000E+00 -0.83347491569E+03  0.83347492181E+03  0.10100000352E+00 0. -1.
    10030    2    1    2    0    0  0.00000000000E+00  0.00000000000E+00  0.13991036003E+03  0.18068602028E+04  0.18014352288E+04 0.  0.
        1    1    3    3  502    0 -0.67829270579E+03  0.58550562593E+03 -0.21941627336E+02  0.89631426841E+03  0.50400001928E-02 0. -1.
       -1    1    3    3    0  502  0.67829270579E+03 -0.58550562593E+03  0.16185198736E+03  0.91054593435E+03  0.50400001928E-02 0.  1.
</event>
<event>
 5   0  0.8892280E-05  0.1793067E+04  0.7818609E-02  0.8709995E-01
        2   -1    0    0  501    0  0.00000000000E+00  0.00000000000E+00  0.16322850851E+04  0.16322850851E+04  0.25500000920E-02 0. -1.
       -2   -1    0    0    0  501  0.00000000000E+00  0.00000000000E+00 -0.49242126817E+03  0.49242126818E+03  0.25500000920E-02 0.  1.
    10030    2    1    2    0    0  0.00000000000E+00  0.00000000000E+00  0.11398638169E+04  0.21247063532E+04  0.17930665259E+04 0.  0.
        4    1    3    3  502    0  0.23869155548E+03 -0.20958263814E+03  0.15633694185E+04  0.15953131644E+04  0.12699999809E+01 0. -1.
       -4    1    3    3    0  502 -0.23869155548E+03  0.20958263814E+03 -0.42350560163E+03  0.52939318883E+03  0.12699999809E+01 0.  1.
</event>
<event>
 5   0  0.4535100E-05  0.1787900E+04  0.7818609E-02  0.8712761E-01
        1   -1    0    0  501    0  0.00000000000E+00  0.00000000000E+00  0.10216266403E+04  0.10216266403E+04  0.50400001928E-02 0.  1.
       -1   -1    0    0    0  501  0.00000000000E+00  0.00000000000E+00 -0.78222979459E+03  0.78222979461E+03  0.50400001928E-02 0. -1.
    10030    2    1    2    0    0  0.00000000000E+00  0.00000000000E+00  0.23939684569E+03  0.18038564349E+04  0.17879002176E+04 0.  0.
        1    1    3    3  502    0 -0.80055123761E+03 -0.35200629790E+03 -0.67309708355E+02  0.87710963662E+03  0.50400001928E-02 0. -1.
       -1    1    3    3    0  502  0.80055123761E+03  0.35200629790E+03  0.30670655404E+03  0.92674679827E+03  0.50400001928E-02 0.  1.
</event>
<event>
 5   0  0.4494757E-05  0.1810746E+04  0.7818609E-02  0.8700605E-01
       -1   -1    0    0    0  501  0.00000000000E+00  0.00000000000E+00  0.11904289159E+04  0.11904289160E+04  0.50400001928E-02 0. -1.
        1   -1    0    0  501    0  0.00000000000E+00  0.00000000000E+00 -0.68857584057E+03  0.68857584059E+03  0.50400001928E-02 0.  1.
    10030    2    1    2    0    0  0.00000000000E+00  0.00000000000E+00  0.50185307537E+03  0.18790047565E+04  0.18107463560E+04 0.  0.
        4    1    3    3  502    0  0.16766277603E+02 -0.71091692169E+03  0.83242083144E+03  0.10948105001E+04  0.12699999809E+01 0. -1.
       -4    1    3    3    0  502 -0.16766277603E+02  0.71091692169E+03 -0.33056775606E+03  0.78419425645E+03  0.12699999809E+01 0.  1.
</event>
<event>
 5   0  0.4494757E-05  0.1795152E+04  0.7818609E-02  0.8708882E-01
        1   -1    0    0  501    0  0.00000000000E+00  0.00000000000E+00  0.70159387585E+03  0.70159387586E+03  0.50400001928E-02 0. -1.
       -1   -1    0    0    0  501  0.00000000000E+00  0.00000000000E+00 -0.11483034403E+04  0.11483034403E+04  0.50400001928E-02 0.  1.
    10030    2    1    2    0    0  0.00000000000E+00  0.00000000000E+00 -0.44670956448E+03  0.18498973162E+04  0.17951519839E+04 0.  0.
        4    1    3    3  502    0  0.32110095880E+03  0.45547558071E+03  0.50172011531E+03  0.74985899833E+03  0.12699999809E+01 0. -1.
       -4    1    3    3    0  502 -0.32110095880E+03 -0.45547558071E+03 -0.94842967979E+03  0.11000383179E+04  0.12699999809E+01 0.  1.
</event>
<event>
 5   0  0.4494757E-05  0.1802249E+04  0.7818609E-02  0.8705104E-01
       -1   -1    0    0    0  501  0.00000000000E+00  0.00000000000E+00  0.38010109083E+03  0.38010109086E+03  0.50400001928E-02 0. -1.
        1   -1    0    0  501    0  0.00000000000E+00  0.00000000000E+00 -0.21363415383E+04  0.21363415383E+04  0.50400001928E-02 0.  1.
    10030    2    1    2    0    0  0.00000000000E+00  0.00000000000E+00 -0.17562404474E+04  0.25164426291E+04  0.18022494268E+04 0.  0.
        4    1    3    3  502    0  0.18300231028E+03 -0.79332281286E+01  0.35383083688E+03  0.39843525911E+03  0.12699999809E+01 0. -1.
       -4    1    3    3    0  502 -0.18300231028E+03  0.79332281286E+01 -0.21100712843E+04  0.21180073700E+04  0.12699999809E+01 0.  1.
</event>
<event>
 5   0  0.4535100E-05  0.1806764E+04  0.7818609E-02  0.8702711E-01
        1   -1    0    0  501    0  0.00000000000E+00  0.00000000000E+00  0.92972966332E+03  0.92972966334E+03  0.50400001928E-02 0. -1.
       -1   -1    0    0    0  501  0.00000000000E+00  0.00000000000E+00 -0.87778070354E+03  0.87778070355E+03  0.50400001928E-02 0.  1.
    10030    2    1    2    0    0  0.00000000000E+00  0.00000000000E+00  0.51948959786E+02  0.18075103669E+04  0.18067636901E+04 0.  0.
        1    1    3    3  502    0 -0.82387507251E+03  0.17924391895E+03 -0.29850542709E+03  0.89442943132E+03  0.50400001928E-02 0.  1.
       -1    1    3    3    0  502  0.82387507251E+03 -0.17924391895E+03  0.35045438688E+03  0.91308093557E+03  0.50400001928E-02 0. -1.
</event>
<event>
 5   0  0.4623665E-05  0.1805198E+04  0.7818609E-02  0.8703540E-01
       -1   -1    0    0    0  501  0.00000000000E+00  0.00000000000E+00  0.48478206002E+03  0.48478206005E+03  0.50400001928E-02 0. -1.
        1   -1    0    0  501    0  0.00000000000E+00  0.00000000000E+00 -0.16805177229E+04  0.16805177229E+04  0.50400001928E-02 0.  1.
    10030    2    1    2    0    0  0.00000000000E+00  0.00000000000E+00 -0.11957356628E+04  0.21652997829E+04  0.18051978768E+04 0.  0.
        5    1    3    3  502    0 -0.28918971007E+03  0.11637481167E+03  0.41814883570E+03  0.52157868437E+03  0.46999998093E+01 0. -1.
       -5    1    3    3    0  502  0.28918971007E+03 -0.11637481167E+03 -0.16138844985E+04  0.16437210986E+04  0.46999998093E+01 0.  1.
</event>
<event>
 5   0  0.8892280E-05  0.1806115E+04  0.7818609E-02  0.8703055E-01
        2   -1    0    0  501    0  0.00000000000E+00  0.00000000000E+00  0.28932210254E+04  0.28932210254E+04  0.25500000920E-02 0. -1.
       -2   -1    0    0    0  501  0.00000000000E+00  0.00000000000E+00 -0.28187009962E+03  0.28187009963E+03  0.25500000920E-02 0.  1.
    10030    2    1    2    0    0  0.00000000000E+00  0.00000000000E+00  0.26113509258E+04  0.31750911250E+04  0.18061146128E+04 0.  0.
        4    1    3    3  502    0  0.61062300680E+03 -0.19028635757E+03  0.24264285071E+04  0.25093079260E+04  0.12699999809E+01 0. -1.
       -4    1    3    3    0  502 -0.61062300680E+03  0.19028635757E+03  0.18492241866E+03  0.66578319905E+03  0.12699999809E+01 0.  1.
</event>
<event>
 5   0  0.4623665E-05  0.1796230E+04  0.7818609E-02  0.8708307E-01
       -1   -1    0    0    0  501  0.00000000000E+00  0.00000000000E+00  0.77159099396E+03  0.77159099398E+03  0.50400001928E-02 0. -1.
        1   -1    0    0  501    0  0.00000000000E+00  0.00000000000E+00 -0.10453858578E+04  0.10453858578E+04  0.50400001928E-02 0.  1.
    10030    2    1    2    0    0  0.00000000000E+00  0.00000000000E+00 -0.27379486387E+03  0.18169768518E+04  0.17962297327E+04 0.  0.
        5    1    3    3  502    0 -0.11994756543E+03 -0.36828633552E+03 -0.95654414470E+03  0.10319985630E+04  0.46999998093E+01 0.  1.
       -5    1    3    3    0  502  0.11994756543E+03  0.36828633552E+03  0.68274928082E+03  0.78497828877E+03  0.46999998093E+01 0. -1.
</event>
<event>
 5   0  0.8892280E-05  0.1793659E+04  0.7818609E-02  0.8709679E-01
        2   -1    0    0  501    0  0.00000000000E+00  0.00000000000E+00  0.97156464642E+03  0.97156464642E+03  0.25500000920E-02 0. -1.
       -2   -1    0    0    0  501  0.00000000000E+00  0.00000000000E+00 -0.82784324506E+03  0.82784324506E+03  0.25500000920E-02 0.  1.
    10030    2    1    2    0    0  0.00000000000E+00  0.00000000000E+00  0.14372140136E+03  0.17994078915E+04  0.17936590865E+04 0.  0.
        4    1    3    3  502    0  0.18797918969E+03  0.84752330542E+03 -0.15396004285E+03  0.88166730498E+03  0.12699999809E+01 0.  1.
       -4    1    3    3    0  502 -0.18797918969E+03 -0.84752330542E+03  0.29768144421E+03  0.91774058650E+03  0.12699999809E+01 0. -1.
</event>
<event>
 5   0  0.4535100E-05  0.1798310E+04  0.7818609E-02  0.8707199E-01
       -1   -1    0    0    0  501  0.00000000000E+00  0.00000000000E+00  0.79263420381E+03  0.79263420382E+03  0.50400001928E-02 0. -1.
        1   -1    0    0  501    0  0.00000000000E+00  0.00000000000E+00 -0.10199906155E+04  0.10199906155E+04  0.50400001928E-02 0.  1.
    10030    2    1    2    0    0  0.00000000000E+00  0.00000000000E+00 -0.22735641173E+03  0.18126248194E+04  0.17983097058E+04 0.  0.
        1    1    3    3  502    0  0.13424942696E+03  0.88339674665E+03 -0.21480997828E+03  0.91899730545E+03  0.50400001928E-02 0.  1.
       -1    1    3    3    0  502 -0.13424942696E+03 -0.88339674665E+03 -0.12546433443E+02  0.89362751392E+03  0.50400001928E-02 0. -1.
</event>
<event>
 5   0  0.8893075E-05  0.1794429E+04  0.7818609E-02  0.8709268E-01
       -2   -1    0    0    0  501  0.00000000000E+00  0.00000000000E+00  0.20748446729E+04  0.20748446729E+04  0.25500000920E-02 0. -1.
        2   -1    0    0  501    0  0.00000000000E+00  0.00000000000E+00 -0.38797801162E+03  0.38797801163E+03  0.25500000920E-02 0.  1.
    10030    2    1    2    0    0  0.00000000000E+00  0.00000000000E+00  0.16868666613E+04  0.24628226845E+04  0.17944292804E+04 0.  0.
        1    1    3    3  502    0  0.61409511908E+03 -0.56708636451E+03  0.12909012342E+04  0.15378965363E+04  0.50400001928E-02 0. -1.
       -1    1    3    3    0  502 -0.61409511908E+03  0.56708636451E+03  0.39596542710E+03  0.92492614817E+03  0.50400001928E-02 0.  1.
</event>
<event>
 5   0  0.4335117E-05  0.1798590E+04  0.7818609E-02  0.8707050E-01
        1   -1    0    0  501    0  0.00000000000E+00  0.00000000000E+00  0.15856559478E+04  0.15856559478E+04  0.50400001928E-02 0.  1.
       -1   -1    0    0    0  501  0.00000000000E+00  0.00000000000E+00 -0.51002962857E+03  0.51002962859E+03  0.50400001928E-02 0. -1.
    10030    2    1    2    0    0  0.00000000000E+00  0.00000000000E+00  0.10756263192E+04  0.20956855764E+04  0.17985900190E+04 0.  0.
        3    1    3    3  502    0  0.62734104161E+03  0.43455305045E+03 -0.16522778435E+02  0.76332571590E+03  0.10100000352E+00 0. -1.
       -3    1    3    3    0  502 -0.62734104161E+03 -0.43455305045E+03  0.10921490976E+04  0.13323598605E+04  0.10100000352E+00 0.  1.
</event>
<event>
 5   0  0.8802655E-05  0.1802869E+04  0.7818609E-02  0.8704775E-01
       -2   -1    0    0    0  501  0.00000000000E+00  0.00000000000E+00  0.44076033506E+03  0.44076033507E+03  0.25500000920E-02 0.  1.
        2   -1    0    0  501    0  0.00000000000E+00  0.00000000000E+00 -0.18435962735E+04  0.18435962735E+04  0.25500000920E-02 0. -1.
    10030    2    1    2    0    0  0.00000000000E+00  0.00000000000E+00 -0.14028359384E+04  0.22843566085E+04  0.18028689483E+04 0.  0.
        2    1    3    3  502    0  0.39578091131E+02 -0.40777275993E+03 -0.17188179731E+04  0.17669692340E+04  0.25500000920E-02 0. -1.
       -2    1    3    3    0  502 -0.39578091131E+02  0.40777275993E+03  0.31598203475E+03  0.51738737454E+03  0.25500000920E-02 0.  1.
</event>
<event>
 5   0  0.4535100E-05  0.1803916E+04  0.7818609E-02  0.8704220E-01
        1   -1    0    0  501    0  0.00000000000E+00  0.00000000000E+00  0.93620443657E+03  0.93620443658E+03  0.50400001928E-02 0.  1.
       -1   -1    0    0    0  501  0.00000000000E+00  0.00000000000E+00 -0.86896420565E+03  0.86896420567E+03  0.50400001928E-02 0. -1.
    10030    2    1    2    0    0  0.00000000000E+00  0.00000000000E+00  0.67240230916E+02  0.18051686423E+04  0.18039159011E+04 0.  0.
        1    1    3    3  502    0 -0.31963853422E+03  0.83976591652E+03 -0.44872596177E+02  0.89966056767E+03  0.50400001928E-02 0.  1.
       -1    1    3    3    0  502  0.31963853422E+03 -0.83976591652E+03  0.11211282709E+03  0.90550807458E+03  0.50400001928E-02 0. -1.
</event>
<event>
 5   0  0.4335117E-05  0.1800057E+04  0.7818609E-02  0.8706269E-01
        1   -1    0    0  501    0  0.00000000000E+00  0.00000000000E+00  0.98505834963E+03  0.98505834964E+03  0.50400001928E-02 0. -1.
       -1   -1    0    0    0  501  0.00000000000E+00  0.00000000000E+00 -0.82233802956E+03  0.82233802958E+03  0.50400001928E-02 0.  1.
    10030    2    1    2    0    0  0.00000000000E+00  0.00000000000E+00  0.16272032006E+03  0.18073963792E+04  0.18000566016E+04 0.  0.
        3    1    3    3  502    0  0.77763252976E+03 -0.41770787811E+03 -0.95022596285E+02  0.88781840868E+03  0.10100000352E+00 0.  1.
       -3    1    3    3    0  502 -0.77763252976E+03  0.41770787811E+03  0.25774291634E+03  0.91957797054E+03  0.10100000352E+00 0. -1.
</event>
<event>
 5   0  0.4535100E-05  0.1807593E+04  0.7818609E-02  0.8702272E-01
       -1   -1    0    0    0  501  0.00000000000E+00  0.00000000000E+00  0.70446856100E+03  0.70446856102E+03  0.50400001928E-02 0. -1.
        1   -1    0    0  501    0  0.00000000000E+00  0.00000000000E+00 -0.11595232567E+04  0.11595232568E+04  0.50400001928E-02 0.  1.
    10030    2    1    2    0    0  0.00000000000E+00  0.00000000000E+00 -0.45505469575E+03  0.18639918178E+04  0.18075925206E+04 0.  0.
        1    1    3    3  502    0  0.29176391935E+03 -0.72920914129E+03 -0.68866638397E+03  0.10445733793E+04  0.50400001928E-02 0.  1.
       -1    1    3    3    0  502 -0.29176391935E+03  0.72920914129E+03  0.23361168822E+03  0.81941843845E+03  0.50400001928E-02 0. -1.
</event>
<event>
 5   0  0.9184414E-05  0.1797265E+04  0.7818609E-02  0.8707755E-01
        2   -1    0    0  501    0  0.00000000000E+00  0.00000000000E+00  0.63134556014E+03  0.63134556015E+03  0.25500000920E-02 0. -1.
       -2   -1    0    0    0  501  0.00000000000E+00  0.00000000000E+00 -0.12790789412E+04  0.12790789412E+04  0.25500000920E-02 0.  1.
    10030    2    1    2    0    0  0.00000000000E+00  0.00000000000E+00 -0.64773338101E+03  0.19104245013E+04  0.17972654902E+04 0.  0.
        5    1    3    3  502    0  0.72744287127E+03  0.11854161006E+03  0.22259643988E+03  0.76993279533E+03  0.46999998093E+01 0. -1.
       -5    1    3    3    0  502 -0.72744287127E+03 -0.11854161006E+03 -0.87032982089E+03  0.11404917060E+04  0.46999998093E+01 0.  1.
</event>
<event>
 5   0  0.9147432E-05  0.1803826E+04  0.7818609E-02  0.8704267E-01
        2   -1    0    0  501    0  0.00000000000E+00  0.00000000000E+00  0.23968626402E+04  0.23968626402E+04  0.25500000920E-02 0. -1.
       -2   -1    0    0    0  501  0.00000000000E+00  0.00000000000E+00 -0.33937997450E+03  0.33937997451E+03  0.25500000920E-02 0.  1.
    10030    2    1    2    0    0  0.00000000000E+00  0.00000000000E+00  0.20574826657E+04  0.27362426147E+04  0.18038261354E+04 0.  0.
        3    1    3    3  502    0  0.47508839770E+03  0.24943558579E+03 -0.70908930321E+02  0.54125334519E+03  0.10100000352E+00 0.  1.
       -3    1    3    3    0  502 -0.47508839770E+03 -0.24943558579E+03  0.21283915960E+04  0.21949892695E+04  0.10100000352E+00 0. -1.
</event>
<event>
 5   0  0.8893075E-05  0.1801519E+04  0.7818609E-02  0.8705492E-01
        2   -1    0    0  501    0  0.00000000000E+00  0.00000000000E+00  0.19203500994E+04  0.19203500994E+04  0.25500000920E-02 0. -1.
       -2   -1    0    0    0  501  0.00000000000E+00  0.00000000000E+00 -0.42251038804E+03  0.42251038804E+03  0.25500000920E-02 0.  1.
    10030    2    1    2    0    0  0.00000000000E+00  0.00000000000E+00  0.14978397114E+04  0.23428604874E+04  0.18015192096E+04 0.  0.
        1    1    3    3  502    0  0.16961499483E+03  0.15228932636E+03 -0.38437967426E+03  0.44688815088E+03  0.50400001928E-02 0.  1.
       -1    1    3    3    0  502 -0.16961499483E+03 -0.15228932636E+03  0.18822193856E+04  0.18959723366E+04  0.50400001928E-02 0. -1.
</event>
<event>
 5   0  0.4578107E-05  0.1796984E+04  0.7818609E-02  0.8707905E-01
        1   -1    0    0  501    0  0.00000000000E+00  0.00000000000E+00  0.90260753065E+03  0.90260753066E+03  0.50400001928E-02 0.  1.
       -1   -1    0    0    0  501  0.00000000000E+00  0.00000000000E+00 -0.89439476423E+03  0.89439476424E+03  0.50400001928E-02 0. -1.
    10030    2    1    2    0    0  0.00000000000E+00  0.00000000000E+00  0.82127664202E+01  0.17970022949E+04  0.17969835276E+04 0.  0.
        2    1    3    3  502    0  0.42717853764E+03 -0.27647168698E+03 -0.73642100119E+03  0.89511674530E+03  0.25500000920E-02 0. -1.
       -2    1    3    3    0  502 -0.42717853764E+03  0.27647168698E+03  0.74463376761E+03  0.90188554960E+03  0.25500000920E-02 0.  1.
</event>
<event>
 5   0  0.4535100E-05  0.1816912E+04  0.7818609E-02  0.8697357E-01
       -1   -1    0    0    0  501  0.00000000000E+00  0.00000000000E+00  0.12337726246E+04  0.12337726246E+04  0.50400001928E-02 0.  1.
        1   -1    0    0  501    0  0.00000000000E+00  0.00000000000E+00 -0.66891754682E+03  0.66891754684E+03  0.50400001928E-02 0. -1.
    10030    2    1    2    0    0  0.00000000000E+00  0.00000000000E+00  0.56485507781E+03  0.19026901715E+04  0.18169118387E+04 0.  0.
        1    1    3    3  502    0  0.27973918096E+03  0.12592417797E+03  0.11778886774E+04  0.12171822560E+04  0.50400001928E-02 0.  1.
       -1    1    3    3    0  502 -0.27973918096E+03 -0.12592417797E+03 -0.61303359958E+03  0.68550791549E+03  0.50400001928E-02 0. -1.
</event>
<event>
 5   0  0.9184414E-05  0.1794138E+04  0.7818609E-02  0.8709423E-01
        2   -1    0    0  501    0  0.00000000000E+00  0.00000000000E+00  0.10606876935E+04  0.10606876935E+04  0.25500000920E-02 0. -1.
       -2   -1    0    0    0  501  0.00000000000E+00  0.00000000000E+00 -0.75868950471E+03  0.75868950471E+03  0.25500000920E-02 0.  1.
    10030    2    1    2    0    0  0.00000000000E+00  0.00000000000E+00  0.30199818883E+03  0.18193771983E+04  0.17941378106E+04 0.  0.
        5    1    3    3  502    0 -0.26493698299E+03 -0.41287002338E+03 -0.61060373552E+03  0.78327024263E+03  0.46999998093E+01 0.  1.
       -5    1    3    3    0  502  0.26493698299E+03  0.41287002338E+03  0.91260192435E+03  0.10361069556E+04  0.46999998093E+01 0. -1.
</event>
<event>
 5   0  0.4335117E-05  0.1800311E+04  0.7818609E-02  0.8706134E-01
        1   -1    0    0  501    0  0.00000000000E+00  0.00000000000E+00  0.70457267619E+03  0.70457267621E+03  0.50400001928E-02 0. -1.
       -1   -1    0    0    0  501  0.00000000000E+00  0.00000000000E+00 -0.11500301962E+04  0.11500301962E+04  0.50400001928E-02 0.  1.
    10030    2    1    2    0    0  0.00000000000E+00  0.00000000000E+00 -0.44545752001E+03  0.18546028724E+04  0.18003109210E+04 0.  0.
        3    1    3    3  502    0 -0.47893376543E+03  0.16878687672E+03  0.54293037407E+03  0.74339758051E+03  0.10100000352E+00 0. -1.
       -3    1    3    3    0  502  0.47893376543E+03 -0.16878687672E+03 -0.98838789407E+03  0.11112052919E+04  0.10100000352E+00 0.  1.
</event>
<event>
 5   0  0.4494757E-05  0.1791835E+04  0.7818609E-02  0.8710654E-01
        1   -1    0    0  501    0  0.00000000000E+00  0.00000000000E+00  0.96644475317E+03  0.96644475318E+03  0.50400001928E-02 0. -1.
       -1   -1    0    0    0  501  0.00000000000E+00  0.00000000000E+00 -0.83053674927E+03  0.83053674928E+03  0.50400001928E-02 0.  1.
    10030    2    1    2    0    0  0.00000000000E+00  0.00000000000E+00  0.13590800390E+03  0.17969815025E+04  0.17918346840E+04 0.  0.
        4    1    3    3  502    0  0.40472958699E+03  0.27878331720E+03  0.81919852395E+03  0.95530833298E+03  0.12699999809E+01 0. -1.
       -4    1    3    3    0  502 -0.40472958699E+03 -0.27878331720E+03 -0.68329052005E+03  0.84167316948E+03  0.12699999809E+01 0.  1.
</event>
<event>
 5   0  0.9184414E-05  0.1805210E+04  0.7818609E-02  0.8703534E-01
        2   -1    0    0  501    0  0.00000000000E+00  0.00000000000E+00  0.72014559247E+03  0.72014559248E+03  0.25500000920E-02 0. -1.
       -2   -1    0    0    0  501  0.00000000000E+00  0.00000000000E+00 -0.11312935769E+04  0.11312935769E+04  0.25500000920E-02 0.  1.
    10030    2    1    2    0    0  0.00000000000E+00  0.00000000000E+00 -0.41114798445E+03  0.18514391694E+04  0.18052103293E+04 0.  0.
        5    1    3    3  502    0 -0.10787475213E+03  0.75246777812E+03 -0.70468750676E+03  0.10365574231E+04  0.46999998093E+01 0.  1.
       -5    1    3    3    0  502  0.10787475213E+03 -0.75246777812E+03  0.29353952231E+03  0.81488174627E+03  0.46999998093E+01 0. -1.
</event>
<event>
 5   0  0.4623665E-05  0.1798830E+04  0.7818609E-02  0.8706922E-01
        1   -1    0    0  501    0  0.00000000000E+00  0.00000000000E+00  0.13912602544E+04  0.13912602544E+04  0.50400001928E-02 0.  1.
       -1   -1    0    0    0  501  0.00000000000E+00  0.00000000000E+00 -0.58144918835E+03  0.58144918837E+03  0.50400001928E-02 0. -1.
    10030    2    1    2    0    0  0.00000000000E+00  0.00000000000E+00  0.80981106604E+03  0.19727094428E+04  0.17988297815E+04 0.  0.
        5    1    3    3  502    0 -0.24638680887E+03  0.74233280424E+03 -0.82043069864E+02  0.78645890366E+03  0.46999998093E+01 0. -1.
       -5    1    3    3    0  502  0.24638680887E+03 -0.74233280424E+03  0.89185413590E+03  0.11862505391E+04  0.46999998093E+01 0.  1.
</event>
<event>
 5   0  0.9184414E-05  0.1801226E+04  0.7818609E-02  0.8705648E-01
       -2   -1    0    0    0  501  0.00000000000E+00  0.00000000000E+00  0.35597319090E+03  0.35597319091E+03  0.25500000920E-02 0.  1.
        2   -1    0    0  501    0  0.00000000000E+00  0.00000000000E+00 -0.22785539562E+04  0.22785539562E+04  0.25500000920E-02 0. -1.
    10030    2    1    2    0    0  0.00000000000E+00  0.00000000000E+00 -0.19225807653E+04  0.26345271472E+04  0.18012263850E+04 0.  0.
        5    1    3    3  502    0  0.84238920643E+03 -0.14115487375E+03 -0.13789416115E+04  0.16220500397E+04  0.46999998093E+01 0.  1.
       -5    1    3    3    0  502 -0.84238920643E+03  0.14115487375E+03 -0.54363915388E+03  0.10124771075E+04  0.46999998093E+01 0. -1.
</event>
<event>
 5   0  0.8892280E-05  0.1798976E+04  0.7818609E-02  0.8706844E-01
       -2   -1    0    0    0  501  0.00000000000E+00  0.00000000000E+00  0.40377269925E+03  0.40377269926E+03  0.25500000920E-02 0. -1.
        2   -1    0    0  501    0  0.00000000000E+00  0.00000000000E+00 -0.20037962409E+04  0.20037962409E+04  0.25500000920E-02 0.  1.
    10030    2    1    2    0    0  0.00000000000E+00  0.00000000000E+00 -0.16000235416E+04  0.24075689402E+04  0.17989755050E+04 0.  0.
        4    1    3    3  502    0 -0.83420782616E+03 -0.25452052898E+03 -0.10944171116E+04  0.13994405397E+04  0.12699999809E+01 0. -1.
       -4    1    3    3    0  502  0.83420782616E+03  0.25452052898E+03 -0.50560643000E+03  0.10081284005E+04  0.12699999809E+01 0.  1.
</event>
<event>
 5   0  0.8893075E-05  0.1796041E+04  0.7818609E-02  0.8708408E-01
        2   -1    0    0  501    0  0.00000000000E+00  0.00000000000E+00  0.10639270512E+04  0.10639270512E+04  0.25500000920E-02 0. -1.
       -2   -1    0    0    0  501  0.00000000000E+00  0.00000000000E+00 -0.75798516435E+03  0.75798516435E+03  0.25500000920E-02 0.  1.
    10030    2    1    2    0    0  0.00000000000E+00  0.00000000000E+00  0.30594188686E+03  0.18219122156E+04  0.17960411140E+04 0.  0.
        1    1    3    3  502    0  0.79273659372E+03 -0.28957461287E+03  0.46423970413E+03  0.96322544939E+03  0.50400001928E-02 0. -1.
       -1    1    3    3    0  502 -0.79273659372E+03  0.28957461287E+03 -0.15829781727E+03  0.85868676618E+03  0.50400001928E-02 0.  1.
</event>
<event>
 5   0  0.8893075E-05  0.1801197E+04  0.7818609E-02  0.8705663E-01
        2   -1    0    0  501    0  0.00000000000E+00  0.00000000000E+00  0.16726568406E+04  0.16726568406E+04  0.25500000920E-02 0.  1.
       -2   -1    0    0    0  501  0.00000000000E+00  0.00000000000E+00 -0.48490365896E+03  0.48490365896E+03  0.25500000920E-02 0. -1.
    10030    2    1    2    0    0  0.00000000000E+00  0.00000000000E+00  0.11877531816E+04  0.21575604996E+04  0.18011967379E+04 0.  0.
        1    1    3    3  502    0  0.25807432644E+03  0.32273044383E+03  0.15523948858E+04  0.16064517356E+04  0.50400001928E-02 0.  1.
       -1    1    3    3    0  502 -0.25807432644E+03 -0.32273044383E+03 -0.36464170413E+03  0.55110876399E+03  0.50400001928E-02 0. -1.
</event>
<event>
 5   0  0.4578107E-05  0.1797631E+04  0.7818609E-02  0.8707560E-01
       -1   -1    0    0    0  501  0.00000000000E+00  0.00000000000E+00  0.63487524557E+03  0.63487524559E+03  0.50400001928E-02 0.  1.
        1   -1    0    0  501    0  0.00000000000E+00  0.00000000000E+00 -0.12724848854E+04  0.12724848855E+04  0.50400001928E-02 0. -1.
    10030    2    1    2    0    0  0.00000000000E+00  0.00000000000E+00 -0.63760963988E+03  0.19073601310E+04  0.17976308344E+04 0.  0.
        2    1    3    3  502    0 -0.28950820621E+03  0.65887423587E+03  0.25252307723E+03  0.76269139545E+03  0.25500000920E-02 0.  1.
       -2    1    3    3    0  502  0.28950820621E+03 -0.65887423587E+03 -0.89013271712E+03  0.11446687356E+04  0.25500000920E-02 0. -1.
</event>
<event>
 5   0  0.8893075E-05  0.1796741E+04  0.7818609E-02  0.8708035E-01
        2   -1    0    0  501    0  0.00000000000E+00  0.00000000000E+00  0.11270308961E+04  0.11270308962E+04  0.25500000920E-02 0. -1.
       -2   -1    0    0    0  501  0.00000000000E+00  0.00000000000E+00 -0.71610205934E+03  0.71610205934E+03  0.25500000920E-02 0.  1.
    10030    2    1    2    0    0  0.00000000000E+00  0.00000000000E+00  0.41092883681E+03  0.18431329555E+04  0.17967405441E+04 0.  0.
        1    1    3    3  502    0  0.11113989007E+03 -0.88941778276E+03  0.26746571634E+03  0.93538974598E+03  0.50400001928E-02 0. -1.
       -1    1    3    3    0  502 -0.11113989007E+03  0.88941778276E+03  0.14346312047E+03  0.90774320951E+03  0.50400001928E-02 0.  1.
</event>
<event>
 5   0  0.4623665E-05  0.1797375E+04  0.7818609E-02  0.8707697E-01
       -1   -1    0    0    0  501  0.00000000000E+00  0.00000000000E+00  0.13242775033E+04  0.13242775033E+04  0.50400001928E-02 0. -1.
        1   -1    0    0  501    0  0.00000000000E+00  0.00000000000E+00 -0.60987160821E+03  0.60987160824E+03  0.50400001928E-02 0.  1.
    10030    2    1    2    0    0  0.00000000000E+00  0.00000000000E+00  0.71440589505E+03  0.19341491115E+04  0.17973750312E+04 0.  0.
        5    1    3    3  502    0 -0.76268042134E+02 -0.72010215094E+03  0.92991812228E+03  0.11786151731E+04  0.46999998093E+01 0. -1.
       -5    1    3    3    0  502  0.76268042134E+02  0.72010215094E+03 -0.21551222723E+03  0.75553393844E+03  0.46999998093E+01 0.  1.
</event>
<event>
 5   0  0.4335117E-05  0.1790206E+04  0.7818609E-02  0.8711525E-01
        1   -1    0    0  501    0  0.00000000000E+00  0.00000000000E+00  0.13516971975E+04  0.13516971975E+04  0.50400001928E-02 0.  1.
       -1   -1    0    0    0  501  0.00000000000E+00  0.00000000000E+00 -0.59274320291E+03  0.59274320293E+03  0.50400001928E-02 0. -1.
    10030    2    1    2    0    0  0.00000000000E+00  0.00000000000E+00  0.75895399461E+03  0.19444404005E+04  0.17902059393E+04 0.  0.
        3    1    3    3  502    0  0.25107489103E+03 -0.85910536808E+03  0.36815378084E+03  0.96780052228E+03  0.10100000352E+00 0. -1.
       -3    1    3    3    0  502 -0.25107489103E+03  0.85910536808E+03  0.39080021377E+03  0.97663987819E+03  0.10100000352E+00 0.  1.
</event>
<event>
 5   0  0.8892280E-05  0.1716992E+04  0.7818609E-02  0.8751732E-01
       -2   -1    0    0    0  501  0.00000000000E+00  0.00000000000E+00  0.87889066239E+03  0.87889066240E+03  0.25500000920E-02 0.  1.
        2   -1    0    0  501    0  0.00000000000E+00  0.00000000000E+00 -0.83857477336E+03  0.83857477336E+03  0.25500000920E-02 0. -1.
    10030    2    1    2    0    0  0.00000000000E+00  0.00000000000E+00  0.40315889032E+02  0.17174654358E+04  0.17169921817E+04 0.  0.
        4    1    3    3  502    0  0.41818478686E+03  0.74327726621E+03  0.11854314918E+03  0.86104221821E+03  0.12699999809E+01 0. -1.
       -4    1    3    3    0  502 -0.41818478686E+03 -0.74327726621E+03 -0.78227260152E+02  0.85642321755E+03  0.12699999809E+01 0.  1.
</event>
<event>
 5   0  0.4494757E-05  0.1801068E+04  0.7818609E-02  0.8705732E-01
        1   -1    0    0  501    0  0.00000000000E+00  0.00000000000E+00  0.63582477078E+03  0.63582477080E+03  0.50400001928E-02 0.  1.
       -1   -1    0    0    0  501  0.00000000000E+00  0.00000000000E+00 -0.12754484920E+04  0.12754484920E+04  0.50400001928E-02 0. -1.
    10030    2    1    2    0    0  0.00000000000E+00  0.00000000000E+00 -0.63962372120E+03  0.19112732628E+04  0.18010682886E+04 0.  0.
        4    1    3    3  502    0 -0.67926957856E+03  0.47525482363E+03  0.53397535164E+02  0.83073895864E+03  0.12699999809E+01 0.  1.
       -4    1    3    3    0  502  0.67926957856E+03 -0.47525482363E+03 -0.69302125636E+03  0.10805343041E+04  0.12699999809E+01 0. -1.
</event>
<event>
 5   0  0.9147432E-05  0.1811855E+04  0.7818609E-02  0.8700020E-01
       -2   -1    0    0    0  501  0.00000000000E+00  0.00000000000E+00  0.11563917030E+04  0.11563917030E+04  0.25500000920E-02 0.  1.
        2   -1    0    0  501    0  0.00000000000E+00  0.00000000000E+00 -0.70971166690E+03  0.70971166690E+03  0.25500000920E-02 0. -1.
    10030    2    1    2    0    0  0.00000000000E+00  0.00000000000E+00  0.44668003612E+03  0.18661033699E+04  0.18118550529E+04 0.  0.
        3    1    3    3  502    0  0.21220624210E+03 -0.74539967233E+03 -0.25980266996E+03  0.81740418289E+03  0.10100000352E+00 0.  1.
       -3    1    3    3    0  502 -0.21220624210E+03  0.74539967233E+03  0.70648270608E+03  0.10486991870E+04  0.10100000352E+00 0. -1.
</event>
<event>
 5   0  0.9147432E-05  0.1806800E+04  0.7818609E-02  0.8702691E-01
        2   -1    0    0  501    0  0.00000000000E+00  0.00000000000E+00  0.17249017986E+04  0.17249017986E+04  0.25500000920E-02 0.  1.
       -2   -1    0    0    0  501  0.00000000000E+00  0.00000000000E+00 -0.47314693656E+03  0.47314693657E+03  0.25500000920E-02 0. -1.
    10030    2    1    2    0    0  0.00000000000E+00  0.00000000000E+00  0.12517548620E+04  0.21980487352E+04  0.18068004891E+04 0.  0.
        3    1    3    3  502    0 -0.85348197065E+02 -0.22543402278E+03  0.16850567844E+04  0.17022106774E+04  0.10100000352E+00 0.  1.
       -3    1    3    3    0  502  0.85348197065E+02  0.22543402278E+03 -0.43330192239E+03  0.49583805775E+03  0.10100000352E+00 0. -1.
</event>
<event>
 5   0  0.9147432E-05  0.1797085E+04  0.7818609E-02  0.8707851E-01
       -2   -1    0    0    0  501  0.00000000000E+00  0.00000000000E+00  0.45517516676E+03  0.45517516677E+03  0.25500000920E-02 0.  1.
        2   -1    0    0  501    0  0.00000000000E+00  0.00000000000E+00 -0.17737756322E+04  0.17737756322E+04  0.25500000920E-02 0. -1.
    10030    2    1    2    0    0  0.00000000000E+00  0.00000000000E+00 -0.13186004655E+04  0.22289507990E+04  0.17970849943E+04 0.  0.
        3    1    3    3  502    0  0.16721399510E+03  0.52132589301E+03  0.22440753158E+03  0.59169245163E+03  0.10100000352E+00 0.  1.
       -3    1    3    3    0  502 -0.16721399510E+03 -0.52132589301E+03 -0.15430079971E+04  0.16372583474E+04  0.10100000352E+00 0. -1.
</event>
<event>
 5   0  0.4578107E-05  0.1806546E+04  0.7818609E-02  0.8702826E-01
        1   -1    0    0  501    0  0.00000000000E+00  0.00000000000E+00  0.19249737535E+04  0.19249737535E+04  0.50400001928E-02 0. -1.
       -1   -1    0    0    0  501  0.00000000000E+00  0.00000000000E+00 -0.42385111579E+03  0.42385111582E+03  0.50400001928E-02 0.  1.
    10030    2    1    2    0    0  0.00000000000E+00  0.00000000000E+00  0.15011226377E+04  0.23488248693E+04  0.18065461780E+04 0.  0.
        2    1    3    3  502    0  0.14164020694E+03 -0.82047558660E+02  0.19055292783E+04  0.19125468833E+04  0.25500000920E-02 0. -1.
       -2    1    3    3    0  502 -0.14164020694E+03  0.82047558660E+02 -0.40440664064E+03  0.43627798604E+03  0.25500000920E-02 0.  1.
</event>
<event>
 5   0  0.9184414E-05  0.1797574E+04  0.7818609E-02  0.8707591E-01
        2   -1    0    0  501    0  0.00000000000E+00  0.00000000000E+00  0.93157189365E+03  0.93157189366E+03  0.25500000920E-02 0.  1.
       -2   -1    0    0    0  501  0.00000000000E+00  0.00000000000E+00 -0.86715554905E+03  0.86715554905E+03  0.25500000920E-02 0. -1.
    10030    2    1    2    0    0  0.00000000000E+00  0.00000000000E+00  0.64416344603E+02  0.17987274427E+04  0.17975736279E+04 0.  0.
        5    1    3    3  502    0  0.59600056046E+02  0.25764020808E+03 -0.82733387982E+03  0.86858164970E+03  0.46999998093E+01 0. -1.
       -5    1    3    3    0  502 -0.59600056046E+02 -0.25764020808E+03  0.89175022442E+03  0.93014579301E+03  0.46999998093E+01 0.  1.
</event>
<event>
 5   0  0.9184414E-05  0.1806780E+04  0.7818609E-02  0.8702702E-01
       -2   -1    0    0    0  501  0.00000000000E+00  0.00000000000E+00  0.57540250468E+03  0.57540250468E+03  0.25500000920E-02 0. -1.
        2   -1    0    0  501    0  0.00000000000E+00  0.00000000000E+00 -0.14183354018E+04  0.14183354018E+04  0.25500000920E-02 0.  1.
    10030    2    1    2    0    0  0.00000000000E+00  0.00000000000E+00 -0.84293289713E+03  0.19937379065E+04  0.18067802774E+04 0.  0.
        5    1    3    3  502    0 -0.66818079627E+03  0.47702186402E+03 -0.83739948632E+03  0.11727213757E+04  0.46999998093E+01 0.  1.
       -5    1    3    3    0  502  0.66818079627E+03 -0.47702186402E+03 -0.55334108048E+01  0.82101653083E+03  0.46999998093E+01 0. -1.
</event>
<event>
 5   0  0.8892280E-05  0.1797467E+04  0.7818609E-02  0.8707648E-01
        2   -1    0    0  501    0  0.00000000000E+00  0.00000000000E+00  0.11325988001E+04  0.11325988001E+04  0.25500000920E-02 0. -1.
       -2   -1    0    0    0  501  0.00000000000E+00  0.00000000000E+00 -0.71315779336E+03  0.71315779337E+03  0.25500000920E-02 0.  1.
    10030    2    1    2    0    0  0.00000000000E+00  0.00000000000E+00  0.41944100674E+03  0.18457565935E+04  0.17974667297E+04 0.  0.
        4    1    3    3  502    0 -0.65567013918E+03 -0.54976356440E+03 -0.72577395234E+02  0.85872719729E+03  0.12699999809E+01 0.  1.
       -4    1    3    3    0  502  0.65567013918E+03  0.54976356440E+03  0.49201840197E+03  0.98702939619E+03  0.12699999809E+01 0. -1.
</event>
<event>
 5   0  0.8892280E-05  0.1791763E+04  0.7818609E-02  0.8710692E-01
        2   -1    0    0  501    0  0.00000000000E+00  0.00000000000E+00  0.99343615842E+03  0.99343615842E+03  0.25500000920E-02 0.  1.
       -2   -1    0    0    0  501  0.00000000000E+00  0.00000000000E+00 -0.80790699145E+03  0.80790699146E+03  0.25500000920E-02 0. -1.
    10030    2    1    2    0    0  0.00000000000E+00  0.00000000000E+00  0.18552916697E+03  0.18013431499E+04  0.17917633973E+04 0.  0.
        4    1    3    3  502    0  0.27866965727E+03  0.60205484775E+03 -0.51251381260E+03  0.83833098391E+03  0.12699999809E+01 0. -1.
       -4    1    3    3    0  502 -0.27866965727E+03 -0.60205484775E+03  0.69804297957E+03  0.96301216597E+03  0.12699999809E+01 0.  1.
</event>
<event>
 5   0  0.4578107E-05  0.1793857E+04  0.7818609E-02  0.8709573E-01
        1   -1    0    0  501    0  0.00000000000E+00  0.00000000000E+00  0.49493684677E+03  0.49493684679E+03  0.50400001928E-02 0.  1.
       -1   -1    0    0    0  501  0.00000000000E+00  0.00000000000E+00 -0.16254211209E+04  0.16254211209E+04  0.50400001928E-02 0. -1.
    10030    2    1    2    0    0  0.00000000000E+00  0.00000000000E+00 -0.11304842742E+04  0.21203579677E+04  0.17938570782E+04 0.  0.
        2    1    3    3  502    0  0.86472410456E+03  0.12335210316E+03 -0.80608613377E+03  0.11885867126E+04  0.25500000920E-02 0. -1.
       -2    1    3    3    0  502 -0.86472410456E+03 -0.12335210316E+03 -0.32439814040E+03  0.93177125511E+03  0.25500000920E-02 0.  1.
</event>
<event>
 5   0  0.9147432E-05  0.1798506E+04  0.7818609E-02  0.8707094E-01
        2   -1    0    0  501    0  0.00000000000E+00  0.00000000000E+00  0.17494671627E+04  0.17494671627E+04  0.25500000920E-02 0. -1.
       -2   -1    0    0    0  501  0.00000000000E+00  0.00000000000E+00 -0.46223001355E+03  0.46223001355E+03  0.25500000920E-02 0.  1.
    10030    2    1    2    0    0  0.00000000000E+00  0.00000000000E+00  0.12872371491E+04  0.22116971762E+04  0.17985063028E+04 0.  0.
        3    1    3    3  502    0  0.19627244076E+03  0.56621001282E+03 -0.18089471966E+03  0.62597089343E+03  0.10100000352E+00 0. -1.
       -3    1    3    3    0  502 -0.19627244076E+03 -0.56621001282E+03  0.14681318688E+04  0.15857262828E+04  0.10100000352E+00 0.  1.
</event>
<event>
 5   0  0.4494757E-05  0.1795668E+04  0.7818609E-02  0.8708607E-01
       -1   -1    0    0    0  501  0.00000000000E+00  0.00000000000E+00  0.15877943324E+04  0.15877943324E+04  0.50400001928E-02 0. -1.
        1   -1    0    0  501    0  0.00000000000E+00  0.00000000000E+00 -0.50768906524E+03  0.50768906527E+03  0.50400001928E-02 0.  1.
    10030    2    1    2    0    0  0.00000000000E+00  0.00000000000E+00  0.10801052671E+04  0.20954833977E+04  0.17956679208E+04 0.  0.
        4    1    3    3  502    0 -0.75702851886E+03 -0.18471073495E+03  0.19614617906E+02  0.77948481712E+03  0.12699999809E+01 0.  1.
       -4    1    3    3    0  502  0.75702851886E+03  0.18471073495E+03  0.10604906492E+04  0.13159985805E+04  0.12699999809E+01 0. -1.
</event>
<event>
 5   0  0.8893075E-05  0.1800075E+04  0.7818609E-02  0.8706260E-01
       -2   -1    0    0    0  501  0.00000000000E+00  0.00000000000E+00  0.10675186920E+04  0.10675186920E+04  0.25500000920E-02 0.  1.
        2   -1    0    0  501    0  0.00000000000E+00  0.00000000000E+00 -0.75883207348E+03  0.75883207348E+03  0.25500000920E-02 0. -1.
    10030    2    1    2    0    0  0.00000000000E+00  0.00000000000E+00  0.30868661853E+03  0.18263507655E+04  0.18000749124E+04 0.  0.
        1    1    3    3  502    0 -0.21466960677E+03  0.86432318003E+03  0.22329361227E+02  0.89086261568E+03  0.50400001928E-02 0.  1.
       -1    1    3    3    0  502  0.21466960677E+03 -0.86432318003E+03  0.28635725730E+03  0.93548814981E+03  0.50400001928E-02 0. -1.
</event>
<event>
 5   0  0.8802655E-05  0.1785973E+04  0.7818609E-02  0.8713795E-01
        2   -1    0    0  501    0  0.00000000000E+00  0.00000000000E+00  0.73136270753E+03  0.73136270753E+03  0.25500000920E-02 0.  1.
       -2   -1    0    0    0  501  0.00000000000E+00  0.00000000000E+00 -0.10903270334E+04  0.10903270334E+04  0.25500000920E-02 0. -1.
    10030    2    1    2    0    0  0.00000000000E+00  0.00000000000E+00 -0.35896432591E+03  0.18216897410E+04  0.17859725992E+04 0.  0.
        2    1    3    3  502    0 -0.40049337083E+03 -0.47985634091E+03 -0.83002026040E+03  0.10390335320E+04  0.25500000920E-02 0. -1.
       -2    1    3    3    0  502  0.40049337083E+03  0.47985634091E+03  0.47105593449E+03  0.78265620895E+03  0.25500000920E-02 0.  1.
</event>
<event>
 5   0  0.4494757E-05  0.1797471E+04  0.7818609E-02  0.8707646E-01
       -1   -1    0    0    0  501  0.00000000000E+00  0.00000000000E+00  0.13798123757E+04  0.13798123757E+04  0.50400001928E-02 0. -1.
        1   -1    0    0  501    0  0.00000000000E+00  0.00000000000E+00 -0.58538773632E+03  0.58538773634E+03  0.50400001928E-02 0.  1.
    10030    2    1    2    0    0  0.00000000000E+00  0.00000000000E+00  0.79442463941E+03  0.19652001121E+04  0.17974707154E+04 0.  0.
        4    1    3    3  502    0 -0.25176455589E+03  0.53326397452E+03 -0.34428341734E+03  0.68285323641E+03  0.12699999809E+01 0.  1.
       -4    1    3    3    0  502  0.25176455589E+03 -0.53326397452E+03  0.11387080567E+04  0.12823468757E+04  0.12699999809E+01 0. -1.
</event>
<event>
 5   0  0.4578107E-05  0.1799770E+04  0.7818609E-02  0.8706422E-01
       -1   -1    0    0    0  501  0.00000000000E+00  0.00000000000E+00  0.76350731506E+03  0.76350731507E+03  0.50400001928E-02 0.  1.
        1   -1    0    0  501    0  0.00000000000E+00  0.00000000000E+00 -0.10606229759E+04  0.10606229759E+04  0.50400001928E-02 0. -1.
    10030    2    1    2    0    0  0.00000000000E+00  0.00000000000E+00 -0.29711566085E+03  0.18241302910E+04  0.17997704305E+04 0.  0.
        2    1    3    3  502    0  0.22603302525E+03 -0.53362435361E+03 -0.84631429863E+03  0.10257162236E+04  0.25500000920E-02 0. -1.
       -2    1    3    3    0  502 -0.22603302525E+03  0.53362435361E+03  0.54919863778E+03  0.79841406740E+03  0.25500000920E-02 0.  1.
</event>
<event>
 5   0  0.8892280E-05  0.1804737E+04  0.7818609E-02  0.8703785E-01
        2   -1    0    0  501    0  0.00000000000E+00  0.00000000000E+00  0.76693102897E+03  0.76693102897E+03  0.25500000920E-02 0.  1.
       -2   -1    0    0    0  501  0.00000000000E+00  0.00000000000E+00 -0.10617233845E+04  0.10617233845E+04  0.25500000920E-02 0. -1.
    10030    2    1    2    0    0  0.00000000000E+00  0.00000000000E+00 -0.29479235555E+03  0.18286544135E+04  0.18047366653E+04 0.  0.
        4    1    3    3  502    0 -0.59907851882E+03 -0.65636117150E+03 -0.30619566365E+03  0.93992683572E+03  0.12699999809E+01 0. -1.
       -4    1    3    3    0  502  0.59907851882E+03  0.65636117150E+03  0.11403308102E+02  0.88872757778E+03  0.12699999809E+01 0.  1.
</event>
<event>
 5   0  0.8892280E-05  0.1802046E+04  0.7818609E-02  0.8705212E-01
       -2   -1    0    0    0  501  0.00000000000E+00  0.00000000000E+00  0.57784632165E+03  0.57784632165E+03  0.25500000920E-02 0.  1.
        2   -1    0    0  501    0  0.00000000000E+00  0.00000000000E+00 -0.14049450959E+04  0.14049450959E+04  0.25500000920E-02 0. -1.
    10030    2    1    2    0    0  0.00000000000E+00  0.00000000000E+00 -0.82709877422E+03  0.19827914175E+04  0.18020458993E+04 0.  0.
        4    1    3    3  502    0 -0.30491932913E+03 -0.53797058571E+03  0.30750628458E+03  0.69061557781E+03  0.12699999809E+01 0.  1.
       -4    1    3    3    0  502  0.30491932913E+03  0.53797058571E+03 -0.11346050588E+04  0.12921758397E+04  0.12699999809E+01 0. -1.
</event>
<event>
 5   0  0.4494757E-05  0.1805787E+04  0.7818609E-02  0.8703228E-01
        1   -1    0    0  501    0  0.00000000000E+00  0.00000000000E+00  0.62106658919E+03  0.62106658921E+03  0.50400001928E-02 0. -1.
       -1   -1    0    0    0  501  0.00000000000E+00  0.00000000000E+00 -0.13126069604E+04  0.13126069604E+04  0.50400001928E-02 0.  1.
    10030    2    1    2    0    0  0.00000000000E+00  0.00000000000E+00 -0.69154037117E+03  0.19336735496E+04  0.18057866184E+04 0.  0.
        4    1    3    3  502    0 -0.31156437757E+03  0.18771923528E+03  0.53913451959E+03  0.65036798490E+03  0.12699999809E+01 0. -1.
       -4    1    3    3    0  502  0.31156437757E+03 -0.18771923528E+03 -0.12306748908E+04  0.12833055647E+04  0.12699999809E+01 0.  1.
</event>
<event>
 5   0  0.4578107E-05  0.1800871E+04  0.7818609E-02  0.8705837E-01
       -1   -1    0    0    0  501  0.00000000000E+00  0.00000000000E+00  0.14100697177E+04  0.14100697177E+04  0.50400001928E-02 0. -1.
        1   -1    0    0  501    0  0.00000000000E+00  0.00000000000E+00 -0.57499556563E+03  0.57499556566E+03  0.50400001928E-02 0.  1.
    10030    2    1    2    0    0  0.00000000000E+00  0.00000000000E+00  0.83507415202E+03  0.19850652833E+04  0.18008707171E+04 0.  0.
        2    1    3    3  502    0  0.80251609063E+03  0.37277725453E+03  0.60128725104E+03  0.10698323773E+04  0.25500000920E-02 0.  1.
       -2    1    3    3    0  502 -0.80251609063E+03 -0.37277725453E+03  0.23378690098E+03  0.91523290604E+03  0.25500000920E-02 0. -1.
</event>
<event>
 5   0  0.9184414E-05  0.1800050E+04  0.7818609E-02  0.8706273E-01
        2   -1    0    0  501    0  0.00000000000E+00  0.00000000000E+00  0.89326974834E+03  0.89326974835E+03  0.25500000920E-02 0.  1.
       -2   -1    0    0    0  501  0.00000000000E+00  0.00000000000E+00 -0.90683149114E+03  0.90683149114E+03  0.25500000920E-02 0. -1.
    10030    2    1    2    0    0  0.00000000000E+00  0.00000000000E+00 -0.13561742792E+02  0.18001012395E+04  0.18000501525E+04 0.  0.
        5    1    3    3  502    0 -0.85906830112E+03 -0.93485252407E+02  0.24479178552E+03  0.89815530208E+03  0.46999998093E+01 0.  1.
       -5    1    3    3    0  502  0.85906830112E+03  0.93485252407E+02 -0.25835352832E+03  0.90194593740E+03  0.46999998093E+01 0. -1.
</event>
<event>
 5   0  0.9184414E-05  0.1803511E+04  0.7818609E-02  0.8704434E-01
        2   -1    0    0  501    0  0.00000000000E+00  0.00000000000E+00  0.15075823894E+04  0.15075823894E+04  0.25500000920E-02 0. -1.
       -2   -1    0    0    0  501  0.00000000000E+00  0.00000000000E+00 -0.53938232187E+03  0.53938232188E+03  0.25500000920E-02 0.  1.
    10030    2    1    2    0    0  0.00000000000E+00  0.00000000000E+00  0.96820006749E+03  0.20469647112E+04  0.18035113414E+04 0.  0.
        5    1    3    3  502    0  0.57400724435E+03  0.39554198882E+03  0.11333327457E+04  0.13305649116E+04  0.46999998093E+01 0. -1.
       -5    1    3    3    0  502 -0.57400724435E+03 -0.39554198882E+03 -0.16513267824E+03  0.71639979963E+03  0.46999998093E+01 0.  1.
</event>
<event>
 5   0  0.4623665E-05  0.1804275E+04  0.7818609E-02  0.8704029E-01
        1   -1    0    0  501    0  0.00000000000E+00  0.00000000000E+00  0.15751537099E+04  0.15751537100E+04  0.50400001928E-02 0.  1.
       -1   -1    0    0    0  501  0.00000000000E+00  0.00000000000E+00 -0.51668103994E+03  0.51668103997E+03  0.50400001928E-02 0. -1.
    10030    2    1    2    0    0  0.00000000000E+00  0.00000000000E+00  0.10584726700E+04  0.20918347499E+04  0.18042749868E+04 0.  0.
        5    1    3    3  502    0  0.12365977069E+03  0.72309086228E+03  0.11379675438E+04  0.13539366140E+04  0.46999998093E+01 0.  1.
       -5    1    3    3    0  502 -0.12365977069E+03 -0.72309086228E+03 -0.79494873818E+02  0.73789813590E+03  0.46999998093E+01 0. -1.
</event>
<event>
 5   0  0.8802655E-05  0.1801999E+04  0.7818609E-02  0.8705237E-01
        2   -1    0    0  501    0  0.00000000000E+00  0.00000000000E+00  0.54908527706E+03  0.54908527707E+03  0.25500000920E-02 0. -1.
       -2   -1    0    0    0  501  0.00000000000E+00  0.00000000000E+00 -0.14784596761E+04  0.14784596761E+04  0.25500000920E-02 0.  1.
    10030    2    1    2    0    0  0.00000000000E+00  0.00000000000E+00 -0.92937439899E+03  0.20275449531E+04  0.18019993794E+04 0.  0.
        2    1    3    3  502    0  0.19445401500E+02  0.43719961629E+03  0.42146705767E+03  0.60758218278E+03  0.25500000920E-02 0. -1.
       -2    1    3    3    0  502 -0.19445401500E+02 -0.43719961629E+03 -0.13508414567E+04  0.14199627703E+04  0.25500000920E-02 0.  1.
</event>
<event>
 5   0  0.4494757E-05  0.1814987E+04  0.7818609E-02  0.8698370E-01
        1   -1    0    0  501    0  0.00000000000E+00  0.00000000000E+00  0.11585316638E+04  0.11585316638E+04  0.50400001928E-02 0.  1.
       -1   -1    0    0    0  501  0.00000000000E+00  0.00000000000E+00 -0.71085189281E+03  0.71085189283E+03  0.50400001928E-02 0. -1.
    10030    2    1    2    0    0  0.00000000000E+00  0.00000000000E+00  0.44767977100E+03  0.18693835567E+04  0.18149869709E+04 0.  0.
        4    1    3    3  502    0 -0.58141620881E+03  0.63910000290E+03  0.50973645875E+03  0.10031582586E+04  0.12699999809E+01 0.  1.
       -4    1    3    3    0  502  0.58141620881E+03 -0.63910000290E+03 -0.62056687744E+02  0.86622529804E+03  0.12699999809E+01 0. -1.
</event>
<event>
 5   0  0.9147432E-05  0.1797735E+04  0.7818609E-02  0.8707505E-01
        2   -1    0    0  501    0  0.00000000000E+00  0.00000000000E+00  0.63758051514E+03  0.63758051515E+03  0.25500000920E-02 0. -1.
       -2   -1    0    0    0  501  0.00000000000E+00  0.00000000000E+00 -0.12672323439E+04  0.12672323439E+04  0.25500000920E-02 0.  1.
    10030    2    1    2    0    0  0.00000000000E+00  0.00000000000E+00 -0.62965182880E+03  0.19048128591E+04  0.17977348533E+04 0.  0.
        3    1    3    3  502    0 -0.18856836923E+03  0.85735237903E+03 -0.11004911512E+03  0.88471574510E+03  0.10100000352E+00 0. -1.
       -3    1    3    3    0  502  0.18856836923E+03 -0.85735237903E+03 -0.51960271368E+03  0.10200971140E+04  0.10100000352E+00 0.  1.
</event>
<event>
 5   0  0.3270375E-05  0.1803592E+04  0.7818609E-02  0.8704392E-01
        4   -1    0    0  501    0  0.00000000000E+00  0.00000000000E+00  0.95426321202E+03  0.95426405712E+03  0.12699999809E+01 0. -1.
       -4   -1    0    0    0  501  0.00000000000E+00  0.00000000000E+00 -0.85221203588E+03  0.85221298218E+03  0.12699999809E+01 0.  1.
    10030    2    1    2    0    0  0.00000000000E+00  0.00000000000E+00  0.10205117614E+03  0.18064770393E+04  0.18035922075E+04 0.  0.
        4    1    3    3  502    0 -0.10818847130E+03 -0.18079626652E+02 -0.84550554210E+03  0.85259184422E+03  0.12699999809E+01 0.  1.
       -4    1    3    3    0  502  0.10818847130E+03  0.18079626652E+02  0.94755671824E+03  0.95388519508E+03  0.12699999809E+01 0. -1.
</event>
<event>
 5   0  0.8802655E-05  0.1823906E+04  0.7818609E-02  0.8693689E-01
        2   -1    0    0  501    0  0.00000000000E+00  0.00000000000E+00  0.14062975600E+04  0.14062975600E+04  0.25500000920E-02 0. -1.
       -2   -1    0    0    0  501  0.00000000000E+00  0.00000000000E+00 -0.59138143677E+03  0.59138143678E+03  0.25500000920E-02 0.  1.
    10030    2    1    2    0    0  0.00000000000E+00  0.00000000000E+00  0.81491612321E+03  0.19976789968E+04  0.18239059971E+04 0.  0.
        2    1    3    3  502    0 -0.22172134236E+03  0.80061084022E+03  0.81949150687E+03  0.11669209061E+04  0.25500000920E-02 0. -1.
       -2    1    3    3    0  502  0.22172134236E+03 -0.80061084022E+03 -0.45753836687E+01  0.83075809071E+03  0.25500000920E-02 0.  1.
</event>
<event>
 5   0  0.4335117E-05  0.1801620E+04  0.7818609E-02  0.8705438E-01
        1   -1    0    0  501    0  0.00000000000E+00  0.00000000000E+00  0.75615110999E+03  0.75615111001E+03  0.50400001928E-02 0.  1.
       -1   -1    0    0    0  501  0.00000000000E+00  0.00000000000E+00 -0.10731439980E+04  0.10731439980E+04  0.50400001928E-02 0. -1.
    10030    2    1    2    0    0  0.00000000000E+00  0.00000000000E+00 -0.31699288800E+03  0.18292951080E+04  0.18016204098E+04 0.  0.
        3    1    3    3  502    0 -0.30504567104E+03 -0.44570602123E+03 -0.89050926589E+03  0.10414957905E+04  0.10100000352E+00 0. -1.
       -3    1    3    3    0  502  0.30504567104E+03  0.44570602123E+03  0.57351637789E+03  0.78779931752E+03  0.10100000352E+00 0.  1.
</event>
<event>
 5   0  0.8802655E-05  0.1799477E+04  0.7818609E-02  0.8706578E-01
        2   -1    0    0  501    0  0.00000000000E+00  0.00000000000E+00  0.79512505384E+03  0.79512505384E+03  0.25500000920E-02 0.  1.
       -2   -1    0    0    0  501  0.00000000000E+00  0.00000000000E+00 -0.10181159244E+04  0.10181159244E+04  0.25500000920E-02 0. -1.
    10030    2    1    2    0    0  0.00000000000E+00  0.00000000000E+00 -0.22299087060E+03  0.18132409783E+04  0.17994771232E+04 0.  0.
        2    1    3    3  502    0 -0.44484288617E+03  0.62654983235E+03 -0.58313492267E+03  0.96462232186E+03  0.25500000920E-02 0. -1.
       -2    1    3    3    0  502  0.44484288617E+03 -0.62654983235E+03  0.36014405207E+03  0.84861865643E+03  0.25500000920E-02 0.  1.
</event>
<event>
 5   0  0.4623665E-05  0.1798223E+04  0.7818609E-02  0.8707245E-01
        1   -1    0    0  501    0  0.00000000000E+00  0.00000000000E+00  0.19840574733E+04  0.19840574734E+04  0.50400001928E-02 0. -1.
       -1   -1    0    0    0  501  0.00000000000E+00  0.00000000000E+00 -0.40744866918E+03  0.40744866921E+03  0.50400001928E-02 0.  1.
    10030    2    1    2    0    0  0.00000000000E+00  0.00000000000E+00  0.15766088042E+04  0.23915061426E+04  0.17982230975E+04 0.  0.
        5    1    3    3  502    0 -0.68402907347E+03 -0.47343778292E+03  0.33468338603E+03  0.89670182699E+03  0.46999998093E+01 0.  1.
       -5    1    3    3    0  502  0.68402907347E+03  0.47343778292E+03  0.12419254181E+04  0.14948043156E+04  0.46999998093E+01 0. -1.
</event>
<event>
 5   0  0.4494757E-05  0.1777335E+04  0.7818609E-02  0.8718446E-01
       -1   -1    0    0    0  501  0.00000000000E+00  0.00000000000E+00  0.12081554633E+04  0.12081554633E+04  0.50400001928E-02 0. -1.
        1   -1    0    0  501    0  0.00000000000E+00  0.00000000000E+00 -0.65366569537E+03  0.65366569539E+03  0.50400001928E-02 0.  1.
    10030    2    1    2    0    0  0.00000000000E+00  0.00000000000E+00  0.55448976795E+03  0.18618211587E+04  0.17773348374E+04 0.  0.
        4    1    3    3  502    0  0.24203459302E+03 -0.51127726602E+03  0.99520258436E+03  0.11447335864E+04  0.12699999809E+01 0. -1.
       -4    1    3    3    0  502 -0.24203459302E+03  0.51127726602E+03 -0.44071281641E+03  0.71708757234E+03  0.12699999809E+01 0.  1.
</event>
<event>
 5   0  0.9147432E-05  0.1802915E+04  0.7818609E-02  0.8704751E-01
       -2   -1    0    0    0  501  0.00000000000E+00  0.00000000000E+00  0.48620499680E+03  0.48620499681E+03  0.25500000920E-02 0. -1.
        2   -1    0    0  501    0  0.00000000000E+00  0.00000000000E+00 -0.16713646921E+04  0.16713646921E+04  0.25500000920E-02 0.  1.
    10030    2    1    2    0    0  0.00000000000E+00  0.00000000000E+00 -0.11851596953E+04  0.21575696889E+04  0.18029152668E+04 0.  0.
        3    1    3    3  502    0 -0.75480426510E+01 -0.81550187492E+03 -0.10522255162E+04  0.13312696301E+04  0.10100000352E+00 0.  1.
       -3    1    3    3    0  502  0.75480426510E+01  0.81550187492E+03 -0.13293417907E+03  0.82630005876E+03  0.10100000352E+00 0. -1.
</event>
<event>
 5   0  0.4335117E-05  0.1798084E+04  0.7818609E-02  0.8707319E-01
        1   -1    0    0  501    0  0.00000000000E+00  0.00000000000E+00  0.15844260093E+04  0.15844260093E+04  0.50400001928E-02 0.  1.
       -1   -1    0    0    0  501  0.00000000000E+00  0.00000000000E+00 -0.51013826800E+03  0.51013826802E+03  0.50400001928E-02 0. -1.
    10030    2    1    2    0    0  0.00000000000E+00  0.00000000000E+00  0.10742877413E+04  0.20945642774E+04  0.17980838025E+04 0.  0.
        3    1    3    3  502    0  0.74215688929E+03 -0.41297907095E+03  0.88059348214E+03  0.12234351035E+04  0.10100000352E+00 0.  1.
       -3    1    3    3    0  502 -0.74215688929E+03  0.41297907095E+03  0.19369425918E+03  0.87112917390E+03  0.10100000352E+00 0. -1.
</event>
<event>
 5   0  0.4578107E-05  0.1814991E+04  0.7818609E-02  0.8698368E-01
        1   -1    0    0  501    0  0.00000000000E+00  0.00000000000E+00  0.12164595543E+04  0.12164595544E+04  0.50400001928E-02 0.  1.
       -1   -1    0    0    0  501  0.00000000000E+00  0.00000000000E+00 -0.67700414743E+03  0.67700414745E+03  0.50400001928E-02 0. -1.
    10030    2    1    2    0    0  0.00000000000E+00  0.00000000000E+00  0.53945540692E+03  0.18934637018E+04  0.18149910892E+04 0.  0.
        2    1    3    3  502    0  0.12926585775E+03 -0.41425054740E+03  0.11012036519E+04  0.11836226852E+04  0.25500000920E-02 0.  1.
       -2    1    3    3    0  502 -0.12926585775E+03  0.41425054740E+03 -0.56174824502E+03  0.70984101656E+03  0.25500000920E-02 0. -1.
</event>
<event>
 5   0  0.4578107E-05  0.1797420E+04  0.7818609E-02  0.8707673E-01
       -1   -1    0    0    0  501  0.00000000000E+00  0.00000000000E+00  0.91513274476E+03  0.91513274477E+03  0.50400001928E-02 0. -1.
        1   -1    0    0  501    0  0.00000000000E+00  0.00000000000E+00 -0.88258223043E+03  0.88258223045E+03  0.50400001928E-02 0.  1.
    10030    2    1    2    0    0  0.00000000000E+00  0.00000000000E+00  0.32550514322E+02  0.17977149752E+04  0.17974202614E+04 0.  0.
        2    1    3    3  502    0  0.81536190714E+03 -0.20831724163E+03 -0.29916318010E+03  0.89314596854E+03  0.25500000920E-02 0.  1.
       -2    1    3    3    0  502 -0.81536190714E+03  0.20831724163E+03  0.33171369442E+03  0.90456900668E+03  0.25500000920E-02 0. -1.
</event>
<event>
 5   0  0.8892280E-05  0.1803961E+04  0.7818609E-02  0.8704196E-01
        2   -1    0    0  501    0  0.00000000000E+00  0.00000000000E+00  0.11622958196E+04  0.11622958196E+04  0.25500000920E-02 0.  1.
       -2   -1    0    0    0  501  0.00000000000E+00  0.00000000000E+00 -0.69996670193E+03  0.69996670193E+03  0.25500000920E-02 0. -1.
    10030    2    1    2    0    0  0.00000000000E+00  0.00000000000E+00  0.46232911763E+03  0.18622625215E+04  0.18039605001E+04 0.  0.
        4    1    3    3  502    0  0.34866297238E+03 -0.35383992412E+03 -0.54602706210E+03  0.73818407302E+03  0.12699999809E+01 0. -1.
       -4    1    3    3    0  502 -0.34866297238E+03  0.35383992412E+03  0.10083561797E+04  0.11240784485E+04  0.12699999809E+01 0.  1.
</event>
<event>
 5   0  0.4535100E-05  0.1790420E+04  0.7818609E-02  0.8711411E-01
       -1   -1    0    0    0  501  0.00000000000E+00  0.00000000000E+00  0.70921587901E+03  0.70921587903E+03  0.50400001928E-02 0. -1.
        1   -1    0    0  501    0  0.00000000000E+00  0.00000000000E+00 -0.11299819030E+04  0.11299819030E+04  0.50400001928E-02 0.  1.
    10030    2    1    2    0    0  0.00000000000E+00  0.00000000000E+00 -0.42076602402E+03  0.18391977821E+04  0.17904201838E+04 0.  0.
        1    1    3    3  502    0 -0.16315444404E+03 -0.78101584696E+03  0.20662728590E+03  0.82419655490E+03  0.50400001928E-02 0. -1.
       -1    1    3    3    0  502  0.16315444404E+03  0.78101584696E+03 -0.62739330992E+03  0.10150012272E+04  0.50400001928E-02 0.  1.
</event>
<event>
 5   0  0.4535100E-05  0.1806271E+04  0.7818609E-02  0.8702972E-01
       -1   -1    0    0    0  501  0.00000000000E+00  0.00000000000E+00  0.10366561763E+04  0.10366561763E+04  0.50400001928E-02 0.  1.
        1   -1    0    0  501    0  0.00000000000E+00  0.00000000000E+00 -0.78681208658E+03  0.78681208660E+03  0.50400001928E-02 0. -1.
    10030    2    1    2    0    0  0.00000000000E+00  0.00000000000E+00  0.24984408970E+03  0.18234682629E+04  0.18062708647E+04 0.  0.
        1    1    3    3  502    0  0.25449968034E+03  0.84726611845E+03 -0.58532233555E+02  0.88659798396E+03  0.50400001928E-02 0.  1.
       -1    1    3    3    0  502 -0.25449968034E+03 -0.84726611845E+03  0.30837632325E+03  0.93687027893E+03  0.50400001928E-02 0. -1.
</event>
<event>
 5   0  0.9184414E-05  0.1791961E+04  0.7818609E-02  0.8710586E-01
       -2   -1    0    0    0  501  0.00000000000E+00  0.00000000000E+00  0.88742006978E+03  0.88742006978E+03  0.25500000920E-02 0. -1.
        2   -1    0    0  501    0  0.00000000000E+00  0.00000000000E+00 -0.90462363850E+03  0.90462363851E+03  0.25500000920E-02 0.  1.
    10030    2    1    2    0    0  0.00000000000E+00  0.00000000000E+00 -0.17203568727E+02  0.17920437083E+04  0.17919611295E+04 0.  0.
        5    1    3    3  502    0 -0.11636823858E+03 -0.88760347182E+03  0.28515856209E+02  0.89566552585E+03  0.46999998093E+01 0. -1.
       -5    1    3    3    0  502  0.11636823858E+03  0.88760347182E+03 -0.45719424935E+02  0.89637818244E+03  0.46999998093E+01 0.  1.
</event>
<event>
 5   0  0.8893075E-05  0.1801740E+04  0.7818609E-02  0.8705375E-01
       -2   -1    0    0    0  501  0.00000000000E+00  0.00000000000E+00  0.48054762282E+03  0.48054762283E+03  0.25500000920E-02 0. -1.
        2   -1    0    0  501    0  0.00000000000E+00  0.00000000000E+00 -0.16888364334E+04  0.16888364334E+04  0.25500000920E-02 0.  1.
    10030    2    1    2    0    0  0.00000000000E+00  0.00000000000E+00 -0.12082888106E+04  0.21693840563E+04  0.18017395299E+04 0.  0.
        1    1    3    3  502    0  0.18143440606E+03  0.93881945270E+02  0.45229112903E+03  0.49628573299E+03  0.50400001928E-02 0. -1.
       -1    1    3    3    0  502 -0.18143440606E+03 -0.93881945270E+02 -0.16605799396E+04  0.16730983233E+04  0.50400001928E-02 0.  1.
</event>
<event>
 5   0  0.8893075E-05  0.1804005E+04  0.7818609E-02  0.8704173E-01
        2   -1    0    0  501    0  0.00000000000E+00  0.00000000000E+00  0.71411609878E+03  0.71411609879E+03  0.25500000920E-02 0. -1.
       -2   -1    0    0    0  501  0.00000000000E+00  0.00000000000E+00 -0.11393219176E+04  0.11393219176E+04  0.25500000920E-02 0.  1.
    10030    2    1    2    0    0  0.00000000000E+00  0.00000000000E+00 -0.42520581880E+03  0.18534380164E+04  0.18040045710E+04 0.  0.
        1    1    3    3  502    0 -0.38888100387E+03 -0.39864923524E+03  0.51638824921E+03  0.75947776259E+03  0.50400001928E-02 0. -1.
       -1    1    3    3    0  502  0.38888100387E+03  0.39864923524E+03 -0.94159406801E+03  0.10939602538E+04  0.50400001928E-02 0.  1.
</event>
<event>
 5   0  0.4335117E-05  0.1798756E+04  0.7818609E-02  0.8706961E-01
        1   -1    0    0  501    0  0.00000000000E+00  0.00000000000E+00  0.12537283273E+04  0.12537283273E+04  0.50400001928E-02 0.  1.
       -1   -1    0    0    0  501  0.00000000000E+00  0.00000000000E+00 -0.64518040639E+03  0.64518040641E+03  0.50400001928E-02 0. -1.
    10030    2    1    2    0    0  0.00000000000E+00  0.00000000000E+00  0.60854792091E+03  0.18989087337E+04  0.17987561833E+04 0.  0.
        3    1    3    3  502    0 -0.50687208426E+03 -0.28315674251E+03 -0.42083512372E+03  0.71707688722E+03  0.10100000352E+00 0. -1.
       -3    1    3    3    0  502  0.50687208426E+03  0.28315674251E+03  0.10293830446E+04  0.11818318465E+04  0.10100000352E+00 0.  1.
</event>
<event>
 5   0  0.9184414E-05  0.1802625E+04  0.7818609E-02  0.8704905E-01
        2   -1    0    0  501    0  0.00000000000E+00  0.00000000000E+00  0.87456494275E+03  0.87456494275E+03  0.25500000920E-02 0.  1.
       -2   -1    0    0    0  501  0.00000000000E+00  0.00000000000E+00 -0.92887783306E+03  0.92887783306E+03  0.25500000920E-02 0. -1.
    10030    2    1    2    0    0  0.00000000000E+00  0.00000000000E+00 -0.54312890310E+02  0.18034427758E+04  0.18026247406E+04 0.  0.
        5    1    3    3  502    0  0.48763210645E+03  0.75270397313E+03  0.62290819283E+02  0.89902757387E+03  0.46999998093E+01 0.  1.
       -5    1    3    3    0  502 -0.48763210645E+03 -0.75270397313E+03 -0.11660370959E+03  0.90441520194E+03  0.46999998093E+01 0. -1.
</event>
<event>
 5   0  0.8802655E-05  0.1805552E+04  0.7818609E-02  0.8703353E-01
        2   -1    0    0  501    0  0.00000000000E+00  0.00000000000E+00  0.82757202264E+03  0.82757202265E+03  0.25500000920E-02 0.  1.
       -2   -1    0    0    0  501  0.00000000000E+00  0.00000000000E+00 -0.98481385382E+03  0.98481385382E+03  0.25500000920E-02 0. -1.
    10030    2    1    2    0    0  0.00000000000E+00  0.00000000000E+00 -0.15724183117E+03  0.18123858765E+04  0.18055518746E+04 0.  0.
        2    1    3    3  502    0 -0.32273949962E+03 -0.28987325334E+03 -0.87333538154E+03  0.97514202877E+03  0.25500000920E-02 0. -1.
       -2    1    3    3    0  502  0.32273949962E+03  0.28987325334E+03  0.71609355037E+03  0.83724384769E+03  0.25500000920E-02 0.  1.
</event>
<event>
 5   0  0.4623665E-05  0.1800001E+04  0.7818609E-02  0.8706299E-01
       -1   -1    0    0    0  501  0.00000000000E+00  0.00000000000E+00  0.68055835695E+03  0.68055835697E+03  0.50400001928E-02 0. -1.
        1   -1    0    0  501    0  0.00000000000E+00  0.00000000000E+00 -0.11902006649E+04  0.11902006649E+04  0.50400001928E-02 0.  1.
    10030    2    1    2    0    0  0.00000000000E+00  0.00000000000E+00 -0.50964230796E+03  0.18707590219E+04  0.18000011211E+04 0.  0.
        5    1    3    3  502    0  0.63739672190E+03  0.27689765112E+02  0.40490542066E+03  0.75565322328E+03  0.46999998093E+01 0. -1.
       -5    1    3    3    0  502 -0.63739672190E+03 -0.27689765112E+02 -0.91454772862E+03  0.11151057986E+04  0.46999998093E+01 0.  1.
</event>
<event>
 5   0  0.8893075E-05  0.1814716E+04  0.7818609E-02  0.8698513E-01
        2   -1    0    0  501    0  0.00000000000E+00  0.00000000000E+00  0.21977297392E+04  0.21977297392E+04  0.25500000920E-02 0.  1.
       -2   -1    0    0    0  501  0.00000000000E+00  0.00000000000E+00 -0.37461304507E+03  0.37461304507E+03  0.25500000920E-02 0. -1.
    10030    2    1    2    0    0  0.00000000000E+00  0.00000000000E+00  0.18231166941E+04  0.25723427843E+04  0.18147156580E+04 0.  0.
        1    1    3    3  502    0 -0.43476895574E+03  0.23606032149E+03  0.19897366666E+04  0.20503171762E+04  0.50400001928E-02 0.  1.
       -1    1    3    3    0  502  0.43476895574E+03 -0.23606032149E+03 -0.16661997251E+03  0.52202560811E+03  0.50400001928E-02 0. -1.
</event>
<event>
 5   0  0.8892280E-05  0.1796747E+04  0.7818609E-02  0.8708031E-01
       -2   -1    0    0    0  501  0.00000000000E+00  0.00000000000E+00  0.71269561246E+03  0.71269561247E+03  0.25500000920E-02 0.  1.
        2   -1    0    0  501    0  0.00000000000E+00  0.00000000000E+00 -0.11324260721E+04  0.11324260721E+04  0.25500000920E-02 0. -1.
    10030    2    1    2    0    0  0.00000000000E+00  0.00000000000E+00 -0.41973045959E+03  0.18451216845E+04  0.17967471642E+04 0.  0.
        4    1    3    3  502    0 -0.13902822028E+03  0.88742415727E+03 -0.22520043762E+03  0.92604931345E+03  0.12699999809E+01 0. -1.
       -4    1    3    3    0  502  0.13902822028E+03 -0.88742415727E+03 -0.19453002197E+03  0.91907237108E+03  0.12699999809E+01 0.  1.
</event>
<event>
 5   0  0.8893075E-05  0.1812271E+04  0.7818609E-02  0.8699801E-01
        2   -1    0    0  501    0  0.00000000000E+00  0.00000000000E+00  0.12707801462E+04  0.12707801462E+04  0.25500000920E-02 0.  1.
       -2   -1    0    0    0  501  0.00000000000E+00  0.00000000000E+00 -0.64612381992E+03  0.64612381992E+03  0.25500000920E-02 0. -1.
    10030    2    1    2    0    0  0.00000000000E+00  0.00000000000E+00  0.62465632625E+03  0.19169039661E+04  0.18122707550E+04 0.  0.
        1    1    3    3  502    0 -0.40877294926E+03 -0.78260433406E+03  0.96808250159E+02  0.88822109019E+03  0.50400001928E-02 0.  1.
       -1    1    3    3    0  502  0.40877294926E+03  0.78260433406E+03  0.52784807609E+03  0.10286828759E+04  0.50400001928E-02 0. -1.
</event>
<event>
 5   0  0.8802655E-05  0.1824344E+04  0.7818609E-02  0.8693460E-01
        2   -1    0    0  501    0  0.00000000000E+00  0.00000000000E+00  0.82366894266E+03  0.82366894266E+03  0.25500000920E-02 0. -1.
       -2   -1    0    0    0  501  0.00000000000E+00  0.00000000000E+00 -0.10101847465E+04  0.10101847465E+04  0.25500000920E-02 0.  1.
    10030    2    1    2    0    0  0.00000000000E+00  0.00000000000E+00 -0.18651580383E+03  0.18338536892E+04  0.18243440487E+04 0.  0.
        2    1    3    3  502    0  0.58642365559E+02  0.85931901321E+03  0.20862355043E+03  0.88622338002E+03  0.25500000920E-02 0. -1.
       -2    1    3    3    0  502 -0.58642365559E+02 -0.85931901321E+03 -0.39513935426E+03  0.94763030913E+03  0.25500000920E-02 0.  1.
</event>
<event>
 5   0  0.4578107E-05  0.1798729E+04  0.7818609E-02  0.8706976E-01
       -1   -1    0    0    0  501  0.00000000000E+00  0.00000000000E+00  0.66938651367E+03  0.66938651369E+03  0.50400001928E-02 0. -1.
        1   -1    0    0  501    0  0.00000000000E+00  0.00000000000E+00 -0.12083553153E+04  0.12083553153E+04  0.50400001928E-02 0.  1.
    10030    2    1    2    0    0  0.00000000000E+00  0.00000000000E+00 -0.53896880161E+03  0.18777418290E+04  0.17987292757E+04 0.  0.
        2    1    3    3  502    0  0.49024825761E+03  0.12553825391E+03  0.50664805651E+03  0.71609738197E+03  0.25500000920E-02 0. -1.
       -2    1    3    3    0  502 -0.49024825761E+03 -0.12553825391E+03 -0.10456168581E+04  0.11616444470E+04  0.25500000920E-02 0.  1.
</event>
<event>
 5   0  0.4578107E-05  0.1799387E+04  0.7818609E-02  0.8706625E-01
       -1   -1    0    0    0  501  0.00000000000E+00  0.00000000000E+00  0.70747588988E+03  0.70747588990E+03  0.50400001928E-02 0. -1.
        1   -1    0    0  501    0  0.00000000000E+00  0.00000000000E+00 -0.11441359710E+04  0.11441359710E+04  0.50400001928E-02 0.  1.
    10030    2    1    2    0    0  0.00000000000E+00  0.00000000000E+00 -0.43666008109E+03  0.18516118609E+04  0.17993872449E+04 0.  0.
        2    1    3    3  502    0 -0.29470069392E+03 -0.59295131140E+03  0.40845331566E+03  0.77799348825E+03  0.25500000920E-02 0. -1.
       -2    1    3    3    0  502  0.29470069392E+03  0.59295131140E+03 -0.84511339676E+03  0.10736183726E+04  0.25500000920E-02 0.  1.
</event>
<event>
 5   0  0.8893075E-05  0.1808430E+04  0.7818609E-02  0.8701829E-01
        2   -1    0    0  501    0  0.00000000000E+00  0.00000000000E+00  0.17251874191E+04  0.17251874191E+04  0.25500000920E-02 0. -1.
       -2   -1    0    0    0  501  0.00000000000E+00  0.00000000000E+00 -0.47392239041E+03  0.47392239042E+03  0.25500000920E-02 0.  1.
    10030    2    1    2    0    0  0.00000000000E+00  0.00000000000E+00  0.12512650287E+04  0.21991098095E+04  0.18084301983E+04 0.  0.
        1    1    3    3  502    0 -0.15156707947E+03  0.34335776726E+03 -0.37472533901E+03  0.53036422922E+03  0.50400001928E-02 0.  1.
       -1    1    3    3    0  502  0.15156707947E+03 -0.34335776726E+03  0.16259903677E+04  0.16687455803E+04  0.50400001928E-02 0. -1.
</event>
<event>
 5   0  0.4535100E-05  0.1811343E+04  0.7818609E-02  0.8700290E-01
       -1   -1    0    0    0  501  0.00000000000E+00  0.00000000000E+00  0.34333512057E+03  0.34333512061E+03  0.50400001928E-02 0.  1.
        1   -1    0    0  501    0  0.00000000000E+00  0.00000000000E+00 -0.23890392246E+04  0.23890392246E+04  0.50400001928E-02 0. -1.
    10030    2    1    2    0    0  0.00000000000E+00  0.00000000000E+00 -0.20457041040E+04  0.27323743452E+04  0.18113432257E+04 0.  0.
        1    1    3    3  502    0 -0.20146232043E+03 -0.35507274801E+03 -0.22423692900E+04  0.22792287634E+04  0.50400001928E-02 0. -1.
       -1    1    3    3    0  502  0.20146232043E+03  0.35507274801E+03  0.19666518600E+03  0.45314558184E+03  0.50400001928E-02 0.  1.
</event>
<event>
 5   0  0.4623665E-05  0.1795836E+04  0.7818609E-02  0.8708517E-01
        1   -1    0    0  501    0  0.00000000000E+00  0.00000000000E+00  0.12841350759E+04  0.12841350759E+04  0.50400001928E-02 0.  1.
       -1   -1    0    0    0  501  0.00000000000E+00  0.00000000000E+00 -0.62785944173E+03  0.62785944175E+03  0.50400001928E-02 0. -1.
    10030    2    1    2    0    0  0.00000000000E+00  0.00000000000E+00  0.65627563417E+03  0.19119945176E+04  0.17958355514E+04 0.  0.
        5    1    3    3  502    0  0.65755946864E+03 -0.60530526889E+03  0.42006695340E+03  0.98755114231E+03  0.46999998093E+01 0.  1.
       -5    1    3    3    0  502 -0.65755946864E+03  0.60530526889E+03  0.23620868077E+03  0.92444337534E+03  0.46999998093E+01 0. -1.
</event>
<event>
 5   0  0.8893075E-05  0.1810649E+04  0.7818609E-02  0.8700657E-01
        2   -1    0    0  501    0  0.00000000000E+00  0.00000000000E+00  0.11495378821E+04  0.11495378821E+04  0.25500000920E-02 0.  1.
       -2   -1    0    0    0  501  0.00000000000E+00  0.00000000000E+00 -0.71299291135E+03  0.71299291136E+03  0.25500000920E-02 0. -1.
    10030    2    1    2    0    0  0.00000000000E+00  0.00000000000E+00  0.43654497073E+03  0.18625307934E+04  0.18106489017E+04 0.  0.
        1    1    3    3  502    0  0.78293605612E+03 -0.45242951256E+03  0.26347511112E+03  0.94186010958E+03  0.50400001928E-02 0. -1.
       -1    1    3    3    0  502 -0.78293605612E+03  0.45242951256E+03  0.17306985961E+03  0.92067068387E+03  0.50400001928E-02 0.  1.
</event>
<event>
 5   0  0.4494757E-05  0.1804238E+04  0.7818609E-02  0.8704049E-01
       -1   -1    0    0    0  501  0.00000000000E+00  0.00000000000E+00  0.54836275520E+03  0.54836275522E+03  0.50400001928E-02 0. -1.
        1   -1    0    0  501    0  0.00000000000E+00  0.00000000000E+00 -0.14840875828E+04  0.14840875828E+04  0.50400001928E-02 0.  1.
    10030    2    1    2    0    0  0.00000000000E+00  0.00000000000E+00 -0.93572482756E+03  0.20324503380E+04  0.18042376294E+04 0.  0.
        4    1    3    3  502    0 -0.73122704237E+03  0.50917217141E+03 -0.30908185387E+03  0.94312379512E+03  0.12699999809E+01 0. -1.
       -4    1    3    3    0  502  0.73122704237E+03 -0.50917217141E+03 -0.62664297369E+03  0.10893265429E+04  0.12699999809E+01 0.  1.
</event>
<event>
 5   0  0.8802655E-05  0.1801808E+04  0.7818609E-02  0.8705338E-01
       -2   -1    0    0    0  501  0.00000000000E+00  0.00000000000E+00  0.52642864257E+03  0.52642864257E+03  0.25500000920E-02 0.  1.
        2   -1    0    0  501    0  0.00000000000E+00  0.00000000000E+00 -0.15417629505E+04  0.15417629505E+04  0.25500000920E-02 0. -1.
    10030    2    1    2    0    0  0.00000000000E+00  0.00000000000E+00 -0.10153343079E+04  0.20681915931E+04  0.18018081776E+04 0.  0.
        2    1    3    3  502    0  0.64192005085E+03 -0.15730208237E+03  0.19507379645E+03  0.68910019799E+03  0.25500000920E-02 0.  1.
       -2    1    3    3    0  502 -0.64192005085E+03  0.15730208237E+03 -0.12104081044E+04  0.13790913951E+04  0.25500000920E-02 0. -1.
</event>
<event>
 5   0  0.4494757E-05  0.1807250E+04  0.7818609E-02  0.8702454E-01
       -1   -1    0    0    0  501  0.00000000000E+00  0.00000000000E+00  0.46035997576E+03  0.46035997578E+03  0.50400001928E-02 0. -1.
        1   -1    0    0  501    0  0.00000000000E+00  0.00000000000E+00 -0.17736939278E+04  0.17736939278E+04  0.50400001928E-02 0.  1.
    10030    2    1    2    0    0  0.00000000000E+00  0.00000000000E+00 -0.13133339521E+04  0.22340539036E+04  0.18072495054E+04 0.  0.
        4    1    3    3  502    0  0.60024406819E+03  0.28001480368E+03  0.10318069919E+03  0.67033506641E+03  0.12699999809E+01 0. -1.
       -4    1    3    3    0  502 -0.60024406819E+03 -0.28001480368E+03 -0.14165146513E+04  0.15637188372E+04  0.12699999809E+01 0.  1.
</event>
<event>
 5   0  0.4535100E-05  0.1794650E+04  0.7818609E-02  0.8709150E-01
       -1   -1    0    0    0  501  0.00000000000E+00  0.00000000000E+00  0.76488247153E+03  0.76488247155E+03  0.50400001928E-02 0. -1.
        1   -1    0    0  501    0  0.00000000000E+00  0.00000000000E+00 -0.10527008446E+04  0.10527008447E+04  0.50400001928E-02 0.  1.
    10030    2    1    2    0    0  0.00000000000E+00  0.00000000000E+00 -0.28781837312E+03  0.18175833162E+04  0.17946502989E+04 0.  0.
        1    1    3    3  502    0  0.64835718196E+02 -0.49693158242E+03 -0.89776465939E+03  0.10281663541E+04  0.50400001928E-02 0.  1.
       -1    1    3    3    0  502 -0.64835718196E+02  0.49693158242E+03  0.60994628627E+03  0.78941696214E+03  0.50400001928E-02 0. -1.
</event>
<event>
 5   0  0.9184414E-05  0.1801196E+04  0.7818609E-02  0.8705663E-01
       -2   -1    0    0    0  501  0.00000000000E+00  0.00000000000E+00  0.89676483091E+03  0.89676483091E+03  0.25500000920E-02 0.  1.
        2   -1    0    0  501    0  0.00000000000E+00  0.00000000000E+00 -0.90444801163E+03  0.90444801163E+03  0.25500000920E-02 0. -1.
    10030    2    1    2    0    0  0.00000000000E+00  0.00000000000E+00 -0.76831807253E+01  0.18012128425E+04  0.18011964559E+04 0.  0.
        5    1    3    3  502    0 -0.15873870803E+03 -0.77210478480E+03  0.43172098143E+03  0.89874850316E+03  0.46999998093E+01 0.  1.
       -5    1    3    3    0  502  0.15873870803E+03  0.77210478480E+03 -0.43940416216E+03  0.90246433938E+03  0.46999998093E+01 0. -1.
</event>
<event>
 5   0  0.4335117E-05  0.1808737E+04  0.7818609E-02  0.8701667E-01
        1   -1    0    0  501    0  0.00000000000E+00  0.00000000000E+00  0.18150760974E+04  0.18150760974E+04  0.50400001928E-02 0.  1.
       -1   -1    0    0    0  501  0.00000000000E+00  0.00000000000E+00 -0.45060505459E+03  0.45060505462E+03  0.50400001928E-02 0. -1.
    10030    2    1    2    0    0  0.00000000000E+00  0.00000000000E+00  0.13644710429E+04  0.22656811521E+04  0.18087370887E+04 0.  0.
        3    1    3    3  502    0  0.53358151565E+03 -0.63224679560E+03  0.11398100314E+04  0.14084076691E+04  0.10100000352E+00 0.  1.
       -3    1    3    3    0  502 -0.53358151565E+03  0.63224679560E+03  0.22466101144E+03  0.85727348300E+03  0.10100000352E+00 0. -1.
</event>
<event>
 5   0  0.4335117E-05  0.1759478E+04  0.7818609E-02  0.8728151E-01
        1   -1    0    0  501    0  0.00000000000E+00  0.00000000000E+00  0.24498315108E+04  0.24498315108E+04  0.50400001928E-02 0. -1.
       -1   -1    0    0    0  501  0.00000000000E+00  0.00000000000E+00 -0.31591577525E+03  0.31591577529E+03  0.50400001928E-02 0.  1.
    10030    2    1    2    0    0  0.00000000000E+00  0.00000000000E+00  0.21339157355E+04  0.27657472861E+04  0.17594776737E+04 0.  0.
        3    1    3    3  502    0  0.45159592634E+03 -0.70443455165E+03  0.14939097246E+04  0.17122888757E+04  0.10100000352E+00 0. -1.
       -3    1    3    3    0  502 -0.45159592634E+03  0.70443455165E+03  0.64000601093E+03  0.10534584104E+04  0.10100000352E+00 0.  1.
</event>
<event>
 5   0  0.8802655E-05  0.1806570E+04  0.7818609E-02  0.8702813E-01
        2   -1    0    0  501    0  0.00000000000E+00  0.00000000000E+00  0.14885730757E+04  0.14885730757E+04  0.25500000920E-02 0.  1.
       -2   -1    0    0    0  501  0.00000000000E+00  0.00000000000E+00 -0.54812492513E+03  0.54812492514E+03  0.25500000920E-02 0. -1.
    10030    2    1    2    0    0  0.00000000000E+00  0.00000000000E+00  0.94044815053E+03  0.20366980008E+04  0.18065702374E+04 0.  0.
        2    1    3    3  502    0 -0.28976618407E+03 -0.24618083714E+03  0.13939598372E+04  0.14448852805E+04  0.25500000920E-02 0.  1.
       -2    1    3    3    0  502  0.28976618407E+03  0.24618083714E+03 -0.45351168666E+03  0.59181272033E+03  0.25500000920E-02 0. -1.
</event>
<event>
 5   0  0.8892280E-05  0.1797562E+04  0.7818609E-02  0.8707597E-01
       -2   -1    0    0    0  501  0.00000000000E+00  0.00000000000E+00  0.90594133006E+03  0.90594133006E+03  0.25500000920E-02 0.  1.
        2   -1    0    0  501    0  0.00000000000E+00  0.00000000000E+00 -0.89167683782E+03  0.89167683782E+03  0.25500000920E-02 0. -1.
    10030    2    1    2    0    0  0.00000000000E+00  0.00000000000E+00  0.14264492239E+02  0.17976181679E+04  0.17975615711E+04 0.  0.
        4    1    3    3  502    0 -0.29653549368E+03 -0.13357924264E+03 -0.83076558916E+03  0.89216018186E+03  0.12699999809E+01 0. -1.
       -4    1    3    3    0  502  0.29653549368E+03  0.13357924264E+03  0.84503008140E+03  0.90545798602E+03  0.12699999809E+01 0.  1.
</event>
<event>
 5   0  0.4335117E-05  0.1802876E+04  0.7818609E-02  0.8704771E-01
       -1   -1    0    0    0  501  0.00000000000E+00  0.00000000000E+00  0.60924297856E+03  0.60924297858E+03  0.50400001928E-02 0. -1.
        1   -1    0    0  501    0  0.00000000000E+00  0.00000000000E+00 -0.13337712919E+04  0.13337712919E+04  0.50400001928E-02 0.  1.
    10030    2    1    2    0    0  0.00000000000E+00  0.00000000000E+00 -0.72452831336E+03  0.19430142705E+04  0.18028763625E+04 0.  0.
        3    1    3    3  502    0 -0.73962363259E+03  0.44690596770E+03 -0.85762354409E+02  0.86840270237E+03  0.10100000352E+00 0. -1.
       -3    1    3    3    0  502  0.73962363259E+03 -0.44690596770E+03 -0.63876595895E+03  0.10746115681E+04  0.10100000352E+00 0.  1.
</event>
<event>
 5   0  0.8802655E-05  0.1811890E+04  0.7818609E-02  0.8700002E-01
        2   -1    0    0  501    0  0.00000000000E+00  0.00000000000E+00  0.85811424214E+03  0.85811424215E+03  0.25500000920E-02 0. -1.
       -2   -1    0    0    0  501  0.00000000000E+00  0.00000000000E+00 -0.95644189665E+03  0.95644189665E+03  0.25500000920E-02 0.  1.
    10030    2    1    2    0    0  0.00000000000E+00  0.00000000000E+00 -0.98327654507E+02  0.18145561388E+04  0.18118900776E+04 0.  0.
        2    1    3    3  502    0  0.89304808915E+03  0.90465613593E+02  0.73562385475E+02  0.90062774848E+03  0.25500000920E-02 0. -1.
       -2    1    3    3    0  502 -0.89304808915E+03 -0.90465613593E+02 -0.17189003998E+03  0.91392839031E+03  0.25500000920E-02 0.  1.
</event>
<event>
 5   0  0.8892280E-05  0.1798564E+04  0.7818609E-02  0.8707063E-01
       -2   -1    0    0    0  501  0.00000000000E+00  0.00000000000E+00  0.71851808361E+03  0.71851808361E+03  0.25500000920E-02 0.  1.
        2   -1    0    0  501    0  0.00000000000E+00  0.00000000000E+00 -0.11255226977E+04  0.11255226977E+04  0.25500000920E-02 0. -1.
    10030    2    1    2    0    0  0.00000000000E+00  0.00000000000E+00 -0.40700461413E+03  0.18440407814E+04  0.17985643295E+04 0.  0.
        4    1    3    3  502    0 -0.45408203539E+03  0.49487464097E+03  0.40962780814E+03  0.78669432388E+03  0.12699999809E+01 0.  1.
       -4    1    3    3    0  502  0.45408203539E+03 -0.49487464097E+03 -0.81663242226E+03  0.10573464575E+04  0.12699999809E+01 0. -1.
</event>
<event>
 5   0  0.9147432E-05  0.1802337E+04  0.7818609E-02  0.8705058E-01
        2   -1    0    0  501    0  0.00000000000E+00  0.00000000000E+00  0.15438883924E+04  0.15438883924E+04  0.25500000920E-02 0. -1.
       -2   -1    0    0    0  501  0.00000000000E+00  0.00000000000E+00 -0.52601262227E+03  0.52601262227E+03  0.25500000920E-02 0.  1.
    10030    2    1    2    0    0  0.00000000000E+00  0.00000000000E+00  0.10178757701E+04  0.20699010147E+04  0.18023371292E+04 0.  0.
        3    1    3    3  502    0  0.49492905954E+03 -0.67663874807E+03  0.88864042256E+03  0.12216695872E+04  0.10100000352E+00 0. -1.
       -3    1    3    3    0  502 -0.49492905954E+03  0.67663874807E+03  0.12923534757E+03  0.84823142752E+03  0.10100000352E+00 0.  1.
</event>
<event>
 5   0  0.4335117E-05  0.1815193E+04  0.7818609E-02  0.8698261E-01
        1   -1    0    0  501    0  0.00000000000E+00  0.00000000000E+00  0.20117300710E+04  0.20117300710E+04  0.50400001928E-02 0.  1.
       -1   -1    0    0    0  501  0.00000000000E+00  0.00000000000E+00 -0.40946439567E+03  0.40946439570E+03  0.50400001928E-02 0. -1.
    10030    2    1    2    0    0  0.00000000000E+00  0.00000000000E+00  0.16022656753E+04  0.24211944667E+04  0.18151934749E+04 0.  0.
        3    1    3    3  502    0 -0.14970669517E+03  0.78334793034E+03  0.22327314182E+03  0.82818897639E+03  0.10100000352E+00 0. -1.
       -3    1    3    3    0  502  0.14970669517E+03 -0.78334793034E+03  0.13789925335E+04  0.15930054903E+04  0.10100000352E+00 0.  1.
</event>
<event>
 5   0  0.8802655E-05  0.1794972E+04  0.7818609E-02  0.8708978E-01
        2   -1    0    0  501    0  0.00000000000E+00  0.00000000000E+00  0.12845670168E+04  0.12845670168E+04  0.25500000920E-02 0. -1.
       -2   -1    0    0    0  501  0.00000000000E+00  0.00000000000E+00 -0.62704516730E+03  0.62704516730E+03  0.25500000920E-02 0.  1.
    10030    2    1    2    0    0  0.00000000000E+00  0.00000000000E+00  0.65752184952E+03  0.19116121841E+04  0.17949724677E+04 0.  0.
        2    1    3    3  502    0 -0.29610643845E+03  0.17589365928E+03 -0.55386637493E+03  0.65221588723E+03  0.25500000920E-02 0.  1.
       -2    1    3    3    0  502  0.29610643845E+03 -0.17589365928E+03  0.12113882245E+04  0.12593962969E+04  0.25500000920E-02 0. -1.
</event>
<event>
 5   0  0.3270375E-05  0.1799964E+04  0.7818609E-02  0.8706318E-01
        3   -1    0    0  501    0  0.00000000000E+00  0.00000000000E+00  0.15188108787E+04  0.15188108820E+04  0.10100000352E+00 0. -1.
       -3   -1    0    0    0  501  0.00000000000E+00  0.00000000000E+00 -0.53329077651E+03  0.53329078607E+03  0.10100000352E+00 0.  1.
    10030    2    1    2    0    0  0.00000000000E+00  0.00000000000E+00  0.98552010216E+03  0.20521016681E+04  0.17999642731E+04 0.  0.
        2    1    3    3  502    0 -0.88839031094E+03  0.80468383789E+01  0.32886698755E+03  0.94734132797E+03  0.25500000920E-02 0. -1.
       -2    1    3    3    0  502  0.88839031094E+03 -0.80468383789E+01  0.65665311461E+03  0.11047603401E+04  0.25500000920E-02 0.  1.
</event>
<event>
 5   0  0.4494757E-05  0.1808838E+04  0.7818609E-02  0.8701613E-01
       -1   -1    0    0    0  501  0.00000000000E+00  0.00000000000E+00  0.55936380497E+03  0.55936380499E+03  0.50400001928E-02 0.  1.
        1   -1    0    0  501    0  0.00000000000E+00  0.00000000000E+00 -0.14623294576E+04  0.14623294576E+04  0.50400001928E-02 0. -1.
    10030    2    1    2    0    0  0.00000000000E+00  0.00000000000E+00 -0.90296565267E+03  0.20216932626E+04  0.18088384887E+04 0.  0.
        4    1    3    3  502    0 -0.44958183926E+03 -0.70426273032E+03 -0.83843524146E+03  0.11836744022E+04  0.12699999809E+01 0. -1.
       -4    1    3    3    0  502  0.44958183926E+03  0.70426273032E+03 -0.64530411211E+02  0.83801886040E+03  0.12699999809E+01 0.  1.
</event>
<event>
 5   0  0.8802655E-05  0.1804125E+04  0.7818609E-02  0.8704109E-01
        2   -1    0    0  501    0  0.00000000000E+00  0.00000000000E+00  0.12812668639E+04  0.12812668639E+04  0.25500000920E-02 0.  1.
       -2   -1    0    0    0  501  0.00000000000E+00  0.00000000000E+00 -0.63508764463E+03  0.63508764463E+03  0.25500000920E-02 0. -1.
    10030    2    1    2    0    0  0.00000000000E+00  0.00000000000E+00  0.64617921923E+03  0.19163545085E+04  0.18041250009E+04 0.  0.
        2    1    3    3  502    0 -0.40256064870E+03 -0.69857645241E+03  0.75279490717E+03  0.11030704003E+04  0.25500000920E-02 0.  1.
       -2    1    3    3    0  502  0.40256064870E+03  0.69857645241E+03 -0.10661568793E+03  0.81328410821E+03  0.25500000920E-02 0. -1.
</event>
<event>
 5   0  0.4623665E-05  0.1798735E+04  0.7818609E-02  0.8706973E-01
        1   -1    0    0  501    0  0.00000000000E+00  0.00000000000E+00  0.10644552098E+04  0.10644552098E+04  0.50400001928E-02 0.  1.
       -1   -1    0    0    0  501  0.00000000000E+00  0.00000000000E+00 -0.75988321994E+03  0.75988321996E+03  0.50400001928E-02 0. -1.
    10030    2    1    2    0    0  0.00000000000E+00  0.00000000000E+00  0.30457198986E+03  0.18243384298E+04  0.17987347246E+04 0.  0.
        5    1    3    3  502    0 -0.82349179103E+03 -0.78233144817E+02 -0.20569763004E+03  0.85240410595E+03  0.46999998093E+01 0. -1.
       -5    1    3    3    0  502  0.82349179103E+03  0.78233144817E+02  0.51026961990E+03  0.97193432383E+03  0.46999998093E+01 0.  1.
</event>
<event>
 5   0  0.4335117E-05  0.1798515E+04  0.7818609E-02  0.8707090E-01
        1   -1    0    0  501    0  0.00000000000E+00  0.00000000000E+00  0.86476143583E+03  0.86476143585E+03  0.50400001928E-02 0. -1.
       -1   -1    0    0    0  501  0.00000000000E+00  0.00000000000E+00 -0.93512924205E+03  0.93512924207E+03  0.50400001928E-02 0.  1.
    10030    2    1    2    0    0  0.00000000000E+00  0.00000000000E+00 -0.70367806217E+02  0.17998906779E+04  0.17985146161E+04 0.  0.
        3    1    3    3  502    0  0.61582573426E+03  0.21566408787E+03 -0.65445567302E+03  0.92415614044E+03  0.10100000352E+00 0.  1.
       -3    1    3    3    0  502 -0.61582573426E+03 -0.21566408787E+03  0.58408786680E+03  0.87573453747E+03  0.10100000352E+00 0. -1.
</event>
<event>
 5   0  0.4335117E-05  0.1805335E+04  0.7818609E-02  0.8703468E-01
       -1   -1    0    0    0  501  0.00000000000E+00  0.00000000000E+00  0.72897270256E+03  0.72897270258E+03  0.50400001928E-02 0. -1.
        1   -1    0    0  501    0  0.00000000000E+00  0.00000000000E+00 -0.11177490377E+04  0.11177490377E+04  0.50400001928E-02 0.  1.
    10030    2    1    2    0    0  0.00000000000E+00  0.00000000000E+00 -0.38877633509E+03  0.18467217402E+04  0.18053349127E+04 0.  0.
        3    1    3    3  502    0 -0.54926395897E+01  0.89164239755E+03 -0.50623774720E+02  0.89309524183E+03  0.10100000352E+00 0. -1.
       -3    1    3    3    0  502  0.54926395897E+01 -0.89164239755E+03 -0.33815256037E+03  0.95362649842E+03  0.10100000352E+00 0.  1.
</event>
<event>
 5   0  0.4578107E-05  0.1806036E+04  0.7818609E-02  0.8703096E-01
       -1   -1    0    0    0  501  0.00000000000E+00  0.00000000000E+00  0.59605919386E+03  0.59605919389E+03  0.50400001928E-02 0.  1.
        1   -1    0    0  501    0  0.00000000000E+00  0.00000000000E+00 -0.13680546856E+04  0.13680546856E+04  0.50400001928E-02 0. -1.
    10030    2    1    2    0    0  0.00000000000E+00  0.00000000000E+00 -0.77199549177E+03  0.19641138795E+04  0.18060360717E+04 0.  0.
        2    1    3    3  502    0 -0.40277072766E+03 -0.53016251993E+03  0.27743415144E+03  0.72129485302E+03  0.25500000920E-02 0.  1.
       -2    1    3    3    0  502  0.40277072766E+03  0.53016251993E+03 -0.10494296432E+04  0.12428190265E+04  0.25500000920E-02 0. -1.
</event>
<event>
 5   0  0.9184414E-05  0.1795557E+04  0.7818609E-02  0.8708666E-01
        2   -1    0    0  501    0  0.00000000000E+00  0.00000000000E+00  0.14028909114E+04  0.14028909114E+04  0.25500000920E-02 0. -1.
       -2   -1    0    0    0  501  0.00000000000E+00  0.00000000000E+00 -0.57453250144E+03  0.57453250144E+03  0.25500000920E-02 0.  1.
    10030    2    1    2    0    0  0.00000000000E+00  0.00000000000E+00  0.82835840996E+03  0.19774234128E+04  0.17955572111E+04 0.  0.
        5    1    3    3  502    0  0.44339997703E+03 -0.35901569711E+03  0.11775612382E+04  0.13084985175E+04  0.46999998093E+01 0. -1.
       -5    1    3    3    0  502 -0.44339997703E+03  0.35901569711E+03 -0.34920282827E+03  0.66892489539E+03  0.46999998093E+01 0.  1.
</event>
<event>
 5   0  0.4494757E-05  0.1796142E+04  0.7818609E-02  0.8708354E-01
       -1   -1    0    0    0  501  0.00000000000E+00  0.00000000000E+00  0.49863322651E+03  0.49863322654E+03  0.50400001928E-02 0. -1.
        1   -1    0    0  501    0  0.00000000000E+00  0.00000000000E+00 -0.16174845473E+04  0.16174845473E+04  0.50400001928E-02 0.  1.
    10030    2    1    2    0    0  0.00000000000E+00  0.00000000000E+00 -0.11188513208E+04  0.21161177739E+04  0.17961420197E+04 0.  0.
        4    1    3    3  502    0 -0.32790865437E+02  0.43515892365E+03 -0.14841701111E+04  0.15469974341E+04  0.12699999809E+01 0.  1.
       -4    1    3    3    0  502  0.32790865437E+02 -0.43515892365E+03  0.36531879026E+03  0.56912033974E+03  0.12699999809E+01 0. -1.
</event>
<event>
 5   0  0.4335117E-05  0.1800741E+04  0.7818609E-02  0.8705905E-01
        1   -1    0    0  501    0  0.00000000000E+00  0.00000000000E+00  0.16907596575E+04  0.16907596575E+04  0.50400001928E-02 0. -1.
       -1   -1    0    0    0  501  0.00000000000E+00  0.00000000000E+00 -0.47946914163E+03  0.47946914165E+03  0.50400001928E-02 0.  1.
    10030    2    1    2    0    0  0.00000000000E+00  0.00000000000E+00  0.12112905159E+04  0.21702287991E+04  0.18007410493E+04 0.  0.
        3    1    3    3  502    0 -0.13684416877E+03  0.83963637178E+03  0.25026539368E+03  0.88676284361E+03  0.10100000352E+00 0. -1.
       -3    1    3    3    0  502  0.13684416877E+03 -0.83963637178E+03  0.96102512217E+03  0.12834659555E+04  0.10100000352E+00 0.  1.
</event>
<event>
 5   0  0.8802655E-05  0.1800043E+04  0.7818609E-02  0.8706277E-01
       -2   -1    0    0    0  501  0.00000000000E+00  0.00000000000E+00  0.28116362320E+03  0.28116362321E+03  0.25500000920E-02 0.  1.
        2   -1    0    0  501    0  0.00000000000E+00  0.00000000000E+00 -0.28810228359E+04  0.28810228359E+04  0.25500000920E-02 0. -1.
    10030    2    1    2    0    0  0.00000000000E+00  0.00000000000E+00 -0.25998592127E+04  0.31621864591E+04  0.18000431318E+04 0.  0.
        2    1    3    3  502    0  0.25376444377E+03 -0.24578269088E+02 -0.28162601136E+04  0.28277767790E+04  0.25500000920E-02 0. -1.
       -2    1    3    3    0  502 -0.25376444377E+03  0.24578269088E+02  0.21640090092E+03  0.33440968013E+03  0.25500000920E-02 0.  1.
</event>
<event>
 5   0  0.4578107E-05  0.1788408E+04  0.7818609E-02  0.8712488E-01
       -1   -1    0    0    0  501  0.00000000000E+00  0.00000000000E+00  0.15169653334E+04  0.15169653334E+04  0.50400001928E-02 0.  1.
        1   -1    0    0  501    0  0.00000000000E+00  0.00000000000E+00 -0.52710577982E+03  0.52710577985E+03  0.50400001928E-02 0. -1.
    10030    2    1    2    0    0  0.00000000000E+00  0.00000000000E+00  0.98985955353E+03  0.20440711132E+04  0.17884084489E+04 0.  0.
        2    1    3    3  502    0  0.29322142979E+02  0.88818141694E+03  0.38134980808E+03  0.96703345009E+03  0.25500000920E-02 0.  1.
       -2    1    3    3    0  502 -0.29322142979E+02 -0.88818141694E+03  0.60850974545E+03  0.10770376631E+04  0.25500000920E-02 0. -1.
</event>
<event>
 5   0  0.9184414E-05  0.1800961E+04  0.7818609E-02  0.8705789E-01
        2   -1    0    0  501    0  0.00000000000E+00  0.00000000000E+00  0.64576378267E+03  0.64576378267E+03  0.25500000920E-02 0. -1.
       -2   -1    0    0    0  501  0.00000000000E+00  0.00000000000E+00 -0.12556681447E+04  0.12556681447E+04  0.25500000920E-02 0.  1.
    10030    2    1    2    0    0  0.00000000000E+00  0.00000000000E+00 -0.60990436208E+03  0.19014319274E+04  0.18009608668E+04 0.  0.
        5    1    3    3  502    0  0.59296530511E+03  0.58958828789E+03 -0.65768747223E+03  0.10638595318E+04  0.46999998093E+01 0.  1.
       -5    1    3    3    0  502 -0.59296530511E+03 -0.58958828789E+03  0.47783110158E+02  0.83757239561E+03  0.46999998093E+01 0. -1.
</event>
<event>
 5   0  0.4535100E-05  0.1803211E+04  0.7818609E-02  0.8704594E-01
        1   -1    0    0  501    0  0.00000000000E+00  0.00000000000E+00  0.12461152335E+04  0.12461152335E+04  0.50400001928E-02 0. -1.
       -1   -1    0    0    0  501  0.00000000000E+00  0.00000000000E+00 -0.65234142890E+03  0.65234142892E+03  0.50400001928E-02 0.  1.
    10030    2    1    2    0    0  0.00000000000E+00  0.00000000000E+00  0.59377380458E+03  0.18984566624E+04  0.18032111269E+04 0.  0.
        1    1    3    3  502    0  0.36533870263E+03 -0.50476184620E+03 -0.38917351361E+03  0.73465155873E+03  0.50400001928E-02 0.  1.
       -1    1    3    3    0  502 -0.36533870263E+03  0.50476184620E+03  0.98294731819E+03  0.11638051037E+04  0.50400001928E-02 0. -1.
</event>
<event>
 5   0  0.9147432E-05  0.1796030E+04  0.7818609E-02  0.8708414E-01
       -2   -1    0    0    0  501  0.00000000000E+00  0.00000000000E+00  0.75724624129E+03  0.75724624130E+03  0.25500000920E-02 0.  1.
        2   -1    0    0  501    0  0.00000000000E+00  0.00000000000E+00 -0.10649518232E+04  0.10649518232E+04  0.25500000920E-02 0. -1.
    10030    2    1    2    0    0  0.00000000000E+00  0.00000000000E+00 -0.30770558189E+03  0.18221980645E+04  0.17960298052E+04 0.  0.
        3    1    3    3  502    0 -0.68559096612E+03 -0.57873767665E+03 -0.11510625712E+03  0.90455609656E+03  0.10100000352E+00 0. -1.
       -3    1    3    3    0  502  0.68559096612E+03  0.57873767665E+03 -0.19259932477E+03  0.91764196792E+03  0.10100000352E+00 0.  1.
</event>
<event>
 5   0  0.9184414E-05  0.1782005E+04  0.7818609E-02  0.8715928E-01
       -2   -1    0    0    0  501  0.00000000000E+00  0.00000000000E+00  0.52799870817E+03  0.52799870817E+03  0.25500000920E-02 0.  1.
        2   -1    0    0  501    0  0.00000000000E+00  0.00000000000E+00 -0.15035748418E+04  0.15035748418E+04  0.25500000920E-02 0. -1.
    10030    2    1    2    0    0  0.00000000000E+00  0.00000000000E+00 -0.97557613366E+03  0.20315735500E+04  0.17820051337E+04 0.  0.
        5    1    3    3  502    0 -0.93155979341E+02 -0.84564806649E+03 -0.18601982835E+03  0.87087551085E+03  0.46999998093E+01 0.  1.
       -5    1    3    3    0  502  0.93155979341E+02  0.84564806649E+03 -0.78955630531E+03  0.11606980392E+04  0.46999998093E+01 0. -1.
</event>
<event>
 5   0  0.4535100E-05  0.1804487E+04  0.7818609E-02  0.8703917E-01
       -1   -1    0    0    0  501  0.00000000000E+00  0.00000000000E+00  0.38001012285E+03  0.38001012288E+03  0.50400001928E-02 0. -1.
        1   -1    0    0  501    0  0.00000000000E+00  0.00000000000E+00 -0.21421627565E+04  0.21421627565E+04  0.50400001928E-02 0.  1.
    10030    2    1    2    0    0  0.00000000000E+00  0.00000000000E+00 -0.17621526337E+04  0.25221728794E+04  0.18044872206E+04 0.  0.
        1    1    3    3  502    0  0.22340933929E+03 -0.37153749959E+03  0.22488518363E+03  0.48839040974E+03  0.50400001928E-02 0. -1.
       -1    1    3    3    0  502 -0.22340933929E+03  0.37153749959E+03 -0.19870378173E+04  0.20337824697E+04  0.50400001928E-02 0.  1.
</event>
<event>
 5   0  0.8802655E-05  0.1802938E+04  0.7818609E-02  0.8704738E-01
        2   -1    0    0  501    0  0.00000000000E+00  0.00000000000E+00  0.61955577382E+03  0.61955577382E+03  0.25500000920E-02 0. -1.
       -2   -1    0    0    0  501  0.00000000000E+00  0.00000000000E+00 -0.13116603323E+04  0.13116603323E+04  0.25500000920E-02 0.  1.
    10030    2    1    2    0    0  0.00000000000E+00  0.00000000000E+00 -0.69210455852E+03  0.19312161062E+04  0.18029384151E+04 0.  0.
        2    1    3    3  502    0 -0.66440164204E+03  0.60697002505E+03 -0.28932606305E+03  0.94527864888E+03  0.25500000920E-02 0. -1.
       -2    1    3    3    0  502  0.66440164204E+03 -0.60697002505E+03 -0.40277849547E+03  0.98593745729E+03  0.25500000920E-02 0.  1.
</event>
<event>
 5   0  0.9184414E-05  0.1800384E+04  0.7818609E-02  0.8706095E-01
        2   -1    0    0  501    0  0.00000000000E+00  0.00000000000E+00  0.77251006338E+03  0.77251006338E+03  0.25500000920E-02 0.  1.
       -2   -1    0    0    0  501  0.00000000000E+00  0.00000000000E+00 -0.10489776378E+04  0.10489776378E+04  0.25500000920E-02 0. -1.
    10030    2    1    2    0    0  0.00000000000E+00  0.00000000000E+00 -0.27646757442E+03  0.18214877012E+04  0.18003841606E+04 0.  0.
        5    1    3    3  502    0 -0.58065977678E+03  0.67426661225E+03 -0.54128778198E+00  0.88984471891E+03  0.46999998093E+01 0.  1.
       -5    1    3    3    0  502  0.58065977678E+03 -0.67426661225E+03 -0.27592628664E+03  0.93164298228E+03  0.46999998093E+01 0. -1.
</event>
<event>
 5   0  0.4578107E-05  0.1795249E+04  0.7818609E-02  0.8708830E-01
        1   -1    0    0  501    0  0.00000000000E+00  0.00000000000E+00  0.80406743622E+03  0.80406743624E+03  0.50400001928E-02 0.  1.
       -1   -1    0    0    0  501  0.00000000000E+00  0.00000000000E+00 -0.10020671228E+04  0.10020671228E+04  0.50400001928E-02 0. -1.
    10030    2    1    2    0    0  0.00000000000E+00  0.00000000000E+00 -0.19799968656E+03  0.18061345590E+04  0.17952487765E+04 0.  0.
        2    1    3    3  502    0 -0.47084281720E+03 -0.25030887228E+03 -0.82544611934E+03  0.98270483157E+03  0.25500000920E-02 0. -1.
       -2    1    3    3    0  502  0.47084281720E+03  0.25030887228E+03  0.62744643278E+03  0.82342972746E+03  0.25500000920E-02 0.  1.
</event>
<event>
 5   0  0.9184414E-05  0.1801295E+04  0.7818609E-02  0.8705611E-01
       -2   -1    0    0    0  501  0.00000000000E+00  0.00000000000E+00  0.12224907143E+04  0.12224907143E+04  0.25500000920E-02 0.  1.
        2   -1    0    0  501    0  0.00000000000E+00  0.00000000000E+00 -0.66353512253E+03  0.66353512254E+03  0.25500000920E-02 0. -1.
    10030    2    1    2    0    0  0.00000000000E+00  0.00000000000E+00  0.55895559175E+03  0.18860258368E+04  0.18012945633E+04 0.  0.
        5    1    3    3  502    0  0.58210967870E+03 -0.40934970332E+02  0.99776194638E+03  0.11558885506E+04  0.46999998093E+01 0.  1.
       -5    1    3    3    0  502 -0.58210967870E+03  0.40934970332E+02 -0.43880635463E+03  0.73013728620E+03  0.46999998093E+01 0. -1.
</event>
<event>
 5   0  0.4494757E-05  0.1780068E+04  0.7818609E-02  0.8716971E-01
        1   -1    0    0  501    0  0.00000000000E+00  0.00000000000E+00  0.10047078505E+04  0.10047078505E+04  0.50400001928E-02 0. -1.
       -1   -1    0    0    0  501  0.00000000000E+00  0.00000000000E+00 -0.78844864822E+03  0.78844864824E+03  0.50400001928E-02 0.  1.
    10030    2    1    2    0    0  0.00000000000E+00  0.00000000000E+00  0.21625920226E+03  0.17931564987E+04  0.17800680286E+04 0.  0.
        4    1    3    3  502    0 -0.84625784623E+03  0.19085880717E+03 -0.92279197824E+02  0.87240844209E+03  0.12699999809E+01 0. -1.
       -4    1    3    3    0  502  0.84625784623E+03 -0.19085880717E+03  0.30853840009E+03  0.92074805664E+03  0.12699999809E+01 0.  1.
</event>
<event>
 5   0  0.4623665E-05  0.1793528E+04  0.7818609E-02  0.8709749E-01
       -1   -1    0    0    0  501  0.00000000000E+00  0.00000000000E+00  0.62245715659E+03  0.62245715661E+03  0.50400001928E-02 0.  1.
        1   -1    0    0  501    0  0.00000000000E+00  0.00000000000E+00 -0.12919533736E+04  0.12919533736E+04  0.50400001928E-02 0. -1.
    10030    2    1    2    0    0  0.00000000000E+00  0.00000000000E+00 -0.66949621704E+03  0.19144105302E+04  0.17935279462E+04 0.  0.
        5    1    3    3  502    0  0.74741906883E+03 -0.82781298704E+02 -0.85621995941E+03  0.11395712864E+04  0.46999998093E+01 0. -1.
       -5    1    3    3    0  502 -0.74741906883E+03  0.82781298704E+02  0.18672374237E+03  0.77483924386E+03  0.46999998093E+01 0.  1.
</event>
<event>
 5   0  0.4623665E-05  0.1805605E+04  0.7818609E-02  0.8703324E-01
        1   -1    0    0  501    0  0.00000000000E+00  0.00000000000E+00  0.11130869884E+04  0.11130869884E+04  0.50400001928E-02 0.  1.
       -1   -1    0    0    0  501  0.00000000000E+00  0.00000000000E+00 -0.73224510933E+03  0.73224510935E+03  0.50400001928E-02 0. -1.
    10030    2    1    2    0    0  0.00000000000E+00  0.00000000000E+00  0.38084187905E+03  0.18453320977E+04  0.18056051656E+04 0.  0.
        5    1    3    3  502    0 -0.56743910073E+03 -0.44372097772E+03  0.74659568313E+03  0.10374500678E+04  0.46999998093E+01 0.  1.
       -5    1    3    3    0  502  0.56743910073E+03  0.44372097772E+03 -0.36575380408E+03  0.80788202994E+03  0.46999998093E+01 0. -1.
</event>
<event>
 5   0  0.3270375E-05  0.1793860E+04  0.7818609E-02  0.8709572E-01
        3   -1    0    0  501    0  0.00000000000E+00  0.00000000000E+00  0.14619188813E+04  0.14619188847E+04  0.10100000352E+00 0.  1.
       -3   -1    0    0    0  501  0.00000000000E+00  0.00000000000E+00 -0.55029274738E+03  0.55029275665E+03  0.10100000352E+00 0. -1.
    10030    2    1    2    0    0  0.00000000000E+00  0.00000000000E+00  0.91162613388E+03  0.20122116414E+04  0.17938599393E+04 0.  0.
        4    1    3    3  502    0 -0.43547662796E+02 -0.56245016063E+03  0.12379959589E+04  0.13604713114E+04  0.12699999809E+01 0.  1.
       -4    1    3    3    0  502  0.43547662796E+02  0.56245016063E+03 -0.32636982500E+03  0.65174032996E+03  0.12699999809E+01 0. -1.
</event>
<event>
 5   0  0.9147432E-05  0.1808054E+04  0.7818609E-02  0.8702028E-01
        2   -1    0    0  501    0  0.00000000000E+00  0.00000000000E+00  0.12623909314E+04  0.12623909314E+04  0.25500000920E-02 0.  1.
       -2   -1    0    0    0  501  0.00000000000E+00  0.00000000000E+00 -0.64739469242E+03  0.64739469243E+03  0.25500000920E-02 0. -1.
    10030    2    1    2    0    0  0.00000000000E+00  0.00000000000E+00  0.61499623895E+03  0.19097856238E+04  0.18080544115E+04 0.  0.
        3    1    3    3  502    0 -0.71840768192E+03 -0.31689845447E+03 -0.16574062615E+03  0.80249871853E+03  0.10100000352E+00 0. -1.
       -3    1    3    3    0  502  0.71840768192E+03  0.31689845447E+03  0.78073686510E+03  0.11072869053E+04  0.10100000352E+00 0.  1.
</event>
<event>
 5   0  0.4623665E-05  0.1799410E+04  0.7818609E-02  0.8706613E-01
       -1   -1    0    0    0  501  0.00000000000E+00  0.00000000000E+00  0.52006664320E+03  0.52006664323E+03  0.50400001928E-02 0.  1.
        1   -1    0    0  501    0  0.00000000000E+00  0.00000000000E+00 -0.15564725862E+04  0.15564725862E+04  0.50400001928E-02 0. -1.
    10030    2    1    2    0    0  0.00000000000E+00  0.00000000000E+00 -0.10364059430E+04  0.20765392295E+04  0.17994104292E+04 0.  0.
        5    1    3    3  502    0 -0.17647603461E+03 -0.62972496860E+03 -0.12312192773E+04  0.13941378431E+04  0.46999998093E+01 0. -1.
       -5    1    3    3    0  502  0.17647603461E+03  0.62972496860E+03  0.19481333426E+03  0.68240138634E+03  0.46999998093E+01 0.  1.
</event>
<event>
 5   0  0.4623665E-05  0.1757474E+04  0.7818609E-02  0.8729247E-01
        1   -1    0    0  501    0  0.00000000000E+00  0.00000000000E+00  0.11450181624E+04  0.11450181624E+04  0.50400001928E-02 0.  1.
       -1   -1    0    0    0  501  0.00000000000E+00  0.00000000000E+00 -0.67438115780E+03  0.67438115781E+03  0.50400001928E-02 0. -1.
    10030    2    1    2    0    0  0.00000000000E+00  0.00000000000E+00  0.47063700462E+03  0.18193993202E+04  0.17574739533E+04 0.  0.
        5    1    3    3  502    0 -0.26815645743E+03  0.36433738390E+03  0.10151930207E+04  0.11114353666E+04  0.46999998093E+01 0.  1.
       -5    1    3    3    0  502  0.26815645743E+03 -0.36433738390E+03 -0.54455601606E+03  0.70796395360E+03  0.46999998093E+01 0. -1.
</event>
<event>
 5   0  0.9147432E-05  0.1799695E+04  0.7818609E-02  0.8706462E-01
        2   -1    0    0  501    0  0.00000000000E+00  0.00000000000E+00  0.13927043473E+04  0.13927043473E+04  0.25500000920E-02 0. -1.
       -2   -1    0    0    0  501  0.00000000000E+00  0.00000000000E+00 -0.58140538563E+03  0.58140538563E+03  0.25500000920E-02 0.  1.
    10030    2    1    2    0    0  0.00000000000E+00  0.00000000000E+00  0.81129896165E+03  0.19741097329E+04  0.17996953165E+04 0.  0.
        3    1    3    3  502    0  0.79051166533E+03  0.10755224646E+03  0.86222061180E+03  0.11746916925E+04  0.10100000352E+00 0. -1.
       -3    1    3    3    0  502 -0.79051166533E+03 -0.10755224646E+03 -0.50921650146E+02  0.79941804045E+03  0.10100000352E+00 0.  1.
</event>
<event>
 5   0  0.8893075E-05  0.1764584E+04  0.7818609E-02  0.8725363E-01
        2   -1    0    0  501    0  0.00000000000E+00  0.00000000000E+00  0.10417836862E+04  0.10417836863E+04  0.25500000920E-02 0.  1.
       -2   -1    0    0    0  501  0.00000000000E+00  0.00000000000E+00 -0.74721766769E+03  0.74721766769E+03  0.25500000920E-02 0. -1.
    10030    2    1    2    0    0  0.00000000000E+00  0.00000000000E+00  0.29456601856E+03  0.17890013539E+04  0.17645840034E+04 0.  0.
        1    1    3    3  502    0  0.22415819761E+03 -0.72169965401E+03 -0.31436594472E+03  0.81848838439E+03  0.50400001928E-02 0. -1.
       -1    1    3    3    0  502 -0.22415819761E+03  0.72169965401E+03  0.60893196328E+03  0.97051296956E+03  0.50400001928E-02 0.  1.
</event>
<event>
 5   0  0.8892280E-05  0.1824170E+04  0.7818609E-02  0.8693551E-01
        2   -1    0    0  501    0  0.00000000000E+00  0.00000000000E+00  0.56714997578E+03  0.56714997579E+03  0.25500000920E-02 0.  1.
       -2   -1    0    0    0  501  0.00000000000E+00  0.00000000000E+00 -0.14668062539E+04  0.14668062539E+04  0.25500000920E-02 0. -1.
    10030    2    1    2    0    0  0.00000000000E+00  0.00000000000E+00 -0.89965627814E+03  0.20339562297E+04  0.18241700923E+04 0.  0.
        4    1    3    3  502    0 -0.13260961827E+03  0.25312639846E+03 -0.14156035807E+04  0.14441583691E+04  0.12699999809E+01 0. -1.
       -4    1    3    3    0  502  0.13260961827E+03 -0.25312639846E+03  0.51594730257E+03  0.58979786061E+03  0.12699999809E+01 0.  1.
</event>
<event>
 5   0  0.4578107E-05  0.1800313E+04  0.7818609E-02  0.8706133E-01
        1   -1    0    0  501    0  0.00000000000E+00  0.00000000000E+00  0.16590777679E+04  0.16590777679E+04  0.50400001928E-02 0.  1.
       -1   -1    0    0    0  501  0.00000000000E+00  0.00000000000E+00 -0.48839299547E+03  0.48839299550E+03  0.50400001928E-02 0. -1.
    10030    2    1    2    0    0  0.00000000000E+00  0.00000000000E+00  0.11706847724E+04  0.21474707634E+04  0.18003132625E+04 0.  0.
        2    1    3    3  502    0  0.79577821199E+03 -0.20607748206E+03  0.14779735519E+03  0.83520952431E+03  0.25500000920E-02 0. -1.
       -2    1    3    3    0  502 -0.79577821199E+03  0.20607748206E+03  0.10228874172E+04  0.13122612391E+04  0.25500000920E-02 0.  1.
</event>
<event>
 5   0  0.9184414E-05  0.1803618E+04  0.7818609E-02  0.8704378E-01
        2   -1    0    0  501    0  0.00000000000E+00  0.00000000000E+00  0.13752452094E+04  0.13752452094E+04  0.25500000920E-02 0. -1.
       -2   -1    0    0    0  501  0.00000000000E+00  0.00000000000E+00 -0.59135585424E+03  0.59135585424E+03  0.25500000920E-02 0.  1.
    10030    2    1    2    0    0  0.00000000000E+00  0.00000000000E+00  0.78388935519E+03  0.19666010637E+04  0.18036178150E+04 0.  0.
        5    1    3    3  502    0 -0.75645084448E+03  0.39740365103E+03  0.70624532821E+03  0.11085811182E+04  0.46999998093E+01 0. -1.
       -5    1    3    3    0  502  0.75645084448E+03 -0.39740365103E+03  0.77644026980E+02  0.85801994550E+03  0.46999998093E+01 0.  1.
</event>
<event>
 5   0  0.4494757E-05  0.1806317E+04  0.7818609E-02  0.8702948E-01
       -1   -1    0    0    0  501  0.00000000000E+00  0.00000000000E+00  0.13821537134E+04  0.13821537134E+04  0.50400001928E-02 0.  1.
        1   -1    0    0  501    0  0.00000000000E+00  0.00000000000E+00 -0.59016231536E+03  0.59016231538E+03  0.50400001928E-02 0. -1.
    10030    2    1    2    0    0  0.00000000000E+00  0.00000000000E+00  0.79199139801E+03  0.19723160288E+04  0.18063167338E+04 0.  0.
        4    1    3    3  502    0  0.11888026480E+02  0.83192528582E+03  0.12348177833E+02  0.83210281622E+03  0.12699999809E+01 0. -1.
       -4    1    3    3    0  502 -0.11888026480E+02 -0.83192528582E+03  0.77964322018E+03  0.11402132125E+04  0.12699999809E+01 0.  1.
</event>
<event>
 5   0  0.8893075E-05  0.1793049E+04  0.7818609E-02  0.8710005E-01
       -2   -1    0    0    0  501  0.00000000000E+00  0.00000000000E+00  0.48084060333E+03  0.48084060333E+03  0.25500000920E-02 0.  1.
        2   -1    0    0  501    0  0.00000000000E+00  0.00000000000E+00 -0.16715644931E+04  0.16715644931E+04  0.25500000920E-02 0. -1.
    10030    2    1    2    0    0  0.00000000000E+00  0.00000000000E+00 -0.11907238897E+04  0.21524050964E+04  0.17930488887E+04 0.  0.
        1    1    3    3  502    0  0.15372455691E+03 -0.14030998404E+03 -0.16421620831E+04  0.16552988970E+04  0.50400001928E-02 0. -1.
       -1    1    3    3    0  502 -0.15372455691E+03  0.14030998404E+03  0.45143819340E+03  0.49710619942E+03  0.50400001928E-02 0.  1.
</event>
<event>
 5   0  0.9184414E-05  0.1791676E+04  0.7818609E-02  0.8710739E-01
       -2   -1    0    0    0  501  0.00000000000E+00  0.00000000000E+00  0.54931519523E+03  0.54931519524E+03  0.25500000920E-02 0.  1.
        2   -1    0    0  501    0  0.00000000000E+00  0.00000000000E+00 -0.14609561223E+04  0.14609561223E+04  0.25500000920E-02 0. -1.
    10030    2    1    2    0    0  0.00000000000E+00  0.00000000000E+00 -0.91164092712E+03  0.20102713176E+04  0.17916756376E+04 0.  0.
        5    1    3    3  502    0  0.16208705064E+03 -0.58992410423E+03  0.27840440369E+03  0.67217093267E+03  0.46999998093E+01 0.  1.
       -5    1    3    3    0  502 -0.16208705064E+03  0.58992410423E+03 -0.11900453308E+04  0.13381003849E+04  0.46999998093E+01 0. -1.
</event>
<event>
 5   0  0.8802655E-05  0.1797968E+04  0.7818609E-02  0.8707381E-01
       -2   -1    0    0    0  501  0.00000000000E+00  0.00000000000E+00  0.87618836433E+03  0.87618836433E+03  0.25500000920E-02 0.  1.
        2   -1    0    0  501    0  0.00000000000E+00  0.00000000000E+00 -0.92237250058E+03  0.92237250059E+03  0.25500000920E-02 0. -1.
    10030    2    1    2    0    0  0.00000000000E+00  0.00000000000E+00 -0.46184136255E+02  0.17985608649E+04  0.17979678002E+04 0.  0.
        2    1    3    3  502    0  0.43798278501E+02 -0.15170123036E+03 -0.90839274784E+03  0.92201352313E+03  0.25500000920E-02 0. -1.
       -2    1    3    3    0  502 -0.43798278501E+02  0.15170123036E+03  0.86220861159E+03  0.87654734179E+03  0.25500000920E-02 0.  1.
</event>
<event>
 5   0  0.4535100E-05  0.1792560E+04  0.7818609E-02  0.8710266E-01
       -1   -1    0    0    0  501  0.00000000000E+00  0.00000000000E+00  0.10653421829E+04  0.10653421829E+04  0.50400001928E-02 0. -1.
        1   -1    0    0  501    0  0.00000000000E+00  0.00000000000E+00 -0.75404684328E+03  0.75404684330E+03  0.50400001928E-02 0.  1.
    10030    2    1    2    0    0  0.00000000000E+00  0.00000000000E+00  0.31129533960E+03  0.18193890262E+04  0.17925600799E+04 0.  0.
        1    1    3    3  502    0  0.66383802676E+03 -0.43198572231E+03  0.58148077516E+03  0.98255406058E+03  0.50400001928E-02 0. -1.
       -1    1    3    3    0  502 -0.66383802676E+03  0.43198572231E+03 -0.27018543556E+03  0.83683496561E+03  0.50400001928E-02 0.  1.
</event>
<event>
 5   0  0.4494757E-05  0.1825511E+04  0.7818609E-02  0.8692849E-01
       -1   -1    0    0    0  501  0.00000000000E+00  0.00000000000E+00  0.50287809088E+03  0.50287809091E+03  0.50400001928E-02 0.  1.
        1   -1    0    0  501    0  0.00000000000E+00  0.00000000000E+00 -0.16567090825E+04  0.16567090825E+04  0.50400001928E-02 0. -1.
    10030    2    1    2    0    0  0.00000000000E+00  0.00000000000E+00 -0.11538309917E+04  0.21595871735E+04  0.18255111072E+04 0.  0.
        4    1    3    3  502    0 -0.16737100669E+03  0.19669073625E+03  0.45875093011E+03  0.52645448842E+03  0.12699999809E+01 0.  1.
       -4    1    3    3    0  502  0.16737100669E+03 -0.19669073625E+03 -0.16125819218E+04  0.16331326850E+04  0.12699999809E+01 0. -1.
</event>
<event>
 5   0  0.8802655E-05  0.1801862E+04  0.7818609E-02  0.8705310E-01
       -2   -1    0    0    0  501  0.00000000000E+00  0.00000000000E+00  0.40891990463E+03  0.40891990464E+03  0.25500000920E-02 0. -1.
        2   -1    0    0  501    0  0.00000000000E+00  0.00000000000E+00 -0.19849286306E+04  0.19849286306E+04  0.25500000920E-02 0.  1.
    10030    2    1    2    0    0  0.00000000000E+00  0.00000000000E+00 -0.15760087260E+04  0.23938485352E+04  0.18018621771E+04 0.  0.
        2    1    3    3  502    0  0.22058374997E+03  0.85935406630E+03 -0.99608221627E+03  0.13339139341E+04  0.25500000920E-02 0.  1.
       -2    1    3    3    0  502 -0.22058374997E+03 -0.85935406630E+03 -0.57992650968E+03  0.10599346011E+04  0.25500000920E-02 0. -1.
</event>
<event>
 5   0  0.9184414E-05  0.1810008E+04  0.7818609E-02  0.8700996E-01
       -2   -1    0    0    0  501  0.00000000000E+00  0.00000000000E+00  0.36248542702E+03  0.36248542703E+03  0.25500000920E-02 0. -1.
        2   -1    0    0  501    0  0.00000000000E+00  0.00000000000E+00 -0.22594890723E+04  0.22594890723E+04  0.25500000920E-02 0.  1.
    10030    2    1    2    0    0  0.00000000000E+00  0.00000000000E+00 -0.18970036452E+04  0.26219744993E+04  0.18100075814E+04 0.  0.
        5    1    3    3  502    0 -0.24757990543E+03  0.71598469585E+03 -0.23136520855E+03  0.79213751583E+03  0.46999998093E+01 0. -1.
       -5    1    3    3    0  502  0.24757990543E+03 -0.71598469585E+03 -0.16656384367E+04  0.18298369835E+04  0.46999998093E+01 0.  1.
</event>
<event>
 5   0  0.4494757E-05  0.1799039E+04  0.7818609E-02  0.8706811E-01
       -1   -1    0    0    0  501  0.00000000000E+00  0.00000000000E+00  0.58541564585E+03  0.58541564587E+03  0.50400001928E-02 0. -1.
        1   -1    0    0  501    0  0.00000000000E+00  0.00000000000E+00 -0.13821550153E+04  0.13821550153E+04  0.50400001928E-02 0.  1.
    10030    2    1    2    0    0  0.00000000000E+00  0.00000000000E+00 -0.79673936941E+03  0.19675706611E+04  0.17990388222E+04 0.  0.
        4    1    3    3  502    0 -0.81384425592E+03  0.37124082468E+03 -0.29477956231E+03  0.94183800415E+03  0.12699999809E+01 0. -1.
       -4    1    3    3    0  502  0.81384425592E+03 -0.37124082468E+03 -0.50195980710E+03  0.10257326570E+04  0.12699999809E+01 0.  1.
</event>
<event>
 5   0  0.4578107E-05  0.1806306E+04  0.7818609E-02  0.8702953E-01
       -1   -1    0    0    0  501  0.00000000000E+00  0.00000000000E+00  0.75089289757E+03  0.75089289759E+03  0.50400001928E-02 0. -1.
        1   -1    0    0  501    0  0.00000000000E+00  0.00000000000E+00 -0.10862874081E+04  0.10862874081E+04  0.50400001928E-02 0.  1.
    10030    2    1    2    0    0  0.00000000000E+00  0.00000000000E+00 -0.33539451055E+03  0.18371803057E+04  0.18063061751E+04 0.  0.
        2    1    3    3  502    0 -0.30887154664E+03 -0.46003318644E+03  0.55769240786E+03  0.78616346058E+03  0.25500000920E-02 0. -1.
       -2    1    3    3    0  502  0.30887154664E+03  0.46003318644E+03 -0.89308691841E+03  0.10510168452E+04  0.25500000920E-02 0.  1.
</event>
<event>
 5   0  0.8892280E-05  0.1787123E+04  0.7818609E-02  0.8713178E-01
       -2   -1    0    0    0  501  0.00000000000E+00  0.00000000000E+00  0.41334145637E+03  0.41334145638E+03  0.25500000920E-02 0. -1.
        2   -1    0    0  501    0  0.00000000000E+00  0.00000000000E+00 -0.19317007173E+04  0.19317007173E+04  0.25500000920E-02 0.  1.
    10030    2    1    2    0    0  0.00000000000E+00  0.00000000000E+00 -0.15183592609E+04  0.23450421736E+04  0.17871228136E+04 0.  0.
        4    1    3    3  502    0  0.41876671233E+02  0.92197727360E+02 -0.19241461767E+04  0.19268093312E+04  0.12699999809E+01 0.  1.
       -4    1    3    3    0  502 -0.41876671233E+02 -0.92197727360E+02  0.40578691583E+03  0.41823284243E+03  0.12699999809E+01 0. -1.
</event>
<event>
 5   0  0.4623665E-05  0.1813619E+04  0.7818609E-02  0.8699091E-01
       -1   -1    0    0    0  501  0.00000000000E+00  0.00000000000E+00  0.42444209270E+03  0.42444209273E+03  0.50400001928E-02 0. -1.
        1   -1    0    0  501    0  0.00000000000E+00  0.00000000000E+00 -0.19373743736E+04  0.19373743736E+04  0.50400001928E-02 0.  1.
    10030    2    1    2    0    0  0.00000000000E+00  0.00000000000E+00 -0.15129322809E+04  0.23618164663E+04  0.18136187400E+04 0.  0.
        5    1    3    3  502    0 -0.74886856132E+03 -0.50988175937E+03 -0.70606969248E+03  0.11486252789E+04  0.46999998093E+01 0.  1.
       -5    1    3    3    0  502  0.74886856132E+03  0.50988175937E+03 -0.80686258840E+03  0.12131911874E+04  0.46999998093E+01 0. -1.
</event>
<event>
 5   0  0.8892280E-05  0.1792182E+04  0.7818609E-02  0.8710468E-01
        2   -1    0    0  501    0  0.00000000000E+00  0.00000000000E+00  0.91531893995E+03  0.91531893995E+03  0.25500000920E-02 0. -1.
       -2   -1    0    0    0  501  0.00000000000E+00  0.00000000000E+00 -0.87726653240E+03  0.87726653240E+03  0.25500000920E-02 0.  1.
    10030    2    1    2    0    0  0.00000000000E+00  0.00000000000E+00  0.38052407548E+02  0.17925854724E+04  0.17921815449E+04 0.  0.
        4    1    3    3  502    0 -0.10596438940E+03 -0.24803648809E+03 -0.83569931174E+03  0.87814890752E+03  0.12699999809E+01 0.  1.
       -4    1    3    3    0  502  0.10596438940E+03  0.24803648809E+03  0.87375171929E+03  0.91443656483E+03  0.12699999809E+01 0. -1.
</event>
<event>
 5   0  0.8892280E-05  0.1675340E+04  0.7818609E-02  0.8775555E-01
       -2   -1    0    0    0  501  0.00000000000E+00  0.00000000000E+00  0.65624956043E+03  0.65624956043E+03  0.25500000920E-02 0.  1.
        2   -1    0    0  501    0  0.00000000000E+00  0.00000000000E+00 -0.10692447730E+04  0.10692447730E+04  0.25500000920E-02 0. -1.
    10030    2    1    2    0    0  0.00000000000E+00  0.00000000000E+00 -0.41299521261E+03  0.17254943335E+04  0.16753404577E+04 0.  0.
        4    1    3    3  502    0  0.64892472067E+03 -0.38342572172E+03  0.16991738454E+03  0.77265264358E+03  0.12699999809E+01 0.  1.
       -4    1    3    3    0  502 -0.64892472067E+03  0.38342572172E+03 -0.58291259714E+03  0.95284168988E+03  0.12699999809E+01 0. -1.
</event>
<event>
 5   0  0.9147432E-05  0.1790047E+04  0.7818609E-02  0.8711610E-01
       -2   -1    0    0    0  501  0.00000000000E+00  0.00000000000E+00  0.75147962875E+03  0.75147962876E+03  0.25500000920E-02 0. -1.
        2   -1    0    0  501    0  0.00000000000E+00  0.00000000000E+00 -0.10659864308E+04  0.10659864308E+04  0.25500000920E-02 0.  1.
    10030    2    1    2    0    0  0.00000000000E+00  0.00000000000E+00 -0.31450680206E+03  0.18174660596E+04  0.17900470243E+04 0.  0.
        3    1    3    3  502    0  0.63132459122E+03 -0.77818909992E+02 -0.79653309095E+03  0.10193583754E+04  0.10100000352E+00 0.  1.
       -3    1    3    3    0  502 -0.63132459122E+03  0.77818909992E+02  0.48202628889E+03  0.79810768422E+03  0.10100000352E+00 0. -1.
</event>
<event>
 5   0  0.4578107E-05  0.1876147E+04  0.7818609E-02  0.8666821E-01
        1   -1    0    0  501    0  0.00000000000E+00  0.00000000000E+00  0.12985082875E+04  0.12985082875E+04  0.50400001928E-02 0.  1.
       -1   -1    0    0    0  501  0.00000000000E+00  0.00000000000E+00 -0.67768672854E+03  0.67768672856E+03  0.50400001928E-02 0. -1.
    10030    2    1    2    0    0  0.00000000000E+00  0.00000000000E+00  0.62082155896E+03  0.19761950161E+04  0.18761469381E+04 0.  0.
        2    1    3    3  502    0  0.34598874311E+03  0.20560407726E+03 -0.58212441497E+03  0.70770762427E+03  0.25500000920E-02 0. -1.
       -2    1    3    3    0  502 -0.34598874311E+03 -0.20560407726E+03  0.12029459739E+04  0.12684873918E+04  0.25500000920E-02 0.  1.
</event>
<event>
 5   0  0.4535100E-05  0.1789601E+04  0.7818609E-02  0.8711849E-01
       -1   -1    0    0    0  501  0.00000000000E+00  0.00000000000E+00  0.71617343300E+03  0.71617343302E+03  0.50400001928E-02 0. -1.
        1   -1    0    0  501    0  0.00000000000E+00  0.00000000000E+00 -0.11179808152E+04  0.11179808152E+04  0.50400001928E-02 0.  1.
    10030    2    1    2    0    0  0.00000000000E+00  0.00000000000E+00 -0.40180738219E+03  0.18341542482E+04  0.17896012500E+04 0.  0.
        1    1    3    3  502    0  0.79568493079E+03 -0.25741930925E+03  0.12527877595E+03  0.84562047137E+03  0.50400001928E-02 0. -1.
       -1    1    3    3    0  502 -0.79568493079E+03  0.25741930925E+03 -0.52708615813E+03  0.98853377686E+03  0.50400001928E-02 0.  1.
</event>
<event>
 5   0  0.4623665E-05  0.1810604E+04  0.7818609E-02  0.8700681E-01
       -1   -1    0    0    0  501  0.00000000000E+00  0.00000000000E+00  0.71440914528E+03  0.71440914529E+03  0.50400001928E-02 0.  1.
        1   -1    0    0  501    0  0.00000000000E+00  0.00000000000E+00 -0.11472015529E+04  0.11472015529E+04  0.50400001928E-02 0. -1.
    10030    2    1    2    0    0  0.00000000000E+00  0.00000000000E+00 -0.43279240759E+03  0.18616106982E+04  0.18106035246E+04 0.  0.
        5    1    3    3  502    0  0.19581367879E+03  0.47523774137E+03  0.54981934080E+03  0.75267343858E+03  0.46999998093E+01 0.  1.
       -5    1    3    3    0  502 -0.19581367879E+03 -0.47523774137E+03 -0.98261174839E+03  0.11089372596E+04  0.46999998093E+01 0. -1.
</event>
<event>
 5   0  0.8893075E-05  0.1802043E+04  0.7818609E-02  0.8705214E-01
       -2   -1    0    0    0  501  0.00000000000E+00  0.00000000000E+00  0.49778345033E+03  0.49778345033E+03  0.25500000920E-02 0. -1.
        2   -1    0    0  501    0  0.00000000000E+00  0.00000000000E+00 -0.16309095344E+04  0.16309095344E+04  0.25500000920E-02 0.  1.
    10030    2    1    2    0    0  0.00000000000E+00  0.00000000000E+00 -0.11331260841E+04  0.21286929848E+04  0.18020430353E+04 0.  0.
        1    1    3    3  502    0  0.77484532772E+02  0.13406043886E+03  0.48194899856E+03  0.50621229867E+03  0.50400001928E-02 0. -1.
       -1    1    3    3    0  502 -0.77484532772E+02 -0.13406043886E+03 -0.16150750827E+04  0.16224806861E+04  0.50400001928E-02 0.  1.
</event>
<event>
 5   0  0.9184414E-05  0.1813633E+04  0.7818609E-02  0.8699083E-01
       -2   -1    0    0    0  501  0.00000000000E+00  0.00000000000E+00  0.49862630584E+03  0.49862630584E+03  0.25500000920E-02 0.  1.
        2   -1    0    0  501    0  0.00000000000E+00  0.00000000000E+00 -0.16491640874E+04  0.16491640874E+04  0.25500000920E-02 0. -1.
    10030    2    1    2    0    0  0.00000000000E+00  0.00000000000E+00 -0.11505377816E+04  0.21477903932E+04  0.18136334763E+04 0.  0.
        5    1    3    3  502    0 -0.60334116966E+03  0.79762687968E+02  0.22083406862E+03  0.64743527032E+03  0.46999998093E+01 0.  1.
       -5    1    3    3    0  502  0.60334116966E+03 -0.79762687968E+02 -0.13713718502E+04  0.15003551229E+04  0.46999998093E+01 0. -1.
</event>
<event>
 5   0  0.8892280E-05  0.1758340E+04  0.7818609E-02  0.8728773E-01
       -2   -1    0    0    0  501  0.00000000000E+00  0.00000000000E+00  0.62735999370E+03  0.62735999370E+03  0.25500000920E-02 0. -1.
        2   -1    0    0  501    0  0.00000000000E+00  0.00000000000E+00 -0.12320521577E+04  0.12320521577E+04  0.25500000920E-02 0.  1.
    10030    2    1    2    0    0  0.00000000000E+00  0.00000000000E+00 -0.60469216404E+03  0.18594121514E+04  0.17583403924E+04 0.  0.
        4    1    3    3  502    0 -0.72576844211E+03 -0.11263528333E+03 -0.81335371864E+03  0.10958888735E+04  0.12699999809E+01 0.  1.
       -4    1    3    3    0  502  0.72576844211E+03  0.11263528333E+03  0.20866155461E+03  0.76352327790E+03  0.12699999809E+01 0. -1.
</event>
<event>
 5   0  0.4623665E-05  0.1806651E+04  0.7818609E-02  0.8702770E-01
        1   -1    0    0  501    0  0.00000000000E+00  0.00000000000E+00  0.13111233838E+04  0.13111233838E+04  0.50400001928E-02 0.  1.
       -1   -1    0    0    0  501  0.00000000000E+00  0.00000000000E+00 -0.62236495158E+03  0.62236495160E+03  0.50400001928E-02 0. -1.
    10030    2    1    2    0    0  0.00000000000E+00  0.00000000000E+00  0.68875843220E+03  0.19334883354E+04  0.18066513126E+04 0.  0.
        5    1    3    3  502    0 -0.38191484112E+02  0.81591942954E+03  0.75719574113E+03  0.11138000652E+04  0.46999998093E+01 0.  1.
       -5    1    3    3    0  502  0.38191484112E+02 -0.81591942954E+03 -0.68437308931E+02  0.81968827014E+03  0.46999998093E+01 0. -1.
</event>
<event>
 5   0  0.4535100E-05  0.1812301E+04  0.7818609E-02  0.8699785E-01
       -1   -1    0    0    0  501  0.00000000000E+00  0.00000000000E+00  0.91956140833E+03  0.91956140834E+03  0.50400001928E-02 0. -1.
        1   -1    0    0  501    0  0.00000000000E+00  0.00000000000E+00 -0.89293515749E+03  0.89293515751E+03  0.50400001928E-02 0.  1.
    10030    2    1    2    0    0  0.00000000000E+00  0.00000000000E+00  0.26626250831E+02  0.18124965658E+04  0.18123009805E+04 0.  0.
        1    1    3    3  502    0  0.43913604520E+03 -0.61149571880E+02  0.80366986860E+03  0.91785891838E+03  0.50400001928E-02 0. -1.
       -1    1    3    3    0  502 -0.43913604520E+03  0.61149571880E+02 -0.77704361776E+03  0.89463764747E+03  0.50400001928E-02 0.  1.
</event>
<event>
 5   0  0.4578107E-05  0.1806395E+04  0.7818609E-02  0.8702906E-01
       -1   -1    0    0    0  501  0.00000000000E+00  0.00000000000E+00  0.60370549779E+03  0.60370549781E+03  0.50400001928E-02 0.  1.
        1   -1    0    0  501    0  0.00000000000E+00  0.00000000000E+00 -0.13512641356E+04  0.13512641357E+04  0.50400001928E-02 0. -1.
    10030    2    1    2    0    0  0.00000000000E+00  0.00000000000E+00 -0.74755863786E+03  0.19549696335E+04  0.18063948491E+04 0.  0.
        2    1    3    3  502    0 -0.78184286536E+03  0.40581406760E+03 -0.58969352527E+03  0.10600480071E+04  0.25500000920E-02 0. -1.
       -2    1    3    3    0  502  0.78184286536E+03 -0.40581406760E+03 -0.15786511259E+03  0.89492162638E+03  0.25500000920E-02 0.  1.
</event>
<event>
 5   0  0.4578107E-05  0.1801883E+04  0.7818609E-02  0.8705299E-01
       -1   -1    0    0    0  501  0.00000000000E+00  0.00000000000E+00  0.46109273364E+03  0.46109273367E+03  0.50400001928E-02 0.  1.
        1   -1    0    0  501    0  0.00000000000E+00  0.00000000000E+00 -0.17603731318E+04  0.17603731318E+04  0.50400001928E-02 0. -1.
    10030    2    1    2    0    0  0.00000000000E+00  0.00000000000E+00 -0.12992803982E+04  0.22214658655E+04  0.18018826373E+04 0.  0.
        2    1    3    3  502    0 -0.60888441859E+03 -0.32034577339E+03  0.67469695914E+02  0.69131310533E+03  0.25500000920E-02 0.  1.
       -2    1    3    3    0  502  0.60888441859E+03  0.32034577339E+03 -0.13667500941E+04  0.15301527601E+04  0.25500000920E-02 0. -1.
</event>
<event>
 5   0  0.4623665E-05  0.1796796E+04  0.7818609E-02  0.8708005E-01
       -1   -1    0    0    0  501  0.00000000000E+00  0.00000000000E+00  0.36425357300E+03  0.36425357303E+03  0.50400001928E-02 0.  1.
        1   -1    0    0  501    0  0.00000000000E+00  0.00000000000E+00 -0.22158169638E+04  0.22158169638E+04  0.50400001928E-02 0. -1.
    10030    2    1    2    0    0  0.00000000000E+00  0.00000000000E+00 -0.18515633908E+04  0.25800705369E+04  0.17967963115E+04 0.  0.
        5    1    3    3  502    0  0.66425846124E+03 -0.48286862586E+03 -0.40270999116E+03  0.91465777215E+03  0.46999998093E+01 0.  1.
       -5    1    3    3    0  502 -0.66425846124E+03  0.48286862586E+03 -0.14488533997E+04  0.16654127647E+04  0.46999998093E+01 0. -1.
</event>
<event>
 5   0  0.8893075E-05  0.1807128E+04  0.7818609E-02  0.8702518E-01
       -2   -1    0    0    0  501  0.00000000000E+00  0.00000000000E+00  0.37904391659E+03  0.37904391660E+03  0.25500000920E-02 0. -1.
        2   -1    0    0  501    0  0.00000000000E+00  0.00000000000E+00 -0.21539138120E+04  0.21539138120E+04  0.25500000920E-02 0.  1.
    10030    2    1    2    0    0  0.00000000000E+00  0.00000000000E+00 -0.17748698954E+04  0.25329577286E+04  0.18071280279E+04 0.  0.
        1    1    3    3  502    0 -0.56045986715E+03  0.66877787101E+03 -0.55857344068E+03  0.10360421768E+04  0.50400001928E-02 0. -1.
       -1    1    3    3    0  502  0.56045986715E+03 -0.66877787101E+03 -0.12162964547E+04  0.14969155518E+04  0.50400001928E-02 0.  1.
</event>
<event>
 5   0  0.4578107E-05  0.1799468E+04  0.7818609E-02  0.8706582E-01
       -1   -1    0    0    0  501  0.00000000000E+00  0.00000000000E+00  0.35528594004E+03  0.35528594008E+03  0.50400001928E-02 0. -1.
        1   -1    0    0  501    0  0.00000000000E+00  0.00000000000E+00 -0.22785064354E+04  0.22785064354E+04  0.50400001928E-02 0.  1.
    10030    2    1    2    0    0  0.00000000000E+00  0.00000000000E+00 -0.19232204954E+04  0.26337923755E+04  0.17994680334E+04 0.  0.
        2    1    3    3  502    0 -0.89905496064E+03 -0.31217304387E+02 -0.93860910650E+03  0.13001005335E+04  0.25500000920E-02 0. -1.
       -2    1    3    3    0  502  0.89905496064E+03  0.31217304387E+02 -0.98461138886E+03  0.13336918420E+04  0.25500000920E-02 0.  1.
</event>
<event>
 5   0  0.4535100E-05  0.1811766E+04  0.7818609E-02  0.8700067E-01
        1   -1    0    0  501    0  0.00000000000E+00  0.00000000000E+00  0.90957966808E+03  0.90957966809E+03  0.50400001928E-02 0. -1.
       -1   -1    0    0    0  501  0.00000000000E+00  0.00000000000E+00 -0.90220116485E+03  0.90220116486E+03  0.50400001928E-02 0.  1.
    10030    2    1    2    0    0  0.00000000000E+00  0.00000000000E+00  0.73785032284E+01  0.18117808330E+04  0.18117658084E+04 0.  0.
        1    1    3    3  502    0 -0.59828301034E+03 -0.38876150271E+03 -0.55447822934E+03  0.90361727147E+03  0.50400001928E-02 0.  1.
       -1    1    3    3    0  502  0.59828301034E+03  0.38876150271E+03  0.56185673257E+03  0.90816356149E+03  0.50400001928E-02 0. -1.
</event>
<event>
 5   0  0.8892280E-05  0.1810154E+04  0.7818609E-02  0.8700918E-01
        2   -1    0    0  501    0  0.00000000000E+00  0.00000000000E+00  0.83822594282E+03  0.83822594283E+03  0.25500000920E-02 0. -1.
       -2   -1    0    0    0  501  0.00000000000E+00  0.00000000000E+00 -0.97725993044E+03  0.97725993044E+03  0.25500000920E-02 0.  1.
    10030    2    1    2    0    0  0.00000000000E+00  0.00000000000E+00 -0.13903398762E+03  0.18154858733E+04  0.18101542769E+04 0.  0.
        4    1    3    3  502    0  0.42591554347E+03 -0.20071528462E+03 -0.84475701480E+03  0.96711255943E+03  0.12699999809E+01 0.  1.
       -4    1    3    3    0  502 -0.42591554347E+03  0.20071528462E+03  0.70572302718E+03  0.84837331384E+03  0.12699999809E+01 0. -1.
</event>
<event>
 5   0  0.4623665E-05  0.1796979E+04  0.7818609E-02  0.8707908E-01
       -1   -1    0    0    0  501  0.00000000000E+00  0.00000000000E+00  0.99059546483E+03  0.99059546484E+03  0.50400001928E-02 0.  1.
        1   -1    0    0  501    0  0.00000000000E+00  0.00000000000E+00 -0.81494776602E+03  0.81494776604E+03  0.50400001928E-02 0. -1.
    10030    2    1    2    0    0  0.00000000000E+00  0.00000000000E+00  0.17564769881E+03  0.18055432309E+04  0.17969791998E+04 0.  0.
        5    1    3    3  502    0 -0.33166018549E+02  0.80220047990E+03  0.49302719117E+03  0.94219079595E+03  0.46999998093E+01 0.  1.
       -5    1    3    3    0  502  0.33166018549E+02 -0.80220047990E+03 -0.31737949236E+03  0.86335243494E+03  0.46999998093E+01 0. -1.
</event>
<event>
 5   0  0.4623665E-05  0.1806430E+04  0.7818609E-02  0.8702887E-01
       -1   -1    0    0    0  501  0.00000000000E+00  0.00000000000E+00  0.10785178957E+04  0.10785178958E+04  0.50400001928E-02 0. -1.
        1   -1    0    0  501    0  0.00000000000E+00  0.00000000000E+00 -0.75640609763E+03  0.75640609765E+03  0.50400001928E-02 0.  1.
    10030    2    1    2    0    0  0.00000000000E+00  0.00000000000E+00  0.32211179811E+03  0.18349239934E+04  0.18064301955E+04 0.  0.
        5    1    3    3  502    0 -0.40300973064E+02 -0.73876666922E+03 -0.36516485786E+03  0.82508655509E+03  0.46999998093E+01 0.  1.
       -5    1    3    3    0  502  0.40300973064E+02  0.73876666922E+03  0.68727665597E+03  0.10098374383E+04  0.46999998093E+01 0. -1.
</event>
<event>
 5   0  0.4578107E-05  0.1792307E+04  0.7818609E-02  0.8710401E-01
        1   -1    0    0  501    0  0.00000000000E+00  0.00000000000E+00  0.23858751298E+04  0.23858751298E+04  0.50400001928E-02 0. -1.
       -1   -1    0    0    0  501  0.00000000000E+00  0.00000000000E+00 -0.33660229344E+03  0.33660229348E+03  0.50400001928E-02 0.  1.
    10030    2    1    2    0    0  0.00000000000E+00  0.00000000000E+00  0.20492728363E+04  0.27224774233E+04  0.17923069387E+04 0.  0.
        2    1    3    3  502    0  0.41423916068E+03  0.12922719504E+03  0.22156531791E+04  0.22577450609E+04  0.25500000920E-02 0. -1.
       -2    1    3    3    0  502 -0.41423916068E+03 -0.12922719504E+03 -0.16638034272E+03  0.46473236236E+03  0.25500000920E-02 0.  1.
</event>
<event>
 5   0  0.8893075E-05  0.1795611E+04  0.7818609E-02  0.8708637E-01
        2   -1    0    0  501    0  0.00000000000E+00  0.00000000000E+00  0.20505658785E+04  0.20505658785E+04  0.25500000920E-02 0. -1.
       -2   -1    0    0    0  501  0.00000000000E+00  0.00000000000E+00 -0.39308874947E+03  0.39308874948E+03  0.25500000920E-02 0.  1.
    10030    2    1    2    0    0  0.00000000000E+00  0.00000000000E+00  0.16574771290E+04  0.24436546280E+04  0.17956106225E+04 0.  0.
        1    1    3    3  502    0 -0.41285336260E+03  0.43130966112E+03 -0.83756247820E+02  0.60290217437E+03  0.50400001928E-02 0.  1.
       -1    1    3    3    0  502  0.41285336260E+03 -0.43130966112E+03  0.17412333769E+04  0.18407524536E+04  0.50400001928E-02 0. -1.
</event>
<event>
 5   0  0.4494757E-05  0.1803899E+04  0.7818609E-02  0.8704229E-01
        1   -1    0    0  501    0  0.00000000000E+00  0.00000000000E+00  0.94568433039E+03  0.94568433041E+03  0.50400001928E-02 0.  1.
       -1   -1    0    0    0  501  0.00000000000E+00  0.00000000000E+00 -0.86023695333E+03  0.86023695335E+03  0.50400001928E-02 0. -1.
    10030    2    1    2    0    0  0.00000000000E+00  0.00000000000E+00  0.85447377061E+02  0.18059212838E+04  0.18038986748E+04 0.  0.
        4    1    3    3  502    0  0.69494758589E+03 -0.36207978412E+03  0.48983061939E+03  0.92411555868E+03  0.12699999809E+01 0.  1.
       -4    1    3    3    0  502 -0.69494758589E+03  0.36207978412E+03 -0.40438324233E+03  0.88180572508E+03  0.12699999809E+01 0. -1.
</event>
<event>
 5   0  0.8893075E-05  0.1797743E+04  0.7818609E-02  0.8707501E-01
        2   -1    0    0  501    0  0.00000000000E+00  0.00000000000E+00  0.11760801164E+04  0.11760801164E+04  0.25500000920E-02 0.  1.
       -2   -1    0    0    0  501  0.00000000000E+00  0.00000000000E+00 -0.68700237237E+03  0.68700237238E+03  0.25500000920E-02 0. -1.
    10030    2    1    2    0    0  0.00000000000E+00  0.00000000000E+00  0.48907774401E+03  0.18630824888E+04  0.17977428404E+04 0.  0.
        1    1    3    3  502    0 -0.53820565896E+03  0.31318521091E+03  0.91634293869E+03  0.11078965155E+04  0.50400001928E-02 0.  1.
       -1    1    3    3    0  502  0.53820565896E+03 -0.31318521091E+03 -0.42726519468E+03  0.75518597330E+03  0.50400001928E-02 0. -1.
</event>
<event>
 5   0  0.9147432E-05  0.1795595E+04  0.7818609E-02  0.8708645E-01
       -2   -1    0    0    0  501  0.00000000000E+00  0.00000000000E+00  0.45397747385E+03  0.45397747385E+03  0.25500000920E-02 0. -1.
        2   -1    0    0  501    0  0.00000000000E+00  0.00000000000E+00 -0.17755076569E+04  0.17755076569E+04  0.25500000920E-02 0.  1.
    10030    2    1    2    0    0  0.00000000000E+00  0.00000000000E+00 -0.13215301830E+04  0.22294851308E+04  0.17955951447E+04 0.  0.
        3    1    3    3  502    0  0.16820575606E+03  0.69548018301E+03 -0.13340674776E+04  0.15138434220E+04  0.10100000352E+00 0.  1.
       -3    1    3    3    0  502 -0.16820575606E+03 -0.69548018301E+03  0.12537294569E+02  0.71564170874E+03  0.10100000352E+00 0. -1.
</event>
<event>
 5   0  0.9147432E-05  0.1798513E+04  0.7818609E-02  0.8707091E-01
        2   -1    0    0  501    0  0.00000000000E+00  0.00000000000E+00  0.16746453396E+04  0.16746453396E+04  0.25500000920E-02 0.  1.
       -2   -1    0    0    0  501  0.00000000000E+00  0.00000000000E+00 -0.48288546170E+03  0.48288546171E+03  0.25500000920E-02 0. -1.
    10030    2    1    2    0    0  0.00000000000E+00  0.00000000000E+00  0.11917598779E+04  0.21575308013E+04  0.17985125944E+04 0.  0.
        3    1    3    3  502    0  0.19013298441E+03 -0.76113687106E+03  0.11231423830E+04  0.13700104784E+04  0.10100000352E+00 0.  1.
       -3    1    3    3    0  502 -0.19013298441E+03  0.76113687106E+03  0.68617494969E+02  0.78752032296E+03  0.10100000352E+00 0. -1.
</event>
<event>
 5   0  0.4535100E-05  0.1797121E+04  0.7818609E-02  0.8707832E-01
        1   -1    0    0  501    0  0.00000000000E+00  0.00000000000E+00  0.82237472413E+03  0.82237472415E+03  0.50400001928E-02 0.  1.
       -1   -1    0    0    0  501  0.00000000000E+00  0.00000000000E+00 -0.98180429385E+03  0.98180429386E+03  0.50400001928E-02 0. -1.
    10030    2    1    2    0    0  0.00000000000E+00  0.00000000000E+00 -0.15942956971E+03  0.18041790180E+04  0.17971210703E+04 0.  0.
        1    1    3    3  502    0  0.30164554007E+03  0.40904760680E+03 -0.82363854922E+03  0.96782768934E+03  0.50400001928E-02 0. -1.
       -1    1    3    3    0  502 -0.30164554007E+03 -0.40904760680E+03  0.66420897951E+03  0.83635132866E+03  0.50400001928E-02 0.  1.
</event>
<event>
 5   0  0.4623665E-05  0.1798824E+04  0.7818609E-02  0.8706925E-01
       -1   -1    0    0    0  501  0.00000000000E+00  0.00000000000E+00  0.82789115831E+03  0.82789115832E+03  0.50400001928E-02 0. -1.
        1   -1    0    0  501    0  0.00000000000E+00  0.00000000000E+00 -0.97711121413E+03  0.97711121414E+03  0.50400001928E-02 0.  1.
    10030    2    1    2    0    0  0.00000000000E+00  0.00000000000E+00 -0.14922005582E+03  0.18050023725E+04  0.17988237656E+04 0.  0.
        5    1    3    3  502    0  0.66426637182E+03  0.20707166857E+03  0.49725199736E+03  0.85522519112E+03  0.46999998093E+01 0. -1.
       -5    1    3    3    0  502 -0.66426637182E+03 -0.20707166857E+03 -0.64647205319E+03  0.94977718134E+03  0.46999998093E+01 0.  1.
</event>
<event>
 5   0  0.9147432E-05  0.1803274E+04  0.7818609E-02  0.8704560E-01
        2   -1    0    0  501    0  0.00000000000E+00  0.00000000000E+00  0.94829602095E+03  0.94829602096E+03  0.25500000920E-02 0.  1.
       -2   -1    0    0    0  501  0.00000000000E+00  0.00000000000E+00 -0.85727354578E+03  0.85727354578E+03  0.25500000920E-02 0. -1.
    10030    2    1    2    0    0  0.00000000000E+00  0.00000000000E+00  0.91022475179E+02  0.18055695667E+04  0.18032737921E+04 0.  0.
        3    1    3    3  502    0 -0.13425476300E+03 -0.71980742480E+02  0.93531776817E+03  0.94764176054E+03  0.10100000352E+00 0.  1.
       -3    1    3    3    0  502  0.13425476300E+03  0.71980742480E+02 -0.84429529299E+03  0.85792780619E+03  0.10100000352E+00 0. -1.
</event>
<event>
 5   0  0.4623665E-05  0.1806699E+04  0.7818609E-02  0.8702745E-01
       -1   -1    0    0    0  501  0.00000000000E+00  0.00000000000E+00  0.69524059466E+03  0.69524059468E+03  0.50400001928E-02 0.  1.
        1   -1    0    0  501    0  0.00000000000E+00  0.00000000000E+00 -0.11737528992E+04  0.11737528993E+04  0.50400001928E-02 0. -1.
    10030    2    1    2    0    0  0.00000000000E+00  0.00000000000E+00 -0.47851230458E+03  0.18689934939E+04  0.18066993814E+04 0.  0.
        5    1    3    3  502    0 -0.14352575025E+03  0.45403611280E+03  0.55485100701E+03  0.73118408263E+03  0.46999998093E+01 0.  1.
       -5    1    3    3    0  502  0.14352575025E+03 -0.45403611280E+03 -0.10333633116E+04  0.11378094113E+04  0.46999998093E+01 0. -1.
</event>
<event>
 5   0  0.8802655E-05  0.1803431E+04  0.7818609E-02  0.8704477E-01
        2   -1    0    0  501    0  0.00000000000E+00  0.00000000000E+00  0.11861950775E+04  0.11861950775E+04  0.25500000920E-02 0.  1.
       -2   -1    0    0    0  501  0.00000000000E+00  0.00000000000E+00 -0.68546140044E+03  0.68546140044E+03  0.25500000920E-02 0. -1.
    10030    2    1    2    0    0  0.00000000000E+00  0.00000000000E+00  0.50073367701E+03  0.18716564779E+04  0.18034311065E+04 0.  0.
        2    1    3    3  502    0  0.79388443083E+03 -0.39615508403E+03  0.83345059849E+02  0.89114406194E+03  0.25500000920E-02 0. -1.
       -2    1    3    3    0  502 -0.79388443083E+03  0.39615508403E+03  0.41738861716E+03  0.98051241596E+03  0.25500000920E-02 0.  1.
</event>
<event>
 5   0  0.4335117E-05  0.1809372E+04  0.7818609E-02  0.8701331E-01
       -1   -1    0    0    0  501  0.00000000000E+00  0.00000000000E+00  0.16634044294E+04  0.16634044294E+04  0.50400001928E-02 0. -1.
        1   -1    0    0  501    0  0.00000000000E+00  0.00000000000E+00 -0.49203711231E+03  0.49203711234E+03  0.50400001928E-02 0.  1.
    10030    2    1    2    0    0  0.00000000000E+00  0.00000000000E+00  0.11713673171E+04  0.21554415418E+04  0.18093719486E+04 0.  0.
        3    1    3    3  502    0 -0.25172863008E+03 -0.46516722952E+03  0.14600339312E+04  0.15528834293E+04  0.10100000352E+00 0. -1.
       -3    1    3    3    0  502  0.25172863008E+03  0.46516722952E+03 -0.28866661407E+03  0.60255811247E+03  0.10100000352E+00 0.  1.
</event>
<event>
 5   0  0.4535100E-05  0.1804534E+04  0.7818609E-02  0.8703892E-01
        1   -1    0    0  501    0  0.00000000000E+00  0.00000000000E+00  0.16957144873E+04  0.16957144873E+04  0.50400001928E-02 0.  1.
       -1   -1    0    0    0  501  0.00000000000E+00  0.00000000000E+00 -0.48008409680E+03  0.48008409683E+03  0.50400001928E-02 0. -1.
    10030    2    1    2    0    0  0.00000000000E+00  0.00000000000E+00  0.12156303905E+04  0.21757985842E+04  0.18045337992E+04 0.  0.
        1    1    3    3  502    0 -0.36754871003E+03  0.63265826385E+03  0.12443922773E+04  0.14435583372E+04  0.50400001928E-02 0.  1.
       -1    1    3    3    0  502  0.36754871003E+03 -0.63265826385E+03 -0.28761886814E+02  0.73224024693E+03  0.50400001928E-02 0. -1.
</event>
<event>
 5   0  0.4494757E-05  0.1803642E+04  0.7818609E-02  0.8704365E-01
        1   -1    0    0  501    0  0.00000000000E+00  0.00000000000E+00  0.15616385610E+04  0.15616385610E+04  0.50400001928E-02 0.  1.
       -1   -1    0    0    0  501  0.00000000000E+00  0.00000000000E+00 -0.52078699438E+03  0.52078699441E+03  0.50400001928E-02 0. -1.
    10030    2    1    2    0    0  0.00000000000E+00  0.00000000000E+00  0.10408515666E+04  0.20824255554E+04  0.18036419296E+04 0.  0.
        4    1    3    3  502    0  0.58844099160E+03  0.20566951447E+03 -0.23200893401E+03  0.66512593404E+03  0.12699999809E+01 0. -1.
       -4    1    3    3    0  502 -0.58844099160E+03 -0.20566951447E+03  0.12728605006E+04  0.14172996213E+04  0.12699999809E+01 0.  1.
</event>
<event>
 5   0  0.8892280E-05  0.1811142E+04  0.7818609E-02  0.8700397E-01
        2   -1    0    0  501    0  0.00000000000E+00  0.00000000000E+00  0.62135199193E+03  0.62135199193E+03  0.25500000920E-02 0.  1.
       -2   -1    0    0    0  501  0.00000000000E+00  0.00000000000E+00 -0.13197975196E+04  0.13197975196E+04  0.25500000920E-02 0. -1.
    10030    2    1    2    0    0  0.00000000000E+00  0.00000000000E+00 -0.69844552763E+03  0.19411495115E+04  0.18111419798E+04 0.  0.
        4    1    3    3  502    0 -0.42019822917E+03 -0.62926166273E+03  0.18400407467E+03  0.77871426363E+03  0.12699999809E+01 0.  1.
       -4    1    3    3    0  502  0.42019822917E+03  0.62926166273E+03 -0.88244960230E+03  0.11624352479E+04  0.12699999809E+01 0. -1.
</event>
<event>
 5   0  0.4335117E-05  0.1801221E+04  0.7818609E-02  0.8705650E-01
       -1   -1    0    0    0  501  0.00000000000E+00  0.00000000000E+00  0.66859166096E+03  0.66859166098E+03  0.50400001928E-02 0. -1.
        1   -1    0    0  501    0  0.00000000000E+00  0.00000000000E+00 -0.12131458254E+04  0.12131458254E+04  0.50400001928E-02 0.  1.
    10030    2    1    2    0    0  0.00000000000E+00  0.00000000000E+00 -0.54455416443E+03  0.18817374864E+04  0.18012208997E+04 0.  0.
        3    1    3    3  502    0  0.85812128786E+03  0.40089220931E+02 -0.55477145407E+03  0.10226195122E+04  0.10100000352E+00 0.  1.
       -3    1    3    3    0  502 -0.85812128786E+03 -0.40089220931E+02  0.10217289644E+02  0.85911797416E+03  0.10100000352E+00 0. -1.
</event>
<event>
 5   0  0.4623665E-05  0.1806043E+04  0.7818609E-02  0.8703092E-01
        1   -1    0    0  501    0  0.00000000000E+00  0.00000000000E+00  0.91478422891E+03  0.91478422893E+03  0.50400001928E-02 0. -1.
       -1   -1    0    0    0  501  0.00000000000E+00  0.00000000000E+00 -0.89141017787E+03  0.89141017789E+03  0.50400001928E-02 0.  1.
    10030    2    1    2    0    0  0.00000000000E+00  0.00000000000E+00  0.23374051043E+02  0.18061944068E+04  0.18060431581E+04 0.  0.
        5    1    3    3  502    0 -0.13622344407E+03 -0.68889816846E+03 -0.55606499071E+03  0.89574989652E+03  0.46999998093E+01 0.  1.
       -5    1    3    3    0  502  0.13622344407E+03  0.68889816846E+03  0.57943904175E+03  0.91044451029E+03  0.46999998093E+01 0. -1.
</event>
<event>
 5   0  0.4494757E-05  0.1797268E+04  0.7818609E-02  0.8707754E-01
       -1   -1    0    0    0  501  0.00000000000E+00  0.00000000000E+00  0.83302410167E+03  0.83302410169E+03  0.50400001928E-02 0. -1.
        1   -1    0    0  501    0  0.00000000000E+00  0.00000000000E+00 -0.96941095819E+03  0.96941095821E+03  0.50400001928E-02 0.  1.
    10030    2    1    2    0    0  0.00000000000E+00  0.00000000000E+00 -0.13638685652E+03  0.18024350599E+04  0.17972675846E+04 0.  0.
        4    1    3    3  502    0  0.71167182289E+03  0.32355142651E+03  0.37622714317E+03  0.86758906474E+03  0.12699999809E+01 0. -1.
       -4    1    3    3    0  502 -0.71167182289E+03 -0.32355142651E+03 -0.51261399968E+03  0.93484599516E+03  0.12699999809E+01 0.  1.
</event>
<event>
 5   0  0.8802655E-05  0.1794398E+04  0.7818609E-02  0.8709284E-01
        2   -1    0    0  501    0  0.00000000000E+00  0.00000000000E+00  0.51223571683E+03  0.51223571684E+03  0.25500000920E-02 0. -1.
       -2   -1    0    0    0  501  0.00000000000E+00  0.00000000000E+00 -0.15714751421E+04  0.15714751421E+04  0.25500000920E-02 0.  1.
    10030    2    1    2    0    0  0.00000000000E+00  0.00000000000E+00 -0.10592394253E+04  0.20837108589E+04  0.17943976102E+04 0.  0.
        2    1    3    3  502    0 -0.14586964406E+03 -0.47520525844E+03 -0.13969497423E+04  0.14827564106E+04  0.25500000920E-02 0.  1.
       -2    1    3    3    0  502  0.14586964406E+03  0.47520525844E+03  0.33771031703E+03  0.60095444831E+03  0.25500000920E-02 0. -1.
</event>
<event>
 5   0  0.8892280E-05  0.1800783E+04  0.7818609E-02  0.8705883E-01
        2   -1    0    0  501    0  0.00000000000E+00  0.00000000000E+00  0.11347019576E+04  0.11347019576E+04  0.25500000920E-02 0.  1.
       -2   -1    0    0    0  501  0.00000000000E+00  0.00000000000E+00 -0.71446535917E+03  0.71446535917E+03  0.25500000920E-02 0. -1.
    10030    2    1    2    0    0  0.00000000000E+00  0.00000000000E+00  0.42023659839E+03  0.18491673167E+04  0.18007834314E+04 0.  0.
        4    1    3    3  502    0 -0.14459591375E+03  0.56570626337E+03 -0.49369638054E+03  0.76463670049E+03  0.12699999809E+01 0. -1.
       -4    1    3    3    0  502  0.14459591375E+03 -0.56570626337E+03  0.91393297893E+03  0.10845306162E+04  0.12699999809E+01 0.  1.
</event>
<event>
 5   0  0.8892280E-05  0.1795577E+04  0.7818609E-02  0.8708655E-01
        2   -1    0    0  501    0  0.00000000000E+00  0.00000000000E+00  0.94405525619E+03  0.94405525620E+03  0.25500000920E-02 0.  1.
       -2   -1    0    0    0  501  0.00000000000E+00  0.00000000000E+00 -0.85378876727E+03  0.85378876727E+03  0.25500000920E-02 0. -1.
    10030    2    1    2    0    0  0.00000000000E+00  0.00000000000E+00  0.90266488926E+02  0.17978440235E+04  0.17955765352E+04 0.  0.
        4    1    3    3  502    0  0.18659988601E+03  0.83440565400E+03 -0.22901874606E+03  0.88515733733E+03  0.12699999809E+01 0.  1.
       -4    1    3    3    0  502 -0.18659988601E+03 -0.83440565400E+03  0.31928523498E+03  0.91268668614E+03  0.12699999809E+01 0. -1.
</event>
<event>
 5   0  0.4494757E-05  0.1798327E+04  0.7818609E-02  0.8707190E-01
       -1   -1    0    0    0  501  0.00000000000E+00  0.00000000000E+00  0.16392792490E+04  0.16392792490E+04  0.50400001928E-02 0. -1.
        1   -1    0    0  501    0  0.00000000000E+00  0.00000000000E+00 -0.49320139875E+03  0.49320139878E+03  0.50400001928E-02 0.  1.
    10030    2    1    2    0    0  0.00000000000E+00  0.00000000000E+00  0.11460778502E+04  0.21324806478E+04  0.17983267985E+04 0.  0.
        4    1    3    3  502    0  0.42354532890E+03 -0.34202665442E+03 -0.27556002448E+03  0.61017031881E+03  0.12699999809E+01 0.  1.
       -4    1    3    3    0  502 -0.42354532890E+03  0.34202665442E+03  0.14216378747E+04  0.15223103290E+04  0.12699999809E+01 0. -1.
</event>
<event>
 5   0  0.8802655E-05  0.1797373E+04  0.7818609E-02  0.8707698E-01
       -2   -1    0    0    0  501  0.00000000000E+00  0.00000000000E+00  0.58617969331E+03  0.58617969332E+03  0.25500000920E-02 0. -1.
        2   -1    0    0  501    0  0.00000000000E+00  0.00000000000E+00 -0.13777976611E+04  0.13777976611E+04  0.25500000920E-02 0.  1.
    10030    2    1    2    0    0  0.00000000000E+00  0.00000000000E+00 -0.79161796775E+03  0.19639773544E+04  0.17973725384E+04 0.  0.
        2    1    3    3  502    0  0.33526978392E+03 -0.83380438543E+03 -0.39450266469E+03  0.98146214070E+03  0.25500000920E-02 0.  1.
       -2    1    3    3    0  502 -0.33526978392E+03  0.83380438543E+03 -0.39711530306E+03  0.98251521368E+03  0.25500000920E-02 0. -1.
</event>
<event>
 5   0  0.8892280E-05  0.1766823E+04  0.7818609E-02  0.8724145E-01
        2   -1    0    0  501    0  0.00000000000E+00  0.00000000000E+00  0.12021770262E+04  0.12021770262E+04  0.25500000920E-02 0.  1.
       -2   -1    0    0    0  501  0.00000000000E+00  0.00000000000E+00 -0.64916858149E+03  0.64916858150E+03  0.25500000920E-02 0. -1.
    10030    2    1    2    0    0  0.00000000000E+00  0.00000000000E+00  0.55300844467E+03  0.18513456077E+04  0.17668226337E+04 0.  0.
        4    1    3    3  502    0 -0.19690939797E+03 -0.13186440422E+03  0.11682468352E+04  0.11920418672E+04  0.12699999809E+01 0.  1.
       -4    1    3    3    0  502  0.19690939797E+03  0.13186440422E+03 -0.61523839057E+03  0.65930374050E+03  0.12699999809E+01 0. -1.
</event>
<event>
 5   0  0.9184414E-05  0.1804070E+04  0.7818609E-02  0.8704138E-01
        2   -1    0    0  501    0  0.00000000000E+00  0.00000000000E+00  0.12241506185E+04  0.12241506185E+04  0.25500000920E-02 0. -1.
       -2   -1    0    0    0  501  0.00000000000E+00  0.00000000000E+00 -0.66467911503E+03  0.66467911503E+03  0.25500000920E-02 0.  1.
    10030    2    1    2    0    0  0.00000000000E+00  0.00000000000E+00  0.55947150343E+03  0.18888297335E+04  0.18040702312E+04 0.  0.
        5    1    3    3  502    0 -0.12795144534E+03 -0.59748450704E+03  0.97445092501E+03  0.11501895512E+04  0.46999998093E+01 0. -1.
       -5    1    3    3    0  502  0.12795144534E+03  0.59748450704E+03 -0.41497942158E+03  0.73864018226E+03  0.46999998093E+01 0.  1.
</event>
<event>
 5   0  0.3270375E-05  0.1809108E+04  0.7818609E-02  0.8701471E-01
        4   -1    0    0  501    0  0.00000000000E+00  0.00000000000E+00  0.13799775074E+04  0.13799780918E+04  0.12699999809E+01 0.  1.
       -4   -1    0    0    0  501  0.00000000000E+00  0.00000000000E+00 -0.59291951908E+03  0.59292087921E+03  0.12699999809E+01 0. -1.
    10030    2    1    2    0    0  0.00000000000E+00  0.00000000000E+00  0.78705798829E+03  0.19728989710E+04  0.18091075349E+04 0.  0.
        3    1    3    3  502    0  0.89408202201E+03  0.75974769727E+01  0.54296491486E+03  0.10460646695E+04  0.10100000352E+00 0. -1.
       -3    1    3    3    0  502 -0.89408202201E+03 -0.75974769727E+01  0.24409307343E+03  0.92683430150E+03  0.10100000352E+00 0.  1.
</event>
<event>
 5   0  0.9184414E-05  0.1812579E+04  0.7818609E-02  0.8699638E-01
        2   -1    0    0  501    0  0.00000000000E+00  0.00000000000E+00  0.21398247901E+04  0.21398247901E+04  0.25500000920E-02 0. -1.
       -2   -1    0    0    0  501  0.00000000000E+00  0.00000000000E+00 -0.38384496160E+03  0.38384496161E+03  0.25500000920E-02 0.  1.
    10030    2    1    2    0    0  0.00000000000E+00  0.00000000000E+00  0.17559798285E+04  0.25236697517E+04  0.18125793383E+04 0.  0.
        5    1    3    3  502    0 -0.83307172538E+03 -0.19688409018E+03  0.12923439159E+04  0.15501441003E+04  0.46999998093E+01 0. -1.
       -5    1    3    3    0  502  0.83307172538E+03  0.19688409018E+03  0.46363591259E+03  0.97352565145E+03  0.46999998093E+01 0.  1.
</event>
<event>
 5   0  0.4623665E-05  0.1785207E+04  0.7818609E-02  0.8714206E-01
        1   -1    0    0  501    0  0.00000000000E+00  0.00000000000E+00  0.14345068089E+04  0.14345068089E+04  0.50400001928E-02 0. -1.
       -1   -1    0    0    0  501  0.00000000000E+00  0.00000000000E+00 -0.55541122400E+03  0.55541122403E+03  0.50400001928E-02 0.  1.
    10030    2    1    2    0    0  0.00000000000E+00  0.00000000000E+00  0.87909558489E+03  0.19899180329E+04  0.17852071954E+04 0.  0.
        5    1    3    3  502    0 -0.34789953123E+03 -0.23436328565E+03 -0.43868170977E+03  0.60697937854E+03  0.46999998093E+01 0.  1.
       -5    1    3    3    0  502  0.34789953123E+03  0.23436328565E+03  0.13177772947E+04  0.13829386544E+04  0.46999998093E+01 0. -1.
</event>
<event>
 5   0  0.4578107E-05  0.1797618E+04  0.7818609E-02  0.8707567E-01
       -1   -1    0    0    0  501  0.00000000000E+00  0.00000000000E+00  0.74342514468E+03  0.74342514469E+03  0.50400001928E-02 0. -1.
        1   -1    0    0  501    0  0.00000000000E+00  0.00000000000E+00 -0.10866699093E+04  0.10866699094E+04  0.50400001928E-02 0.  1.
    10030    2    1    2    0    0  0.00000000000E+00  0.00000000000E+00 -0.34324476466E+03  0.18300950540E+04  0.17976181292E+04 0.  0.
        2    1    3    3  502    0 -0.23176203417E+03  0.21325279947E+02 -0.10554598138E+04  0.10808162779E+04  0.25500000920E-02 0.  1.
       -2    1    3    3    0  502  0.23176203417E+03 -0.21325279947E+02  0.71221504917E+03  0.74927877610E+03  0.25500000920E-02 0. -1.
</event>
<event>
 5   0  0.8893075E-05  0.1801704E+04  0.7818609E-02  0.8705394E-01
       -2   -1    0    0    0  501  0.00000000000E+00  0.00000000000E+00  0.14182075898E+04  0.14182075898E+04  0.25500000920E-02 0.  1.
        2   -1    0    0  501    0  0.00000000000E+00  0.00000000000E+00 -0.57222532009E+03  0.57222532010E+03  0.25500000920E-02 0. -1.
    10030    2    1    2    0    0  0.00000000000E+00  0.00000000000E+00  0.84598226973E+03  0.19904329099E+04  0.18017039624E+04 0.  0.
        1    1    3    3  502    0 -0.83954757960E+03 -0.78790563873E+02  0.77319208743E+03  0.11440603548E+04  0.50400001928E-02 0.  1.
       -1    1    3    3    0  502  0.83954757960E+03  0.78790563873E+02  0.72790182292E+02  0.84637255510E+03  0.50400001928E-02 0. -1.
</event>
<event>
 5   0  0.4494757E-05  0.1754119E+04  0.7818609E-02  0.8731086E-01
        1   -1    0    0  501    0  0.00000000000E+00  0.00000000000E+00  0.93035553155E+03  0.93035553156E+03  0.50400001928E-02 0. -1.
       -1   -1    0    0    0  501  0.00000000000E+00  0.00000000000E+00 -0.82681682314E+03  0.82681682316E+03  0.50400001928E-02 0.  1.
    10030    2    1    2    0    0  0.00000000000E+00  0.00000000000E+00  0.10353870841E+03  0.17571723547E+04  0.17541192719E+04 0.  0.
        4    1    3    3  502    0 -0.79948596240E+03  0.20826164230E+03  0.34669863432E+03  0.89596443661E+03  0.12699999809E+01 0. -1.
       -4    1    3    3    0  502  0.79948596240E+03 -0.20826164230E+03 -0.24315992591E+03  0.86120791810E+03  0.12699999809E+01 0.  1.
</event>
<event>
 5   0  0.9147432E-05  0.1797898E+04  0.7818609E-02  0.8707418E-01
       -2   -1    0    0    0  501  0.00000000000E+00  0.00000000000E+00  0.59313325845E+03  0.59313325845E+03  0.25500000920E-02 0.  1.
        2   -1    0    0  501    0  0.00000000000E+00  0.00000000000E+00 -0.13624413378E+04  0.13624413378E+04  0.25500000920E-02 0. -1.
    10030    2    1    2    0    0  0.00000000000E+00  0.00000000000E+00 -0.76930807937E+03  0.19555745963E+04  0.17978979617E+04 0.  0.
        3    1    3    3  502    0  0.58556736425E+03  0.65447015296E+03 -0.59356317878E+03  0.10599705546E+04  0.10100000352E+00 0.  1.
       -3    1    3    3    0  502 -0.58556736425E+03 -0.65447015296E+03 -0.17574490059E+03  0.89560404168E+03  0.10100000352E+00 0. -1.
</event>
<event>
 5   0  0.4623665E-05  0.1837507E+04  0.7818609E-02  0.8686604E-01
       -1   -1    0    0    0  501  0.00000000000E+00  0.00000000000E+00  0.47143734155E+03  0.47143734158E+03  0.50400001928E-02 0.  1.
        1   -1    0    0  501    0  0.00000000000E+00  0.00000000000E+00 -0.17904995914E+04  0.17904995915E+04  0.50400001928E-02 0. -1.
    10030    2    1    2    0    0  0.00000000000E+00  0.00000000000E+00 -0.13190622499E+04  0.22619369330E+04  0.18375074068E+04 0.  0.
        5    1    3    3  502    0  0.50838711927E+02 -0.50157231568E+03 -0.16050071028E+04  0.16823285209E+04  0.46999998093E+01 0. -1.
       -5    1    3    3    0  502 -0.50838711927E+02  0.50157231568E+03  0.28594485286E+03  0.57960841209E+03  0.46999998093E+01 0.  1.
</event>
<event>
 5   0  0.4335117E-05  0.1790986E+04  0.7818609E-02  0.8711108E-01
        1   -1    0    0  501    0  0.00000000000E+00  0.00000000000E+00  0.10979055068E+04  0.10979055068E+04  0.50400001928E-02 0. -1.
       -1   -1    0    0    0  501  0.00000000000E+00  0.00000000000E+00 -0.73039780980E+03  0.73039780982E+03  0.50400001928E-02 0.  1.
    10030    2    1    2    0    0  0.00000000000E+00  0.00000000000E+00  0.36750769703E+03  0.18283033167E+04  0.17909860721E+04 0.  0.
        3    1    3    3  502    0 -0.76406628582E+03  0.54947881183E+02 -0.28968879043E+03  0.81898483763E+03  0.10100000352E+00 0.  1.
       -3    1    3    3    0  502  0.76406628582E+03 -0.54947881183E+02  0.65719648746E+03  0.10093184790E+04  0.10100000352E+00 0. -1.
</event>
<event>
 5   0  0.3270375E-05  0.1819924E+04  0.7818609E-02  0.8695775E-01
        3   -1    0    0  501    0  0.00000000000E+00  0.00000000000E+00  0.13317446894E+04  0.13317446932E+04  0.10100000352E+00 0. -1.
       -3   -1    0    0    0  501  0.00000000000E+00  0.00000000000E+00 -0.62176397246E+03  0.62176398067E+03  0.10100000352E+00 0.  1.
    10030    2    1    2    0    0  0.00000000000E+00  0.00000000000E+00  0.70998071693E+03  0.19535086739E+04  0.18199240425E+04 0.  0.
        4    1    3    3  502    0  0.18719877103E+03  0.30231533892E+03  0.12540824678E+04  0.13035192338E+04  0.12699999809E+01 0. -1.
       -4    1    3    3    0  502 -0.18719877103E+03 -0.30231533892E+03 -0.54410175086E+03  0.64998944007E+03  0.12699999809E+01 0.  1.
</event>
<event>
 5   0  0.8802655E-05  0.1760254E+04  0.7818609E-02  0.8727726E-01
        2   -1    0    0  501    0  0.00000000000E+00  0.00000000000E+00  0.10894915240E+04  0.10894915240E+04  0.25500000920E-02 0.  1.
       -2   -1    0    0    0  501  0.00000000000E+00  0.00000000000E+00 -0.71099557656E+03  0.71099557656E+03  0.25500000920E-02 0. -1.
    10030    2    1    2    0    0  0.00000000000E+00  0.00000000000E+00  0.37849594741E+03  0.18004871005E+04  0.17602541342E+04 0.  0.
        2    1    3    3  502    0 -0.70068614089E+03  0.39220340031E+03  0.55781574318E+03  0.97772336506E+03  0.25500000920E-02 0.  1.
       -2    1    3    3    0  502  0.70068614089E+03 -0.39220340031E+03 -0.17931979577E+03  0.82276373547E+03  0.25500000920E-02 0. -1.
</event>
<event>
 5   0  0.9184414E-05  0.1772982E+04  0.7818609E-02  0.8720801E-01
       -2   -1    0    0    0  501  0.00000000000E+00  0.00000000000E+00  0.69871069937E+03  0.69871069937E+03  0.25500000920E-02 0. -1.
        2   -1    0    0  501    0  0.00000000000E+00  0.00000000000E+00 -0.11247372548E+04  0.11247372548E+04  0.25500000920E-02 0.  1.
    10030    2    1    2    0    0  0.00000000000E+00  0.00000000000E+00 -0.42602655540E+03  0.18234479541E+04  0.17729816174E+04 0.  0.
        5    1    3    3  502    0  0.66830034683E+03  0.48922633262E+03 -0.53804065205E+03  0.98766269108E+03  0.46999998093E+01 0.  1.
       -5    1    3    3    0  502 -0.66830034683E+03 -0.48922633262E+03  0.11201409665E+03  0.83578526306E+03  0.46999998093E+01 0. -1.
</event>
<event>
 5   0  0.4494757E-05  0.1785293E+04  0.7818609E-02  0.8714160E-01
       -1   -1    0    0    0  501  0.00000000000E+00  0.00000000000E+00  0.28809884432E+03  0.28809884437E+03  0.50400001928E-02 0. -1.
        1   -1    0    0  501    0  0.00000000000E+00  0.00000000000E+00 -0.27657794559E+04  0.27657794559E+04  0.50400001928E-02 0.  1.
    10030    2    1    2    0    0  0.00000000000E+00  0.00000000000E+00 -0.24776806116E+04  0.30538783003E+04  0.17852931019E+04 0.  0.
        4    1    3    3  502    0 -0.73499943805E+03 -0.44276652258E+03 -0.81792098685E+03  0.11854377761E+04  0.12699999809E+01 0. -1.
       -4    1    3    3    0  502  0.73499943805E+03  0.44276652258E+03 -0.16597596247E+04  0.18684405241E+04  0.12699999809E+01 0.  1.
</event>
<event>
 5   0  0.8892280E-05  0.1799875E+04  0.7818609E-02  0.8706366E-01
        2   -1    0    0  501    0  0.00000000000E+00  0.00000000000E+00  0.13701277481E+04  0.13701277481E+04  0.25500000920E-02 0.  1.
       -2   -1    0    0    0  501  0.00000000000E+00  0.00000000000E+00 -0.59110385740E+03  0.59110385740E+03  0.25500000920E-02 0. -1.
    10030    2    1    2    0    0  0.00000000000E+00  0.00000000000E+00  0.77902389072E+03  0.19612316055E+04  0.17998753257E+04 0.  0.
        4    1    3    3  502    0 -0.66276731642E+03 -0.22360668298E+03  0.10065126198E+04  0.12256956111E+04  0.12699999809E+01 0.  1.
       -4    1    3    3    0  502  0.66276731642E+03  0.22360668298E+03 -0.22748872904E+03  0.73553599444E+03  0.12699999809E+01 0. -1.
</event>
<event>
 5   0  0.4623665E-05  0.1802875E+04  0.7818609E-02  0.8704772E-01
       -1   -1    0    0    0  501  0.00000000000E+00  0.00000000000E+00  0.12105300830E+04  0.12105300830E+04  0.50400001928E-02 0. -1.
        1   -1    0    0  501    0  0.00000000000E+00  0.00000000000E+00 -0.67126731310E+03  0.67126731312E+03  0.50400001928E-02 0.  1.
    10030    2    1    2    0    0  0.00000000000E+00  0.00000000000E+00  0.53926276988E+03  0.18817973961E+04  0.18028746781E+04 0.  0.
        5    1    3    3  502    0  0.72667967316E+03  0.46159429936E+03  0.54860392425E+03  0.10208432790E+04  0.46999998093E+01 0. -1.
       -5    1    3    3    0  502 -0.72667967316E+03 -0.46159429936E+03 -0.93411543787E+01  0.86095411710E+03  0.46999998093E+01 0.  1.
</event>
<event>
 5   0  0.8802655E-05  0.1796617E+04  0.7818609E-02  0.8708101E-01
       -2   -1    0    0    0  501  0.00000000000E+00  0.00000000000E+00  0.51172425340E+03  0.51172425340E+03  0.25500000920E-02 0.  1.
        2   -1    0    0  501    0  0.00000000000E+00  0.00000000000E+00 -0.15769393293E+04  0.15769393293E+04  0.25500000920E-02 0. -1.
    10030    2    1    2    0    0  0.00000000000E+00  0.00000000000E+00 -0.10652150759E+04  0.20886635827E+04  0.17966169329E+04 0.  0.
        2    1    3    3  502    0 -0.29365298665E+03  0.60655393065E+03  0.15793206468E+03  0.69215770199E+03  0.25500000920E-02 0.  1.
       -2    1    3    3    0  502  0.29365298665E+03 -0.60655393065E+03 -0.12231471405E+04  0.13965058807E+04  0.25500000920E-02 0. -1.
</event>
<event>
 5   0  0.9147432E-05  0.1795753E+04  0.7818609E-02  0.8708561E-01
       -2   -1    0    0    0  501  0.00000000000E+00  0.00000000000E+00  0.47078064863E+03  0.47078064863E+03  0.25500000920E-02 0. -1.
        2   -1    0    0  501    0  0.00000000000E+00  0.00000000000E+00 -0.17124368223E+04  0.17124368223E+04  0.25500000920E-02 0.  1.
    10030    2    1    2    0    0  0.00000000000E+00  0.00000000000E+00 -0.12416561737E+04  0.21832174709E+04  0.17957528983E+04 0.  0.
        3    1    3    3  502    0  0.22536303553E+03  0.34992679518E+03 -0.15880661007E+04  0.16417037522E+04  0.10100000352E+00 0.  1.
       -3    1    3    3    0  502 -0.22536303553E+03 -0.34992679518E+03  0.34640992703E+03  0.54151371868E+03  0.10100000352E+00 0. -1.
</event>
<event>
 5   0  0.4578107E-05  0.1793689E+04  0.7818609E-02  0.8709663E-01
       -1   -1    0    0    0  501  0.00000000000E+00  0.00000000000E+00  0.80286946253E+03  0.80286946254E+03  0.50400001928E-02 0.  1.
        1   -1    0    0  501    0  0.00000000000E+00  0.00000000000E+00 -0.10018197098E+04  0.10018197098E+04  0.50400001928E-02 0. -1.
    10030    2    1    2    0    0  0.00000000000E+00  0.00000000000E+00 -0.19895024724E+03  0.18046891723E+04  0.17936894402E+04 0.  0.
        2    1    3    3  502    0  0.39850981097E+03 -0.42046851094E+03 -0.78830974634E+03  0.97828221609E+03  0.25500000920E-02 0. -1.
       -2    1    3    3    0  502 -0.39850981097E+03  0.42046851094E+03  0.58935949910E+03  0.82640695624E+03  0.25500000920E-02 0.  1.
</event>
<event>
 5   0  0.4623665E-05  0.1799739E+04  0.7818609E-02  0.8706438E-01
        1   -1    0    0  501    0  0.00000000000E+00  0.00000000000E+00  0.10559905165E+04  0.10559905165E+04  0.50400001928E-02 0.  1.
       -1   -1    0    0    0  501  0.00000000000E+00  0.00000000000E+00 -0.76682960412E+03  0.76682960413E+03  0.50400001928E-02 0. -1.
    10030    2    1    2    0    0  0.00000000000E+00  0.00000000000E+00  0.28916091235E+03  0.18228201206E+04  0.17997386363E+04 0.  0.
        5    1    3    3  502    0  0.72234669259E+03 -0.35725535886E+03  0.55012364922E+03  0.97574292473E+03  0.46999998093E+01 0.  1.
       -5    1    3    3    0  502 -0.72234669259E+03  0.35725535886E+03 -0.26096273687E+03  0.84707719588E+03  0.46999998093E+01 0. -1.
</event>
<event>
 5   0  0.9147432E-05  0.1807025E+04  0.7818609E-02  0.8702573E-01
        2   -1    0    0  501    0  0.00000000000E+00  0.00000000000E+00  0.11518958391E+04  0.11518958391E+04  0.25500000920E-02 0.  1.
       -2   -1    0    0    0  501  0.00000000000E+00  0.00000000000E+00 -0.70868784500E+03  0.70868784500E+03  0.25500000920E-02 0. -1.
    10030    2    1    2    0    0  0.00000000000E+00  0.00000000000E+00  0.44320799413E+03  0.18605836841E+04  0.18070247147E+04 0.  0.
        3    1    3    3  502    0 -0.70661805328E+03  0.14433047932E+03 -0.33876409420E+03  0.79680705456E+03  0.10100000352E+00 0. -1.
       -3    1    3    3    0  502  0.70661805328E+03 -0.14433047932E+03  0.78197208833E+03  0.10637766296E+04  0.10100000352E+00 0.  1.
</event>
<event>
 5   0  0.9147432E-05  0.1795282E+04  0.7818609E-02  0.8708812E-01
        2   -1    0    0  501    0  0.00000000000E+00  0.00000000000E+00  0.10223456828E+04  0.10223456828E+04  0.25500000920E-02 0.  1.
       -2   -1    0    0    0  501  0.00000000000E+00  0.00000000000E+00 -0.78814776650E+03  0.78814776650E+03  0.25500000920E-02 0. -1.
    10030    2    1    2    0    0  0.00000000000E+00  0.00000000000E+00  0.23419791626E+03  0.18104934493E+04  0.17952821132E+04 0.  0.
        3    1    3    3  502    0 -0.31531243631E+03  0.41300033419E+03  0.85526275193E+03  0.10007325285E+04  0.10100000352E+00 0.  1.
       -3    1    3    3    0  502  0.31531243631E+03 -0.41300033419E+03 -0.62106483567E+03  0.80976092078E+03  0.10100000352E+00 0. -1.
</event>
<event>
 5   0  0.8802655E-05  0.1791248E+04  0.7818609E-02  0.8710968E-01
       -2   -1    0    0    0  501  0.00000000000E+00  0.00000000000E+00  0.50428578548E+03  0.50428578549E+03  0.25500000920E-02 0.  1.
        2   -1    0    0  501    0  0.00000000000E+00  0.00000000000E+00 -0.15906502634E+04  0.15906502634E+04  0.25500000920E-02 0. -1.
    10030    2    1    2    0    0  0.00000000000E+00  0.00000000000E+00 -0.10863644779E+04  0.20949360488E+04  0.17912479644E+04 0.  0.
        2    1    3    3  502    0 -0.19195929717E+03 -0.27200412120E+03 -0.15155952439E+04  0.15517292151E+04  0.25500000920E-02 0. -1.
       -2    1    3    3    0  502  0.19195929717E+03  0.27200412120E+03  0.42923076602E+03  0.54320683374E+03  0.25500000920E-02 0.  1.
</event>
<event>
 5   0  0.4535100E-05  0.1801438E+04  0.7818609E-02  0.8705535E-01
        1   -1    0    0  501    0  0.00000000000E+00  0.00000000000E+00  0.14882588634E+04  0.14882588634E+04  0.50400001928E-02 0.  1.
       -1   -1    0    0    0  501  0.00000000000E+00  0.00000000000E+00 -0.54513022445E+03  0.54513022447E+03  0.50400001928E-02 0. -1.
    10030    2    1    2    0    0  0.00000000000E+00  0.00000000000E+00  0.94312863890E+03  0.20333890878E+04  0.18014381902E+04 0.  0.
        1    1    3    3  502    0  0.22508217992E+03  0.32698021551E+03  0.13841968798E+04  0.14399927260E+04  0.50400001928E-02 0.  1.
       -1    1    3    3    0  502 -0.22508217992E+03 -0.32698021551E+03 -0.44106824087E+03  0.59339636179E+03  0.50400001928E-02 0. -1.
</event>
<event>
 5   0  0.8892280E-05  0.1803218E+04  0.7818609E-02  0.8704590E-01
        2   -1    0    0  501    0  0.00000000000E+00  0.00000000000E+00  0.83346052436E+03  0.83346052436E+03  0.25500000920E-02 0.  1.
       -2   -1    0    0    0  501  0.00000000000E+00  0.00000000000E+00 -0.97532925644E+03  0.97532925645E+03  0.25500000920E-02 0. -1.
    10030    2    1    2    0    0  0.00000000000E+00  0.00000000000E+00 -0.14186873209E+03  0.18087897808E+04  0.18032176058E+04 0.  0.
        4    1    3    3  502    0  0.66836532978E+03  0.47130392542E+03 -0.45165592148E+03  0.93425600800E+03  0.12699999809E+01 0. -1.
       -4    1    3    3    0  502 -0.66836532978E+03 -0.47130392542E+03  0.30978718939E+03  0.87453377281E+03  0.12699999809E+01 0.  1.
</event>
<event>
 5   0  0.9147432E-05  0.1783255E+04  0.7818609E-02  0.8715255E-01
       -2   -1    0    0    0  501  0.00000000000E+00  0.00000000000E+00  0.65515281343E+03  0.65515281344E+03  0.25500000920E-02 0. -1.
        2   -1    0    0  501    0  0.00000000000E+00  0.00000000000E+00 -0.12134566745E+04  0.12134566745E+04  0.25500000920E-02 0.  1.
    10030    2    1    2    0    0  0.00000000000E+00  0.00000000000E+00 -0.55830386105E+03  0.18686094879E+04  0.17832549501E+04 0.  0.
        3    1    3    3  502    0  0.37043120680E+03 -0.79397404901E+03 -0.45255838052E+03  0.98611518974E+03  0.10100000352E+00 0. -1.
       -3    1    3    3    0  502 -0.37043120680E+03  0.79397404901E+03 -0.10574548054E+03  0.88249429818E+03  0.10100000352E+00 0.  1.
</event>
<event>
 5   0  0.4578107E-05  0.1792235E+04  0.7818609E-02  0.8710440E-01
        1   -1    0    0  501    0  0.00000000000E+00  0.00000000000E+00  0.62623536961E+03  0.62623536963E+03  0.50400001928E-02 0. -1.
       -1   -1    0    0    0  501  0.00000000000E+00  0.00000000000E+00 -0.12823073256E+04  0.12823073256E+04  0.50400001928E-02 0.  1.
    10030    2    1    2    0    0  0.00000000000E+00  0.00000000000E+00 -0.65607195598E+03  0.19085426952E+04  0.17922345851E+04 0.  0.
        2    1    3    3  502    0 -0.49647622593E+03 -0.50517365609E+03 -0.91260171212E+03  0.11552190055E+04  0.25500000920E-02 0. -1.
       -2    1    3    3    0  502  0.49647622593E+03  0.50517365609E+03  0.25652975613E+03  0.75332368973E+03  0.25500000920E-02 0.  1.
</event>
<event>
 5   0  0.4535100E-05  0.1797218E+04  0.7818609E-02  0.8707780E-01
       -1   -1    0    0    0  501  0.00000000000E+00  0.00000000000E+00  0.13118550564E+04  0.13118550564E+04  0.50400001928E-02 0.  1.
        1   -1    0    0  501    0  0.00000000000E+00  0.00000000000E+00 -0.61553918527E+03  0.61553918529E+03  0.50400001928E-02 0. -1.
    10030    2    1    2    0    0  0.00000000000E+00  0.00000000000E+00  0.69631587111E+03  0.19273942417E+04  0.17972180643E+04 0.  0.
        1    1    3    3  502    0 -0.24178238114E+03 -0.38676601996E+03 -0.48216457938E+03  0.66372385497E+03  0.50400001928E-02 0. -1.
       -1    1    3    3    0  502  0.24178238114E+03  0.38676601996E+03  0.11784804505E+04  0.12636703867E+04  0.50400001928E-02 0.  1.
</event>
<event>
 5   0  0.8893075E-05  0.1676848E+04  0.7818609E-02  0.8774680E-01
       -2   -1    0    0    0  501  0.00000000000E+00  0.00000000000E+00  0.82792225808E+03  0.82792225808E+03  0.25500000920E-02 0. -1.
        2   -1    0    0  501    0  0.00000000000E+00  0.00000000000E+00 -0.84905902970E+03  0.84905902971E+03  0.25500000920E-02 0.  1.
    10030    2    1    2    0    0  0.00000000000E+00  0.00000000000E+00 -0.21136771627E+02  0.16769812878E+04  0.16768480779E+04 0.  0.
        1    1    3    3  502    0  0.11121213104E+03 -0.67556289164E+03  0.47341376484E+03  0.83239050416E+03  0.50400001928E-02 0. -1.
       -1    1    3    3    0  502 -0.11121213104E+03  0.67556289164E+03 -0.49455053647E+03  0.84459078363E+03  0.50400001928E-02 0.  1.
</event>
<event>
 5   0  0.4623665E-05  0.1796478E+04  0.7818609E-02  0.8708174E-01
       -1   -1    0    0    0  501  0.00000000000E+00  0.00000000000E+00  0.68623486181E+03  0.68623486182E+03  0.50400001928E-02 0. -1.
        1   -1    0    0  501    0  0.00000000000E+00  0.00000000000E+00 -0.11757397838E+04  0.11757397838E+04  0.50400001928E-02 0.  1.
    10030    2    1    2    0    0  0.00000000000E+00  0.00000000000E+00 -0.48950492196E+03  0.18619746456E+04  0.17964783640E+04 0.  0.
        5    1    3    3  502    0  0.28872180492E+03 -0.53551059023E+03  0.44015714314E+03  0.75092760872E+03  0.46999998093E+01 0. -1.
       -5    1    3    3    0  502 -0.28872180492E+03  0.53551059023E+03 -0.92966206509E+03  0.11110470369E+04  0.46999998093E+01 0.  1.
</event>
<event>
 5   0  0.4535100E-05  0.1801217E+04  0.7818609E-02  0.8705653E-01
       -1   -1    0    0    0  501  0.00000000000E+00  0.00000000000E+00  0.74387982795E+03  0.74387982797E+03  0.50400001928E-02 0. -1.
        1   -1    0    0  501    0  0.00000000000E+00  0.00000000000E+00 -0.10903581162E+04  0.10903581162E+04  0.50400001928E-02 0.  1.
    10030    2    1    2    0    0  0.00000000000E+00  0.00000000000E+00 -0.34647828823E+03  0.18342379442E+04  0.18012167087E+04 0.  0.
        1    1    3    3  502    0  0.54728152825E+03  0.55027180682E+02 -0.89943987793E+03  0.10542946248E+04  0.50400001928E-02 0.  1.
       -1    1    3    3    0  502 -0.54728152825E+03 -0.55027180682E+02  0.55296158969E+03  0.77994331940E+03  0.50400001928E-02 0. -1.
</event>
<event>
 5   0  0.9147432E-05  0.1792732E+04  0.7818609E-02  0.8710174E-01
       -2   -1    0    0    0  501  0.00000000000E+00  0.00000000000E+00  0.35850076176E+03  0.35850076177E+03  0.25500000920E-02 0. -1.
        2   -1    0    0  501    0  0.00000000000E+00  0.00000000000E+00 -0.22411997363E+04  0.22411997363E+04  0.25500000920E-02 0.  1.
    10030    2    1    2    0    0  0.00000000000E+00  0.00000000000E+00 -0.18826989745E+04  0.25997004981E+04  0.17927317844E+04 0.  0.
        3    1    3    3  502    0  0.34489406937E+03 -0.17268418047E+03 -0.21147038391E+04  0.21495916083E+04  0.10100000352E+00 0.  1.
       -3    1    3    3    0  502 -0.34489406937E+03  0.17268418047E+03  0.23200486455E+03  0.45010888976E+03  0.10100000352E+00 0. -1.
</event>
<event>
 5   0  0.4535100E-05  0.1778593E+04  0.7818609E-02  0.8717767E-01
       -1   -1    0    0    0  501  0.00000000000E+00  0.00000000000E+00  0.57099275130E+03  0.57099275132E+03  0.50400001928E-02 0.  1.
        1   -1    0    0  501    0  0.00000000000E+00  0.00000000000E+00 -0.13850404292E+04  0.13850404292E+04  0.50400001928E-02 0. -1.
    10030    2    1    2    0    0  0.00000000000E+00  0.00000000000E+00 -0.81404767792E+03  0.19560331806E+04  0.17785927531E+04 0.  0.
        1    1    3    3  502    0  0.18331477030E+03  0.45191375508E+03 -0.12248654706E+04  0.13183799787E+04  0.50400001928E-02 0. -1.
       -1    1    3    3    0  502 -0.18331477030E+03 -0.45191375508E+03  0.41081779270E+03  0.63765320188E+03  0.50400001928E-02 0.  1.
</event>
<event>
 5   0  0.4535100E-05  0.1802265E+04  0.7818609E-02  0.8705096E-01
        1   -1    0    0  501    0  0.00000000000E+00  0.00000000000E+00  0.17184753580E+04  0.17184753580E+04  0.50400001928E-02 0.  1.
       -1   -1    0    0    0  501  0.00000000000E+00  0.00000000000E+00 -0.47253511359E+03  0.47253511361E+03  0.50400001928E-02 0. -1.
    10030    2    1    2    0    0  0.00000000000E+00  0.00000000000E+00  0.12459402444E+04  0.21910104716E+04  0.18022651842E+04 0.  0.
        1    1    3    3  502    0 -0.66731401945E+03  0.84196924897E+02 -0.10608683842E+03  0.68091962817E+03  0.50400001928E-02 0. -1.
       -1    1    3    3    0  502  0.66731401945E+03 -0.84196924897E+02  0.13520270828E+04  0.15100908434E+04  0.50400001928E-02 0.  1.
</event>
<event>
 5   0  0.4578107E-05  0.1797594E+04  0.7818609E-02  0.8707580E-01
        1   -1    0    0  501    0  0.00000000000E+00  0.00000000000E+00  0.10300022715E+04  0.10300022716E+04  0.50400001928E-02 0. -1.
       -1   -1    0    0    0  501  0.00000000000E+00  0.00000000000E+00 -0.78430526532E+03  0.78430526533E+03  0.50400001928E-02 0.  1.
    10030    2    1    2    0    0  0.00000000000E+00  0.00000000000E+00  0.24569700623E+03  0.18143075369E+04  0.17975941754E+04 0.  0.
        2    1    3    3  502    0  0.68394125399E+02 -0.22395411389E+03  0.99867404544E+03  0.10257597431E+04  0.25500000920E-02 0. -1.
       -2    1    3    3    0  502 -0.68394125399E+02  0.22395411389E+03 -0.75297703921E+03  0.78854779380E+03  0.25500000920E-02 0.  1.
</event>
<event>
 5   0  0.8893075E-05  0.1876679E+04  0.7818609E-02  0.8666553E-01
       -2   -1    0    0    0  501  0.00000000000E+00  0.00000000000E+00  0.10915340502E+04  0.10915340502E+04  0.25500000920E-02 0. -1.
        2   -1    0    0  501    0  0.00000000000E+00  0.00000000000E+00 -0.80664506017E+03  0.80664506017E+03  0.25500000920E-02 0.  1.
    10030    2    1    2    0    0  0.00000000000E+00  0.00000000000E+00  0.28488899007E+03  0.18981791104E+04  0.18766785017E+04 0.  0.
        1    1    3    3  502    0  0.64214588017E+03  0.96266474364E+02  0.82759873563E+03  0.10519212103E+04  0.50400001928E-02 0. -1.
       -1    1    3    3    0  502 -0.64214588017E+03 -0.96266474364E+02 -0.54270974556E+03  0.84625790009E+03  0.50400001928E-02 0.  1.
</event>
<event>
 5   0  0.3270375E-05  0.1781726E+04  0.7818609E-02  0.8716078E-01
       -3   -1    0    0    0  501  0.00000000000E+00  0.00000000000E+00  0.73919212173E+03  0.73919212863E+03  0.10100000352E+00 0.  1.
        3   -1    0    0  501    0  0.00000000000E+00  0.00000000000E+00 -0.10736542867E+04  0.10736542914E+04  0.10100000352E+00 0. -1.
    10030    2    1    2    0    0  0.00000000000E+00  0.00000000000E+00 -0.33446216492E+03  0.18128464200E+04  0.17817259057E+04 0.  0.
        4    1    3    3  502    0  0.38009498304E+03 -0.75473490635E+03 -0.45418227434E+03  0.95936443869E+03  0.12699999809E+01 0. -1.
       -4    1    3    3    0  502 -0.38009498304E+03  0.75473490635E+03  0.11972010942E+03  0.85348198135E+03  0.12699999809E+01 0.  1.
</event>
<event>
 5   0  0.9147432E-05  0.1808535E+04  0.7818609E-02  0.8701774E-01
        2   -1    0    0  501    0  0.00000000000E+00  0.00000000000E+00  0.24248773696E+04  0.24248773696E+04  0.25500000920E-02 0. -1.
       -2   -1    0    0    0  501  0.00000000000E+00  0.00000000000E+00 -0.33721291556E+03  0.33721291557E+03  0.25500000920E-02 0.  1.
    10030    2    1    2    0    0  0.00000000000E+00  0.00000000000E+00  0.20876644540E+04  0.27620902852E+04  0.18085352833E+04 0.  0.
        3    1    3    3  502    0 -0.54517811396E+03 -0.50081615406E+03  0.25074247262E+03  0.78160590702E+03  0.10100000352E+00 0.  1.
       -3    1    3    3    0  502  0.54517811396E+03  0.50081615406E+03  0.18369219814E+04  0.19804843781E+04  0.10100000352E+00 0. -1.
</event>
<event>
 5   0  0.8802655E-05  0.1799695E+04  0.7818609E-02  0.8706462E-01
        2   -1    0    0  501    0  0.00000000000E+00  0.00000000000E+00  0.22170792779E+04  0.22170792779E+04  0.25500000920E-02 0.  1.
       -2   -1    0    0    0  501  0.00000000000E+00  0.00000000000E+00 -0.36522157135E+03  0.36522157136E+03  0.25500000920E-02 0. -1.
    10030    2    1    2    0    0  0.00000000000E+00  0.00000000000E+00  0.18518577065E+04  0.25823008492E+04  0.17996946160E+04 0.  0.
        2    1    3    3  502    0 -0.52590506674E+03 -0.68162179662E+03  0.13015780754E+04  0.15605415403E+04  0.25500000920E-02 0. -1.
       -2    1    3    3    0  502  0.52590506674E+03  0.68162179662E+03  0.55027963115E+03  0.10217593089E+04  0.25500000920E-02 0.  1.
</event>
<event>
 5   0  0.8892280E-05  0.1802137E+04  0.7818609E-02  0.8705164E-01
        2   -1    0    0  501    0  0.00000000000E+00  0.00000000000E+00  0.87637106480E+03  0.87637106480E+03  0.25500000920E-02 0. -1.
       -2   -1    0    0    0  501  0.00000000000E+00  0.00000000000E+00 -0.92646195655E+03  0.92646195656E+03  0.25500000920E-02 0.  1.
    10030    2    1    2    0    0  0.00000000000E+00  0.00000000000E+00 -0.50090891758E+02  0.18028330214E+04  0.18021370107E+04 0.  0.
        4    1    3    3  502    0 -0.52187758528E+03 -0.60904038088E+03  0.38576682703E+03  0.89000227938E+03  0.12699999809E+01 0. -1.
       -4    1    3    3    0  502  0.52187758528E+03  0.60904038088E+03 -0.43585771879E+03  0.91283074197E+03  0.12699999809E+01 0.  1.
</event>
<event>
 5   0  0.9147432E-05  0.1757277E+04  0.7818609E-02  0.8729355E-01
        2   -1    0    0  501    0  0.00000000000E+00  0.00000000000E+00  0.22011537052E+04  0.22011537052E+04  0.25500000920E-02 0.  1.
       -2   -1    0    0    0  501  0.00000000000E+00  0.00000000000E+00 -0.35072756334E+03  0.35072756335E+03  0.25500000920E-02 0. -1.
    10030    2    1    2    0    0  0.00000000000E+00  0.00000000000E+00  0.18504261419E+04  0.25518812686E+04  0.17572766152E+04 0.  0.
        3    1    3    3  502    0  0.24247931861E+03  0.28862058249E+03 -0.22733386967E+03  0.44020308846E+03  0.10100000352E+00 0. -1.
       -3    1    3    3    0  502 -0.24247931861E+03 -0.28862058249E+03  0.20777600115E+04  0.21116781801E+04  0.10100000352E+00 0.  1.
</event>
<event>
 5   0  0.4535100E-05  0.1806992E+04  0.7818609E-02  0.8702590E-01
        1   -1    0    0  501    0  0.00000000000E+00  0.00000000000E+00  0.93341029971E+03  0.93341029972E+03  0.50400001928E-02 0.  1.
       -1   -1    0    0    0  501  0.00000000000E+00  0.00000000000E+00 -0.87454028392E+03  0.87454028393E+03  0.50400001928E-02 0. -1.
    10030    2    1    2    0    0  0.00000000000E+00  0.00000000000E+00  0.58870015788E+02  0.18079505837E+04  0.18069918744E+04 0.  0.
        1    1    3    3  502    0 -0.34067974026E+03  0.36383093064E+03  0.78340583561E+03  0.92852589345E+03  0.50400001928E-02 0.  1.
       -1    1    3    3    0  502  0.34067974026E+03 -0.36383093064E+03 -0.72453581982E+03  0.87942469021E+03  0.50400001928E-02 0. -1.
</event>
<event>
 5   0  0.3270375E-05  0.1799080E+04  0.7818609E-02  0.8706789E-01
        3   -1    0    0  501    0  0.00000000000E+00  0.00000000000E+00  0.13208892853E+04  0.13208892891E+04  0.10100000352E+00 0.  1.
       -3   -1    0    0    0  501  0.00000000000E+00  0.00000000000E+00 -0.61259619505E+03  0.61259620338E+03  0.10100000352E+00 0. -1.
    10030    2    1    2    0    0  0.00000000000E+00  0.00000000000E+00  0.70829309022E+03  0.19334854925E+04  0.17990795002E+04 0.  0.
        2    1    3    3  502    0 -0.48643035394E+03 -0.50186514096E+03  0.96274712186E+03  0.11896911909E+04  0.25500000920E-02 0.  1.
       -2    1    3    3    0  502  0.48643035394E+03  0.50186514096E+03 -0.25445403164E+03  0.74379430165E+03  0.25500000920E-02 0. -1.
</event>
<event>
 5   0  0.3270375E-05  0.1801220E+04  0.7818609E-02  0.8705651E-01
        3   -1    0    0  501    0  0.00000000000E+00  0.00000000000E+00  0.76028097487E+03  0.76028098158E+03  0.10100000352E+00 0. -1.
       -3   -1    0    0    0  501  0.00000000000E+00  0.00000000000E+00 -0.10668397463E+04  0.10668397511E+04  0.10100000352E+00 0.  1.
    10030    2    1    2    0    0  0.00000000000E+00  0.00000000000E+00 -0.30655877147E+03  0.18271207327E+04  0.18012195567E+04 0.  0.
        3    1    3    3  502    0 -0.60980121835E+03 -0.61379378253E+03 -0.40686952594E+03  0.95610833838E+03  0.10100000352E+00 0.  1.
       -3    1    3    3    0  502  0.60980121835E+03  0.61379378253E+03  0.10031075447E+03  0.87101239431E+03  0.10100000352E+00 0. -1.
</event>
<event>
 5   0  0.8892280E-05  0.1795752E+04  0.7818609E-02  0.8708562E-01
        2   -1    0    0  501    0  0.00000000000E+00  0.00000000000E+00  0.13551046465E+04  0.13551046465E+04  0.25500000920E-02 0. -1.
       -2   -1    0    0    0  501  0.00000000000E+00  0.00000000000E+00 -0.59492161675E+03  0.59492161676E+03  0.25500000920E-02 0.  1.
    10030    2    1    2    0    0  0.00000000000E+00  0.00000000000E+00  0.76018302972E+03  0.19500262632E+04  0.17957517057E+04 0.  0.
        4    1    3    3  502    0  0.86516971434E+02 -0.41460794997E+03  0.12398109802E+04  0.13101594628E+04  0.12699999809E+01 0. -1.
       -4    1    3    3    0  502 -0.86516971434E+02  0.41460794997E+03 -0.47962795046E+03  0.63986680042E+03  0.12699999809E+01 0.  1.
</event>
<event>
 5   0  0.8802655E-05  0.1807276E+04  0.7818609E-02  0.8702440E-01
       -2   -1    0    0    0  501  0.00000000000E+00  0.00000000000E+00  0.35836136189E+03  0.35836136190E+03  0.25500000920E-02 0.  1.
        2   -1    0    0  501    0  0.00000000000E+00  0.00000000000E+00 -0.22785982739E+04  0.22785982739E+04  0.25500000920E-02 0. -1.
    10030    2    1    2    0    0  0.00000000000E+00  0.00000000000E+00 -0.19202369120E+04  0.26369596357E+04  0.18072759398E+04 0.  0.
        2    1    3    3  502    0 -0.17035600264E+03  0.84409832574E+03 -0.13598062476E+04  0.16095329081E+04  0.25500000920E-02 0.  1.
       -2    1    3    3    0  502  0.17035600264E+03 -0.84409832574E+03 -0.56043066432E+03  0.10274267276E+04  0.25500000920E-02 0. -1.
</event>
<event>
 5   0  0.4578107E-05  0.1790490E+04  0.7818609E-02  0.8711373E-01
        1   -1    0    0  501    0  0.00000000000E+00  0.00000000000E+00  0.86188883989E+03  0.86188883990E+03  0.50400001928E-02 0. -1.
       -1   -1    0    0    0  501  0.00000000000E+00  0.00000000000E+00 -0.92989208700E+03  0.92989208702E+03  0.50400001928E-02 0.  1.
    10030    2    1    2    0    0  0.00000000000E+00  0.00000000000E+00 -0.68003247115E+02  0.17917809269E+04  0.17904900023E+04 0.  0.
        2    1    3    3  502    0 -0.70031269794E+03  0.38499627057E+03  0.36977858012E+03  0.88056584170E+03  0.25500000920E-02 0. -1.
       -2    1    3    3    0  502  0.70031269794E+03 -0.38499627057E+03 -0.43778182724E+03  0.91121508521E+03  0.25500000920E-02 0.  1.
</event>
<event>
 5   0  0.3270375E-05  0.1799963E+04  0.7818609E-02  0.8706319E-01
        4   -1    0    0  501    0  0.00000000000E+00  0.00000000000E+00  0.16144484888E+04  0.16144489884E+04  0.12699999809E+01 0.  1.
       -4   -1    0    0    0  501  0.00000000000E+00  0.00000000000E+00 -0.50169735409E+03  0.50169896153E+03  0.12699999809E+01 0. -1.
    10030    2    1    2    0    0  0.00000000000E+00  0.00000000000E+00  0.11127511347E+04  0.21161479499E+04  0.17999630713E+04 0.  0.
        5    1    3    3  502    0  0.39987620495E+03  0.76100398352E+03  0.24329473151E+03  0.89344415528E+03  0.46999998093E+01 0.  1.
       -5    1    3    3    0  502 -0.39987620495E+03 -0.76100398352E+03  0.86945640323E+03  0.12227037946E+04  0.46999998093E+01 0. -1.
</event>
<event>
 5   0  0.8893075E-05  0.1794907E+04  0.7818609E-02  0.8709013E-01
        2   -1    0    0  501    0  0.00000000000E+00  0.00000000000E+00  0.22896644262E+04  0.22896644262E+04  0.25500000920E-02 0.  1.
       -2   -1    0    0    0  501  0.00000000000E+00  0.00000000000E+00 -0.35176439090E+03  0.35176439091E+03  0.25500000920E-02 0. -1.
    10030    2    1    2    0    0  0.00000000000E+00  0.00000000000E+00  0.19379000353E+04  0.26414288171E+04  0.17949065851E+04 0.  0.
        1    1    3    3  502    0  0.82639116982E+03 -0.96567782867E+02  0.47387415166E+03  0.95749904119E+03  0.50400001928E-02 0.  1.
       -1    1    3    3    0  502 -0.82639116982E+03  0.96567782867E+02  0.14640258837E+04  0.16839297760E+04  0.50400001928E-02 0. -1.
</event>
<event>
 5   0  0.4535100E-05  0.1797375E+04  0.7818609E-02  0.8707696E-01
       -1   -1    0    0    0  501  0.00000000000E+00  0.00000000000E+00  0.11657308561E+04  0.11657308561E+04  0.50400001928E-02 0. -1.
        1   -1    0    0  501    0  0.00000000000E+00  0.00000000000E+00 -0.69281815903E+03  0.69281815905E+03  0.50400001928E-02 0.  1.
    10030    2    1    2    0    0  0.00000000000E+00  0.00000000000E+00  0.47291269705E+03  0.18585490151E+04  0.17973753149E+04 0.  0.
        1    1    3    3  502    0  0.76677773562E+03  0.36063225863E+03 -0.73125833282E+02  0.85050050518E+03  0.50400001928E-02 0.  1.
       -1    1    3    3    0  502 -0.76677773562E+03 -0.36063225863E+03  0.54603853033E+03  0.10080485100E+04  0.50400001928E-02 0. -1.
</event>
<event>
 5   0  0.4623665E-05  0.1806534E+04  0.7818609E-02  0.8702833E-01
       -1   -1    0    0    0  501  0.00000000000E+00  0.00000000000E+00  0.82940467715E+03  0.82940467717E+03  0.50400001928E-02 0.  1.
        1   -1    0    0  501    0  0.00000000000E+00  0.00000000000E+00 -0.98370679266E+03  0.98370679267E+03  0.50400001928E-02 0. -1.
    10030    2    1    2    0    0  0.00000000000E+00  0.00000000000E+00 -0.15430211551E+03  0.18131114698E+04  0.18065337138E+04 0.  0.
        5    1    3    3  502    0 -0.42762561044E+03 -0.65807790032E+03  0.37162213743E+03  0.86836356938E+03  0.46999998093E+01 0.  1.
       -5    1    3    3    0  502  0.42762561044E+03  0.65807790032E+03 -0.52592425294E+03  0.94474790046E+03  0.46999998093E+01 0. -1.
</event>
<event>
 5   0  0.4535100E-05  0.1789323E+04  0.7818609E-02  0.8711998E-01
       -1   -1    0    0    0  501  0.00000000000E+00  0.00000000000E+00  0.88854810454E+03  0.88854810455E+03  0.50400001928E-02 0. -1.
        1   -1    0    0  501    0  0.00000000000E+00  0.00000000000E+00 -0.90081721021E+03  0.90081721023E+03  0.50400001928E-02 0.  1.
    10030    2    1    2    0    0  0.00000000000E+00  0.00000000000E+00 -0.12269105673E+02  0.17893653148E+04  0.17893232516E+04 0.  0.
        1    1    3    3  502    0  0.28794375806E+03  0.15506096755E+03 -0.83889893566E+03  0.90039265642E+03  0.50400001928E-02 0.  1.
       -1    1    3    3    0  502 -0.28794375806E+03 -0.15506096755E+03  0.82662982999E+03  0.88897265836E+03  0.50400001928E-02 0. -1.
</event>
<event>
 5   0  0.4335117E-05  0.1787967E+04  0.7818609E-02  0.8712725E-01
        1   -1    0    0  501    0  0.00000000000E+00  0.00000000000E+00  0.88275392750E+03  0.88275392751E+03  0.50400001928E-02 0. -1.
       -1   -1    0    0    0  501  0.00000000000E+00  0.00000000000E+00 -0.90535566556E+03  0.90535566557E+03  0.50400001928E-02 0.  1.
    10030    2    1    2    0    0  0.00000000000E+00  0.00000000000E+00 -0.22601738060E+02  0.17881095931E+04  0.17879667442E+04 0.  0.
        3    1    3    3  502    0 -0.58264896724E+03  0.66447797656E+03 -0.14620219059E+03  0.89575995172E+03  0.10100000352E+00 0.  1.
       -3    1    3    3    0  502  0.58264896724E+03 -0.66447797656E+03  0.12360045253E+03  0.89234964136E+03  0.10100000352E+00 0. -1.
</event>
<event>
 5   0  0.8893075E-05  0.1794874E+04  0.7818609E-02  0.8709030E-01
        2   -1    0    0  501    0  0.00000000000E+00  0.00000000000E+00  0.82815172680E+03  0.82815172681E+03  0.25500000920E-02 0.  1.
       -2   -1    0    0    0  501  0.00000000000E+00  0.00000000000E+00 -0.97251851980E+03  0.97251851980E+03  0.25500000920E-02 0. -1.
    10030    2    1    2    0    0  0.00000000000E+00  0.00000000000E+00 -0.14436679300E+03  0.18006702466E+04  0.17948736908E+04 0.  0.
        1    1    3    3  502    0 -0.72470403443E+03  0.90611446518E+02 -0.59539092778E+03  0.94228272226E+03  0.50400001928E-02 0. -1.
       -1    1    3    3    0  502  0.72470403443E+03 -0.90611446518E+02  0.45102413479E+03  0.85838752434E+03  0.50400001928E-02 0.  1.
</event>
<event>
 5   0  0.8893075E-05  0.1800844E+04  0.7818609E-02  0.8705851E-01
       -2   -1    0    0    0  501  0.00000000000E+00  0.00000000000E+00  0.80748691168E+03  0.80748691168E+03  0.25500000920E-02 0. -1.
        2   -1    0    0  501    0  0.00000000000E+00  0.00000000000E+00 -0.10040535111E+04  0.10040535111E+04  0.25500000920E-02 0.  1.
    10030    2    1    2    0    0  0.00000000000E+00  0.00000000000E+00 -0.19656659940E+03  0.18115404228E+04  0.18008443229E+04 0.  0.
        1    1    3    3  502    0  0.69880642224E+02 -0.27787619819E+03  0.76040351593E+03  0.81259583604E+03  0.50400001928E-02 0. -1.
       -1    1    3    3    0  502 -0.69880642224E+02  0.27787619819E+03 -0.95697011533E+03  0.99894458672E+03  0.50400001928E-02 0.  1.
</event>
<event>
 5   0  0.3270375E-05  0.1799655E+04  0.7818609E-02  0.8706483E-01
        3   -1    0    0  501    0  0.00000000000E+00  0.00000000000E+00  0.47771090553E+03  0.47771091621E+03  0.10100000352E+00 0. -1.
       -3   -1    0    0    0  501  0.00000000000E+00  0.00000000000E+00 -0.16949359341E+04  0.16949359371E+04  0.10100000352E+00 0.  1.
    10030    2    1    2    0    0  0.00000000000E+00  0.00000000000E+00 -0.12172250285E+04  0.21726468533E+04  0.17996548500E+04 0.  0.
        1    1    3    3  502    0 -0.21026852822E+03  0.13894826660E+03  0.43423014523E+03  0.50207100474E+03  0.50400001928E-02 0. -1.
       -1    1    3    3    0  502  0.21026852822E+03 -0.13894826660E+03 -0.16514551738E+04  0.16705758486E+04  0.50400001928E-02 0.  1.
</event>
<event>
 5   0  0.8892280E-05  0.1799510E+04  0.7818609E-02  0.8706560E-01
       -2   -1    0    0    0  501  0.00000000000E+00  0.00000000000E+00  0.38684984443E+03  0.38684984444E+03  0.25500000920E-02 0.  1.
        2   -1    0    0  501    0  0.00000000000E+00  0.00000000000E+00 -0.20926949158E+04  0.20926949158E+04  0.25500000920E-02 0. -1.
    10030    2    1    2    0    0  0.00000000000E+00  0.00000000000E+00 -0.17058450713E+04  0.24795447602E+04  0.17995096028E+04 0.  0.
        4    1    3    3  502    0  0.82929973926E+03 -0.31073352133E+03 -0.10719337511E+04  0.13904448779E+04  0.12699999809E+01 0. -1.
       -4    1    3    3    0  502 -0.82929973926E+03  0.31073352133E+03 -0.63391132022E+03  0.10890998823E+04  0.12699999809E+01 0.  1.
</event>
<event>
 5   0  0.4578107E-05  0.1802811E+04  0.7818609E-02  0.8704806E-01
        1   -1    0    0  501    0  0.00000000000E+00  0.00000000000E+00  0.89773746199E+03  0.89773746201E+03  0.50400001928E-02 0.  1.
       -1   -1    0    0    0  501  0.00000000000E+00  0.00000000000E+00 -0.90508866481E+03  0.90508866483E+03  0.50400001928E-02 0. -1.
    10030    2    1    2    0    0  0.00000000000E+00  0.00000000000E+00 -0.73512028203E+01  0.18028261268E+04  0.18028111391E+04 0.  0.
        2    1    3    3  502    0  0.79640708656E+03  0.32038259714E+03 -0.27867378716E+03  0.90253439587E+03  0.25500000920E-02 0. -1.
       -2    1    3    3    0  502 -0.79640708656E+03 -0.32038259714E+03  0.27132258434E+03  0.90029173097E+03  0.25500000920E-02 0.  1.
</event>
<event>
 5   0  0.9184414E-05  0.1798336E+04  0.7818609E-02  0.8707185E-01
        2   -1    0    0  501    0  0.00000000000E+00  0.00000000000E+00  0.36736747158E+03  0.36736747158E+03  0.25500000920E-02 0.  1.
       -2   -1    0    0    0  501  0.00000000000E+00  0.00000000000E+00 -0.22008023776E+04  0.22008023776E+04  0.25500000920E-02 0. -1.
    10030    2    1    2    0    0  0.00000000000E+00  0.00000000000E+00 -0.18334349060E+04  0.25681698492E+04  0.17983361253E+04 0.  0.
        5    1    3    3  502    0 -0.76721013917E+03  0.36468582915E+03 -0.49579926526E+03  0.98358840633E+03  0.46999998093E+01 0. -1.
       -5    1    3    3    0  502  0.76721013917E+03 -0.36468582915E+03 -0.13376356408E+04  0.15845814429E+04  0.46999998093E+01 0.  1.
</event>
<event>
 5   0  0.9184414E-05  0.1798382E+04  0.7818609E-02  0.8707160E-01
       -2   -1    0    0    0  501  0.00000000000E+00  0.00000000000E+00  0.43618558542E+03  0.43618558542E+03  0.25500000920E-02 0.  1.
        2   -1    0    0  501    0  0.00000000000E+00  0.00000000000E+00 -0.18536707827E+04  0.18536707827E+04  0.25500000920E-02 0. -1.
    10030    2    1    2    0    0  0.00000000000E+00  0.00000000000E+00 -0.14174851973E+04  0.22898563681E+04  0.17983820234E+04 0.  0.
        5    1    3    3  502    0  0.47772835043E+03 -0.65019424472E+03 -0.20334959479E+03  0.83207576600E+03  0.46999998093E+01 0.  1.
       -5    1    3    3    0  502 -0.47772835043E+03  0.65019424472E+03 -0.12141356025E+04  0.14577806021E+04  0.46999998093E+01 0. -1.
</event>
<event>
 5   0  0.9147432E-05  0.1794411E+04  0.7818609E-02  0.8709277E-01
        2   -1    0    0  501    0  0.00000000000E+00  0.00000000000E+00  0.25766584492E+04  0.25766584492E+04  0.25500000920E-02 0.  1.
       -2   -1    0    0    0  501  0.00000000000E+00  0.00000000000E+00 -0.31241138405E+03  0.31241138406E+03  0.25500000920E-02 0. -1.
    10030    2    1    2    0    0  0.00000000000E+00  0.00000000000E+00  0.22642470652E+04  0.28890698333E+04  0.17944106914E+04 0.  0.
        3    1    3    3  502    0 -0.38966722709E+03 -0.53992876791E+03  0.16393777619E+03  0.68573991203E+03  0.10100000352E+00 0. -1.
       -3    1    3    3    0  502  0.38966722709E+03  0.53992876791E+03  0.21003092890E+04  0.22033299212E+04  0.10100000352E+00 0.  1.
</event>
<event>
 5   0  0.9184414E-05  0.1797071E+04  0.7818609E-02  0.8707859E-01
       -2   -1    0    0    0  501  0.00000000000E+00  0.00000000000E+00  0.80697848165E+03  0.80697848166E+03  0.25500000920E-02 0. -1.
        2   -1    0    0  501    0  0.00000000000E+00  0.00000000000E+00 -0.10004801825E+04  0.10004801825E+04  0.25500000920E-02 0.  1.
    10030    2    1    2    0    0  0.00000000000E+00  0.00000000000E+00 -0.19350170085E+03  0.18074586642E+04  0.17970709264E+04 0.  0.
        5    1    3    3  502    0 -0.80732894658E+03 -0.35232911766E+03  0.81553482736E+02  0.88464054603E+03  0.46999998093E+01 0. -1.
       -5    1    3    3    0  502  0.80732894658E+03  0.35232911766E+03 -0.27505518359E+03  0.92281811813E+03  0.46999998093E+01 0.  1.
</event>
<event>
 5   0  0.8802655E-05  0.1801213E+04  0.7818609E-02  0.8705655E-01
        2   -1    0    0  501    0  0.00000000000E+00  0.00000000000E+00  0.76377485354E+03  0.76377485355E+03  0.25500000920E-02 0.  1.
       -2   -1    0    0    0  501  0.00000000000E+00  0.00000000000E+00 -0.10619515345E+04  0.10619515345E+04  0.25500000920E-02 0. -1.
    10030    2    1    2    0    0  0.00000000000E+00  0.00000000000E+00 -0.29817668099E+03  0.18257263881E+04  0.18012127889E+04 0.  0.
        2    1    3    3  502    0 -0.50213727801E+03  0.54999178787E+03  0.36422162774E+03  0.82902967789E+03  0.25500000920E-02 0.  1.
       -2    1    3    3    0  502  0.50213727801E+03 -0.54999178787E+03 -0.66239830874E+03  0.99669671020E+03  0.25500000920E-02 0. -1.
</event>
<event>
 5   0  0.9184414E-05  0.1728443E+04  0.7818609E-02  0.8745307E-01
       -2   -1    0    0    0  501  0.00000000000E+00  0.00000000000E+00  0.10749380738E+04  0.10749380738E+04  0.25500000920E-02 0. -1.
        2   -1    0    0  501    0  0.00000000000E+00  0.00000000000E+00 -0.69481082806E+03  0.69481082806E+03  0.25500000920E-02 0.  1.
    10030    2    1    2    0    0  0.00000000000E+00  0.00000000000E+00  0.38012724576E+03  0.17697489019E+04  0.17284427826E+04 0.  0.
        5    1    3    3  502    0  0.59933280395E+03  0.37321796882E+03  0.70033580677E+03  0.99447664346E+03  0.46999998093E+01 0. -1.
       -5    1    3    3    0  502 -0.59933280395E+03 -0.37321796882E+03 -0.32020856101E+03  0.77527225842E+03  0.46999998093E+01 0.  1.
</event>
<event>
 5   0  0.8802655E-05  0.1801323E+04  0.7818609E-02  0.8705596E-01
       -2   -1    0    0    0  501  0.00000000000E+00  0.00000000000E+00  0.15574380281E+04  0.15574380281E+04  0.25500000920E-02 0. -1.
        2   -1    0    0  501    0  0.00000000000E+00  0.00000000000E+00 -0.52084961393E+03  0.52084961394E+03  0.25500000920E-02 0.  1.
    10030    2    1    2    0    0  0.00000000000E+00  0.00000000000E+00  0.10365884142E+04  0.20782876420E+04  0.18013228424E+04 0.  0.
        2    1    3    3  502    0  0.60016597213E+02 -0.34777770856E+02 -0.51776325001E+03  0.52238900099E+03  0.25500000920E-02 0.  1.
       -2    1    3    3    0  502 -0.60016597213E+02  0.34777770856E+02  0.15543516642E+04  0.15558986410E+04  0.25500000920E-02 0. -1.
</event>
<event>
 5   0  0.8892280E-05  0.1804604E+04  0.7818609E-02  0.8703855E-01
        2   -1    0    0  501    0  0.00000000000E+00  0.00000000000E+00  0.19159986847E+04  0.19159986847E+04  0.25500000920E-02 0.  1.
       -2   -1    0    0    0  501  0.00000000000E+00  0.00000000000E+00 -0.42492163901E+03  0.42492163902E+03  0.25500000920E-02 0. -1.
    10030    2    1    2    0    0  0.00000000000E+00  0.00000000000E+00  0.14910770457E+04  0.23409203238E+04  0.18046044458E+04 0.  0.
        4    1    3    3  502    0  0.78323195681E+03  0.20417833285E+03  0.12628024387E+04  0.14999375660E+04  0.12699999809E+01 0.  1.
       -4    1    3    3    0  502 -0.78323195681E+03 -0.20417833285E+03  0.22827460705E+03  0.84098275779E+03  0.12699999809E+01 0. -1.
</event>
<event>
 5   0  0.8893075E-05  0.1800153E+04  0.7818609E-02  0.8706218E-01
       -2   -1    0    0    0  501  0.00000000000E+00  0.00000000000E+00  0.66033188879E+03  0.66033188879E+03  0.25500000920E-02 0.  1.
        2   -1    0    0  501    0  0.00000000000E+00  0.00000000000E+00 -0.12268649595E+04  0.12268649595E+04  0.25500000920E-02 0. -1.
    10030    2    1    2    0    0  0.00000000000E+00  0.00000000000E+00 -0.56653307075E+03  0.18871968483E+04  0.18001533891E+04 0.  0.
        1    1    3    3  502    0  0.15630283972E+03 -0.86079016315E+03 -0.50503173964E+03  0.10101719362E+04  0.50400001928E-02 0. -1.
       -1    1    3    3    0  502 -0.15630283972E+03  0.86079016315E+03 -0.61501331106E+02  0.87702491210E+03  0.50400001928E-02 0.  1.
</event>
<event>
 5   0  0.4535100E-05  0.1801498E+04  0.7818609E-02  0.8705503E-01
        1   -1    0    0  501    0  0.00000000000E+00  0.00000000000E+00  0.15891148413E+04  0.15891148413E+04  0.50400001928E-02 0.  1.
       -1   -1    0    0    0  501  0.00000000000E+00  0.00000000000E+00 -0.51056636649E+03  0.51056636651E+03  0.50400001928E-02 0. -1.
    10030    2    1    2    0    0  0.00000000000E+00  0.00000000000E+00  0.10785484748E+04  0.20996812078E+04  0.18014978107E+04 0.  0.
        1    1    3    3  502    0 -0.65064080588E+03  0.41845047444E+03  0.10770758144E+04  0.13260944792E+04  0.50400001928E-02 0.  1.
       -1    1    3    3    0  502  0.65064080588E+03 -0.41845047444E+03  0.14726603693E+01  0.77358672855E+03  0.50400001928E-02 0. -1.
</event>
<event>
 5   0  0.4623665E-05  0.1803116E+04  0.7818609E-02  0.8704644E-01
       -1   -1    0    0    0  501  0.00000000000E+00  0.00000000000E+00  0.40383577802E+03  0.40383577805E+03  0.50400001928E-02 0. -1.
        1   -1    0    0  501    0  0.00000000000E+00  0.00000000000E+00 -0.20127154063E+04  0.20127154063E+04  0.50400001928E-02 0.  1.
    10030    2    1    2    0    0  0.00000000000E+00  0.00000000000E+00 -0.16088796283E+04  0.24165511843E+04  0.18031156281E+04 0.  0.
        5    1    3    3  502    0  0.18253315789E+03 -0.70974996011E+03 -0.15081719389E+04  0.16768029243E+04  0.46999998093E+01 0.  1.
       -5    1    3    3    0  502 -0.18253315789E+03  0.70974996011E+03 -0.10070768940E+03  0.73974826009E+03  0.46999998093E+01 0. -1.
</event>
<event>
 5   0  0.4578107E-05  0.1801005E+04  0.7818609E-02  0.8705765E-01
        1   -1    0    0  501    0  0.00000000000E+00  0.00000000000E+00  0.80100400328E+03  0.80100400330E+03  0.50400001928E-02 0.  1.
       -1   -1    0    0    0  501  0.00000000000E+00  0.00000000000E+00 -0.10123604637E+04  0.10123604637E+04  0.50400001928E-02 0. -1.
    10030    2    1    2    0    0  0.00000000000E+00  0.00000000000E+00 -0.21135646045E+03  0.18133644670E+04  0.18010050352E+04 0.  0.
        2    1    3    3  502    0  0.49502141101E+03  0.13076549051E+03 -0.85154454184E+03  0.99361658481E+03  0.25500000920E-02 0. -1.
       -2    1    3    3    0  502 -0.49502141101E+03 -0.13076549051E+03  0.64018808138E+03  0.81974788223E+03  0.25500000920E-02 0.  1.
</event>
<event>
 5   0  0.4623665E-05  0.1800947E+04  0.7818609E-02  0.8705796E-01
       -1   -1    0    0    0  501  0.00000000000E+00  0.00000000000E+00  0.39946003303E+03  0.39946003306E+03  0.50400001928E-02 0. -1.
        1   -1    0    0  501    0  0.00000000000E+00  0.00000000000E+00 -0.20298724723E+04  0.20298724723E+04  0.50400001928E-02 0.  1.
    10030    2    1    2    0    0  0.00000000000E+00  0.00000000000E+00 -0.16304124393E+04  0.24293325054E+04  0.18009474450E+04 0.  0.
        5    1    3    3  502    0  0.35981464079E+03  0.20203574131E+03 -0.18948016110E+04  0.19392215581E+04  0.46999998093E+01 0.  1.
       -5    1    3    3    0  502 -0.35981464079E+03 -0.20203574131E+03  0.26438917172E+03  0.49011094725E+03  0.46999998093E+01 0. -1.
</event>
<event>
 5   0  0.8893075E-05  0.1794171E+04  0.7818609E-02  0.8709405E-01
        2   -1    0    0  501    0  0.00000000000E+00  0.00000000000E+00  0.59779847165E+03  0.59779847166E+03  0.25500000920E-02 0.  1.
       -2   -1    0    0    0  501  0.00000000000E+00  0.00000000000E+00 -0.13462104593E+04  0.13462104593E+04  0.25500000920E-02 0. -1.
    10030    2    1    2    0    0  0.00000000000E+00  0.00000000000E+00 -0.74841198761E+03  0.19440089309E+04  0.17941711792E+04 0.  0.
        1    1    3    3  502    0 -0.27984226683E+02  0.55969156973E+03 -0.11332262678E+04  0.12642149913E+04  0.50400001928E-02 0. -1.
       -1    1    3    3    0  502  0.27984226683E+02 -0.55969156973E+03  0.38481428014E+03  0.67979393966E+03  0.50400001928E-02 0.  1.
</event>
<event>
 5   0  0.8892280E-05  0.1804757E+04  0.7818609E-02  0.8703774E-01
        2   -1    0    0  501    0  0.00000000000E+00  0.00000000000E+00  0.12624254813E+04  0.12624254813E+04  0.25500000920E-02 0.  1.
       -2   -1    0    0    0  501  0.00000000000E+00  0.00000000000E+00 -0.64501784015E+03  0.64501784015E+03  0.25500000920E-02 0. -1.
    10030    2    1    2    0    0  0.00000000000E+00  0.00000000000E+00  0.61740764111E+03  0.19074433214E+04  0.18047570000E+04 0.  0.
        4    1    3    3  502    0 -0.43205675168E+03  0.31137506068E+03 -0.46120663164E+03  0.70451446759E+03  0.12699999809E+01 0. -1.
       -4    1    3    3    0  502  0.43205675168E+03 -0.31137506068E+03  0.10786142727E+04  0.12029288538E+04  0.12699999809E+01 0.  1.
</event>
<event>
 5   0  0.4494757E-05  0.1804613E+04  0.7818609E-02  0.8703850E-01
       -1   -1    0    0    0  501  0.00000000000E+00  0.00000000000E+00  0.73777048746E+03  0.73777048748E+03  0.50400001928E-02 0. -1.
        1   -1    0    0  501    0  0.00000000000E+00  0.00000000000E+00 -0.11035365031E+04  0.11035365031E+04  0.50400001928E-02 0.  1.
    10030    2    1    2    0    0  0.00000000000E+00  0.00000000000E+00 -0.36576601568E+03  0.18413069906E+04  0.18046126054E+04 0.  0.
        4    1    3    3  502    0 -0.67604717447E+03  0.59588336770E+03 -0.22894834338E+03  0.92980413360E+03  0.12699999809E+01 0.  1.
       -4    1    3    3    0  502  0.67604717447E+03 -0.59588336770E+03 -0.13681767230E+03  0.91150285703E+03  0.12699999809E+01 0. -1.
</event>
<event>
 5   0  0.4578107E-05  0.1777066E+04  0.7818609E-02  0.8718591E-01
        1   -1    0    0  501    0  0.00000000000E+00  0.00000000000E+00  0.59359643086E+03  0.59359643088E+03  0.50400001928E-02 0.  1.
       -1   -1    0    0    0  501  0.00000000000E+00  0.00000000000E+00 -0.13300135064E+04  0.13300135064E+04  0.50400001928E-02 0. -1.
    10030    2    1    2    0    0  0.00000000000E+00  0.00000000000E+00 -0.73641707549E+03  0.19236099372E+04  0.17770664258E+04 0.  0.
        2    1    3    3  502    0 -0.46825298141E+03  0.43970349623E+03  0.29633184655E+03  0.70739846090E+03  0.25500000920E-02 0.  1.
       -2    1    3    3    0  502  0.46825298141E+03 -0.43970349623E+03 -0.10327489220E+04  0.12162114763E+04  0.25500000920E-02 0. -1.
</event>
<event>
 5   0  0.4578107E-05  0.1808207E+04  0.7818609E-02  0.8701947E-01
       -1   -1    0    0    0  501  0.00000000000E+00  0.00000000000E+00  0.86875049785E+03  0.86875049787E+03  0.50400001928E-02 0. -1.
        1   -1    0    0  501    0  0.00000000000E+00  0.00000000000E+00 -0.94089493175E+03  0.94089493176E+03  0.50400001928E-02 0.  1.
    10030    2    1    2    0    0  0.00000000000E+00  0.00000000000E+00 -0.72144433897E+02  0.18096454296E+04  0.18082067807E+04 0.  0.
        2    1    3    3  502    0 -0.76970962371E+03  0.33988833319E+03 -0.36713134939E+03  0.91802092111E+03  0.25500000920E-02 0.  1.
       -2    1    3    3    0  502  0.76970962371E+03 -0.33988833319E+03  0.29498691549E+03  0.89162450852E+03  0.25500000920E-02 0. -1.
</event>
<event>
 5   0  0.8802655E-05  0.1803746E+04  0.7818609E-02  0.8704310E-01
        2   -1    0    0  501    0  0.00000000000E+00  0.00000000000E+00  0.12278501772E+04  0.12278501772E+04  0.25500000920E-02 0. -1.
       -2   -1    0    0    0  501  0.00000000000E+00  0.00000000000E+00 -0.66243824578E+03  0.66243824579E+03  0.25500000920E-02 0.  1.
    10030    2    1    2    0    0  0.00000000000E+00  0.00000000000E+00  0.56541193143E+03  0.18902884230E+04  0.18037460104E+04 0.  0.
        2    1    3    3  502    0  0.51064273429E+03  0.58854585159E+03  0.75862322025E+03  0.10874977755E+04  0.25500000920E-02 0. -1.
       -2    1    3    3    0  502 -0.51064273429E+03 -0.58854585159E+03 -0.19321128882E+03  0.80279064746E+03  0.25500000920E-02 0.  1.
</event>
<event>
 5   0  0.4535100E-05  0.1799301E+04  0.7818609E-02  0.8706671E-01
        1   -1    0    0  501    0  0.00000000000E+00  0.00000000000E+00  0.21352981165E+04  0.21352981165E+04  0.50400001928E-02 0. -1.
       -1   -1    0    0    0  501  0.00000000000E+00  0.00000000000E+00 -0.37904358668E+03  0.37904358672E+03  0.50400001928E-02 0.  1.
    10030    2    1    2    0    0  0.00000000000E+00  0.00000000000E+00  0.17562545298E+04  0.25143417032E+04  0.17993010385E+04 0.  0.
        1    1    3    3  502    0 -0.25987763295E+03  0.33127669693E+03 -0.23286253871E+03  0.48115028421E+03  0.50400001928E-02 0.  1.
       -1    1    3    3    0  502  0.25987763295E+03 -0.33127669693E+03  0.19891170685E+04  0.20331914190E+04  0.50400001928E-02 0. -1.
</event>
<event>
 5   0  0.4578107E-05  0.1797444E+04  0.7818609E-02  0.8707660E-01
       -1   -1    0    0    0  501  0.00000000000E+00  0.00000000000E+00  0.16869817642E+04  0.16869817642E+04  0.50400001928E-02 0.  1.
        1   -1    0    0  501    0  0.00000000000E+00  0.00000000000E+00 -0.47878494516E+03  0.47878494519E+03  0.50400001928E-02 0. -1.
    10030    2    1    2    0    0  0.00000000000E+00  0.00000000000E+00  0.12081968190E+04  0.21657667094E+04  0.17974442651E+04 0.  0.
        2    1    3    3  502    0  0.46095818422E+03  0.11410856398E+03  0.15234712976E+04  0.15957656490E+04  0.25500000920E-02 0.  1.
       -2    1    3    3    0  502 -0.46095818422E+03 -0.11410856398E+03 -0.31527447857E+03  0.57000106037E+03  0.25500000920E-02 0. -1.
</event>
<event>
 5   0  0.4335117E-05  0.1794086E+04  0.7818609E-02  0.8709451E-01
        1   -1    0    0  501    0  0.00000000000E+00  0.00000000000E+00  0.11137114510E+04  0.11137114510E+04  0.50400001928E-02 0. -1.
       -1   -1    0    0    0  501  0.00000000000E+00  0.00000000000E+00 -0.72252678176E+03  0.72252678178E+03  0.50400001928E-02 0.  1.
    10030    2    1    2    0    0  0.00000000000E+00  0.00000000000E+00  0.39118466921E+03  0.18362382328E+04  0.17940862304E+04 0.  0.
        3    1    3    3  502    0 -0.62150083119E+03 -0.60786155062E+03 -0.30800015621E+02  0.86988941772E+03  0.10100000352E+00 0. -1.
       -3    1    3    3    0  502  0.62150083119E+03  0.60786155062E+03  0.42198468483E+03  0.96634881504E+03  0.10100000352E+00 0.  1.
</event>
<event>
 5   0  0.4494757E-05  0.1798770E+04  0.7818609E-02  0.8706954E-01
       -1   -1    0    0    0  501  0.00000000000E+00  0.00000000000E+00  0.63135526565E+03  0.63135526567E+03  0.50400001928E-02 0. -1.
        1   -1    0    0  501    0  0.00000000000E+00  0.00000000000E+00 -0.12812022235E+04  0.12812022235E+04  0.50400001928E-02 0.  1.
    10030    2    1    2    0    0  0.00000000000E+00  0.00000000000E+00 -0.64984695787E+03  0.19125574892E+04  0.17987704358E+04 0.  0.
        4    1    3    3  502    0 -0.31987425546E+03 -0.44485371712E+03  0.43340985147E+03  0.69861296953E+03  0.12699999809E+01 0. -1.
       -4    1    3    3    0  502  0.31987425546E+03  0.44485371712E+03 -0.10832568093E+04  0.12139445197E+04  0.12699999809E+01 0.  1.
</event>
<event>
 5   0  0.8892280E-05  0.1801906E+04  0.7818609E-02  0.8705287E-01
       -2   -1    0    0    0  501  0.00000000000E+00  0.00000000000E+00  0.90146295850E+03  0.90146295851E+03  0.25500000920E-02 0. -1.
        2   -1    0    0  501    0  0.00000000000E+00  0.00000000000E+00 -0.90044327818E+03  0.90044327818E+03  0.25500000920E-02 0.  1.
    10030    2    1    2    0    0  0.00000000000E+00  0.00000000000E+00  0.10196803228E+01  0.18019062367E+04  0.18019059482E+04 0.  0.
        4    1    3    3  502    0  0.77659328015E+03 -0.77411053018E+01  0.45719098486E+03  0.90121154954E+03  0.12699999809E+01 0. -1.
       -4    1    3    3    0  502 -0.77659328015E+03  0.77411053018E+01 -0.45617130454E+03  0.90069468715E+03  0.12699999809E+01 0.  1.
</event>
<event>
 5   0  0.8802655E-05  0.1805268E+04  0.7818609E-02  0.8703503E-01
        2   -1    0    0  501    0  0.00000000000E+00  0.00000000000E+00  0.81568301351E+03  0.81568301351E+03  0.25500000920E-02 0.  1.
       -2   -1    0    0    0  501  0.00000000000E+00  0.00000000000E+00 -0.99885423962E+03  0.99885423963E+03  0.25500000920E-02 0. -1.
    10030    2    1    2    0    0  0.00000000000E+00  0.00000000000E+00 -0.18317122611E+03  0.18145372531E+04  0.18052683305E+04 0.  0.
        2    1    3    3  502    0  0.81045367311E+03  0.43466922154E+02 -0.48861229967E+03  0.94734709002E+03  0.25500000920E-02 0. -1.
       -2    1    3    3    0  502 -0.81045367311E+03 -0.43466922154E+02  0.30544107356E+03  0.86719016311E+03  0.25500000920E-02 0.  1.
</event>
<event>
 5   0  0.9184414E-05  0.1804130E+04  0.7818609E-02  0.8704106E-01
       -2   -1    0    0    0  501  0.00000000000E+00  0.00000000000E+00  0.54228854720E+03  0.54228854721E+03  0.25500000920E-02 0. -1.
        2   -1    0    0  501    0  0.00000000000E+00  0.00000000000E+00 -0.15005312215E+04  0.15005312215E+04  0.25500000920E-02 0.  1.
    10030    2    1    2    0    0  0.00000000000E+00  0.00000000000E+00 -0.95824267430E+03  0.20428197687E+04  0.18041295920E+04 0.  0.
        5    1    3    3  502    0 -0.52330044222E+03 -0.23671724600E+03  0.30847630890E+03  0.65196482308E+03  0.46999998093E+01 0. -1.
       -5    1    3    3    0  502  0.52330044222E+03  0.23671724600E+03 -0.12667189832E+04  0.13908549456E+04  0.46999998093E+01 0.  1.
</event>
<event>
 5   0  0.9147432E-05  0.1800642E+04  0.7818609E-02  0.8705958E-01
        2   -1    0    0  501    0  0.00000000000E+00  0.00000000000E+00  0.94968017776E+03  0.94968017776E+03  0.25500000920E-02 0. -1.
       -2   -1    0    0    0  501  0.00000000000E+00  0.00000000000E+00 -0.85352725770E+03  0.85352725771E+03  0.25500000920E-02 0.  1.
    10030    2    1    2    0    0  0.00000000000E+00  0.00000000000E+00  0.96152920056E+02  0.18032074355E+04  0.18006420164E+04 0.  0.
        3    1    3    3  502    0  0.42851563737E+02 -0.72403650701E+03 -0.48608088560E+03  0.87312070045E+03  0.10100000352E+00 0.  1.
       -3    1    3    3    0  502 -0.42851563737E+02  0.72403650701E+03  0.58223380566E+03  0.93008673502E+03  0.10100000352E+00 0. -1.
</event>
<event>
 5   0  0.8893075E-05  0.1801256E+04  0.7818609E-02  0.8705632E-01
        2   -1    0    0  501    0  0.00000000000E+00  0.00000000000E+00  0.14222827229E+04  0.14222827229E+04  0.25500000920E-02 0.  1.
       -2   -1    0    0    0  501  0.00000000000E+00  0.00000000000E+00 -0.57030206322E+03  0.57030206322E+03  0.25500000920E-02 0. -1.
    10030    2    1    2    0    0  0.00000000000E+00  0.00000000000E+00  0.85198065970E+03  0.19925847861E+04  0.18012559744E+04 0.  0.
        1    1    3    3  502    0 -0.61474058420E+03 -0.13105198359E+03  0.11395235936E+04  0.13013818151E+04  0.50400001928E-02 0.  1.
       -1    1    3    3    0  502  0.61474058420E+03  0.13105198359E+03 -0.28754293393E+03  0.69120297102E+03  0.50400001928E-02 0. -1.
</event>
<event>
 5   0  0.4335117E-05  0.1799598E+04  0.7818609E-02  0.8706513E-01
        1   -1    0    0  501    0  0.00000000000E+00  0.00000000000E+00  0.20110868410E+04  0.20110868410E+04  0.50400001928E-02 0. -1.
       -1   -1    0    0    0  501  0.00000000000E+00  0.00000000000E+00 -0.40258745878E+03  0.40258745881E+03  0.50400001928E-02 0.  1.
    10030    2    1    2    0    0  0.00000000000E+00  0.00000000000E+00  0.16084993822E+04  0.24136742998E+04  0.17995981115E+04 0.  0.
        3    1    3    3  502    0  0.52715651216E+03  0.37040749766E+03  0.16467112705E+04  0.17682629107E+04  0.10100000352E+00 0. -1.
       -3    1    3    3    0  502 -0.52715651216E+03 -0.37040749766E+03 -0.38211888289E+02  0.64541138915E+03  0.10100000352E+00 0.  1.
</event>
<event>
 5   0  0.4335117E-05  0.1801498E+04  0.7818609E-02  0.8705503E-01
       -1   -1    0    0    0  501  0.00000000000E+00  0.00000000000E+00  0.66004618069E+03  0.66004618071E+03  0.50400001928E-02 0.  1.
        1   -1    0    0  501    0  0.00000000000E+00  0.00000000000E+00 -0.12292306655E+04  0.12292306655E+04  0.50400001928E-02 0. -1.
    10030    2    1    2    0    0  0.00000000000E+00  0.00000000000E+00 -0.56918448477E+03  0.18892768462E+04  0.18014982719E+04 0.  0.
        3    1    3    3  502    0 -0.40980672736E+03  0.69355726484E+03  0.13801382364E+03  0.81731943518E+03  0.10100000352E+00 0.  1.
       -3    1    3    3    0  502  0.40980672736E+03 -0.69355726484E+03 -0.70719830841E+03  0.10719574110E+04  0.10100000352E+00 0. -1.
</event>
<event>
 5   0  0.9184414E-05  0.1787419E+04  0.7818609E-02  0.8713019E-01
       -2   -1    0    0    0  501  0.00000000000E+00  0.00000000000E+00  0.41444106208E+03  0.41444106208E+03  0.25500000920E-02 0.  1.
        2   -1    0    0  501    0  0.00000000000E+00  0.00000000000E+00 -0.19272138608E+04  0.19272138608E+04  0.25500000920E-02 0. -1.
    10030    2    1    2    0    0  0.00000000000E+00  0.00000000000E+00 -0.15127727987E+04  0.23416549228E+04  0.17874188757E+04 0.  0.
        5    1    3    3  502    0 -0.59568004686E+02  0.69115317531E+03 -0.18250114872E+02  0.69397133631E+03  0.46999998093E+01 0.  1.
       -5    1    3    3    0  502  0.59568004686E+02 -0.69115317531E+03 -0.14945226838E+04  0.16476835865E+04  0.46999998093E+01 0. -1.
</event>
<event>
 5   0  0.4494757E-05  0.1805887E+04  0.7818609E-02  0.8703175E-01
       -1   -1    0    0    0  501  0.00000000000E+00  0.00000000000E+00  0.58862146299E+03  0.58862146301E+03  0.50400001928E-02 0. -1.
        1   -1    0    0  501    0  0.00000000000E+00  0.00000000000E+00 -0.13851126576E+04  0.13851126576E+04  0.50400001928E-02 0.  1.
    10030    2    1    2    0    0  0.00000000000E+00  0.00000000000E+00 -0.79649119463E+03  0.19737341206E+04  0.18058870828E+04 0.  0.
        4    1    3    3  502    0  0.79889515044E+03 -0.40317258089E+03 -0.52996164963E+03  0.10400204586E+04  0.12699999809E+01 0.  1.
       -4    1    3    3    0  502 -0.79889515044E+03  0.40317258089E+03 -0.26652954500E+03  0.93371366202E+03  0.12699999809E+01 0. -1.
</event>
<event>
 5   0  0.8893075E-05  0.1803725E+04  0.7818609E-02  0.8704321E-01
        2   -1    0    0  501    0  0.00000000000E+00  0.00000000000E+00  0.13638318985E+04  0.13638318985E+04  0.25500000920E-02 0.  1.
       -2   -1    0    0    0  501  0.00000000000E+00  0.00000000000E+00 -0.59637580057E+03  0.59637580057E+03  0.25500000920E-02 0. -1.
    10030    2    1    2    0    0  0.00000000000E+00  0.00000000000E+00  0.76745609797E+03  0.19602076991E+04  0.18037254118E+04 0.  0.
        1    1    3    3  502    0  0.53087163193E+03 -0.51464520680E+03 -0.17747541720E+03  0.76038273402E+03  0.50400001928E-02 0. -1.
       -1    1    3    3    0  502 -0.53087163193E+03  0.51464520680E+03  0.94493151517E+03  0.11998249651E+04  0.50400001928E-02 0.  1.
</event>
<event>
 5   0  0.9147432E-05  0.1801150E+04  0.7818609E-02  0.8705688E-01
       -2   -1    0    0    0  501  0.00000000000E+00  0.00000000000E+00  0.86683484388E+03  0.86683484388E+03  0.25500000920E-02 0. -1.
        2   -1    0    0  501    0  0.00000000000E+00  0.00000000000E+00 -0.93562866997E+03  0.93562866998E+03  0.25500000920E-02 0.  1.
    10030    2    1    2    0    0  0.00000000000E+00  0.00000000000E+00 -0.68793826095E+02  0.18024635139E+04  0.18011502237E+04 0.  0.
        3    1    3    3  502    0  0.32111932166E+03 -0.14764824974E+03  0.79452938878E+03  0.86959449414E+03  0.10100000352E+00 0. -1.
       -3    1    3    3    0  502 -0.32111932166E+03  0.14764824974E+03 -0.86332321488E+03  0.93286901972E+03  0.10100000352E+00 0.  1.
</event>
<event>
 5   0  0.4335117E-05  0.1798572E+04  0.7818609E-02  0.8707059E-01
        1   -1    0    0  501    0  0.00000000000E+00  0.00000000000E+00  0.57723395291E+03  0.57723395293E+03  0.50400001928E-02 0.  1.
       -1   -1    0    0    0  501  0.00000000000E+00  0.00000000000E+00 -0.14010178983E+04  0.14010178983E+04  0.50400001928E-02 0. -1.
    10030    2    1    2    0    0  0.00000000000E+00  0.00000000000E+00 -0.82378394541E+03  0.19782518513E+04  0.17985717662E+04 0.  0.
        3    1    3    3  502    0 -0.38265251087E+03  0.40452852689E+03 -0.11885882174E+04  0.13125578974E+04  0.10100000352E+00 0. -1.
       -3    1    3    3    0  502  0.38265251087E+03 -0.40452852689E+03  0.36480427204E+03  0.66569395388E+03  0.10100000352E+00 0.  1.
</event>
<event>
 5   0  0.9147432E-05  0.1802503E+04  0.7818609E-02  0.8704970E-01
        2   -1    0    0  501    0  0.00000000000E+00  0.00000000000E+00  0.54491579745E+03  0.54491579746E+03  0.25500000920E-02 0. -1.
       -2   -1    0    0    0  501  0.00000000000E+00  0.00000000000E+00 -0.14906045230E+04  0.14906045230E+04  0.25500000920E-02 0.  1.
    10030    2    1    2    0    0  0.00000000000E+00  0.00000000000E+00 -0.94568872556E+03  0.20355203205E+04  0.18025026517E+04 0.  0.
        3    1    3    3  502    0  0.97368572109E+02  0.48361655725E+03  0.37890740183E+03  0.62204215504E+03  0.10100000352E+00 0. -1.
       -3    1    3    3    0  502 -0.97368572109E+02 -0.48361655725E+03 -0.13245961274E+04  0.14134781654E+04  0.10100000352E+00 0.  1.
</event>
<event>
 5   0  0.8893075E-05  0.1809635E+04  0.7818609E-02  0.8701192E-01
        2   -1    0    0  501    0  0.00000000000E+00  0.00000000000E+00  0.11015241859E+04  0.11015241859E+04  0.25500000920E-02 0.  1.
       -2   -1    0    0    0  501  0.00000000000E+00  0.00000000000E+00 -0.74323820893E+03  0.74323820894E+03  0.25500000920E-02 0. -1.
    10030    2    1    2    0    0  0.00000000000E+00  0.00000000000E+00  0.35828597692E+03  0.18447623948E+04  0.18096351710E+04 0.  0.
        1    1    3    3  502    0 -0.82651339908E+03 -0.26766123840E+03 -0.78604661749E+02  0.87232197627E+03  0.50400001928E-02 0. -1.
       -1    1    3    3    0  502  0.82651339908E+03  0.26766123840E+03  0.43689063867E+03  0.97244041853E+03  0.50400001928E-02 0.  1.
</event>
<event>
 5   0  0.4578107E-05  0.1798637E+04  0.7818609E-02  0.8707024E-01
        1   -1    0    0  501    0  0.00000000000E+00  0.00000000000E+00  0.15352898599E+04  0.15352898599E+04  0.50400001928E-02 0. -1.
       -1   -1    0    0    0  501  0.00000000000E+00  0.00000000000E+00 -0.52678916365E+03  0.52678916367E+03  0.50400001928E-02 0.  1.
    10030    2    1    2    0    0  0.00000000000E+00  0.00000000000E+00  0.10085006962E+04  0.20620790236E+04  0.17986373301E+04 0.  0.
        2    1    3    3  502    0 -0.45865091503E+02  0.57725242048E+03 -0.28460760230E+03  0.64523286561E+03  0.25500000920E-02 0.  1.
       -2    1    3    3    0  502  0.45865091503E+02 -0.57725242048E+03  0.12931082985E+04  0.14168461580E+04  0.25500000920E-02 0. -1.
</event>
<event>
 5   0  0.8892280E-05  0.1794770E+04  0.7818609E-02  0.8709086E-01
        2   -1    0    0  501    0  0.00000000000E+00  0.00000000000E+00  0.83839104923E+03  0.83839104924E+03  0.25500000920E-02 0. -1.
       -2   -1    0    0    0  501  0.00000000000E+00  0.00000000000E+00 -0.96053022715E+03  0.96053022716E+03  0.25500000920E-02 0.  1.
    10030    2    1    2    0    0  0.00000000000E+00  0.00000000000E+00 -0.12213917792E+03  0.17989212764E+04  0.17947701189E+04 0.  0.
        4    1    3    3  502    0 -0.17996387791E+03 -0.84828788581E+03 -0.29251273048E+03  0.91517465271E+03  0.12699999809E+01 0.  1.
       -4    1    3    3    0  502  0.17996387791E+03  0.84828788581E+03  0.17037355256E+03  0.88374662368E+03  0.12699999809E+01 0. -1.
</event>
<event>
 5   0  0.8802655E-05  0.1796194E+04  0.7818609E-02  0.8708326E-01
        2   -1    0    0  501    0  0.00000000000E+00  0.00000000000E+00  0.99730330317E+03  0.99730330317E+03  0.25500000920E-02 0. -1.
       -2   -1    0    0    0  501  0.00000000000E+00  0.00000000000E+00 -0.80875896344E+03  0.80875896344E+03  0.25500000920E-02 0.  1.
    10030    2    1    2    0    0  0.00000000000E+00  0.00000000000E+00  0.18854433973E+03  0.18060622666E+04  0.17961937376E+04 0.  0.
        2    1    3    3  502    0  0.34063803734E+03 -0.82856727524E+03  0.30520482645E+02  0.89637575935E+03  0.25500000920E-02 0.  1.
       -2    1    3    3    0  502 -0.34063803734E+03  0.82856727524E+03  0.15802385709E+03  0.90968650726E+03  0.25500000920E-02 0. -1.
</event>
<event>
 5   0  0.4335117E-05  0.1802495E+04  0.7818609E-02  0.8704974E-01
        1   -1    0    0  501    0  0.00000000000E+00  0.00000000000E+00  0.89051135164E+03  0.89051135165E+03  0.50400001928E-02 0. -1.
       -1   -1    0    0    0  501  0.00000000000E+00  0.00000000000E+00 -0.91211291982E+03  0.91211291984E+03  0.50400001928E-02 0.  1.
    10030    2    1    2    0    0  0.00000000000E+00  0.00000000000E+00 -0.21601568185E+02  0.18026242715E+04  0.18024948367E+04 0.  0.
        3    1    3    3  502    0  0.62114216969E+03  0.33171064471E+03  0.55173169844E+03  0.89457108384E+03  0.10100000352E+00 0. -1.
       -3    1    3    3    0  502 -0.62114216969E+03 -0.33171064471E+03 -0.57333326663E+03  0.90805318765E+03  0.10100000352E+00 0.  1.
</event>
<event>
 5   0  0.4494757E-05  0.1789892E+04  0.7818609E-02  0.8711693E-01
       -1   -1    0    0    0  501  0.00000000000E+00  0.00000000000E+00  0.78172820316E+03  0.78172820318E+03  0.50400001928E-02 0. -1.
        1   -1    0    0  501    0  0.00000000000E+00  0.00000000000E+00 -0.10245616149E+04  0.10245616149E+04  0.50400001928E-02 0.  1.
    10030    2    1    2    0    0  0.00000000000E+00  0.00000000000E+00 -0.24283341173E+03  0.18062898181E+04  0.17898924105E+04 0.  0.
        4    1    3    3  502    0 -0.80873739933E+03 -0.20624752650E+03  0.20454838575E+03  0.85932291851E+03  0.12699999809E+01 0. -1.
       -4    1    3    3    0  502  0.80873739933E+03  0.20624752650E+03 -0.44738179748E+03  0.94696689957E+03  0.12699999809E+01 0.  1.
</event>
<event>
 5   0  0.4623665E-05  0.1798255E+04  0.7818609E-02  0.8707228E-01
       -1   -1    0    0    0  501  0.00000000000E+00  0.00000000000E+00  0.82390765282E+03  0.82390765284E+03  0.50400001928E-02 0. -1.
        1   -1    0    0  501    0  0.00000000000E+00  0.00000000000E+00 -0.98121496667E+03  0.98121496669E+03  0.50400001928E-02 0.  1.
    10030    2    1    2    0    0  0.00000000000E+00  0.00000000000E+00 -0.15730731385E+03  0.18051226195E+04  0.17982552879E+04 0.  0.
        5    1    3    3  502    0  0.18417062588E+03 -0.38714646084E+02  0.80390284958E+03  0.82565097034E+03  0.46999998093E+01 0. -1.
       -5    1    3    3    0  502 -0.18417062588E+03  0.38714646084E+02 -0.96121016344E+03  0.97947164918E+03  0.46999998093E+01 0.  1.
</event>
<event>
 5   0  0.4494757E-05  0.1791069E+04  0.7818609E-02  0.8711063E-01
       -1   -1    0    0    0  501  0.00000000000E+00  0.00000000000E+00  0.10736230938E+04  0.10736230938E+04  0.50400001928E-02 0. -1.
        1   -1    0    0  501    0  0.00000000000E+00  0.00000000000E+00 -0.74698659384E+03  0.74698659385E+03  0.50400001928E-02 0.  1.
    10030    2    1    2    0    0  0.00000000000E+00  0.00000000000E+00  0.32663649995E+03  0.18206096877E+04  0.17910690192E+04 0.  0.
        4    1    3    3  502    0  0.54223738138E+03  0.50783966200E+03  0.67162380553E+03  0.10015001993E+04  0.12699999809E+01 0. -1.
       -4    1    3    3    0  502 -0.54223738138E+03 -0.50783966200E+03 -0.34498730558E+03  0.81910948839E+03  0.12699999809E+01 0.  1.
</event>
<event>
 5   0  0.4535100E-05  0.1796031E+04  0.7818609E-02  0.8708413E-01
        1   -1    0    0  501    0  0.00000000000E+00  0.00000000000E+00  0.88508904049E+03  0.88508904050E+03  0.50400001928E-02 0.  1.
       -1   -1    0    0    0  501  0.00000000000E+00  0.00000000000E+00 -0.91113073101E+03  0.91113073102E+03  0.50400001928E-02 0. -1.
    10030    2    1    2    0    0  0.00000000000E+00  0.00000000000E+00 -0.26041690523E+02  0.17962197715E+04  0.17960309847E+04 0.  0.
        1    1    3    3  502    0  0.74426233946E+03 -0.37239668349E+03  0.32439586327E+03  0.89321800024E+03  0.50400001928E-02 0.  1.
       -1    1    3    3    0  502 -0.74426233946E+03  0.37239668349E+03 -0.35043755379E+03  0.90300177129E+03  0.50400001928E-02 0. -1.
</event>
<event>
 5   0  0.9184414E-05  0.1784573E+04  0.7818609E-02  0.8714547E-01
       -2   -1    0    0    0  501  0.00000000000E+00  0.00000000000E+00  0.97861260355E+03  0.97861260356E+03  0.25500000920E-02 0. -1.
        2   -1    0    0  501    0  0.00000000000E+00  0.00000000000E+00 -0.81357532521E+03  0.81357532521E+03  0.25500000920E-02 0.  1.
    10030    2    1    2    0    0  0.00000000000E+00  0.00000000000E+00  0.16503727834E+03  0.17921879288E+04  0.17845728533E+04 0.  0.
        5    1    3    3  502    0 -0.27933324337E+03 -0.37412640865E+03 -0.68109124047E+03  0.82577539219E+03  0.46999998093E+01 0.  1.
       -5    1    3    3    0  502  0.27933324337E+03  0.37412640865E+03  0.84612851882E+03  0.96641253658E+03  0.46999998093E+01 0. -1.
</event>
<event>
 5   0  0.4494757E-05  0.1823699E+04  0.7818609E-02  0.8693797E-01
       -1   -1    0    0    0  501  0.00000000000E+00  0.00000000000E+00  0.80187007947E+03  0.80187007949E+03  0.50400001928E-02 0. -1.
        1   -1    0    0  501    0  0.00000000000E+00  0.00000000000E+00 -0.10369127157E+04  0.10369127157E+04  0.50400001928E-02 0.  1.
    10030    2    1    2    0    0  0.00000000000E+00  0.00000000000E+00 -0.23504263626E+03  0.18387827952E+04  0.18236987490E+04 0.  0.
        4    1    3    3  502    0 -0.26901729597E+03  0.83730644469E+03 -0.36037714700E+03  0.95043447372E+03  0.12699999809E+01 0.  1.
       -4    1    3    3    0  502  0.26901729597E+03 -0.83730644469E+03  0.12533451074E+03  0.88834832151E+03  0.12699999809E+01 0. -1.
</event>
<event>
 5   0  0.3270375E-05  0.1794423E+04  0.7818609E-02  0.8709271E-01
        4   -1    0    0  501    0  0.00000000000E+00  0.00000000000E+00  0.68415353029E+03  0.68415470904E+03  0.12699999809E+01 0.  1.
       -4   -1    0    0    0  501  0.00000000000E+00  0.00000000000E+00 -0.11766173558E+04  0.11766180412E+04  0.12699999809E+01 0. -1.
    10030    2    1    2    0    0  0.00000000000E+00  0.00000000000E+00 -0.49246382548E+03  0.18607727502E+04  0.17944231966E+04 0.  0.
        4    1    3    3  502    0 -0.78285640930E+03  0.50526252483E+02 -0.69772722365E+03  0.10498771125E+04  0.12699999809E+01 0. -1.
       -4    1    3    3    0  502  0.78285640930E+03 -0.50526252483E+02  0.20526339817E+03  0.81089563774E+03  0.12699999809E+01 0.  1.
</event>
<event>
 5   0  0.9147432E-05  0.1806409E+04  0.7818609E-02  0.8702899E-01
        2   -1    0    0  501    0  0.00000000000E+00  0.00000000000E+00  0.11036745139E+04  0.11036745140E+04  0.25500000920E-02 0. -1.
       -2   -1    0    0    0  501  0.00000000000E+00  0.00000000000E+00 -0.73914730899E+03  0.73914730899E+03  0.25500000920E-02 0.  1.
    10030    2    1    2    0    0  0.00000000000E+00  0.00000000000E+00  0.36452720496E+03  0.18428218229E+04  0.18064086437E+04 0.  0.
        3    1    3    3  502    0 -0.45951535297E+03  0.83662914766E+01 -0.61094018507E+03  0.76450786418E+03  0.10100000352E+00 0.  1.
       -3    1    3    3    0  502  0.45951535297E+03 -0.83662914766E+01  0.97546739003E+03  0.10783139588E+04  0.10100000352E+00 0. -1.
</event>
<event>
 5   0  0.9147432E-05  0.1796105E+04  0.7818609E-02  0.8708374E-01
        2   -1    0    0  501    0  0.00000000000E+00  0.00000000000E+00  0.14175651492E+04  0.14175651492E+04  0.25500000920E-02 0. -1.
       -2   -1    0    0    0  501  0.00000000000E+00  0.00000000000E+00 -0.56893188200E+03  0.56893188201E+03  0.25500000920E-02 0.  1.
    10030    2    1    2    0    0  0.00000000000E+00  0.00000000000E+00  0.84863326723E+03  0.19864970312E+04  0.17961046832E+04 0.  0.
        3    1    3    3  502    0 -0.82445710724E+03  0.28895496705E+03  0.19424276063E+03  0.89496075608E+03  0.10100000352E+00 0.  1.
       -3    1    3    3    0  502  0.82445710724E+03 -0.28895496705E+03  0.65439050660E+03  0.10915362752E+04  0.10100000352E+00 0. -1.
</event>
<event>
 5   0  0.4623665E-05  0.1798584E+04  0.7818609E-02  0.8707053E-01
       -1   -1    0    0    0  501  0.00000000000E+00  0.00000000000E+00  0.56920161944E+03  0.56920161946E+03  0.50400001928E-02 0. -1.
        1   -1    0    0  501    0  0.00000000000E+00  0.00000000000E+00 -0.14208076465E+04  0.14208076465E+04  0.50400001928E-02 0.  1.
    10030    2    1    2    0    0  0.00000000000E+00  0.00000000000E+00 -0.85160602708E+03  0.19900092660E+04  0.17985839022E+04 0.  0.
        5    1    3    3  502    0 -0.51911079031E+03 -0.72080909870E+03 -0.27065724227E+03  0.92861143767E+03  0.46999998093E+01 0. -1.
       -5    1    3    3    0  502  0.51911079031E+03  0.72080909870E+03 -0.58094878480E+03  0.10613978283E+04  0.46999998093E+01 0.  1.
</event>
<event>
 5   0  0.9184414E-05  0.1800230E+04  0.7818609E-02  0.8706177E-01
       -2   -1    0    0    0  501  0.00000000000E+00  0.00000000000E+00  0.45473524148E+03  0.45473524149E+03  0.25500000920E-02 0.  1.
        2   -1    0    0  501    0  0.00000000000E+00  0.00000000000E+00 -0.17817114778E+04  0.17817114778E+04  0.25500000920E-02 0. -1.
    10030    2    1    2    0    0  0.00000000000E+00  0.00000000000E+00 -0.13269762363E+04  0.22364467193E+04  0.18002299843E+04 0.  0.
        5    1    3    3  502    0  0.21682184397E+03  0.84690595634E+03 -0.92971263439E+03  0.12761853641E+04  0.46999998093E+01 0.  1.
       -5    1    3    3    0  502 -0.21682184397E+03 -0.84690595634E+03 -0.39726360191E+03  0.96026135520E+03  0.46999998093E+01 0. -1.
</event>
<event>
 5   0  0.9147432E-05  0.1792904E+04  0.7818609E-02  0.8710082E-01
       -2   -1    0    0    0  501  0.00000000000E+00  0.00000000000E+00  0.64044639764E+03  0.64044639765E+03  0.25500000920E-02 0.  1.
        2   -1    0    0  501    0  0.00000000000E+00  0.00000000000E+00 -0.12547911490E+04  0.12547911490E+04  0.25500000920E-02 0. -1.
    10030    2    1    2    0    0  0.00000000000E+00  0.00000000000E+00 -0.61434475132E+03  0.18952375466E+04  0.17929043155E+04 0.  0.
        3    1    3    3  502    0  0.32317159783E+03  0.12586825513E+03  0.56665602557E+03  0.66436568305E+03  0.10100000352E+00 0.  1.
       -3    1    3    3    0  502 -0.32317159783E+03 -0.12586825513E+03 -0.11810007769E+04  0.12308718636E+04  0.10100000352E+00 0. -1.
</event>
<event>
 5   0  0.4335117E-05  0.1821174E+04  0.7818609E-02  0.8695120E-01
       -1   -1    0    0    0  501  0.00000000000E+00  0.00000000000E+00  0.13551086872E+04  0.13551086872E+04  0.50400001928E-02 0. -1.
        1   -1    0    0  501    0  0.00000000000E+00  0.00000000000E+00 -0.61188333705E+03  0.61188333708E+03  0.50400001928E-02 0.  1.
    10030    2    1    2    0    0  0.00000000000E+00  0.00000000000E+00  0.74322535013E+03  0.19669920243E+04  0.18211737156E+04 0.  0.
        3    1    3    3  502    0 -0.53957572856E+03 -0.72450182697E+03  0.24788213410E+03  0.93674458992E+03  0.10100000352E+00 0.  1.
       -3    1    3    3    0  502  0.53957572856E+03  0.72450182697E+03  0.49534321603E+03  0.10302474344E+04  0.10100000352E+00 0. -1.
</event>
<event>
 5   0  0.4335117E-05  0.1798584E+04  0.7818609E-02  0.8707053E-01
        1   -1    0    0  501    0  0.00000000000E+00  0.00000000000E+00  0.16086483573E+04  0.16086483573E+04  0.50400001928E-02 0.  1.
       -1   -1    0    0    0  501  0.00000000000E+00  0.00000000000E+00 -0.50273616511E+03  0.50273616513E+03  0.50400001928E-02 0. -1.
    10030    2    1    2    0    0  0.00000000000E+00  0.00000000000E+00  0.11059121922E+04  0.21113845224E+04  0.17985835607E+04 0.  0.
        3    1    3    3  502    0 -0.81813383448E+03 -0.28143648773E+03  0.26498480357E+03  0.90485712909E+03  0.10100000352E+00 0. -1.
       -3    1    3    3    0  502  0.81813383448E+03  0.28143648773E+03  0.84092738861E+03  0.12065273933E+04  0.10100000352E+00 0.  1.
</event>
<event>
 5   0  0.4494757E-05  0.1792743E+04  0.7818609E-02  0.8710168E-01
       -1   -1    0    0    0  501  0.00000000000E+00  0.00000000000E+00  0.75028522634E+03  0.75028522636E+03  0.50400001928E-02 0. -1.
        1   -1    0    0  501    0  0.00000000000E+00  0.00000000000E+00 -0.10709018493E+04  0.10709018493E+04  0.50400001928E-02 0.  1.
    10030    2    1    2    0    0  0.00000000000E+00  0.00000000000E+00 -0.32061662297E+03  0.18211870757E+04  0.17927429670E+04 0.  0.
        4    1    3    3  502    0  0.30688092199E+03 -0.18316015640E+03 -0.99539527895E+03  0.10576090570E+04  0.12699999809E+01 0.  1.
       -4    1    3    3    0  502 -0.30688092199E+03  0.18316015640E+03  0.67477865598E+03  0.76357801870E+03  0.12699999809E+01 0. -1.
</event>
<event>
 5   0  0.8893075E-05  0.1821439E+04  0.7818609E-02  0.8694981E-01
        2   -1    0    0  501    0  0.00000000000E+00  0.00000000000E+00  0.13801796088E+04  0.13801796088E+04  0.25500000920E-02 0.  1.
       -2   -1    0    0    0  501  0.00000000000E+00  0.00000000000E+00 -0.60094356499E+03  0.60094356500E+03  0.25500000920E-02 0. -1.
    10030    2    1    2    0    0  0.00000000000E+00  0.00000000000E+00  0.77923604379E+03  0.19811231738E+04  0.18214390513E+04 0.  0.
        1    1    3    3  502    0 -0.71853907163E+03 -0.35155070506E+03 -0.83891443599E+02  0.80431590188E+03  0.50400001928E-02 0. -1.
       -1    1    3    3    0  502  0.71853907163E+03  0.35155070506E+03  0.86312748739E+03  0.11768072719E+04  0.50400001928E-02 0.  1.
</event>
<event>
 5   0  0.9184414E-05  0.1794929E+04  0.7818609E-02  0.8709001E-01
       -2   -1    0    0    0  501  0.00000000000E+00  0.00000000000E+00  0.55767865564E+03  0.55767865564E+03  0.25500000920E-02 0.  1.
        2   -1    0    0  501    0  0.00000000000E+00  0.00000000000E+00 -0.14442778004E+04  0.14442778004E+04  0.25500000920E-02 0. -1.
    10030    2    1    2    0    0  0.00000000000E+00  0.00000000000E+00 -0.88659914477E+03  0.20019564560E+04  0.17949294160E+04 0.  0.
        5    1    3    3  502    0 -0.47518354440E+03  0.32581878403E+03 -0.12107503288E+04  0.13408563419E+04  0.46999998093E+01 0. -1.
       -5    1    3    3    0  502  0.47518354440E+03 -0.32581878403E+03  0.32415118400E+03  0.66110011419E+03  0.46999998093E+01 0.  1.
</event>
<event>
 5   0  0.8802655E-05  0.1804043E+04  0.7818609E-02  0.8704153E-01
       -2   -1    0    0    0  501  0.00000000000E+00  0.00000000000E+00  0.60126226453E+03  0.60126226454E+03  0.25500000920E-02 0. -1.
        2   -1    0    0  501    0  0.00000000000E+00  0.00000000000E+00 -0.13532238243E+04  0.13532238243E+04  0.25500000920E-02 0.  1.
    10030    2    1    2    0    0  0.00000000000E+00  0.00000000000E+00 -0.75196155980E+03  0.19544860889E+04  0.18040425949E+04 0.  0.
        2    1    3    3  502    0 -0.76171399607E+03 -0.37571196174E+03 -0.70508025552E+03  0.11038595276E+04  0.25500000920E-02 0.  1.
       -2    1    3    3    0  502  0.76171399607E+03  0.37571196174E+03 -0.46881304283E+02  0.85062656125E+03  0.25500000920E-02 0. -1.
</event>
<event>
 5   0  0.9147432E-05  0.1799788E+04  0.7818609E-02  0.8706412E-01
       -2   -1    0    0    0  501  0.00000000000E+00  0.00000000000E+00  0.15848062717E+04  0.15848062717E+04  0.25500000920E-02 0.  1.
        2   -1    0    0  501    0  0.00000000000E+00  0.00000000000E+00 -0.51098325271E+03  0.51098325271E+03  0.25500000920E-02 0. -1.
    10030    2    1    2    0    0  0.00000000000E+00  0.00000000000E+00  0.10738230190E+04  0.20957895244E+04  0.17997882805E+04 0.  0.
        3    1    3    3  502    0 -0.84981309883E+03  0.17167535544E+03  0.25609751917E+03  0.90401365041E+03  0.10100000352E+00 0.  1.
       -3    1    3    3    0  502  0.84981309883E+03 -0.17167535544E+03  0.81772549985E+03  0.11917758740E+04  0.10100000352E+00 0. -1.
</event>
<event>
 5   0  0.4578107E-05  0.1807925E+04  0.7818609E-02  0.8702096E-01
       -1   -1    0    0    0  501  0.00000000000E+00  0.00000000000E+00  0.61179091570E+03  0.61179091572E+03  0.50400001928E-02 0.  1.
        1   -1    0    0  501    0  0.00000000000E+00  0.00000000000E+00 -0.13356661925E+04  0.13356661925E+04  0.50400001928E-02 0. -1.
    10030    2    1    2    0    0  0.00000000000E+00  0.00000000000E+00 -0.72387527682E+03  0.19474571083E+04  0.18079252673E+04 0.  0.
        2    1    3    3  502    0  0.87808261256E+03  0.16892095174E+02 -0.59254938692E+03  0.10594475887E+04  0.25500000920E-02 0. -1.
       -2    1    3    3    0  502 -0.87808261256E+03 -0.16892095174E+02 -0.13132588990E+03  0.88800951950E+03  0.25500000920E-02 0.  1.
</event>
<event>
 5   0  0.4535100E-05  0.1815126E+04  0.7818609E-02  0.8698297E-01
        1   -1    0    0  501    0  0.00000000000E+00  0.00000000000E+00  0.12770801913E+04  0.12770801913E+04  0.50400001928E-02 0.  1.
       -1   -1    0    0    0  501  0.00000000000E+00  0.00000000000E+00 -0.64496368888E+03  0.64496368890E+03  0.50400001928E-02 0. -1.
    10030    2    1    2    0    0  0.00000000000E+00  0.00000000000E+00  0.63211650242E+03  0.19220438802E+04  0.18151257270E+04 0.  0.
        1    1    3    3  502    0 -0.34141764705E+03  0.70271731978E+03  0.80509848685E+03  0.11218561471E+04  0.50400001928E-02 0.  1.
       -1    1    3    3    0  502  0.34141764705E+03 -0.70271731978E+03 -0.17298198443E+03  0.80018773310E+03  0.50400001928E-02 0. -1.
</event>
<event>
 5   0  0.9147432E-05  0.1805040E+04  0.7818609E-02  0.8703624E-01
        2   -1    0    0  501    0  0.00000000000E+00  0.00000000000E+00  0.71297647426E+03  0.71297647426E+03  0.25500000920E-02 0.  1.
       -2   -1    0    0    0  501  0.00000000000E+00  0.00000000000E+00 -0.11424535232E+04  0.11424535232E+04  0.25500000920E-02 0. -1.
    10030    2    1    2    0    0  0.00000000000E+00  0.00000000000E+00 -0.42947704898E+03  0.18554299975E+04  0.18050401491E+04 0.  0.
        3    1    3    3  502    0  0.29332629829E+02 -0.61535055631E+03  0.46323884392E+03  0.77078333340E+03  0.10100000352E+00 0.  1.
       -3    1    3    3    0  502 -0.29332629829E+02  0.61535055631E+03 -0.89271589290E+03  0.10846466641E+04  0.10100000352E+00 0. -1.
</event>
<event>
 5   0  0.9184414E-05  0.1801147E+04  0.7818609E-02  0.8705690E-01
        2   -1    0    0  501    0  0.00000000000E+00  0.00000000000E+00  0.74767590157E+03  0.74767590157E+03  0.25500000920E-02 0.  1.
       -2   -1    0    0    0  501  0.00000000000E+00  0.00000000000E+00 -0.10847387282E+04  0.10847387282E+04  0.25500000920E-02 0. -1.
    10030    2    1    2    0    0  0.00000000000E+00  0.00000000000E+00 -0.33706282668E+03  0.18324146298E+04  0.18011474194E+04 0.  0.
        5    1    3    3  502    0 -0.43177398733E+03  0.29425056300E+03 -0.91474838502E+03  0.10534699179E+04  0.46999998093E+01 0. -1.
       -5    1    3    3    0  502  0.43177398733E+03 -0.29425056300E+03  0.57768555834E+03  0.77894471195E+03  0.46999998093E+01 0.  1.
</event>
<event>
 5   0  0.4335117E-05  0.1796336E+04  0.7818609E-02  0.8708251E-01
       -1   -1    0    0    0  501  0.00000000000E+00  0.00000000000E+00  0.25781508881E+03  0.25781508886E+03  0.50400001928E-02 0. -1.
        1   -1    0    0  501    0  0.00000000000E+00  0.00000000000E+00 -0.31290078206E+04  0.31290078206E+04  0.50400001928E-02 0.  1.
    10030    2    1    2    0    0  0.00000000000E+00  0.00000000000E+00 -0.28711927318E+04  0.33868229094E+04  0.17963356359E+04 0.  0.
        3    1    3    3  502    0 -0.15092296881E+03 -0.32848274665E+03 -0.29857935637E+04  0.30075973588E+04  0.10100000352E+00 0.  1.
       -3    1    3    3    0  502  0.15092296881E+03  0.32848274665E+03  0.11460083196E+03  0.37922555062E+03  0.10100000352E+00 0. -1.
</event>
<event>
 5   0  0.4578107E-05  0.1762061E+04  0.7818609E-02  0.8726739E-01
        1   -1    0    0  501    0  0.00000000000E+00  0.00000000000E+00  0.30021952214E+04  0.30021952214E+04  0.50400001928E-02 0.  1.
       -1   -1    0    0    0  501  0.00000000000E+00  0.00000000000E+00 -0.25854900421E+03  0.25854900426E+03  0.50400001928E-02 0. -1.
    10030    2    1    2    0    0  0.00000000000E+00  0.00000000000E+00  0.27436462172E+04  0.32607442257E+04  0.17620608219E+04 0.  0.
        2    1    3    3  502    0  0.31626681036E+03  0.49099402094E+03  0.25924916358E+04  0.26574635850E+04  0.25500000920E-02 0.  1.
       -2    1    3    3    0  502 -0.31626681036E+03 -0.49099402094E+03  0.15115458140E+03  0.60328064067E+03  0.25500000920E-02 0. -1.
</event>
<event>
 5   0  0.4578107E-05  0.1833421E+04  0.7818609E-02  0.8688726E-01
       -1   -1    0    0    0  501  0.00000000000E+00  0.00000000000E+00  0.11928503804E+04  0.11928503804E+04  0.50400001928E-02 0. -1.
        1   -1    0    0  501    0  0.00000000000E+00  0.00000000000E+00 -0.70449568385E+03  0.70449568387E+03  0.50400001928E-02 0.  1.
    10030    2    1    2    0    0  0.00000000000E+00  0.00000000000E+00  0.48835469655E+03  0.18973460643E+04  0.18334207858E+04 0.  0.
        2    1    3    3  502    0 -0.44104262982E+03  0.35020843158E+02  0.10750489026E+04  0.11625296571E+04  0.25500000920E-02 0. -1.
       -2    1    3    3    0  502  0.44104262982E+03 -0.35020843158E+02 -0.58669420604E+03  0.73481640713E+03  0.25500000920E-02 0.  1.
</event>
<event>
 5   0  0.8892280E-05  0.1797628E+04  0.7818609E-02  0.8707562E-01
       -2   -1    0    0    0  501  0.00000000000E+00  0.00000000000E+00  0.76408220093E+03  0.76408220094E+03  0.25500000920E-02 0. -1.
        2   -1    0    0  501    0  0.00000000000E+00  0.00000000000E+00 -0.10573028216E+04  0.10573028216E+04  0.25500000920E-02 0.  1.
    10030    2    1    2    0    0  0.00000000000E+00  0.00000000000E+00 -0.29322062068E+03  0.18213850226E+04  0.17976276222E+04 0.  0.
        4    1    3    3  502    0 -0.30878681815E+03  0.45438907243E+03  0.57416017514E+03  0.79465731471E+03  0.12699999809E+01 0. -1.
       -4    1    3    3    0  502  0.30878681815E+03 -0.45438907243E+03 -0.86738079582E+03  0.10267277078E+04  0.12699999809E+01 0.  1.
</event>
<event>
 5   0  0.4623665E-05  0.1799919E+04  0.7818609E-02  0.8706342E-01
        1   -1    0    0  501    0  0.00000000000E+00  0.00000000000E+00  0.13556138429E+04  0.13556138429E+04  0.50400001928E-02 0.  1.
       -1   -1    0    0    0  501  0.00000000000E+00  0.00000000000E+00 -0.59746165444E+03  0.59746165446E+03  0.50400001928E-02 0. -1.
    10030    2    1    2    0    0  0.00000000000E+00  0.00000000000E+00  0.75815218843E+03  0.19530754973E+04  0.17999192086E+04 0.  0.
        5    1    3    3  502    0 -0.59600143176E+03  0.13388278275E+03 -0.33803903801E+03  0.69816530091E+03  0.46999998093E+01 0. -1.
       -5    1    3    3    0  502  0.59600143176E+03 -0.13388278275E+03  0.10961912264E+04  0.12549101964E+04  0.46999998093E+01 0.  1.
</event>
<event>
 5   0  0.9184414E-05  0.1796489E+04  0.7818609E-02  0.8708169E-01
       -2   -1    0    0    0  501  0.00000000000E+00  0.00000000000E+00  0.78744183110E+03  0.78744183110E+03  0.25500000920E-02 0. -1.
        2   -1    0    0  501    0  0.00000000000E+00  0.00000000000E+00 -0.10246388223E+04  0.10246388223E+04  0.25500000920E-02 0.  1.
    10030    2    1    2    0    0  0.00000000000E+00  0.00000000000E+00 -0.23719699118E+03  0.18120806534E+04  0.17964893214E+04 0.  0.
        5    1    3    3  502    0 -0.64057988376E+03 -0.23088923193E+03  0.47229183079E+03  0.82869420676E+03  0.46999998093E+01 0. -1.
       -5    1    3    3    0  502  0.64057988376E+03  0.23088923193E+03 -0.70948882197E+03  0.98338644662E+03  0.46999998093E+01 0.  1.
</event>
<event>
 5   0  0.4578107E-05  0.1803722E+04  0.7818609E-02  0.8704323E-01
       -1   -1    0    0    0  501  0.00000000000E+00  0.00000000000E+00  0.50994687116E+03  0.50994687119E+03  0.50400001928E-02 0.  1.
        1   -1    0    0  501    0  0.00000000000E+00  0.00000000000E+00 -0.15949758133E+04  0.15949758133E+04  0.50400001928E-02 0. -1.
    10030    2    1    2    0    0  0.00000000000E+00  0.00000000000E+00 -0.10850289421E+04  0.21049226845E+04  0.18037216255E+04 0.  0.
        2    1    3    3  502    0  0.26750416131E+03 -0.38650641524E+02  0.46157099369E+03  0.53488328692E+03  0.25500000920E-02 0.  1.
       -2    1    3    3    0  502 -0.26750416131E+03  0.38650641524E+02 -0.15465999358E+04  0.15700393976E+04  0.25500000920E-02 0. -1.
</event>
<event>
 5   0  0.8893075E-05  0.1807742E+04  0.7818609E-02  0.8702193E-01
        2   -1    0    0  501    0  0.00000000000E+00  0.00000000000E+00  0.78863715497E+03  0.78863715498E+03  0.25500000920E-02 0.  1.
       -2   -1    0    0    0  501  0.00000000000E+00  0.00000000000E+00 -0.10359424626E+04  0.10359424626E+04  0.25500000920E-02 0. -1.
    10030    2    1    2    0    0  0.00000000000E+00  0.00000000000E+00 -0.24730530760E+03  0.18245796175E+04  0.18077419245E+04 0.  0.
        1    1    3    3  502    0  0.28366570912E+03 -0.85259496465E+03 -0.22253613155E+03  0.92569257215E+03  0.50400001928E-02 0.  1.
       -1    1    3    3    0  502 -0.28366570912E+03  0.85259496465E+03 -0.24769176047E+02  0.89888704539E+03  0.50400001928E-02 0. -1.
</event>
<event>
 5   0  0.4623665E-05  0.1802455E+04  0.7818609E-02  0.8704995E-01
       -1   -1    0    0    0  501  0.00000000000E+00  0.00000000000E+00  0.35353623333E+03  0.35353623337E+03  0.50400001928E-02 0.  1.
        1   -1    0    0  501    0  0.00000000000E+00  0.00000000000E+00 -0.22973898764E+04  0.22973898764E+04  0.50400001928E-02 0. -1.
    10030    2    1    2    0    0  0.00000000000E+00  0.00000000000E+00 -0.19438536431E+04  0.26509261098E+04  0.18024545081E+04 0.  0.
        5    1    3    3  502    0 -0.66115012227E+03 -0.45895660696E+03 -0.37554971637E+03  0.88815557799E+03  0.46999998093E+01 0.  1.
       -5    1    3    3    0  502  0.66115012227E+03  0.45895660696E+03 -0.15683039267E+04  0.17627705318E+04  0.46999998093E+01 0. -1.
</event>
<event>
 5   0  0.4578107E-05  0.1796274E+04  0.7818609E-02  0.8708283E-01
       -1   -1    0    0    0  501  0.00000000000E+00  0.00000000000E+00  0.82642477771E+03  0.82642477772E+03  0.50400001928E-02 0. -1.
        1   -1    0    0  501    0  0.00000000000E+00  0.00000000000E+00 -0.97607244767E+03  0.97607244769E+03  0.50400001928E-02 0.  1.
    10030    2    1    2    0    0  0.00000000000E+00  0.00000000000E+00 -0.14964766997E+03  0.18024972254E+04  0.17962744285E+04 0.  0.
        2    1    3    3  502    0  0.10436371529E+03  0.23133317165E+02 -0.96966617703E+03  0.97554058364E+03  0.25500000920E-02 0.  1.
       -2    1    3    3    0  502 -0.10436371529E+03 -0.23133317165E+02  0.82001850707E+03  0.82695664177E+03  0.25500000920E-02 0. -1.
</event>
<event>
 5   0  0.8802655E-05  0.1772247E+04  0.7818609E-02  0.8721199E-01
       -2   -1    0    0    0  501  0.00000000000E+00  0.00000000000E+00  0.94365773076E+03  0.94365773077E+03  0.25500000920E-02 0.  1.
        2   -1    0    0  501    0  0.00000000000E+00  0.00000000000E+00 -0.83209711646E+03  0.83209711647E+03  0.25500000920E-02 0. -1.
    10030    2    1    2    0    0  0.00000000000E+00  0.00000000000E+00  0.11156061430E+03  0.17757548472E+04  0.17722470219E+04 0.  0.
        2    1    3    3  502    0  0.62639084507E+02 -0.38408026423E+03 -0.74189439057E+03  0.83776404258E+03  0.25500000920E-02 0. -1.
       -2    1    3    3    0  502 -0.62639084507E+02  0.38408026423E+03  0.85345500487E+03  0.93799080465E+03  0.25500000920E-02 0.  1.
</event>
<event>
 5   0  0.8802655E-05  0.1801125E+04  0.7818609E-02  0.8705701E-01
        2   -1    0    0  501    0  0.00000000000E+00  0.00000000000E+00  0.39790727706E+03  0.39790727707E+03  0.25500000920E-02 0. -1.
       -2   -1    0    0    0  501  0.00000000000E+00  0.00000000000E+00 -0.20381962958E+04  0.20381962958E+04  0.25500000920E-02 0.  1.
    10030    2    1    2    0    0  0.00000000000E+00  0.00000000000E+00 -0.16402890187E+04  0.24361035728E+04  0.18011253573E+04 0.  0.
        2    1    3    3  502    0  0.41214411452E+03 -0.53298532604E+03 -0.16283703889E+04  0.17622503376E+04  0.25500000920E-02 0.  1.
       -2    1    3    3    0  502 -0.41214411452E+03  0.53298532604E+03 -0.11918629799E+02  0.67385323524E+03  0.25500000920E-02 0. -1.
</event>
<event>
 5   0  0.8892280E-05  0.1801673E+04  0.7818609E-02  0.8705410E-01
       -2   -1    0    0    0  501  0.00000000000E+00  0.00000000000E+00  0.51277915967E+03  0.51277915968E+03  0.25500000920E-02 0.  1.
        2   -1    0    0  501    0  0.00000000000E+00  0.00000000000E+00 -0.15825655323E+04  0.15825655323E+04  0.25500000920E-02 0. -1.
    10030    2    1    2    0    0  0.00000000000E+00  0.00000000000E+00 -0.10697863726E+04  0.20953446920E+04  0.18016732487E+04 0.  0.
        4    1    3    3  502    0 -0.16415174334E+03 -0.60002265229E+03  0.22287205212E+03  0.66079235969E+03  0.12699999809E+01 0.  1.
       -4    1    3    3    0  502  0.16415174334E+03  0.60002265229E+03 -0.12926584248E+04  0.14345523323E+04  0.12699999809E+01 0. -1.
</event>
<event>
 5   0  0.8802655E-05  0.1804080E+04  0.7818609E-02  0.8704133E-01
        2   -1    0    0  501    0  0.00000000000E+00  0.00000000000E+00  0.64752040267E+03  0.64752040267E+03  0.25500000920E-02 0. -1.
       -2   -1    0    0    0  501  0.00000000000E+00  0.00000000000E+00 -0.12566035419E+04  0.12566035419E+04  0.25500000920E-02 0.  1.
    10030    2    1    2    0    0  0.00000000000E+00  0.00000000000E+00 -0.60908313921E+03  0.19041239446E+04  0.18040802991E+04 0.  0.
        2    1    3    3  502    0  0.75158670465E+03 -0.19954697148E+03 -0.78702941246E+03  0.11063981492E+04  0.25500000920E-02 0.  1.
       -2    1    3    3    0  502 -0.75158670465E+03  0.19954697148E+03  0.17794627324E+03  0.79772579537E+03  0.25500000920E-02 0. -1.
</event>
<event>
 5   0  0.8802655E-05  0.1800021E+04  0.7818609E-02  0.8706288E-01
        2   -1    0    0  501    0  0.00000000000E+00  0.00000000000E+00  0.12236191158E+04  0.12236191158E+04  0.25500000920E-02 0. -1.
       -2   -1    0    0    0  501  0.00000000000E+00  0.00000000000E+00 -0.66198636004E+03  0.66198636005E+03  0.25500000920E-02 0.  1.
    10030    2    1    2    0    0  0.00000000000E+00  0.00000000000E+00  0.56163275578E+03  0.18856054759E+04  0.18000212938E+04 0.  0.
        2    1    3    3  502    0  0.56519329602E+03  0.12807357360E+03  0.10021589026E+04  0.11576565847E+04  0.25500000920E-02 0. -1.
       -2    1    3    3    0  502 -0.56519329602E+03 -0.12807357360E+03 -0.44052614680E+03  0.72794889116E+03  0.25500000920E-02 0.  1.
</event>
<event>
 5   0  0.9147432E-05  0.1789214E+04  0.7818609E-02  0.8712056E-01
       -2   -1    0    0    0  501  0.00000000000E+00  0.00000000000E+00  0.51279599546E+03  0.51279599546E+03  0.25500000920E-02 0. -1.
        2   -1    0    0  501    0  0.00000000000E+00  0.00000000000E+00 -0.15607021893E+04  0.15607021893E+04  0.25500000920E-02 0.  1.
    10030    2    1    2    0    0  0.00000000000E+00  0.00000000000E+00 -0.10479061938E+04  0.20734981848E+04  0.17892141658E+04 0.  0.
        3    1    3    3  502    0 -0.29822563872E+03  0.64618484095E+02  0.45062093431E+03  0.54421807827E+03  0.10100000352E+00 0. -1.
       -3    1    3    3    0  502  0.29822563872E+03 -0.64618484095E+02 -0.14985271282E+04  0.15292801065E+04  0.10100000352E+00 0.  1.
</event>
<event>
 5   0  0.4494757E-05  0.1780494E+04  0.7818609E-02  0.8716742E-01
       -1   -1    0    0    0  501  0.00000000000E+00  0.00000000000E+00  0.52616715491E+03  0.52616715493E+03  0.50400001928E-02 0. -1.
        1   -1    0    0  501    0  0.00000000000E+00  0.00000000000E+00 -0.15062502484E+04  0.15062502484E+04  0.50400001928E-02 0.  1.
    10030    2    1    2    0    0  0.00000000000E+00  0.00000000000E+00 -0.98008309346E+03  0.20324174033E+04  0.17804936482E+04 0.  0.
        4    1    3    3  502    0 -0.66567001624E+03 -0.19311202675E+03  0.14769237126E+03  0.70867727128E+03  0.12699999809E+01 0. -1.
       -4    1    3    3    0  502  0.66567001624E+03  0.19311202675E+03 -0.11277754647E+04  0.13237401320E+04  0.12699999809E+01 0.  1.
</event>
<event>
 5   0  0.4535100E-05  0.1803215E+04  0.7818609E-02  0.8704592E-01
        1   -1    0    0  501    0  0.00000000000E+00  0.00000000000E+00  0.26771239518E+04  0.26771239518E+04  0.50400001928E-02 0. -1.
       -1   -1    0    0    0  501  0.00000000000E+00  0.00000000000E+00 -0.30364514732E+03  0.30364514736E+03  0.50400001928E-02 0.  1.
    10030    2    1    2    0    0  0.00000000000E+00  0.00000000000E+00  0.23734788045E+04  0.29807690992E+04  0.18032145705E+04 0.  0.
        1    1    3    3  502    0 -0.28339371011E+03  0.30023504987E+03 -0.13820635436E+03  0.43537808456E+03  0.50400001928E-02 0.  1.
       -1    1    3    3    0  502  0.28339371011E+03 -0.30023504987E+03  0.25116851589E+04  0.25453910146E+04  0.50400001928E-02 0. -1.
</event>
<event>
 5   0  0.4335117E-05  0.1801939E+04  0.7818609E-02  0.8705269E-01
        1   -1    0    0  501    0  0.00000000000E+00  0.00000000000E+00  0.14901334049E+04  0.14901334049E+04  0.50400001928E-02 0.  1.
       -1   -1    0    0    0  501  0.00000000000E+00  0.00000000000E+00 -0.54474730617E+03  0.54474730619E+03  0.50400001928E-02 0. -1.
    10030    2    1    2    0    0  0.00000000000E+00  0.00000000000E+00  0.94538609870E+03  0.20348807111E+04  0.18019391312E+04 0.  0.
        3    1    3    3  502    0  0.62621528797E+03  0.15887739219E+03  0.11818534243E+04  0.13469094770E+04  0.10100000352E+00 0.  1.
       -3    1    3    3    0  502 -0.62621528797E+03 -0.15887739219E+03 -0.23646732556E+03  0.68797123406E+03  0.10100000352E+00 0. -1.
</event>
<event>
 5   0  0.4578107E-05  0.1794540E+04  0.7818609E-02  0.8709209E-01
       -1   -1    0    0    0  501  0.00000000000E+00  0.00000000000E+00  0.19583602326E+04  0.19583602326E+04  0.50400001928E-02 0.  1.
        1   -1    0    0  501    0  0.00000000000E+00  0.00000000000E+00 -0.41110568371E+03  0.41110568374E+03  0.50400001928E-02 0. -1.
    10030    2    1    2    0    0  0.00000000000E+00  0.00000000000E+00  0.15472545489E+04  0.23694659164E+04  0.17945395202E+04 0.  0.
        2    1    3    3  502    0  0.28146089069E+03  0.83617875803E+03  0.55796556276E+03  0.10439064698E+04  0.25500000920E-02 0.  1.
       -2    1    3    3    0  502 -0.28146089069E+03 -0.83617875803E+03  0.98928898615E+03  0.13255594466E+04  0.25500000920E-02 0. -1.
</event>
<event>
 5   0  0.4535100E-05  0.1784368E+04  0.7818609E-02  0.8714657E-01
       -1   -1    0    0    0  501  0.00000000000E+00  0.00000000000E+00  0.98278017356E+03  0.98278017357E+03  0.50400001928E-02 0.  1.
        1   -1    0    0  501    0  0.00000000000E+00  0.00000000000E+00 -0.80993967669E+03  0.80993967671E+03  0.50400001928E-02 0. -1.
    10030    2    1    2    0    0  0.00000000000E+00  0.00000000000E+00  0.17284049687E+03  0.17927198503E+04  0.17843684105E+04 0.  0.
        1    1    3    3  502    0  0.15610402072E+03  0.82270184517E+03 -0.22289383144E+03  0.86653819965E+03  0.50400001928E-02 0. -1.
       -1    1    3    3    0  502 -0.15610402072E+03 -0.82270184517E+03  0.39573432831E+03  0.92618165063E+03  0.50400001928E-02 0.  1.
</event>
<event>
 5   0  0.8892280E-05  0.1797272E+04  0.7818609E-02  0.8707752E-01
       -2   -1    0    0    0  501  0.00000000000E+00  0.00000000000E+00  0.41831901536E+03  0.41831901537E+03  0.25500000920E-02 0.  1.
        2   -1    0    0  501    0  0.00000000000E+00  0.00000000000E+00 -0.19304560842E+04  0.19304560842E+04  0.25500000920E-02 0. -1.
    10030    2    1    2    0    0  0.00000000000E+00  0.00000000000E+00 -0.15121370688E+04  0.23487750996E+04  0.17972718084E+04 0.  0.
        4    1    3    3  502    0  0.65213709586E+03  0.52072377629E+03 -0.11916826699E+04  0.14548351252E+04  0.12699999809E+01 0.  1.
       -4    1    3    3    0  502 -0.65213709586E+03 -0.52072377629E+03 -0.32045439892E+03  0.89393997431E+03  0.12699999809E+01 0. -1.
</event>
<event>
 5   0  0.8892280E-05  0.1801918E+04  0.7818609E-02  0.8705280E-01
       -2   -1    0    0    0  501  0.00000000000E+00  0.00000000000E+00  0.66299370935E+03  0.66299370935E+03  0.25500000920E-02 0. -1.
        2   -1    0    0  501    0  0.00000000000E+00  0.00000000000E+00 -0.12243355936E+04  0.12243355936E+04  0.25500000920E-02 0.  1.
    10030    2    1    2    0    0  0.00000000000E+00  0.00000000000E+00 -0.56134188422E+03  0.18873293029E+04  0.18019176415E+04 0.  0.
        4    1    3    3  502    0 -0.46665939597E+03  0.72060730524E+03  0.55575582994E+01  0.85853268986E+03  0.12699999809E+01 0. -1.
       -4    1    3    3    0  502  0.46665939597E+03 -0.72060730524E+03 -0.56689944252E+03  0.10287966131E+04  0.12699999809E+01 0.  1.
</event>
<event>
 5   0  0.8802655E-05  0.1807583E+04  0.7818609E-02  0.8702277E-01
        2   -1    0    0  501    0  0.00000000000E+00  0.00000000000E+00  0.61904954077E+03  0.61904954078E+03  0.25500000920E-02 0.  1.
       -2   -1    0    0    0  501  0.00000000000E+00  0.00000000000E+00 -0.13195047972E+04  0.13195047972E+04  0.25500000920E-02 0. -1.
    10030    2    1    2    0    0  0.00000000000E+00  0.00000000000E+00 -0.70045525647E+03  0.19385543380E+04  0.18075827381E+04 0.  0.
        2    1    3    3  502    0 -0.87186443843E+03 -0.12835221439E+03 -0.13515539090E+03  0.89156540401E+03  0.25500000920E-02 0.  1.
       -2    1    3    3    0  502  0.87186443843E+03  0.12835221439E+03 -0.56529986557E+03  0.10469889340E+04  0.25500000920E-02 0. -1.
</event>
<event>
 5   0  0.3270375E-05  0.1802003E+04  0.7818609E-02  0.8705235E-01
       -3   -1    0    0    0  501  0.00000000000E+00  0.00000000000E+00  0.25654623225E+04  0.25654623245E+04  0.10100000352E+00 0.  1.
        3   -1    0    0  501    0  0.00000000000E+00  0.00000000000E+00 -0.31643547144E+03  0.31643548756E+03  0.10100000352E+00 0. -1.
    10030    2    1    2    0    0  0.00000000000E+00  0.00000000000E+00  0.22490268511E+04  0.28818978121E+04  0.18020025589E+04 0.  0.
        2    1    3    3  502    0  0.53801503695E+03 -0.12029302252E+03  0.22642398418E+04  0.23303889487E+04  0.25500000920E-02 0.  1.
       -2    1    3    3    0  502 -0.53801503695E+03  0.12029302252E+03 -0.15212990693E+02  0.55150886335E+03  0.25500000920E-02 0. -1.
</event>
<event>
 5   0  0.4494757E-05  0.1783195E+04  0.7818609E-02  0.8715288E-01
        1   -1    0    0  501    0  0.00000000000E+00  0.00000000000E+00  0.20409646569E+04  0.20409646569E+04  0.50400001928E-02 0.  1.
       -1   -1    0    0    0  501  0.00000000000E+00  0.00000000000E+00 -0.38949527924E+03  0.38949527928E+03  0.50400001928E-02 0. -1.
    10030    2    1    2    0    0  0.00000000000E+00  0.00000000000E+00  0.16514693776E+04  0.24304599361E+04  0.17831949966E+04 0.  0.
        4    1    3    3  502    0 -0.22120896023E+03 -0.34049530247E+03  0.19076304512E+04  0.19503656083E+04  0.12699999809E+01 0.  1.
       -4    1    3    3    0  502  0.22120896023E+03  0.34049530247E+03 -0.25616107355E+03  0.48009432780E+03  0.12699999809E+01 0. -1.
</event>
<event>
 5   0  0.4335117E-05  0.1796235E+04  0.7818609E-02  0.8708304E-01
        1   -1    0    0  501    0  0.00000000000E+00  0.00000000000E+00  0.13872015080E+04  0.13872015080E+04  0.50400001928E-02 0.  1.
       -1   -1    0    0    0  501  0.00000000000E+00  0.00000000000E+00 -0.58146958434E+03  0.58146958436E+03  0.50400001928E-02 0. -1.
    10030    2    1    2    0    0  0.00000000000E+00  0.00000000000E+00  0.80573192364E+03  0.19686710924E+04  0.17962354904E+04 0.  0.
        3    1    3    3  502    0  0.47631639903E+03  0.57810114516E+03  0.94595190942E+03  0.12066081680E+04  0.10100000352E+00 0.  1.
       -3    1    3    3    0  502 -0.47631639903E+03 -0.57810114516E+03 -0.14021998578E+03  0.76206292432E+03  0.10100000352E+00 0. -1.
</event>
<event>
 5   0  0.4494757E-05  0.1807563E+04  0.7818609E-02  0.8702288E-01
       -1   -1    0    0    0  501  0.00000000000E+00  0.00000000000E+00  0.78347877690E+03  0.78347877692E+03  0.50400001928E-02 0.  1.
        1   -1    0    0  501    0  0.00000000000E+00  0.00000000000E+00 -0.10425570980E+04  0.10425570980E+04  0.50400001928E-02 0. -1.
    10030    2    1    2    0    0  0.00000000000E+00  0.00000000000E+00 -0.25907832111E+03  0.18260358749E+04  0.18075633986E+04 0.  0.
        4    1    3    3  502    0 -0.50412733506E+03  0.56596689099E+03  0.36778942380E+03  0.84245686228E+03  0.12699999809E+01 0.  1.
       -4    1    3    3    0  502  0.50412733506E+03 -0.56596689099E+03 -0.62686774491E+03  0.98357901266E+03  0.12699999809E+01 0. -1.
</event>
<event>
 5   0  0.4494757E-05  0.1804122E+04  0.7818609E-02  0.8704111E-01
        1   -1    0    0  501    0  0.00000000000E+00  0.00000000000E+00  0.15823944628E+04  0.15823944628E+04  0.50400001928E-02 0.  1.
       -1   -1    0    0    0  501  0.00000000000E+00  0.00000000000E+00 -0.51422944588E+03  0.51422944590E+03  0.50400001928E-02 0. -1.
    10030    2    1    2    0    0  0.00000000000E+00  0.00000000000E+00  0.10681650169E+04  0.20966239087E+04  0.18041217562E+04 0.  0.
        4    1    3    3  502    0  0.39365102059E+03  0.30711946797E+03  0.14071729681E+04  0.14931245322E+04  0.12699999809E+01 0.  1.
       -4    1    3    3    0  502 -0.39365102059E+03 -0.30711946797E+03 -0.33900795116E+03  0.60349937653E+03  0.12699999809E+01 0. -1.
</event>
<event>
 5   0  0.8893075E-05  0.1820976E+04  0.7818609E-02  0.8695224E-01
        2   -1    0    0  501    0  0.00000000000E+00  0.00000000000E+00  0.18664752756E+04  0.18664752756E+04  0.25500000920E-02 0.  1.
       -2   -1    0    0    0  501  0.00000000000E+00  0.00000000000E+00 -0.44414630051E+03  0.44414630052E+03  0.25500000920E-02 0. -1.
    10030    2    1    2    0    0  0.00000000000E+00  0.00000000000E+00  0.14223289751E+04  0.23106215761E+04  0.18209756601E+04 0.  0.
        1    1    3    3  502    0 -0.72444163719E+03  0.50322084969E+03  0.99755536575E+03  0.13316018988E+04  0.50400001928E-02 0. -1.
       -1    1    3    3    0  502  0.72444163719E+03 -0.50322084969E+03  0.42477360934E+03  0.97901967727E+03  0.50400001928E-02 0.  1.
</event>
<event>
 5   0  0.8802655E-05  0.1798557E+04  0.7818609E-02  0.8707067E-01
       -2   -1    0    0    0  501  0.00000000000E+00  0.00000000000E+00  0.70472619297E+03  0.70472619297E+03  0.25500000920E-02 0. -1.
        2   -1    0    0  501    0  0.00000000000E+00  0.00000000000E+00 -0.11475402369E+04  0.11475402369E+04  0.25500000920E-02 0.  1.
    10030    2    1    2    0    0  0.00000000000E+00  0.00000000000E+00 -0.44281404392E+03  0.18522664299E+04  0.17985568242E+04 0.  0.
        2    1    3    3  502    0  0.32490110488E+03 -0.59644298258E+03  0.38559779618E+03  0.78101896254E+03  0.25500000920E-02 0. -1.
       -2    1    3    3    0  502 -0.32490110488E+03  0.59644298258E+03 -0.82841184010E+03  0.10712474673E+04  0.25500000920E-02 0.  1.
</event>
<event>
 5   0  0.9147432E-05  0.1798981E+04  0.7818609E-02  0.8706841E-01
       -2   -1    0    0    0  501  0.00000000000E+00  0.00000000000E+00  0.36656563574E+03  0.36656563575E+03  0.25500000920E-02 0.  1.
        2   -1    0    0  501    0  0.00000000000E+00  0.00000000000E+00 -0.22071994448E+04  0.22071994448E+04  0.25500000920E-02 0. -1.
    10030    2    1    2    0    0  0.00000000000E+00  0.00000000000E+00 -0.18406338091E+04  0.25737650806E+04  0.17989813425E+04 0.  0.
        3    1    3    3  502    0  0.10144125532E+02  0.26833547354E+03 -0.21485169315E+04  0.21652325152E+04  0.10100000352E+00 0. -1.
       -3    1    3    3    0  502 -0.10144125532E+02 -0.26833547354E+03  0.30788312248E+03  0.40853256534E+03  0.10100000352E+00 0.  1.
</event>
<event>
 5   0  0.9184414E-05  0.1795825E+04  0.7818609E-02  0.8708523E-01
        2   -1    0    0  501    0  0.00000000000E+00  0.00000000000E+00  0.17291442952E+04  0.17291442952E+04  0.25500000920E-02 0.  1.
       -2   -1    0    0    0  501  0.00000000000E+00  0.00000000000E+00 -0.46626946833E+03  0.46626946834E+03  0.25500000920E-02 0. -1.
    10030    2    1    2    0    0  0.00000000000E+00  0.00000000000E+00  0.12628748269E+04  0.21954137636E+04  0.17958253715E+04 0.  0.
        5    1    3    3  502    0  0.84409666693E+03 -0.26116077508E+03  0.82673678605E+03  0.12100495597E+04  0.46999998093E+01 0.  1.
       -5    1    3    3    0  502 -0.84409666693E+03  0.26116077508E+03  0.43613804084E+03  0.98536420385E+03  0.46999998093E+01 0. -1.
</event>
<event>
 5   0  0.4623665E-05  0.1801176E+04  0.7818609E-02  0.8705674E-01
       -1   -1    0    0    0  501  0.00000000000E+00  0.00000000000E+00  0.75020257732E+03  0.75020257734E+03  0.50400001928E-02 0. -1.
        1   -1    0    0  501    0  0.00000000000E+00  0.00000000000E+00 -0.10811193204E+04  0.10811193204E+04  0.50400001928E-02 0.  1.
    10030    2    1    2    0    0  0.00000000000E+00  0.00000000000E+00 -0.33091674307E+03  0.18313218977E+04  0.18011757278E+04 0.  0.
        5    1    3    3  502    0 -0.32897712993E+02 -0.86688356776E+03 -0.41130492422E+03  0.96008500158E+03  0.46999998093E+01 0. -1.
       -5    1    3    3    0  502  0.32897712993E+02  0.86688356776E+03  0.80388181154E+02  0.87123689616E+03  0.46999998093E+01 0.  1.
</event>
<event>
 5   0  0.4578107E-05  0.1792847E+04  0.7818609E-02  0.8710112E-01
       -1   -1    0    0    0  501  0.00000000000E+00  0.00000000000E+00  0.36830534387E+03  0.36830534390E+03  0.50400001928E-02 0. -1.
        1   -1    0    0  501    0  0.00000000000E+00  0.00000000000E+00 -0.21818187236E+04  0.21818187236E+04  0.50400001928E-02 0.  1.
    10030    2    1    2    0    0  0.00000000000E+00  0.00000000000E+00 -0.18135133797E+04  0.25501240675E+04  0.17928474506E+04 0.  0.
        2    1    3    3  502    0 -0.71556050466E+03 -0.47311424875E+03 -0.12768825286E+04  0.15382759570E+04  0.25500000920E-02 0.  1.
       -2    1    3    3    0  502  0.71556050466E+03  0.47311424875E+03 -0.53663085109E+03  0.10118481104E+04  0.25500000920E-02 0. -1.
</event>
<event>
 5   0  0.4623665E-05  0.1800207E+04  0.7818609E-02  0.8706190E-01
        1   -1    0    0  501    0  0.00000000000E+00  0.00000000000E+00  0.54698593667E+03  0.54698593669E+03  0.50400001928E-02 0.  1.
       -1   -1    0    0    0  501  0.00000000000E+00  0.00000000000E+00 -0.14811824071E+04  0.14811824071E+04  0.50400001928E-02 0. -1.
    10030    2    1    2    0    0  0.00000000000E+00  0.00000000000E+00 -0.93419647039E+03  0.20281683438E+04  0.18002065952E+04 0.  0.
        5    1    3    3  502    0 -0.84963106190E+03 -0.23625782115E+03 -0.67012061168E+03  0.11075984939E+04  0.46999998093E+01 0. -1.
       -5    1    3    3    0  502  0.84963106190E+03  0.23625782115E+03 -0.26407585871E+03  0.92056984990E+03  0.46999998093E+01 0.  1.
</event>
<event>
 5   0  0.8802655E-05  0.1810490E+04  0.7818609E-02  0.8700741E-01
        2   -1    0    0  501    0  0.00000000000E+00  0.00000000000E+00  0.23286419157E+04  0.23286419157E+04  0.25500000920E-02 0.  1.
       -2   -1    0    0    0  501  0.00000000000E+00  0.00000000000E+00 -0.35190822246E+03  0.35190822247E+03  0.25500000920E-02 0. -1.
    10030    2    1    2    0    0  0.00000000000E+00  0.00000000000E+00  0.19767336933E+04  0.26805501382E+04  0.18104896988E+04 0.  0.
        2    1    3    3  502    0  0.35921981488E+03 -0.74517013717E+03  0.15326654665E+04  0.17416603690E+04  0.25500000920E-02 0.  1.
       -2    1    3    3    0  502 -0.35921981488E+03  0.74517013717E+03  0.44406822681E+03  0.93888976925E+03  0.25500000920E-02 0. -1.
</event>
<event>
 5   0  0.8893075E-05  0.1683288E+04  0.7818609E-02  0.8770954E-01
        2   -1    0    0  501    0  0.00000000000E+00  0.00000000000E+00  0.71667407928E+03  0.71667407929E+03  0.25500000920E-02 0.  1.
       -2   -1    0    0    0  501  0.00000000000E+00  0.00000000000E+00 -0.98840506966E+03  0.98840506966E+03  0.25500000920E-02 0. -1.
    10030    2    1    2    0    0  0.00000000000E+00  0.00000000000E+00 -0.27173099038E+03  0.17050791489E+04  0.16832876085E+04 0.  0.
        1    1    3    3  502    0  0.16052103623E+03  0.57906825523E+03  0.46106584584E+03  0.75740924308E+03  0.50400001928E-02 0.  1.
       -1    1    3    3    0  502 -0.16052103623E+03 -0.57906825523E+03 -0.73279683622E+03  0.94766990587E+03  0.50400001928E-02 0. -1.
</event>
<event>
 5   0  0.8893075E-05  0.1829831E+04  0.7818609E-02  0.8690594E-01
        2   -1    0    0  501    0  0.00000000000E+00  0.00000000000E+00  0.96844074186E+03  0.96844074186E+03  0.25500000920E-02 0. -1.
       -2   -1    0    0    0  501  0.00000000000E+00  0.00000000000E+00 -0.86434897223E+03  0.86434897224E+03  0.25500000920E-02 0.  1.
    10030    2    1    2    0    0  0.00000000000E+00  0.00000000000E+00  0.10409176962E+03  0.18327897141E+04  0.18298314238E+04 0.  0.
        1    1    3    3  502    0 -0.28307704983E+03 -0.86942495661E+03  0.84322018423E+02  0.91822795325E+03  0.50400001928E-02 0. -1.
       -1    1    3    3    0  502  0.28307704983E+03  0.86942495661E+03  0.19769751202E+02  0.91456176085E+03  0.50400001928E-02 0.  1.
</event>
<event>
 5   0  0.9147432E-05  0.1795535E+04  0.7818609E-02  0.8708677E-01
        2   -1    0    0  501    0  0.00000000000E+00  0.00000000000E+00  0.21773035400E+04  0.21773035400E+04  0.25500000920E-02 0. -1.
       -2   -1    0    0    0  501  0.00000000000E+00  0.00000000000E+00 -0.37017661205E+03  0.37017661206E+03  0.25500000920E-02 0.  1.
    10030    2    1    2    0    0  0.00000000000E+00  0.00000000000E+00  0.18071269279E+04  0.25474801521E+04  0.17955354052E+04 0.  0.
        3    1    3    3  502    0  0.56636307147E+03 -0.60640379238E+03  0.41724029894E+03  0.92875301636E+03  0.10100000352E+00 0.  1.
       -3    1    3    3    0  502 -0.56636307147E+03  0.60640379238E+03  0.13898866290E+04  0.16187271357E+04  0.10100000352E+00 0. -1.
</event>
<event>
 5   0  0.4494757E-05  0.1799553E+04  0.7818609E-02  0.8706537E-01
        1   -1    0    0  501    0  0.00000000000E+00  0.00000000000E+00  0.23577718225E+04  0.23577718225E+04  0.50400001928E-02 0.  1.
       -1   -1    0    0    0  501  0.00000000000E+00  0.00000000000E+00 -0.34337392649E+03  0.34337392652E+03  0.50400001928E-02 0. -1.
    10030    2    1    2    0    0  0.00000000000E+00  0.00000000000E+00  0.20143978960E+04  0.27011457491E+04  0.17995525761E+04 0.  0.
        4    1    3    3  502    0 -0.32465092849E+03  0.83079733577E+03  0.82976642144E+03  0.12182513557E+04  0.12699999809E+01 0.  1.
       -4    1    3    3    0  502  0.32465092849E+03 -0.83079733577E+03  0.11846314746E+04  0.14828943934E+04  0.12699999809E+01 0. -1.
</event>
<event>
 5   0  0.9147432E-05  0.1798840E+04  0.7818609E-02  0.8706916E-01
        2   -1    0    0  501    0  0.00000000000E+00  0.00000000000E+00  0.11128918547E+04  0.11128918547E+04  0.25500000920E-02 0. -1.
       -2   -1    0    0    0  501  0.00000000000E+00  0.00000000000E+00 -0.72689589105E+03  0.72689589106E+03  0.25500000920E-02 0.  1.
    10030    2    1    2    0    0  0.00000000000E+00  0.00000000000E+00  0.38599596367E+03  0.18397877458E+04  0.17988402001E+04 0.  0.
        3    1    3    3  502    0  0.60452326016E+03 -0.49533947624E+03  0.64826775745E+03  0.10154115739E+04  0.10100000352E+00 0. -1.
       -3    1    3    3    0  502 -0.60452326016E+03  0.49533947624E+03 -0.26227179378E+03  0.82437617191E+03  0.10100000352E+00 0.  1.
</event>
<event>
 5   0  0.4578107E-05  0.1808083E+04  0.7818609E-02  0.8702013E-01
        1   -1    0    0  501    0  0.00000000000E+00  0.00000000000E+00  0.19991505274E+04  0.19991505275E+04  0.50400001928E-02 0. -1.
       -1   -1    0    0    0  501  0.00000000000E+00  0.00000000000E+00 -0.40881897617E+03  0.40881897620E+03  0.50400001928E-02 0.  1.
    10030    2    1    2    0    0  0.00000000000E+00  0.00000000000E+00  0.15903315513E+04  0.24079695036E+04  0.18080825997E+04 0.  0.
        2    1    3    3  502    0  0.82903496245E+02  0.71371644604E+03  0.15258590205E+04  0.16865674921E+04  0.25500000920E-02 0. -1.
       -2    1    3    3    0  502 -0.82903496245E+02 -0.71371644604E+03  0.64472530813E+02  0.72140201156E+03  0.25500000920E-02 0.  1.
</event>
<event>
 5   0  0.9184414E-05  0.1797344E+04  0.7818609E-02  0.8707713E-01
       -2   -1    0    0    0  501  0.00000000000E+00  0.00000000000E+00  0.38982224275E+03  0.38982224276E+03  0.25500000920E-02 0.  1.
        2   -1    0    0  501    0  0.00000000000E+00  0.00000000000E+00 -0.20717418480E+04  0.20717418480E+04  0.25500000920E-02 0. -1.
    10030    2    1    2    0    0  0.00000000000E+00  0.00000000000E+00 -0.16819196052E+04  0.24615640907E+04  0.17973436551E+04 0.  0.
        5    1    3    3  502    0 -0.66331604299E+03 -0.78716039167E+02 -0.17624289288E+02  0.66821934519E+03  0.46999998093E+01 0.  1.
       -5    1    3    3    0  502  0.66331604299E+03  0.78716039167E+02 -0.16642953159E+04  0.17933447456E+04  0.46999998093E+01 0. -1.
</event>
<event>
 5   0  0.9147432E-05  0.1901469E+04  0.7818609E-02  0.8654125E-01
       -2   -1    0    0    0  501  0.00000000000E+00  0.00000000000E+00  0.68408441310E+03  0.68408441311E+03  0.25500000920E-02 0. -1.
        2   -1    0    0  501    0  0.00000000000E+00  0.00000000000E+00 -0.13213226086E+04  0.13213226086E+04  0.25500000920E-02 0.  1.
    10030    2    1    2    0    0  0.00000000000E+00  0.00000000000E+00 -0.63723819548E+03  0.20054070217E+04  0.19014691175E+04 0.  0.
        3    1    3    3  502    0  0.21840982487E+03  0.21764603249E+03  0.62988704380E+03  0.70130617081E+03  0.10100000352E+00 0. -1.
       -3    1    3    3    0  502 -0.21840982487E+03 -0.21764603249E+03 -0.12671252393E+04  0.13041008509E+04  0.10100000352E+00 0.  1.
</event>
<event>
 5   0  0.4578107E-05  0.1805101E+04  0.7818609E-02  0.8703592E-01
       -1   -1    0    0    0  501  0.00000000000E+00  0.00000000000E+00  0.71305547761E+03  0.71305547763E+03  0.50400001928E-02 0.  1.
        1   -1    0    0  501    0  0.00000000000E+00  0.00000000000E+00 -0.11424037191E+04  0.11424037192E+04  0.50400001928E-02 0. -1.
    10030    2    1    2    0    0  0.00000000000E+00  0.00000000000E+00 -0.42934824154E+03  0.18554591968E+04  0.18051008056E+04 0.  0.
        2    1    3    3  502    0 -0.66613224685E+03  0.54733751671E+03 -0.48911841749E+03  0.99123526664E+03  0.25500000920E-02 0. -1.
       -2    1    3    3    0  502  0.66613224685E+03 -0.54733751671E+03  0.59770175954E+02  0.86422393015E+03  0.25500000920E-02 0.  1.
</event>
<event>
 5   0  0.4578107E-05  0.1797708E+04  0.7818609E-02  0.8707519E-01
       -1   -1    0    0    0  501  0.00000000000E+00  0.00000000000E+00  0.76465284015E+03  0.76465284016E+03  0.50400001928E-02 0. -1.
        1   -1    0    0  501    0  0.00000000000E+00  0.00000000000E+00 -0.10566078188E+04  0.10566078188E+04  0.50400001928E-02 0.  1.
    10030    2    1    2    0    0  0.00000000000E+00  0.00000000000E+00 -0.29195497868E+03  0.18212606590E+04  0.17977076176E+04 0.  0.
        2    1    3    3  502    0 -0.47931979154E+02  0.82602855394E+03  0.20978933263E+03  0.85359956106E+03  0.25500000920E-02 0. -1.
       -2    1    3    3    0  502  0.47931979154E+02 -0.82602855394E+03 -0.50174431131E+03  0.96766109795E+03  0.25500000920E-02 0.  1.
</event>
<event>
 5   0  0.4623665E-05  0.1796598E+04  0.7818609E-02  0.8708111E-01
       -1   -1    0    0    0  501  0.00000000000E+00  0.00000000000E+00  0.89708296204E+03  0.89708296205E+03  0.50400001928E-02 0. -1.
        1   -1    0    0  501    0  0.00000000000E+00  0.00000000000E+00 -0.89951691923E+03  0.89951691924E+03  0.50400001928E-02 0.  1.
    10030    2    1    2    0    0  0.00000000000E+00  0.00000000000E+00 -0.24339571922E+01  0.17965998813E+04  0.17965982326E+04 0.  0.
        5    1    3    3  502    0 -0.64093413646E+03  0.56329843037E+03  0.27952786652E+03  0.89791959946E+03  0.46999998093E+01 0. -1.
       -5    1    3    3    0  502  0.64093413646E+03 -0.56329843037E+03 -0.28196182372E+03  0.89868028184E+03  0.46999998093E+01 0.  1.
</event>
<event>
 5   0  0.8802655E-05  0.1773943E+04  0.7818609E-02  0.8720280E-01
       -2   -1    0    0    0  501  0.00000000000E+00  0.00000000000E+00  0.80165252606E+03  0.80165252606E+03  0.25500000920E-02 0. -1.
        2   -1    0    0  501    0  0.00000000000E+00  0.00000000000E+00 -0.98137127468E+03  0.98137127469E+03  0.25500000920E-02 0.  1.
    10030    2    1    2    0    0  0.00000000000E+00  0.00000000000E+00 -0.17971874863E+03  0.17830238007E+04  0.17739433603E+04 0.  0.
        2    1    3    3  502    0 -0.18407893559E+03 -0.53623941405E+03  0.59574731962E+03  0.82240661023E+03  0.25500000920E-02 0. -1.
       -2    1    3    3    0  502  0.18407893559E+03  0.53623941405E+03 -0.77546606825E+03  0.96061719052E+03  0.25500000920E-02 0.  1.
</event>
<event>
 5   0  0.8802655E-05  0.1782119E+04  0.7818609E-02  0.8715867E-01
       -2   -1    0    0    0  501  0.00000000000E+00  0.00000000000E+00  0.46366608362E+03  0.46366608362E+03  0.25500000920E-02 0. -1.
        2   -1    0    0  501    0  0.00000000000E+00  0.00000000000E+00 -0.17124106371E+04  0.17124106371E+04  0.25500000920E-02 0.  1.
    10030    2    1    2    0    0  0.00000000000E+00  0.00000000000E+00 -0.12487445534E+04  0.21760767207E+04  0.17821186645E+04 0.  0.
        2    1    3    3  502    0 -0.79302098876E+03 -0.35547688736E+03 -0.38403512492E+03  0.95012056247E+03  0.25500000920E-02 0. -1.
       -2    1    3    3    0  502  0.79302098876E+03  0.35547688736E+03 -0.86470942852E+03  0.12259561582E+04  0.25500000920E-02 0.  1.
</event>
<event>
 5   0  0.4335117E-05  0.1787717E+04  0.7818609E-02  0.8712859E-01
        1   -1    0    0  501    0  0.00000000000E+00  0.00000000000E+00  0.68905925406E+03  0.68905925408E+03  0.50400001928E-02 0.  1.
       -1   -1    0    0    0  501  0.00000000000E+00  0.00000000000E+00 -0.11595276366E+04  0.11595276366E+04  0.50400001928E-02 0. -1.
    10030    2    1    2    0    0  0.00000000000E+00  0.00000000000E+00 -0.47046838250E+03  0.18485868907E+04  0.17877172577E+04 0.  0.
        3    1    3    3  502    0 -0.28663668996E+03  0.12561220341E+03 -0.11010265388E+04  0.11446390117E+04  0.10100000352E+00 0. -1.
       -3    1    3    3    0  502  0.28663668996E+03 -0.12561220341E+03  0.63055815629E+03  0.70394787900E+03  0.10100000352E+00 0.  1.
</event>
<event>
 5   0  0.8892280E-05  0.1799635E+04  0.7818609E-02  0.8706494E-01
       -2   -1    0    0    0  501  0.00000000000E+00  0.00000000000E+00  0.31197214794E+03  0.31197214795E+03  0.25500000920E-02 0. -1.
        2   -1    0    0  501    0  0.00000000000E+00  0.00000000000E+00 -0.25953323499E+04  0.25953323499E+04  0.25500000920E-02 0.  1.
    10030    2    1    2    0    0  0.00000000000E+00  0.00000000000E+00 -0.22833602019E+04  0.29073044978E+04  0.17996348606E+04 0.  0.
        4    1    3    3  502    0  0.54375515497E+02 -0.10851360043E+03 -0.25820456446E+04  0.25848971395E+04  0.12699999809E+01 0.  1.
       -4    1    3    3    0  502 -0.54375515497E+02  0.10851360043E+03  0.29868544265E+03  0.32240735834E+03  0.12699999809E+01 0. -1.
</event>
<event>
 5   0  0.4535100E-05  0.1798090E+04  0.7818609E-02  0.8707316E-01
        1   -1    0    0  501    0  0.00000000000E+00  0.00000000000E+00  0.12382989270E+04  0.12382989270E+04  0.50400001928E-02 0.  1.
       -1   -1    0    0    0  501  0.00000000000E+00  0.00000000000E+00 -0.65273566924E+03  0.65273566926E+03  0.50400001928E-02 0. -1.
    10030    2    1    2    0    0  0.00000000000E+00  0.00000000000E+00  0.58556325773E+03  0.18910345962E+04  0.17980899631E+04 0.  0.
        1    1    3    3  502    0 -0.24983713359E+03 -0.29043538743E+03  0.11481564297E+04  0.12103860932E+04  0.50400001928E-02 0.  1.
       -1    1    3    3    0  502  0.24983713359E+03  0.29043538743E+03 -0.56259317192E+03  0.68064850306E+03  0.50400001928E-02 0. -1.
</event>
<event>
 5   0  0.8802655E-05  0.1876185E+04  0.7818609E-02  0.8666802E-01
        2   -1    0    0  501    0  0.00000000000E+00  0.00000000000E+00  0.32514843309E+04  0.32514843309E+04  0.25500000920E-02 0.  1.
       -2   -1    0    0    0  501  0.00000000000E+00  0.00000000000E+00 -0.27065093898E+03  0.27065093900E+03  0.25500000920E-02 0. -1.
    10030    2    1    2    0    0  0.00000000000E+00  0.00000000000E+00  0.29808333920E+04  0.35221352699E+04  0.18761847321E+04 0.  0.
        2    1    3    3  502    0 -0.66505051280E+03 -0.66044999398E+03  0.14169644631E+04  0.16989039610E+04  0.25500000920E-02 0.  1.
       -2    1    3    3    0  502  0.66505051280E+03  0.66044999398E+03  0.15638689289E+04  0.18232313089E+04  0.25500000920E-02 0. -1.
</event>
<event>
 5   0  0.4335117E-05  0.1798323E+04  0.7818609E-02  0.8707192E-01
        1   -1    0    0  501    0  0.00000000000E+00  0.00000000000E+00  0.55275212320E+03  0.55275212322E+03  0.50400001928E-02 0.  1.
       -1   -1    0    0    0  501  0.00000000000E+00  0.00000000000E+00 -0.14626648007E+04  0.14626648007E+04  0.50400001928E-02 0. -1.
    10030    2    1    2    0    0  0.00000000000E+00  0.00000000000E+00 -0.90991267753E+03  0.20154169240E+04  0.17983226342E+04 0.  0.
        3    1    3    3  502    0  0.48101663477E+03 -0.33064719281E+03 -0.12214721725E+04  0.13537720811E+04  0.10100000352E+00 0. -1.
       -3    1    3    3    0  502 -0.48101663477E+03  0.33064719281E+03  0.31155949497E+03  0.66164484291E+03  0.10100000352E+00 0.  1.
</event>
<event>
 5   0  0.8893075E-05  0.1793409E+04  0.7818609E-02  0.8709812E-01
        2   -1    0    0  501    0  0.00000000000E+00  0.00000000000E+00  0.18662718247E+04  0.18662718247E+04  0.25500000920E-02 0. -1.
       -2   -1    0    0    0  501  0.00000000000E+00  0.00000000000E+00 -0.43084789004E+03  0.43084789005E+03  0.25500000920E-02 0.  1.
    10030    2    1    2    0    0  0.00000000000E+00  0.00000000000E+00  0.14354239347E+04  0.22971197148E+04  0.17934093542E+04 0.  0.
        1    1    3    3  502    0 -0.40276921209E+02 -0.53498497481E+03  0.16380204856E+04  0.17236421510E+04  0.50400001928E-02 0. -1.
       -1    1    3    3    0  502  0.40276921209E+02  0.53498497481E+03 -0.20259655089E+03  0.57347756374E+03  0.50400001928E-02 0.  1.
</event>
<event>
 5   0  0.9184414E-05  0.1800415E+04  0.7818609E-02  0.8706079E-01
       -2   -1    0    0    0  501  0.00000000000E+00  0.00000000000E+00  0.52691122685E+03  0.52691122685E+03  0.25500000920E-02 0. -1.
        2   -1    0    0  501    0  0.00000000000E+00  0.00000000000E+00 -0.15379696910E+04  0.15379696910E+04  0.25500000920E-02 0.  1.
    10030    2    1    2    0    0  0.00000000000E+00  0.00000000000E+00 -0.10110584642E+04  0.20648809179E+04  0.18004149486E+04 0.  0.
        5    1    3    3  502    0 -0.68065604606E+03 -0.47961277258E+03 -0.89787740813E+03  0.12245517526E+04  0.46999998093E+01 0.  1.
       -5    1    3    3    0  502  0.68065604606E+03  0.47961277258E+03 -0.11318105606E+03  0.84032916534E+03  0.46999998093E+01 0. -1.
</event>
<event>
 5   0  0.4535100E-05  0.1802968E+04  0.7818609E-02  0.8704723E-01
       -1   -1    0    0    0  501  0.00000000000E+00  0.00000000000E+00  0.40027206704E+03  0.40027206707E+03  0.50400001928E-02 0. -1.
        1   -1    0    0  501    0  0.00000000000E+00  0.00000000000E+00 -0.20303017718E+04  0.20303017718E+04  0.50400001928E-02 0.  1.
    10030    2    1    2    0    0  0.00000000000E+00  0.00000000000E+00 -0.16300297048E+04  0.24305738389E+04  0.18029676503E+04 0.  0.
        1    1    3    3  502    0  0.85094246870E+03  0.18460193101E+03 -0.11297083524E+04  0.14263316302E+04  0.50400001928E-02 0. -1.
       -1    1    3    3    0  502 -0.85094246870E+03 -0.18460193101E+03 -0.50032135244E+03  0.10042422087E+04  0.50400001928E-02 0.  1.
</event>
<event>
 5   0  0.4494757E-05  0.1767085E+04  0.7818609E-02  0.8724002E-01
       -1   -1    0    0    0  501  0.00000000000E+00  0.00000000000E+00  0.80944120908E+03  0.80944120910E+03  0.50400001928E-02 0.  1.
        1   -1    0    0  501    0  0.00000000000E+00  0.00000000000E+00 -0.96442730053E+03  0.96442730055E+03  0.50400001928E-02 0. -1.
    10030    2    1    2    0    0  0.00000000000E+00  0.00000000000E+00 -0.15498609145E+03  0.17738685096E+04  0.17670848313E+04 0.  0.
        4    1    3    3  502    0  0.12633391136E+03 -0.58977657851E+03 -0.72560997281E+03  0.94356139984E+03  0.12699999809E+01 0. -1.
       -4    1    3    3    0  502 -0.12633391136E+03  0.58977657851E+03  0.57062388136E+03  0.83030710981E+03  0.12699999809E+01 0.  1.
</event>
<event>
 5   0  0.4494757E-05  0.1771400E+04  0.7818609E-02  0.8721658E-01
       -1   -1    0    0    0  501  0.00000000000E+00  0.00000000000E+00  0.61081137003E+03  0.61081137005E+03  0.50400001928E-02 0.  1.
        1   -1    0    0  501    0  0.00000000000E+00  0.00000000000E+00 -0.12842985503E+04  0.12842985503E+04  0.50400001928E-02 0. -1.
    10030    2    1    2    0    0  0.00000000000E+00  0.00000000000E+00 -0.67348718028E+03  0.18951099204E+04  0.17713996241E+04 0.  0.
        4    1    3    3  502    0  0.75418110568E+03 -0.26299617698E+03  0.72749122428E+02  0.80202878813E+03  0.12699999809E+01 0.  1.
       -4    1    3    3    0  502 -0.75418110568E+03  0.26299617698E+03 -0.74623630271E+03  0.10930811322E+04  0.12699999809E+01 0. -1.
</event>
<event>
 5   0  0.8802655E-05  0.1801838E+04  0.7818609E-02  0.8705323E-01
       -2   -1    0    0    0  501  0.00000000000E+00  0.00000000000E+00  0.47751877408E+03  0.47751877408E+03  0.25500000920E-02 0.  1.
        2   -1    0    0  501    0  0.00000000000E+00  0.00000000000E+00 -0.16997345848E+04  0.16997345848E+04  0.25500000920E-02 0. -1.
    10030    2    1    2    0    0  0.00000000000E+00  0.00000000000E+00 -0.12222158107E+04  0.21772533589E+04  0.18018381450E+04 0.  0.
        2    1    3    3  502    0  0.61520018779E+02  0.15036194182E+03  0.45967249683E+03  0.48753690179E+03  0.25500000920E-02 0.  1.
       -2    1    3    3    0  502 -0.61520018779E+02 -0.15036194182E+03 -0.16818883076E+04  0.16897164571E+04  0.25500000920E-02 0. -1.
</event>
<event>
 5   0  0.8802655E-05  0.1809745E+04  0.7818609E-02  0.8701134E-01
        2   -1    0    0  501    0  0.00000000000E+00  0.00000000000E+00  0.10443771885E+04  0.10443771885E+04  0.25500000920E-02 0. -1.
       -2   -1    0    0    0  501  0.00000000000E+00  0.00000000000E+00 -0.78400245448E+03  0.78400245448E+03  0.25500000920E-02 0.  1.
    10030    2    1    2    0    0  0.00000000000E+00  0.00000000000E+00  0.26037473405E+03  0.18283796430E+04  0.18097450419E+04 0.  0.
        2    1    3    3  502    0  0.47318161260E+03  0.57240023593E+02  0.90727377305E+03  0.10248526519E+04  0.25500000920E-02 0. -1.
       -2    1    3    3    0  502 -0.47318161260E+03 -0.57240023593E+02 -0.64689903900E+03  0.80352699113E+03  0.25500000920E-02 0.  1.
</event>
<event>
 5   0  0.8892280E-05  0.1787436E+04  0.7818609E-02  0.8713010E-01
       -2   -1    0    0    0  501  0.00000000000E+00  0.00000000000E+00  0.33358998485E+03  0.33358998486E+03  0.25500000920E-02 0. -1.
        2   -1    0    0  501    0  0.00000000000E+00  0.00000000000E+00 -0.23943509880E+04  0.23943509880E+04  0.25500000920E-02 0.  1.
    10030    2    1    2    0    0  0.00000000000E+00  0.00000000000E+00 -0.20607610031E+04  0.27279409728E+04  0.17874356042E+04 0.  0.
        4    1    3    3  502    0  0.44527908593E+03 -0.76459963914E+03 -0.83827731262E+03  0.12188504987E+04  0.12699999809E+01 0. -1.
       -4    1    3    3    0  502 -0.44527908593E+03  0.76459963914E+03 -0.12224836905E+04  0.15090904741E+04  0.12699999809E+01 0.  1.
</event>
<event>
 5   0  0.9184414E-05  0.1801328E+04  0.7818609E-02  0.8705594E-01
        2   -1    0    0  501    0  0.00000000000E+00  0.00000000000E+00  0.10399124583E+04  0.10399124583E+04  0.25500000920E-02 0.  1.
       -2   -1    0    0    0  501  0.00000000000E+00  0.00000000000E+00 -0.78006127116E+03  0.78006127116E+03  0.25500000920E-02 0. -1.
    10030    2    1    2    0    0  0.00000000000E+00  0.00000000000E+00  0.25985118713E+03  0.18199737295E+04  0.18013277704E+04 0.  0.
        5    1    3    3  502    0 -0.38334501606E+03 -0.36423971444E+02 -0.69268475538E+03  0.79253666627E+03  0.46999998093E+01 0. -1.
       -5    1    3    3    0  502  0.38334501606E+03  0.36423971444E+02  0.95253594251E+03  0.10274370632E+04  0.46999998093E+01 0.  1.
</event>
<event>
 5   0  0.8802655E-05  0.1804363E+04  0.7818609E-02  0.8703983E-01
        2   -1    0    0  501    0  0.00000000000E+00  0.00000000000E+00  0.12489387249E+04  0.12489387250E+04  0.25500000920E-02 0.  1.
       -2   -1    0    0    0  501  0.00000000000E+00  0.00000000000E+00 -0.65169854978E+03  0.65169854978E+03  0.25500000920E-02 0. -1.
    10030    2    1    2    0    0  0.00000000000E+00  0.00000000000E+00  0.59724017517E+03  0.19006372747E+04  0.18043631074E+04 0.  0.
        2    1    3    3  502    0 -0.15139788013E+03 -0.41781718426E+03 -0.52840821182E+03  0.69044026237E+03  0.25500000920E-02 0. -1.
       -2    1    3    3    0  502  0.15139788013E+03  0.41781718426E+03  0.11256483870E+04  0.12101970124E+04  0.25500000920E-02 0.  1.
</event>
<event>
 5   0  0.8893075E-05  0.1789724E+04  0.7818609E-02  0.8711783E-01
        2   -1    0    0  501    0  0.00000000000E+00  0.00000000000E+00  0.11459012636E+04  0.11459012636E+04  0.25500000920E-02 0. -1.
       -2   -1    0    0    0  501  0.00000000000E+00  0.00000000000E+00 -0.69881949733E+03  0.69881949733E+03  0.25500000920E-02 0.  1.
    10030    2    1    2    0    0  0.00000000000E+00  0.00000000000E+00  0.44708176625E+03  0.18447207609E+04  0.17897241631E+04 0.  0.
        1    1    3    3  502    0 -0.79172040585E+03  0.18144683953E+03 -0.16354419309E+03  0.82854743964E+03  0.50400001928E-02 0.  1.
       -1    1    3    3    0  502  0.79172040585E+03 -0.18144683953E+03  0.61062595935E+03  0.10161733213E+04  0.50400001928E-02 0. -1.
</event>
<event>
 5   0  0.8892280E-05  0.1802479E+04  0.7818609E-02  0.8704982E-01
        2   -1    0    0  501    0  0.00000000000E+00  0.00000000000E+00  0.15499713681E+04  0.15499713681E+04  0.25500000920E-02 0. -1.
       -2   -1    0    0    0  501  0.00000000000E+00  0.00000000000E+00 -0.52403095845E+03  0.52403095845E+03  0.25500000920E-02 0.  1.
    10030    2    1    2    0    0  0.00000000000E+00  0.00000000000E+00  0.10259404096E+04  0.20740023265E+04  0.18024793831E+04 0.  0.
        4    1    3    3  502    0  0.15693084842E+02 -0.71525374383E+03 -0.11767755496E+03  0.72504055805E+03  0.12699999809E+01 0.  1.
       -4    1    3    3    0  502 -0.15693084842E+02  0.71525374383E+03  0.11436179646E+04  0.13489617685E+04  0.12699999809E+01 0. -1.
</event>
<event>
 5   0  0.8892280E-05  0.1848324E+04  0.7818609E-02  0.8681015E-01
       -2   -1    0    0    0  501  0.00000000000E+00  0.00000000000E+00  0.58010642365E+03  0.58010642366E+03  0.25500000920E-02 0.  1.
        2   -1    0    0  501    0  0.00000000000E+00  0.00000000000E+00 -0.14722743315E+04  0.14722743315E+04  0.25500000920E-02 0. -1.
    10030    2    1    2    0    0  0.00000000000E+00  0.00000000000E+00 -0.89216790781E+03  0.20523807551E+04  0.18483244272E+04 0.  0.
        4    1    3    3  502    0 -0.47605764281E+03  0.67155723660E+03 -0.91252387096E+03  0.12289513535E+04  0.12699999809E+01 0. -1.
       -4    1    3    3    0  502  0.47605764281E+03 -0.67155723660E+03  0.20355963150E+02  0.82342940162E+03  0.12699999809E+01 0.  1.
</event>
<event>
 5   0  0.9184414E-05  0.1799760E+04  0.7818609E-02  0.8706427E-01
       -2   -1    0    0    0  501  0.00000000000E+00  0.00000000000E+00  0.13491257043E+04  0.13491257043E+04  0.25500000920E-02 0. -1.
        2   -1    0    0  501    0  0.00000000000E+00  0.00000000000E+00 -0.60022905187E+03  0.60022905187E+03  0.25500000920E-02 0.  1.
    10030    2    1    2    0    0  0.00000000000E+00  0.00000000000E+00  0.74889665243E+03  0.19493547562E+04  0.17997604756E+04 0.  0.
        5    1    3    3  502    0  0.13669226371E+03  0.28762583836E+03  0.12860388472E+04  0.13248892045E+04  0.46999998093E+01 0. -1.
       -5    1    3    3    0  502 -0.13669226371E+03 -0.28762583836E+03 -0.53714219473E+03  0.62446555165E+03  0.46999998093E+01 0.  1.
</event>
<event>
 5   0  0.4494757E-05  0.1793589E+04  0.7818609E-02  0.8709716E-01
       -1   -1    0    0    0  501  0.00000000000E+00  0.00000000000E+00  0.55233491117E+03  0.55233491120E+03  0.50400001928E-02 0. -1.
        1   -1    0    0  501    0  0.00000000000E+00  0.00000000000E+00 -0.14560741040E+04  0.14560741040E+04  0.50400001928E-02 0.  1.
    10030    2    1    2    0    0  0.00000000000E+00  0.00000000000E+00 -0.90373919282E+03  0.20084090152E+04  0.17935892071E+04 0.  0.
        4    1    3    3  502    0  0.15641837495E+03 -0.45580465599E+03  0.39503140103E+03  0.62311797690E+03  0.12699999809E+01 0. -1.
       -4    1    3    3    0  502 -0.15641837495E+03  0.45580465599E+03 -0.12987705938E+04  0.13852910383E+04  0.12699999809E+01 0.  1.
</event>
<event>
 5   0  0.9184414E-05  0.1802212E+04  0.7818609E-02  0.8705124E-01
        2   -1    0    0  501    0  0.00000000000E+00  0.00000000000E+00  0.15517732833E+04  0.15517732833E+04  0.25500000920E-02 0.  1.
       -2   -1    0    0    0  501  0.00000000000E+00  0.00000000000E+00 -0.52326691765E+03  0.52326691765E+03  0.25500000920E-02 0. -1.
    10030    2    1    2    0    0  0.00000000000E+00  0.00000000000E+00  0.10285063657E+04  0.20750402010E+04  0.18022115557E+04 0.  0.
        5    1    3    3  502    0  0.26323431632E+03 -0.73531571408E+03 -0.32148903118E+01  0.78103388542E+03  0.46999998093E+01 0. -1.
       -5    1    3    3    0  502 -0.26323431632E+03  0.73531571408E+03  0.10317212560E+04  0.12940063156E+04  0.46999998093E+01 0.  1.
</event>
<event>
 5   0  0.9147432E-05  0.1807171E+04  0.7818609E-02  0.8702495E-01
        2   -1    0    0  501    0  0.00000000000E+00  0.00000000000E+00  0.84427890287E+03  0.84427890287E+03  0.25500000920E-02 0. -1.
       -2   -1    0    0    0  501  0.00000000000E+00  0.00000000000E+00 -0.96705787013E+03  0.96705787014E+03  0.25500000920E-02 0.  1.
    10030    2    1    2    0    0  0.00000000000E+00  0.00000000000E+00 -0.12277896727E+03  0.18113367730E+04  0.18071707807E+04 0.  0.
        3    1    3    3  502    0 -0.53916119049E+03 -0.62771718560E+03 -0.42519024701E+03  0.93032811996E+03  0.10100000352E+00 0.  1.
       -3    1    3    3    0  502  0.53916119049E+03  0.62771718560E+03  0.30241127975E+03  0.88100865305E+03  0.10100000352E+00 0. -1.
</event>
<event>
 5   0  0.3270375E-05  0.1831386E+04  0.7818609E-02  0.8689784E-01
        4   -1    0    0  501    0  0.00000000000E+00  0.00000000000E+00  0.14955389385E+04  0.14955394778E+04  0.12699999809E+01 0. -1.
       -4   -1    0    0    0  501  0.00000000000E+00  0.00000000000E+00 -0.56066212182E+03  0.56066356021E+03  0.12699999809E+01 0.  1.
    10030    2    1    2    0    0  0.00000000000E+00  0.00000000000E+00  0.93487681672E+03  0.20562030380E+04  0.18313864341E+04 0.  0.
        4    1    3    3  502    0 -0.15885753056E+03  0.95374327322E+02  0.14742712332E+04  0.14858698662E+04  0.12699999809E+01 0. -1.
       -4    1    3    3    0  502  0.15885753056E+03 -0.95374327322E+02 -0.53939441652E+03  0.57033317175E+03  0.12699999809E+01 0.  1.
</event>
<event>
 5   0  0.4535100E-05  0.1798346E+04  0.7818609E-02  0.8707180E-01
        1   -1    0    0  501    0  0.00000000000E+00  0.00000000000E+00  0.10737215153E+04  0.10737215153E+04  0.50400001928E-02 0. -1.
       -1   -1    0    0    0  501  0.00000000000E+00  0.00000000000E+00 -0.75299971701E+03  0.75299971703E+03  0.50400001928E-02 0.  1.
    10030    2    1    2    0    0  0.00000000000E+00  0.00000000000E+00  0.32072179824E+03  0.18267212323E+04  0.17983459035E+04 0.  0.
        1    1    3    3  502    0  0.71774118409E+03  0.33024976588E+03  0.59643013451E+03  0.98992233058E+03  0.50400001928E-02 0.  1.
       -1    1    3    3    0  502 -0.71774118409E+03 -0.33024976588E+03 -0.27570833627E+03  0.83679890172E+03  0.50400001928E-02 0. -1.
</event>
<event>
 5   0  0.4623665E-05  0.1804101E+04  0.7818609E-02  0.8704121E-01
        1   -1    0    0  501    0  0.00000000000E+00  0.00000000000E+00  0.17916809477E+04  0.17916809477E+04  0.50400001928E-02 0. -1.
       -1   -1    0    0    0  501  0.00000000000E+00  0.00000000000E+00 -0.45415201046E+03  0.45415201048E+03  0.50400001928E-02 0.  1.
    10030    2    1    2    0    0  0.00000000000E+00  0.00000000000E+00  0.13375289372E+04  0.22458329582E+04  0.18041014434E+04 0.  0.
        5    1    3    3  502    0  0.91662137549E+02  0.88715847899E+03  0.83680195598E+03  0.12229929345E+04  0.46999998093E+01 0. -1.
       -5    1    3    3    0  502 -0.91662137549E+02 -0.88715847899E+03  0.50072698127E+03  0.10228400237E+04  0.46999998093E+01 0.  1.
</event>
<event>
 5   0  0.4623665E-05  0.1798821E+04  0.7818609E-02  0.8706927E-01
       -1   -1    0    0    0  501  0.00000000000E+00  0.00000000000E+00  0.11477207037E+04  0.11477207037E+04  0.50400001928E-02 0.  1.
        1   -1    0    0  501    0  0.00000000000E+00  0.00000000000E+00 -0.70482243065E+03  0.70482243066E+03  0.50400001928E-02 0. -1.
    10030    2    1    2    0    0  0.00000000000E+00  0.00000000000E+00  0.44289827308E+03  0.18525431344E+04  0.17988210541E+04 0.  0.
        5    1    3    3  502    0  0.18911325943E+03 -0.82175244001E+03  0.54364440434E+03  0.10033006658E+04  0.46999998093E+01 0. -1.
       -5    1    3    3    0  502 -0.18911325943E+03  0.82175244001E+03 -0.10074613127E+03  0.84924246863E+03  0.46999998093E+01 0.  1.
</event>
<event>
 5   0  0.8893075E-05  0.1795163E+04  0.7818609E-02  0.8708876E-01
        2   -1    0    0  501    0  0.00000000000E+00  0.00000000000E+00  0.93879391109E+03  0.93879391110E+03  0.25500000920E-02 0. -1.
       -2   -1    0    0    0  501  0.00000000000E+00  0.00000000000E+00 -0.85817794286E+03  0.85817794287E+03  0.25500000920E-02 0.  1.
    10030    2    1    2    0    0  0.00000000000E+00  0.00000000000E+00  0.80615968230E+02  0.17969718540E+04  0.17951626415E+04 0.  0.
        1    1    3    3  502    0 -0.54616725779E+02  0.28710742033E+03  0.88983199930E+03  0.93659737590E+03  0.50400001928E-02 0. -1.
       -1    1    3    3    0  502  0.54616725779E+02 -0.28710742033E+03 -0.80921603107E+03  0.86037447807E+03  0.50400001928E-02 0.  1.
</event>
<event>
 5   0  0.8893075E-05  0.1796153E+04  0.7818609E-02  0.8708348E-01
       -2   -1    0    0    0  501  0.00000000000E+00  0.00000000000E+00  0.11096502584E+04  0.11096502584E+04  0.25500000920E-02 0.  1.
        2   -1    0    0  501    0  0.00000000000E+00  0.00000000000E+00 -0.72684273868E+03  0.72684273868E+03  0.25500000920E-02 0. -1.
    10030    2    1    2    0    0  0.00000000000E+00  0.00000000000E+00  0.38280751971E+03  0.18364929971E+04  0.17961528140E+04 0.  0.
        1    1    3    3  502    0 -0.81007527702E+03  0.95106948731E+02 -0.19290212292E+03  0.83813991385E+03  0.50400001928E-02 0. -1.
       -1    1    3    3    0  502  0.81007527702E+03 -0.95106948731E+02  0.57570964263E+03  0.99835308322E+03  0.50400001928E-02 0.  1.
</event>
<event>
 5   0  0.4494757E-05  0.1798351E+04  0.7818609E-02  0.8707177E-01
        1   -1    0    0  501    0  0.00000000000E+00  0.00000000000E+00  0.12647252622E+04  0.12647252622E+04  0.50400001928E-02 0.  1.
       -1   -1    0    0    0  501  0.00000000000E+00  0.00000000000E+00 -0.63928246963E+03  0.63928246965E+03  0.50400001928E-02 0. -1.
    10030    2    1    2    0    0  0.00000000000E+00  0.00000000000E+00  0.62544279256E+03  0.19040077318E+04  0.17983511215E+04 0.  0.
        4    1    3    3  502    0 -0.78120089303E+03  0.34500875016E+03  0.14744879055E+02  0.85412229646E+03  0.12699999809E+01 0. -1.
       -4    1    3    3    0  502  0.78120089303E+03 -0.34500875016E+03  0.61069791350E+03  0.10498854354E+04  0.12699999809E+01 0.  1.
</event>
<event>
 5   0  0.8802655E-05  0.1801366E+04  0.7818609E-02  0.8705574E-01
       -2   -1    0    0    0  501  0.00000000000E+00  0.00000000000E+00  0.79909978689E+03  0.79909978690E+03  0.25500000920E-02 0. -1.
        2   -1    0    0  501    0  0.00000000000E+00  0.00000000000E+00 -0.10151792231E+04  0.10151792231E+04  0.25500000920E-02 0.  1.
    10030    2    1    2    0    0  0.00000000000E+00  0.00000000000E+00 -0.21607943617E+03  0.18142790100E+04  0.18013655940E+04 0.  0.
        2    1    3    3  502    0 -0.29605681563E+03  0.37053004174E+03 -0.87922276679E+03  0.99898689859E+03  0.25500000920E-02 0.  1.
       -2    1    3    3    0  502  0.29605681563E+03 -0.37053004174E+03  0.66314333062E+03  0.81529211137E+03  0.25500000920E-02 0. -1.
</event>
<event>
 5   0  0.3270375E-05  0.1798338E+04  0.7818609E-02  0.8707184E-01
        3   -1    0    0  501    0  0.00000000000E+00  0.00000000000E+00  0.82197260954E+03  0.82197261575E+03  0.10100000352E+00 0. -1.
       -3   -1    0    0    0  501  0.00000000000E+00  0.00000000000E+00 -0.98361555658E+03  0.98361556176E+03  0.10100000352E+00 0.  1.
    10030    2    1    2    0    0  0.00000000000E+00  0.00000000000E+00 -0.16164294704E+03  0.18055881775E+04  0.17983381841E+04 0.  0.
        1    1    3    3  502    0  0.70497009841E+03  0.10423024826E+03 -0.63135518154E+03  0.95207990715E+03  0.50400001928E-02 0.  1.
       -1    1    3    3    0  502 -0.70497009841E+03 -0.10423024826E+03  0.46971223451E+03  0.85350827036E+03  0.50400001928E-02 0. -1.
</event>
<event>
 5   0  0.9184414E-05  0.1779157E+04  0.7818609E-02  0.8717463E-01
       -2   -1    0    0    0  501  0.00000000000E+00  0.00000000000E+00  0.49138546958E+03  0.49138546958E+03  0.25500000920E-02 0.  1.
        2   -1    0    0  501    0  0.00000000000E+00  0.00000000000E+00 -0.16104467846E+04  0.16104467846E+04  0.25500000920E-02 0. -1.
    10030    2    1    2    0    0  0.00000000000E+00  0.00000000000E+00 -0.11190613151E+04  0.21018322542E+04  0.17791572719E+04 0.  0.
        5    1    3    3  502    0  0.43891188215E+03 -0.37780827119E+03 -0.13572315867E+04  0.14756294928E+04  0.46999998093E+01 0. -1.
       -5    1    3    3    0  502 -0.43891188215E+03  0.37780827119E+03  0.23817027167E+03  0.62620276140E+03  0.46999998093E+01 0.  1.
</event>
<event>
 5   0  0.9184414E-05  0.1806902E+04  0.7818609E-02  0.8702637E-01
        2   -1    0    0  501    0  0.00000000000E+00  0.00000000000E+00  0.19814140373E+04  0.19814140373E+04  0.25500000920E-02 0. -1.
       -2   -1    0    0    0  501  0.00000000000E+00  0.00000000000E+00 -0.41194023010E+03  0.41194023010E+03  0.25500000920E-02 0.  1.
    10030    2    1    2    0    0  0.00000000000E+00  0.00000000000E+00  0.15694738072E+04  0.23933542674E+04  0.18069024926E+04 0.  0.
        5    1    3    3  502    0 -0.62371138512E+03  0.49642844024E+02  0.16479629332E+04  0.17627490528E+04  0.46999998093E+01 0. -1.
       -5    1    3    3    0  502  0.62371138512E+03 -0.49642844024E+02 -0.78489125936E+02  0.63060521468E+03  0.46999998093E+01 0.  1.
</event>
<event>
 5   0  0.4535100E-05  0.1804838E+04  0.7818609E-02  0.8703731E-01
        1   -1    0    0  501    0  0.00000000000E+00  0.00000000000E+00  0.11479713774E+04  0.11479713774E+04  0.50400001928E-02 0.  1.
       -1   -1    0    0    0  501  0.00000000000E+00  0.00000000000E+00 -0.70939056403E+03  0.70939056404E+03  0.50400001928E-02 0. -1.
    10030    2    1    2    0    0  0.00000000000E+00  0.00000000000E+00  0.43858081340E+03  0.18573619415E+04  0.18048380126E+04 0.  0.
        1    1    3    3  502    0 -0.39280417456E+03 -0.58544570111E+03  0.79899381664E+03  0.10655669418E+04  0.50400001928E-02 0.  1.
       -1    1    3    3    0  502  0.39280417456E+03  0.58544570111E+03 -0.36041300324E+03  0.79179499963E+03  0.50400001928E-02 0. -1.
</event>
<event>
 5   0  0.4494757E-05  0.1795447E+04  0.7818609E-02  0.8708725E-01
        1   -1    0    0  501    0  0.00000000000E+00  0.00000000000E+00  0.15461567330E+04  0.15461567330E+04  0.50400001928E-02 0.  1.
       -1   -1    0    0    0  501  0.00000000000E+00  0.00000000000E+00 -0.52123246773E+03  0.52123246776E+03  0.50400001928E-02 0. -1.
    10030    2    1    2    0    0  0.00000000000E+00  0.00000000000E+00  0.10249242653E+04  0.20673892008E+04  0.17954465623E+04 0.  0.
        4    1    3    3  502    0  0.54894144580E+03  0.65822884300E+03  0.81993397769E+03  0.11861261574E+04  0.12699999809E+01 0.  1.
       -4    1    3    3    0  502 -0.54894144580E+03 -0.65822884300E+03  0.20499028761E+03  0.88126304336E+03  0.12699999809E+01 0. -1.
</event>
<event>
 5   0  0.9147432E-05  0.1799159E+04  0.7818609E-02  0.8706747E-01
        2   -1    0    0  501    0  0.00000000000E+00  0.00000000000E+00  0.13419185386E+04  0.13419185386E+04  0.25500000920E-02 0.  1.
       -2   -1    0    0    0  501  0.00000000000E+00  0.00000000000E+00 -0.60304944266E+03  0.60304944266E+03  0.25500000920E-02 0. -1.
    10030    2    1    2    0    0  0.00000000000E+00  0.00000000000E+00  0.73886909589E+03  0.19449679812E+04  0.17991589444E+04 0.  0.
        3    1    3    3  502    0 -0.49746827959E+03  0.62455621812E+03  0.81738049885E+03  0.11426530746E+04  0.10100000352E+00 0. -1.
       -3    1    3    3    0  502  0.49746827959E+03 -0.62455621812E+03 -0.78511402952E+02  0.80231490662E+03  0.10100000352E+00 0.  1.
</event>
<event>
 5   0  0.8893075E-05  0.1800217E+04  0.7818609E-02  0.8706184E-01
       -2   -1    0    0    0  501  0.00000000000E+00  0.00000000000E+00  0.10529384385E+04  0.10529384385E+04  0.25500000920E-02 0. -1.
        2   -1    0    0  501    0  0.00000000000E+00  0.00000000000E+00 -0.76946090392E+03  0.76946090393E+03  0.25500000920E-02 0.  1.
    10030    2    1    2    0    0  0.00000000000E+00  0.00000000000E+00  0.28347753455E+03  0.18223993424E+04  0.18002166121E+04 0.  0.
        1    1    3    3  502    0 -0.76090845303E+03 -0.46162492414E+03  0.27799192079E+03  0.93239409722E+03  0.50400001928E-02 0. -1.
       -1    1    3    3    0  502  0.76090845303E+03  0.46162492414E+03  0.54856137632E+01  0.89000524519E+03  0.50400001928E-02 0.  1.
</event>
<event>
 5   0  0.9184414E-05  0.1798585E+04  0.7818609E-02  0.8707053E-01
        2   -1    0    0  501    0  0.00000000000E+00  0.00000000000E+00  0.18294893308E+04  0.18294893308E+04  0.25500000920E-02 0.  1.
       -2   -1    0    0    0  501  0.00000000000E+00  0.00000000000E+00 -0.44205043941E+03  0.44205043942E+03  0.25500000920E-02 0. -1.
    10030    2    1    2    0    0  0.00000000000E+00  0.00000000000E+00  0.13874388914E+04  0.22715397702E+04  0.17985845130E+04 0.  0.
        5    1    3    3  502    0  0.13319195858E+03 -0.88888377551E+03  0.73054091359E+03  0.11582601524E+04  0.46999998093E+01 0.  1.
       -5    1    3    3    0  502 -0.13319195858E+03  0.88888377551E+03  0.65689797776E+03  0.11132796178E+04  0.46999998093E+01 0. -1.
</event>
<event>
 5   0  0.3270375E-05  0.1806884E+04  0.7818609E-02  0.8702647E-01
       -4   -1    0    0    0  501  0.00000000000E+00  0.00000000000E+00  0.12939073145E+04  0.12939079378E+04  0.12699999809E+01 0.  1.
        4   -1    0    0  501    0  0.00000000000E+00  0.00000000000E+00 -0.63080657626E+03  0.63080785470E+03  0.12699999809E+01 0. -1.
    10030    2    1    2    0    0  0.00000000000E+00  0.00000000000E+00  0.66310073825E+03  0.19247157925E+04  0.18068835858E+04 0.  0.
        1    1    3    3  502    0 -0.66990672157E+03 -0.60540432663E+03  0.36381874198E+03  0.97347495671E+03  0.50400001928E-02 0. -1.
       -1    1    3    3    0  502  0.66990672157E+03  0.60540432663E+03  0.29928199627E+03  0.95124083576E+03  0.50400001928E-02 0.  1.
</event>
<event>
 5   0  0.9147432E-05  0.1801728E+04  0.7818609E-02  0.8705381E-01
       -2   -1    0    0    0  501  0.00000000000E+00  0.00000000000E+00  0.61130210041E+03  0.61130210042E+03  0.25500000920E-02 0. -1.
        2   -1    0    0  501    0  0.00000000000E+00  0.00000000000E+00 -0.13275858788E+04  0.13275858788E+04  0.25500000920E-02 0.  1.
    10030    2    1    2    0    0  0.00000000000E+00  0.00000000000E+00 -0.71628377842E+03  0.19388879792E+04  0.18017280996E+04 0.  0.
        3    1    3    3  502    0  0.13996705973E+03  0.30646541009E+03 -0.12572355341E+04  0.13015963368E+04  0.10100000352E+00 0.  1.
       -3    1    3    3    0  502 -0.13996705973E+03 -0.30646541009E+03  0.54095175571E+03  0.63729164250E+03  0.10100000352E+00 0. -1.
</event>
<event>
 5   0  0.8892280E-05  0.1814980E+04  0.7818609E-02  0.8698374E-01
       -2   -1    0    0    0  501  0.00000000000E+00  0.00000000000E+00  0.43158661185E+03  0.43158661186E+03  0.25500000920E-02 0.  1.
        2   -1    0    0  501    0  0.00000000000E+00  0.00000000000E+00 -0.19081637603E+04  0.19081637603E+04  0.25500000920E-02 0. -1.
    10030    2    1    2    0    0  0.00000000000E+00  0.00000000000E+00 -0.14765771484E+04  0.23397503722E+04  0.18149798150E+04 0.  0.
        4    1    3    3  502    0  0.75542441617E+03  0.83505826455E+02 -0.13775439411E+04  0.15732985076E+04  0.12699999809E+01 0. -1.
       -4    1    3    3    0  502 -0.75542441617E+03 -0.83505826455E+02 -0.99033207385E+02  0.76645186454E+03  0.12699999809E+01 0.  1.
</event>
<event>
 5   0  0.3270375E-05  0.1803016E+04  0.7818609E-02  0.8704697E-01
        3   -1    0    0  501    0  0.00000000000E+00  0.00000000000E+00  0.10364379601E+04  0.10364379650E+04  0.10100000352E+00 0.  1.
       -3   -1    0    0    0  501  0.00000000000E+00  0.00000000000E+00 -0.78414382745E+03  0.78414383395E+03  0.10100000352E+00 0. -1.
    10030    2    1    2    0    0  0.00000000000E+00  0.00000000000E+00  0.25229413264E+03  0.18205817990E+04  0.18030157396E+04 0.  0.
        2    1    3    3  502    0 -0.13680528048E+02 -0.50913843840E+03 -0.62494624007E+03  0.80620525259E+03  0.25500000920E-02 0. -1.
       -2    1    3    3    0  502  0.13680528048E+02  0.50913843840E+03  0.87724037271E+03  0.10143765464E+04  0.25500000920E-02 0.  1.
</event>
<event>
 5   0  0.9147432E-05  0.1800603E+04  0.7818609E-02  0.8705979E-01
        2   -1    0    0  501    0  0.00000000000E+00  0.00000000000E+00  0.10645304004E+04  0.10645304004E+04  0.25500000920E-02 0. -1.
       -2   -1    0    0    0  501  0.00000000000E+00  0.00000000000E+00 -0.76140911934E+03  0.76140911934E+03  0.25500000920E-02 0.  1.
    10030    2    1    2    0    0  0.00000000000E+00  0.00000000000E+00  0.30312128108E+03  0.18259395198E+04  0.18006034041E+04 0.  0.
        3    1    3    3  502    0 -0.72021867997E+03  0.53664885463E+03  0.88752029739E+02  0.90254300348E+03  0.10100000352E+00 0. -1.
       -3    1    3    3    0  502  0.72021867997E+03 -0.53664885463E+03  0.21436925134E+03  0.92339651628E+03  0.10100000352E+00 0.  1.
</event>
<event>
 5   0  0.8892280E-05  0.1863460E+04  0.7818609E-02  0.8673261E-01
       -2   -1    0    0    0  501  0.00000000000E+00  0.00000000000E+00  0.51552372630E+03  0.51552372631E+03  0.25500000920E-02 0.  1.
        2   -1    0    0  501    0  0.00000000000E+00  0.00000000000E+00 -0.16839592270E+04  0.16839592270E+04  0.25500000920E-02 0. -1.
    10030    2    1    2    0    0  0.00000000000E+00  0.00000000000E+00 -0.11684355007E+04  0.21994829533E+04  0.18634601532E+04 0.  0.
        4    1    3    3  502    0  0.53766029877E+03  0.15771178027E+03  0.29444274778E+03  0.63296899382E+03  0.12699999809E+01 0.  1.
       -4    1    3    3    0  502 -0.53766029877E+03 -0.15771178027E+03 -0.14628782485E+04  0.15665139595E+04  0.12699999809E+01 0. -1.
</event>
<event>
 5   0  0.8893075E-05  0.1797840E+04  0.7818609E-02  0.8707449E-01
        2   -1    0    0  501    0  0.00000000000E+00  0.00000000000E+00  0.15915398403E+04  0.15915398403E+04  0.25500000920E-02 0.  1.
       -2   -1    0    0    0  501  0.00000000000E+00  0.00000000000E+00 -0.50772054661E+03  0.50772054662E+03  0.25500000920E-02 0. -1.
    10030    2    1    2    0    0  0.00000000000E+00  0.00000000000E+00  0.10838192937E+04  0.20992603869E+04  0.17978403463E+04 0.  0.
        1    1    3    3  502    0  0.20308774283E+03  0.46349045030E+03 -0.32561251161E+03  0.60174042290E+03  0.50400001928E-02 0. -1.
       -1    1    3    3    0  502 -0.20308774283E+03 -0.46349045030E+03  0.14094318053E+04  0.14975199640E+04  0.50400001928E-02 0.  1.
</event>
<event>
 5   0  0.4494757E-05  0.1782045E+04  0.7818609E-02  0.8715907E-01
       -1   -1    0    0    0  501  0.00000000000E+00  0.00000000000E+00  0.58935561248E+03  0.58935561250E+03  0.50400001928E-02 0. -1.
        1   -1    0    0  501    0  0.00000000000E+00  0.00000000000E+00 -0.13470996414E+04  0.13470996414E+04  0.50400001928E-02 0.  1.
    10030    2    1    2    0    0  0.00000000000E+00  0.00000000000E+00 -0.75774402895E+03  0.19364552539E+04  0.17820445946E+04 0.  0.
        4    1    3    3  502    0  0.15403185466E+02  0.22445647497E+03  0.55798066204E+03  0.60163277786E+03  0.12699999809E+01 0. -1.
       -4    1    3    3    0  502 -0.15403185466E+02 -0.22445647497E+03 -0.13157246910E+04  0.13348224761E+04  0.12699999809E+01 0.  1.
</event>
<event>
 5   0  0.9147432E-05  0.1801193E+04  0.7818609E-02  0.8705665E-01
       -2   -1    0    0    0  501  0.00000000000E+00  0.00000000000E+00  0.93816511229E+03  0.93816511230E+03  0.25500000920E-02 0.  1.
        2   -1    0    0  501    0  0.00000000000E+00  0.00000000000E+00 -0.86453258401E+03  0.86453258401E+03  0.25500000920E-02 0. -1.
    10030    2    1    2    0    0  0.00000000000E+00  0.00000000000E+00  0.73632528282E+02  0.18026976963E+04  0.18011932809E+04 0.  0.
        3    1    3    3  502    0 -0.10024599156E+03  0.89470058791E+03  0.13647463765E+02  0.90040250127E+03  0.10100000352E+00 0. -1.
       -3    1    3    3    0  502  0.10024599156E+03 -0.89470058791E+03  0.59985064517E+02  0.90229519504E+03  0.10100000352E+00 0.  1.
</event>
<event>
 5   0  0.9184414E-05  0.1803298E+04  0.7818609E-02  0.8704548E-01
       -2   -1    0    0    0  501  0.00000000000E+00  0.00000000000E+00  0.84777822577E+03  0.84777822578E+03  0.25500000920E-02 0. -1.
        2   -1    0    0  501    0  0.00000000000E+00  0.00000000000E+00 -0.95894271271E+03  0.95894271272E+03  0.25500000920E-02 0.  1.
    10030    2    1    2    0    0  0.00000000000E+00  0.00000000000E+00 -0.11116448694E+03  0.18067209385E+04  0.18032978141E+04 0.  0.
        5    1    3    3  502    0 -0.70411169164E+02  0.89594635259E+02 -0.95168697382E+03  0.95849627936E+03  0.46999998093E+01 0.  1.
       -5    1    3    3    0  502  0.70411169164E+02 -0.89594635259E+02  0.84052248688E+03  0.84822465913E+03  0.46999998093E+01 0. -1.
</event>
<event>
 5   0  0.4335117E-05  0.1790285E+04  0.7818609E-02  0.8711483E-01
       -1   -1    0    0    0  501  0.00000000000E+00  0.00000000000E+00  0.82031946004E+03  0.82031946006E+03  0.50400001928E-02 0.  1.
        1   -1    0    0  501    0  0.00000000000E+00  0.00000000000E+00 -0.97679012739E+03  0.97679012740E+03  0.50400001928E-02 0. -1.
    10030    2    1    2    0    0  0.00000000000E+00  0.00000000000E+00 -0.15647066735E+03  0.17971095875E+04  0.17902848376E+04 0.  0.
        3    1    3    3  502    0 -0.58467337748E+03  0.34380683060E+03 -0.66461442646E+03  0.94960962567E+03  0.10100000352E+00 0. -1.
       -3    1    3    3    0  502  0.58467337748E+03 -0.34380683060E+03  0.50814375911E+03  0.84749996179E+03  0.10100000352E+00 0.  1.
</event>
<event>
 5   0  0.4494757E-05  0.1799804E+04  0.7818609E-02  0.8706404E-01
       -1   -1    0    0    0  501  0.00000000000E+00  0.00000000000E+00  0.54484258060E+03  0.54484258062E+03  0.50400001928E-02 0.  1.
        1   -1    0    0  501    0  0.00000000000E+00  0.00000000000E+00 -0.14863440102E+04  0.14863440102E+04  0.50400001928E-02 0. -1.
    10030    2    1    2    0    0  0.00000000000E+00  0.00000000000E+00 -0.94150142957E+03  0.20311865908E+04  0.17998038851E+04 0.  0.
        4    1    3    3  502    0  0.24854305184E+03  0.24702122399E+03  0.46468100955E+03  0.58199930176E+03  0.12699999809E+01 0.  1.
       -4    1    3    3    0  502 -0.24854305184E+03 -0.24702122399E+03 -0.14061824391E+04  0.14491872890E+04  0.12699999809E+01 0. -1.
</event>
<event>
 5   0  0.8892280E-05  0.1800964E+04  0.7818609E-02  0.8705787E-01
        2   -1    0    0  501    0  0.00000000000E+00  0.00000000000E+00  0.14964867924E+04  0.14964867924E+04  0.25500000920E-02 0. -1.
       -2   -1    0    0    0  501  0.00000000000E+00  0.00000000000E+00 -0.54184786389E+03  0.54184786390E+03  0.25500000920E-02 0.  1.
    10030    2    1    2    0    0  0.00000000000E+00  0.00000000000E+00  0.95463892846E+03  0.20383346563E+04  0.18009643770E+04 0.  0.
        4    1    3    3  502    0 -0.82548411843E+03 -0.34357484310E+03  0.35648216628E+03  0.96257407526E+03  0.12699999809E+01 0.  1.
       -4    1    3    3    0  502  0.82548411843E+03  0.34357484310E+03  0.59815676219E+03  0.10757605810E+04  0.12699999809E+01 0. -1.
</event>
<event>
 5   0  0.4335117E-05  0.1780165E+04  0.7818609E-02  0.8716919E-01
       -1   -1    0    0    0  501  0.00000000000E+00  0.00000000000E+00  0.53102642021E+03  0.53102642024E+03  0.50400001928E-02 0.  1.
        1   -1    0    0  501    0  0.00000000000E+00  0.00000000000E+00 -0.14919158996E+04  0.14919158996E+04  0.50400001928E-02 0. -1.
    10030    2    1    2    0    0  0.00000000000E+00  0.00000000000E+00 -0.96088947935E+03  0.20229423198E+04  0.17801648906E+04 0.  0.
        3    1    3    3  502    0  0.63770484096E+03 -0.47344784192E+02 -0.11840256813E+04  0.13456692821E+04  0.10100000352E+00 0. -1.
       -3    1    3    3    0  502 -0.63770484096E+03  0.47344784192E+02  0.22313620191E+03  0.67727303769E+03  0.10100000352E+00 0.  1.
</event>
<event>
 5   0  0.9184414E-05  0.1792503E+04  0.7818609E-02  0.8710296E-01
        2   -1    0    0  501    0  0.00000000000E+00  0.00000000000E+00  0.12567137425E+04  0.12567137425E+04  0.25500000920E-02 0. -1.
       -2   -1    0    0    0  501  0.00000000000E+00  0.00000000000E+00 -0.63918060809E+03  0.63918060810E+03  0.25500000920E-02 0.  1.
    10030    2    1    2    0    0  0.00000000000E+00  0.00000000000E+00  0.61753313436E+03  0.18958943506E+04  0.17925033379E+04 0.  0.
        5    1    3    3  502    0 -0.28529818228E+03  0.59979467723E+03 -0.32768619673E+03  0.74064096644E+03  0.46999998093E+01 0.  1.
       -5    1    3    3    0  502  0.28529818228E+03 -0.59979467723E+03  0.94521933109E+03  0.11552533841E+04  0.46999998093E+01 0. -1.
</event>
<event>
 5   0  0.8802655E-05  0.1800241E+04  0.7818609E-02  0.8706171E-01
       -2   -1    0    0    0  501  0.00000000000E+00  0.00000000000E+00  0.48461970696E+03  0.48461970697E+03  0.25500000920E-02 0.  1.
        2   -1    0    0  501    0  0.00000000000E+00  0.00000000000E+00 -0.16718612694E+04  0.16718612694E+04  0.25500000920E-02 0. -1.
    10030    2    1    2    0    0  0.00000000000E+00  0.00000000000E+00 -0.11872415625E+04  0.21564809764E+04  0.18002410044E+04 0.  0.
        2    1    3    3  502    0 -0.60397006359E+03 -0.45725912248E+02  0.20398168412E+03  0.63912379413E+03  0.25500000920E-02 0.  1.
       -2    1    3    3    0  502  0.60397006359E+03  0.45725912248E+02 -0.13912232466E+04  0.15173571823E+04  0.25500000920E-02 0. -1.
</event>
<event>
 5   0  0.9184414E-05  0.1811274E+04  0.7818609E-02  0.8700327E-01
        2   -1    0    0  501    0  0.00000000000E+00  0.00000000000E+00  0.51757464197E+03  0.51757464197E+03  0.25500000920E-02 0. -1.
       -2   -1    0    0    0  501  0.00000000000E+00  0.00000000000E+00 -0.15846563389E+04  0.15846563389E+04  0.25500000920E-02 0.  1.
    10030    2    1    2    0    0  0.00000000000E+00  0.00000000000E+00 -0.10670816969E+04  0.21022309808E+04  0.18112735158E+04 0.  0.
        5    1    3    3  502    0 -0.25753300228E+03  0.77047610840E+03 -0.99808449100E+03  0.12869154681E+04  0.46999998093E+01 0. -1.
       -5    1    3    3    0  502  0.25753300228E+03 -0.77047610840E+03 -0.68997205902E+02  0.81531551273E+03  0.46999998093E+01 0.  1.
</event>
<event>
 5   0  0.4623665E-05  0.1754898E+04  0.7818609E-02  0.8730659E-01
        1   -1    0    0  501    0  0.00000000000E+00  0.00000000000E+00  0.10295846379E+04  0.10295846379E+04  0.50400001928E-02 0. -1.
       -1   -1    0    0    0  501  0.00000000000E+00  0.00000000000E+00 -0.74779374122E+03  0.74779374124E+03  0.50400001928E-02 0.  1.
    10030    2    1    2    0    0  0.00000000000E+00  0.00000000000E+00  0.28179089669E+03  0.17773783792E+04  0.17548982287E+04 0.  0.
        5    1    3    3  502    0 -0.71742764559E+03 -0.20892630903E+03  0.60672441997E+03  0.96254311127E+03  0.46999998093E+01 0. -1.
       -5    1    3    3    0  502  0.71742764559E+03  0.20892630903E+03 -0.32493352328E+03  0.81483526790E+03  0.46999998093E+01 0.  1.
</event>
<event>
 5   0  0.4494757E-05  0.1817103E+04  0.7818609E-02  0.8697257E-01
        1   -1    0    0  501    0  0.00000000000E+00  0.00000000000E+00  0.78179174803E+03  0.78179174805E+03  0.50400001928E-02 0.  1.
       -1   -1    0    0    0  501  0.00000000000E+00  0.00000000000E+00 -0.10558638298E+04  0.10558638298E+04  0.50400001928E-02 0. -1.
    10030    2    1    2    0    0  0.00000000000E+00  0.00000000000E+00 -0.27407208174E+03  0.18376555778E+04  0.18171027810E+04 0.  0.
        4    1    3    3  502    0 -0.39937703966E+02 -0.90020616262E+03 -0.25453042191E+03  0.93635116489E+03  0.12699999809E+01 0. -1.
       -4    1    3    3    0  502  0.39937703966E+02  0.90020616262E+03 -0.19541659831E+02  0.90130441294E+03  0.12699999809E+01 0.  1.
</event>
<event>
 5   0  0.9147432E-05  0.1798682E+04  0.7818609E-02  0.8707001E-01
       -2   -1    0    0    0  501  0.00000000000E+00  0.00000000000E+00  0.88152732750E+03  0.88152732750E+03  0.25500000920E-02 0.  1.
        2   -1    0    0  501    0  0.00000000000E+00  0.00000000000E+00 -0.91751481180E+03  0.91751481180E+03  0.25500000920E-02 0. -1.
    10030    2    1    2    0    0  0.00000000000E+00  0.00000000000E+00 -0.35987484297E+02  0.17990421393E+04  0.17986821620E+04 0.  0.
        3    1    3    3  502    0  0.32039848492E+02 -0.10136368406E+03 -0.91120842646E+03  0.91738866081E+03  0.10100000352E+00 0. -1.
       -3    1    3    3    0  502 -0.32039848492E+02  0.10136368406E+03  0.87522094216E+03  0.88165347849E+03  0.10100000352E+00 0.  1.
</event>
<event>
 5   0  0.4578107E-05  0.1797694E+04  0.7818609E-02  0.8707527E-01
       -1   -1    0    0    0  501  0.00000000000E+00  0.00000000000E+00  0.69403289373E+03  0.69403289375E+03  0.50400001928E-02 0. -1.
        1   -1    0    0  501    0  0.00000000000E+00  0.00000000000E+00 -0.11641028551E+04  0.11641028551E+04  0.50400001928E-02 0.  1.
    10030    2    1    2    0    0  0.00000000000E+00  0.00000000000E+00 -0.47006996140E+03  0.18581357489E+04  0.17976937149E+04 0.  0.
        2    1    3    3  502    0 -0.30297432337E+03 -0.83748556125E+03 -0.10950131488E+03  0.89731045011E+03  0.25500000920E-02 0.  1.
       -2    1    3    3    0  502  0.30297432337E+03  0.83748556125E+03 -0.36056864651E+03  0.96082529878E+03  0.25500000920E-02 0. -1.
</event>
<event>
 5   0  0.8892280E-05  0.1799522E+04  0.7818609E-02  0.8706554E-01
       -2   -1    0    0    0  501  0.00000000000E+00  0.00000000000E+00  0.80291802757E+03  0.80291802758E+03  0.25500000920E-02 0. -1.
        2   -1    0    0  501    0  0.00000000000E+00  0.00000000000E+00 -0.10082844728E+04  0.10082844728E+04  0.25500000920E-02 0.  1.
    10030    2    1    2    0    0  0.00000000000E+00  0.00000000000E+00 -0.20536644524E+03  0.18112025004E+04  0.17995219145E+04 0.  0.
        4    1    3    3  502    0  0.59397763612E+03  0.51588473829E+03 -0.54211960053E+03  0.95542753236E+03  0.12699999809E+01 0.  1.
       -4    1    3    3    0  502 -0.59397763612E+03 -0.51588473829E+03  0.33675315529E+03  0.85577496803E+03  0.12699999809E+01 0. -1.
</event>
<event>
 5   0  0.4494757E-05  0.1809014E+04  0.7818609E-02  0.8701521E-01
       -1   -1    0    0    0  501  0.00000000000E+00  0.00000000000E+00  0.45770606396E+03  0.45770606399E+03  0.50400001928E-02 0. -1.
        1   -1    0    0  501    0  0.00000000000E+00  0.00000000000E+00 -0.17874631237E+04  0.17874631237E+04  0.50400001928E-02 0.  1.
    10030    2    1    2    0    0  0.00000000000E+00  0.00000000000E+00 -0.13297570598E+04  0.22451691877E+04  0.18090137765E+04 0.  0.
        4    1    3    3  502    0  0.19777008116E+03 -0.81168425932E+03 -0.23461403883E+03  0.86774979225E+03  0.12699999809E+01 0. -1.
       -4    1    3    3    0  502 -0.19777008116E+03  0.81168425932E+03 -0.10951430209E+04  0.13774193955E+04  0.12699999809E+01 0.  1.
</event>
<event>
 5   0  0.4535100E-05  0.1795957E+04  0.7818609E-02  0.8708452E-01
       -1   -1    0    0    0  501  0.00000000000E+00  0.00000000000E+00  0.32507750773E+03  0.32507750777E+03  0.50400001928E-02 0. -1.
        1   -1    0    0  501    0  0.00000000000E+00  0.00000000000E+00 -0.24805326134E+04  0.24805326134E+04  0.50400001928E-02 0.  1.
    10030    2    1    2    0    0  0.00000000000E+00  0.00000000000E+00 -0.21554551057E+04  0.28056101211E+04  0.17959569704E+04 0.  0.
        1    1    3    3  502    0  0.34944427418E+03  0.58213817547E+03 -0.19957920588E+04  0.21081228850E+04  0.50400001928E-02 0.  1.
       -1    1    3    3    0  502 -0.34944427418E+03 -0.58213817547E+03 -0.15966304685E+03  0.69748723619E+03  0.50400001928E-02 0. -1.
</event>
<event>
 5   0  0.4623665E-05  0.1798920E+04  0.7818609E-02  0.8706874E-01
       -1   -1    0    0    0  501  0.00000000000E+00  0.00000000000E+00  0.91973806598E+03  0.91973806600E+03  0.50400001928E-02 0.  1.
        1   -1    0    0  501    0  0.00000000000E+00  0.00000000000E+00 -0.87962857652E+03  0.87962857654E+03  0.50400001928E-02 0. -1.
    10030    2    1    2    0    0  0.00000000000E+00  0.00000000000E+00  0.40109489458E+02  0.17993666425E+04  0.17989195488E+04 0.  0.
        5    1    3    3  502    0 -0.42681979288E+03  0.11162973610E+03  0.80406678818E+03  0.91715964991E+03  0.46999998093E+01 0.  1.
       -5    1    3    3    0  502  0.42681979288E+03 -0.11162973610E+03 -0.76395729872E+03  0.88220699263E+03  0.46999998093E+01 0. -1.
</event>
<event>
 5   0  0.4335117E-05  0.1671912E+04  0.7818609E-02  0.8777548E-01
       -1   -1    0    0    0  501  0.00000000000E+00  0.00000000000E+00  0.49590357638E+03  0.49590357641E+03  0.50400001928E-02 0.  1.
        1   -1    0    0  501    0  0.00000000000E+00  0.00000000000E+00 -0.14091897012E+04  0.14091897012E+04  0.50400001928E-02 0. -1.
    10030    2    1    2    0    0  0.00000000000E+00  0.00000000000E+00 -0.91328612480E+03  0.19050932776E+04  0.16719117353E+04 0.  0.
        3    1    3    3  502    0 -0.71402326467E+03  0.46519974381E+02  0.35878098217E+02  0.71643602550E+03  0.10100000352E+00 0.  1.
       -3    1    3    3    0  502  0.71402326467E+03 -0.46519974381E+02 -0.94916422301E+03  0.11886572521E+04  0.10100000352E+00 0. -1.
</event>
<event>
 5   0  0.8802655E-05  0.1810995E+04  0.7818609E-02  0.8700474E-01
       -2   -1    0    0    0  501  0.00000000000E+00  0.00000000000E+00  0.64547062992E+03  0.64547062993E+03  0.25500000920E-02 0. -1.
        2   -1    0    0  501    0  0.00000000000E+00  0.00000000000E+00 -0.12702752661E+04  0.12702752661E+04  0.25500000920E-02 0.  1.
    10030    2    1    2    0    0  0.00000000000E+00  0.00000000000E+00 -0.62480463617E+03  0.19157458960E+04  0.18109946175E+04 0.  0.
        2    1    3    3  502    0 -0.65506555412E+02 -0.87811707943E+03 -0.53566625534E+03  0.10306886296E+04  0.25500000920E-02 0.  1.
       -2    1    3    3    0  502  0.65506555412E+02  0.87811707943E+03 -0.89138380833E+02  0.88505726647E+03  0.25500000920E-02 0. -1.
</event>
<event>
 5   0  0.4494757E-05  0.1800796E+04  0.7818609E-02  0.8705876E-01
        1   -1    0    0  501    0  0.00000000000E+00  0.00000000000E+00  0.10455469082E+04  0.10455469082E+04  0.50400001928E-02 0.  1.
       -1   -1    0    0    0  501  0.00000000000E+00  0.00000000000E+00 -0.77539988007E+03  0.77539988009E+03  0.50400001928E-02 0. -1.
    10030    2    1    2    0    0  0.00000000000E+00  0.00000000000E+00  0.27014702812E+03  0.18209467883E+04  0.18007964319E+04 0.  0.
        4    1    3    3  502    0 -0.20531670926E+03 -0.45495260911E+02  0.10203644956E+04  0.10418109649E+04  0.12699999809E+01 0.  1.
       -4    1    3    3    0  502  0.20531670926E+03  0.45495260911E+02 -0.75021746747E+03  0.77913582337E+03  0.12699999809E+01 0. -1.
</event>
<event>
 5   0  0.9147432E-05  0.1802102E+04  0.7818609E-02  0.8705183E-01
       -2   -1    0    0    0  501  0.00000000000E+00  0.00000000000E+00  0.89099490157E+03  0.89099490157E+03  0.25500000920E-02 0. -1.
        2   -1    0    0  501    0  0.00000000000E+00  0.00000000000E+00 -0.91122014643E+03  0.91122014644E+03  0.25500000920E-02 0.  1.
    10030    2    1    2    0    0  0.00000000000E+00  0.00000000000E+00 -0.20225244863E+02  0.18022150480E+04  0.18021015562E+04 0.  0.
        3    1    3    3  502    0  0.27132229172E+03 -0.85804296971E+03 -0.55270428563E+02  0.90161430464E+03  0.10100000352E+00 0.  1.
       -3    1    3    3    0  502 -0.27132229172E+03  0.85804296971E+03  0.35045183700E+02  0.90060074337E+03  0.10100000352E+00 0. -1.
</event>
<event>
 5   0  0.8892280E-05  0.1813295E+04  0.7818609E-02  0.8699261E-01
       -2   -1    0    0    0  501  0.00000000000E+00  0.00000000000E+00  0.49940091501E+03  0.49940091502E+03  0.25500000920E-02 0.  1.
        2   -1    0    0  501    0  0.00000000000E+00  0.00000000000E+00 -0.16459920831E+04  0.16459920831E+04  0.25500000920E-02 0. -1.
    10030    2    1    2    0    0  0.00000000000E+00  0.00000000000E+00 -0.11465911680E+04  0.21453929981E+04  0.18132952902E+04 0.  0.
        4    1    3    3  502    0  0.54930518493E+03  0.56558097554E+03 -0.43660571068E+02  0.78963655213E+03  0.12699999809E+01 0.  1.
       -4    1    3    3    0  502 -0.54930518493E+03 -0.56558097554E+03 -0.11029305970E+04  0.13557564460E+04  0.12699999809E+01 0. -1.
</event>
<event>
 5   0  0.4535100E-05  0.1802685E+04  0.7818609E-02  0.8704873E-01
        1   -1    0    0  501    0  0.00000000000E+00  0.00000000000E+00  0.71137630710E+03  0.71137630712E+03  0.50400001928E-02 0. -1.
       -1   -1    0    0    0  501  0.00000000000E+00  0.00000000000E+00 -0.11420370587E+04  0.11420370587E+04  0.50400001928E-02 0.  1.
    10030    2    1    2    0    0  0.00000000000E+00  0.00000000000E+00 -0.43066075157E+03  0.18534133658E+04  0.18026847815E+04 0.  0.
        1    1    3    3  502    0 -0.16700066489E+03 -0.92438626744E+02  0.69035817347E+03  0.71626009905E+03  0.50400001928E-02 0. -1.
       -1    1    3    3    0  502  0.16700066489E+03  0.92438626744E+02 -0.11210189250E+04  0.11371532668E+04  0.50400001928E-02 0.  1.
</event>
<event>
 5   0  0.9184414E-05  0.1796999E+04  0.7818609E-02  0.8707897E-01
        2   -1    0    0  501    0  0.00000000000E+00  0.00000000000E+00  0.11493751959E+04  0.11493751959E+04  0.25500000920E-02 0. -1.
       -2   -1    0    0    0  501  0.00000000000E+00  0.00000000000E+00 -0.70238258717E+03  0.70238258718E+03  0.25500000920E-02 0.  1.
    10030    2    1    2    0    0  0.00000000000E+00  0.00000000000E+00  0.44699260872E+03  0.18517577831E+04  0.17969987465E+04 0.  0.
        5    1    3    3  502    0  0.71126179510E+03 -0.44165024153E+03 -0.11252425995E+03  0.84476746865E+03  0.46999998093E+01 0.  1.
       -5    1    3    3    0  502 -0.71126179510E+03  0.44165024153E+03  0.55951686866E+03  0.10069903144E+04  0.46999998093E+01 0. -1.
</event>
<event>
 5   0  0.8893075E-05  0.1800406E+04  0.7818609E-02  0.8706083E-01
       -2   -1    0    0    0  501  0.00000000000E+00  0.00000000000E+00  0.46299860895E+03  0.46299860895E+03  0.25500000920E-02 0.  1.
        2   -1    0    0  501    0  0.00000000000E+00  0.00000000000E+00 -0.17502549456E+04  0.17502549456E+04  0.25500000920E-02 0. -1.
    10030    2    1    2    0    0  0.00000000000E+00  0.00000000000E+00 -0.12872563367E+04  0.22132535546E+04  0.18004061821E+04 0.  0.
        1    1    3    3  502    0  0.80738063980E+03 -0.22714176933E+03 -0.24168259664E+03  0.87285013516E+03  0.50400001928E-02 0.  1.
       -1    1    3    3    0  502 -0.80738063980E+03  0.22714176933E+03 -0.10455737400E+04  0.13404034194E+04  0.50400001928E-02 0. -1.
</event>
<event>
 5   0  0.9147432E-05  0.1816272E+04  0.7818609E-02  0.8697694E-01
        2   -1    0    0  501    0  0.00000000000E+00  0.00000000000E+00  0.26530880513E+04  0.26530880513E+04  0.25500000920E-02 0.  1.
       -2   -1    0    0    0  501  0.00000000000E+00  0.00000000000E+00 -0.31084939129E+03  0.31084939130E+03  0.25500000920E-02 0. -1.
    10030    2    1    2    0    0  0.00000000000E+00  0.00000000000E+00  0.23422386600E+04  0.29639374426E+04  0.18162717922E+04 0.  0.
        3    1    3    3  502    0  0.13627517075E+03  0.86805960708E+03  0.79680865016E+03  0.11861713362E+04  0.10100000352E+00 0. -1.
       -3    1    3    3    0  502 -0.13627517075E+03 -0.86805960708E+03  0.15454300099E+04  0.17777661064E+04  0.10100000352E+00 0.  1.
</event>
<event>
 5   0  0.4535100E-05  0.1800791E+04  0.7818609E-02  0.8705879E-01
        1   -1    0    0  501    0  0.00000000000E+00  0.00000000000E+00  0.18684430328E+04  0.18684430328E+04  0.50400001928E-02 0.  1.
       -1   -1    0    0    0  501  0.00000000000E+00  0.00000000000E+00 -0.43389718843E+03  0.43389718846E+03  0.50400001928E-02 0. -1.
    10030    2    1    2    0    0  0.00000000000E+00  0.00000000000E+00  0.14345458444E+04  0.23023402213E+04  0.18007911358E+04 0.  0.
        1    1    3    3  502    0  0.75241424000E+03 -0.39818929189E+03  0.10922733985E+04  0.13848260100E+04  0.50400001928E-02 0.  1.
       -1    1    3    3    0  502 -0.75241424000E+03  0.39818929189E+03  0.34227244585E+03  0.91751421130E+03  0.50400001928E-02 0. -1.
</event>
<event>
 5   0  0.4578107E-05  0.1808713E+04  0.7818609E-02  0.8701679E-01
        1   -1    0    0  501    0  0.00000000000E+00  0.00000000000E+00  0.27756195452E+04  0.27756195452E+04  0.50400001928E-02 0.  1.
       -1   -1    0    0    0  501  0.00000000000E+00  0.00000000000E+00 -0.29465890120E+03  0.29465890124E+03  0.50400001928E-02 0. -1.
    10030    2    1    2    0    0  0.00000000000E+00  0.00000000000E+00  0.24809606440E+04  0.30702784465E+04  0.18087133608E+04 0.  0.
        2    1    3    3  502    0 -0.87103974539E+02  0.61668650600E+03  0.12739634493E+03  0.63570368708E+03  0.25500000920E-02 0. -1.
       -2    1    3    3    0  502  0.87103974539E+02 -0.61668650600E+03  0.23535642991E+04  0.24345747594E+04  0.25500000920E-02 0.  1.
</event>
<event>
 5   0  0.8893075E-05  0.1805357E+04  0.7818609E-02  0.8703456E-01
       -2   -1    0    0    0  501  0.00000000000E+00  0.00000000000E+00  0.53983486848E+03  0.53983486848E+03  0.25500000920E-02 0.  1.
        2   -1    0    0  501    0  0.00000000000E+00  0.00000000000E+00 -0.15094033882E+04  0.15094033882E+04  0.25500000920E-02 0. -1.
    10030    2    1    2    0    0  0.00000000000E+00  0.00000000000E+00 -0.96956851973E+03  0.20492382567E+04  0.18053571165E+04 0.  0.
        1    1    3    3  502    0 -0.11905600543E+03  0.61938025767E+03 -0.12177927333E+04  0.13714318712E+04  0.50400001928E-02 0. -1.
       -1    1    3    3    0  502  0.11905600543E+03 -0.61938025767E+03  0.24822421355E+03  0.67780638551E+03  0.50400001928E-02 0.  1.
</event>
<event>
 5   0  0.9147432E-05  0.1787121E+04  0.7818609E-02  0.8713179E-01
        2   -1    0    0  501    0  0.00000000000E+00  0.00000000000E+00  0.66338601620E+03  0.66338601620E+03  0.25500000920E-02 0.  1.
       -2   -1    0    0    0  501  0.00000000000E+00  0.00000000000E+00 -0.12035978733E+04  0.12035978734E+04  0.25500000920E-02 0. -1.
    10030    2    1    2    0    0  0.00000000000E+00  0.00000000000E+00 -0.54021185715E+03  0.18669838896E+04  0.17871205872E+04 0.  0.
        3    1    3    3  502    0  0.41574599197E+02  0.88745756821E+03 -0.17022692663E+03  0.90459195189E+03  0.10100000352E+00 0. -1.
       -3    1    3    3    0  502 -0.41574599197E+02 -0.88745756821E+03 -0.36998493052E+03  0.96239193767E+03  0.10100000352E+00 0.  1.
</event>
<event>
 5   0  0.4623665E-05  0.1794054E+04  0.7818609E-02  0.8709468E-01
       -1   -1    0    0    0  501  0.00000000000E+00  0.00000000000E+00  0.88259679221E+03  0.88259679222E+03  0.50400001928E-02 0. -1.
        1   -1    0    0  501    0  0.00000000000E+00  0.00000000000E+00 -0.91169291098E+03  0.91169291099E+03  0.50400001928E-02 0.  1.
    10030    2    1    2    0    0  0.00000000000E+00  0.00000000000E+00 -0.29096118773E+02  0.17942897032E+04  0.17940537770E+04 0.  0.
        5    1    3    3  502    0  0.71755310113E+03 -0.51532903277E+03 -0.17009562778E+03  0.89966720378E+03  0.46999998093E+01 0. -1.
       -5    1    3    3    0  502 -0.71755310113E+03  0.51532903277E+03  0.14099950901E+03  0.89462249944E+03  0.46999998093E+01 0.  1.
</event>
<event>
 5   0  0.9147432E-05  0.1802056E+04  0.7818609E-02  0.8705207E-01
        2   -1    0    0  501    0  0.00000000000E+00  0.00000000000E+00  0.11640737300E+04  0.11640737300E+04  0.25500000920E-02 0. -1.
       -2   -1    0    0    0  501  0.00000000000E+00  0.00000000000E+00 -0.69742292996E+03  0.69742292996E+03  0.25500000920E-02 0.  1.
    10030    2    1    2    0    0  0.00000000000E+00  0.00000000000E+00  0.46665080007E+03  0.18614966600E+04  0.18020562827E+04 0.  0.
        3    1    3    3  502    0  0.59117950464E+03  0.67488297912E+03  0.31907843527E+03  0.95224539918E+03  0.10100000352E+00 0.  1.
       -3    1    3    3    0  502 -0.59117950464E+03 -0.67488297912E+03  0.14757236480E+03  0.90925126080E+03  0.10100000352E+00 0. -1.
</event>
<event>
 5   0  0.4494757E-05  0.1795266E+04  0.7818609E-02  0.8708821E-01
       -1   -1    0    0    0  501  0.00000000000E+00  0.00000000000E+00  0.69798467964E+03  0.69798467966E+03  0.50400001928E-02 0. -1.
        1   -1    0    0  501    0  0.00000000000E+00  0.00000000000E+00 -0.11543876672E+04  0.11543876672E+04  0.50400001928E-02 0.  1.
    10030    2    1    2    0    0  0.00000000000E+00  0.00000000000E+00 -0.45640298752E+03  0.18523723468E+04  0.17952658924E+04 0.  0.
        4    1    3    3  502    0  0.22575189725E+03 -0.34465824087E+03 -0.10510590789E+04  0.11289287056E+04  0.12699999809E+01 0.  1.
       -4    1    3    3    0  502 -0.22575189725E+03  0.34465824087E+03  0.59465609137E+03  0.72344364122E+03  0.12699999809E+01 0. -1.
</event>
<event>
 5   0  0.4494757E-05  0.1798868E+04  0.7818609E-02  0.8706902E-01
        1   -1    0    0  501    0  0.00000000000E+00  0.00000000000E+00  0.12742603428E+04  0.12742603428E+04  0.50400001928E-02 0. -1.
       -1   -1    0    0    0  501  0.00000000000E+00  0.00000000000E+00 -0.63486346058E+03  0.63486346060E+03  0.50400001928E-02 0.  1.
    10030    2    1    2    0    0  0.00000000000E+00  0.00000000000E+00  0.63939688217E+03  0.19091238034E+04  0.17988677894E+04 0.  0.
        4    1    3    3  502    0  0.33459994979E+03 -0.73873188748E+03 -0.93112443130E+02  0.81630476413E+03  0.12699999809E+01 0. -1.
       -4    1    3    3    0  502 -0.33459994979E+03  0.73873188748E+03  0.73250932530E+03  0.10928190392E+04  0.12699999809E+01 0.  1.
</event>
<event>
 5   0  0.9147432E-05  0.1821475E+04  0.7818609E-02  0.8694962E-01
       -2   -1    0    0    0  501  0.00000000000E+00  0.00000000000E+00  0.13794749617E+04  0.13794749617E+04  0.25500000920E-02 0.  1.
        2   -1    0    0  501    0  0.00000000000E+00  0.00000000000E+00 -0.60127440293E+03  0.60127440294E+03  0.25500000920E-02 0. -1.
    10030    2    1    2    0    0  0.00000000000E+00  0.00000000000E+00  0.77820055875E+03  0.19807493646E+04  0.18214752087E+04 0.  0.
        3    1    3    3  502    0 -0.25725319682E+02  0.64904933729E+03 -0.30509022272E+03  0.71763980416E+03  0.10100000352E+00 0. -1.
       -3    1    3    3    0  502  0.25725319682E+02 -0.64904933729E+03  0.10832907815E+04  0.12631095605E+04  0.10100000352E+00 0.  1.
</event>
<event>
 5   0  0.4335117E-05  0.1803931E+04  0.7818609E-02  0.8704212E-01
       -1   -1    0    0    0  501  0.00000000000E+00  0.00000000000E+00  0.96962353194E+03  0.96962353195E+03  0.50400001928E-02 0. -1.
        1   -1    0    0  501    0  0.00000000000E+00  0.00000000000E+00 -0.83902852156E+03  0.83902852158E+03  0.50400001928E-02 0.  1.
    10030    2    1    2    0    0  0.00000000000E+00  0.00000000000E+00  0.13059501037E+03  0.18086520535E+04  0.18039310391E+04 0.  0.
        3    1    3    3  502    0  0.59481175560E+03 -0.52742264446E+03  0.49251841286E+03  0.93517381684E+03  0.10100000352E+00 0.  1.
       -3    1    3    3    0  502 -0.59481175560E+03  0.52742264446E+03 -0.36192340249E+03  0.87347823669E+03  0.10100000352E+00 0. -1.
</event>
<event>
 5   0  0.4535100E-05  0.1800252E+04  0.7818609E-02  0.8706165E-01
       -1   -1    0    0    0  501  0.00000000000E+00  0.00000000000E+00  0.93342385204E+03  0.93342385206E+03  0.50400001928E-02 0.  1.
        1   -1    0    0  501    0  0.00000000000E+00  0.00000000000E+00 -0.86801617407E+03  0.86801617408E+03  0.50400001928E-02 0. -1.
    10030    2    1    2    0    0  0.00000000000E+00  0.00000000000E+00  0.65407677977E+02  0.18014400261E+04  0.18002522055E+04 0.  0.
        1    1    3    3  502    0 -0.24016407883E+02 -0.30269724173E+03 -0.81521857611E+03  0.86993317839E+03  0.50400001928E-02 0. -1.
       -1    1    3    3    0  502  0.24016407883E+02  0.30269724173E+03  0.88062625408E+03  0.93150684775E+03  0.50400001928E-02 0.  1.
</event>
<event>
 5   0  0.4494757E-05  0.1798255E+04  0.7818609E-02  0.8707228E-01
       -1   -1    0    0    0  501  0.00000000000E+00  0.00000000000E+00  0.42949416697E+03  0.42949416699E+03  0.50400001928E-02 0. -1.
        1   -1    0    0  501    0  0.00000000000E+00  0.00000000000E+00 -0.18822840833E+04  0.18822840833E+04  0.50400001928E-02 0.  1.
    10030    2    1    2    0    0  0.00000000000E+00  0.00000000000E+00 -0.14527899163E+04  0.23117782503E+04  0.17982547477E+04 0.  0.
        4    1    3    3  502    0  0.34483822869E+03 -0.71971682872E+03 -0.12588166794E+04  0.14904787026E+04  0.12699999809E+01 0.  1.
       -4    1    3    3    0  502 -0.34483822869E+03  0.71971682872E+03 -0.19397323686E+03  0.82129954769E+03  0.12699999809E+01 0. -1.
</event>
<event>
 5   0  0.8802655E-05  0.1792775E+04  0.7818609E-02  0.8710151E-01
       -2   -1    0    0    0  501  0.00000000000E+00  0.00000000000E+00  0.15946896522E+04  0.15946896522E+04  0.25500000920E-02 0. -1.
        2   -1    0    0  501    0  0.00000000000E+00  0.00000000000E+00 -0.50386661910E+03  0.50386661911E+03  0.25500000920E-02 0.  1.
    10030    2    1    2    0    0  0.00000000000E+00  0.00000000000E+00  0.10908230331E+04  0.20985562713E+04  0.17927753720E+04 0.  0.
        2    1    3    3  502    0 -0.61976588692E+02  0.66527563826E+03  0.12448932151E+04  0.14128665504E+04  0.25500000920E-02 0. -1.
       -2    1    3    3    0  502  0.61976588692E+02 -0.66527563826E+03 -0.15407018193E+03  0.68568972092E+03  0.25500000920E-02 0.  1.
</event>
<event>
 5   0  0.8802655E-05  0.1796657E+04  0.7818609E-02  0.8708079E-01
        2   -1    0    0  501    0  0.00000000000E+00  0.00000000000E+00  0.19334332433E+04  0.19334332433E+04  0.25500000920E-02 0.  1.
       -2   -1    0    0    0  501  0.00000000000E+00  0.00000000000E+00 -0.41738933387E+03  0.41738933387E+03  0.25500000920E-02 0. -1.
    10030    2    1    2    0    0  0.00000000000E+00  0.00000000000E+00  0.15160439094E+04  0.23508225772E+04  0.17966573558E+04 0.  0.
        2    1    3    3  502    0  0.57708835360E+03  0.71166723674E+02 -0.13794940519E+03  0.59759995718E+03  0.25500000920E-02 0. -1.
       -2    1    3    3    0  502 -0.57708835360E+03 -0.71166723674E+02  0.16539933146E+04  0.17532226200E+04  0.25500000920E-02 0.  1.
</event>
<event>
 5   0  0.8802655E-05  0.1787825E+04  0.7818609E-02  0.8712801E-01
       -2   -1    0    0    0  501  0.00000000000E+00  0.00000000000E+00  0.59031079865E+03  0.59031079865E+03  0.25500000920E-02 0.  1.
        2   -1    0    0  501    0  0.00000000000E+00  0.00000000000E+00 -0.13536596383E+04  0.13536596383E+04  0.25500000920E-02 0. -1.
    10030    2    1    2    0    0  0.00000000000E+00  0.00000000000E+00 -0.76334883964E+03  0.19439704369E+04  0.17878253854E+04 0.  0.
        2    1    3    3  502    0 -0.43636616606E+03  0.58084553339E+03 -0.94801254183E+03  0.11943721129E+04  0.25500000920E-02 0. -1.
       -2    1    3    3    0  502  0.43636616606E+03 -0.58084553339E+03  0.18466370219E+03  0.74959832407E+03  0.25500000920E-02 0.  1.
</event>
<event>
 5   0  0.4578107E-05  0.1807943E+04  0.7818609E-02  0.8702087E-01
        1   -1    0    0  501    0  0.00000000000E+00  0.00000000000E+00  0.99080584693E+03  0.99080584694E+03  0.50400001928E-02 0.  1.
       -1   -1    0    0    0  501  0.00000000000E+00  0.00000000000E+00 -0.82474759394E+03  0.82474759395E+03  0.50400001928E-02 0. -1.
    10030    2    1    2    0    0  0.00000000000E+00  0.00000000000E+00  0.16605825299E+03  0.18155534409E+04  0.18079432937E+04 0.  0.
        2    1    3    3  502    0 -0.42032804288E+03  0.68540457154E+03 -0.33188026543E+03  0.86982733971E+03  0.25500000920E-02 0. -1.
       -2    1    3    3    0  502  0.42032804288E+03 -0.68540457154E+03  0.49793851842E+03  0.94572610118E+03  0.25500000920E-02 0.  1.
</event>
<event>
 5   0  0.4494757E-05  0.1820351E+04  0.7818609E-02  0.8695552E-01
        1   -1    0    0  501    0  0.00000000000E+00  0.00000000000E+00  0.12322337854E+04  0.12322337855E+04  0.50400001928E-02 0.  1.
       -1   -1    0    0    0  501  0.00000000000E+00  0.00000000000E+00 -0.67229044201E+03  0.67229044203E+03  0.50400001928E-02 0. -1.
    10030    2    1    2    0    0  0.00000000000E+00  0.00000000000E+00  0.55994334343E+03  0.19045242275E+04  0.18203505116E+04 0.  0.
        4    1    3    3  502    0  0.75996241027E+03 -0.62596595992E+02  0.79989755089E+03  0.11051239314E+04  0.12699999809E+01 0.  1.
       -4    1    3    3    0  502 -0.75996241027E+03  0.62596595992E+02 -0.23995420746E+03  0.79940029612E+03  0.12699999809E+01 0. -1.
</event>
<event>
 5   0  0.4335117E-05  0.1804621E+04  0.7818609E-02  0.8703846E-01
        1   -1    0    0  501    0  0.00000000000E+00  0.00000000000E+00  0.17484326586E+04  0.17484326586E+04  0.50400001928E-02 0.  1.
       -1   -1    0    0    0  501  0.00000000000E+00  0.00000000000E+00 -0.46565367299E+03  0.46565367302E+03  0.50400001928E-02 0. -1.
    10030    2    1    2    0    0  0.00000000000E+00  0.00000000000E+00  0.12827789856E+04  0.22140863317E+04  0.18046208350E+04 0.  0.
        3    1    3    3  502    0  0.79479652693E+03  0.19105590964E+03  0.17265619297E+03  0.83547235203E+03  0.10100000352E+00 0. -1.
       -3    1    3    3    0  502 -0.79479652693E+03 -0.19105590964E+03  0.11101227927E+04  0.13786139796E+04  0.10100000352E+00 0.  1.
</event>
<event>
 5   0  0.9184414E-05  0.1804322E+04  0.7818609E-02  0.8704004E-01
        2   -1    0    0  501    0  0.00000000000E+00  0.00000000000E+00  0.20196770501E+04  0.20196770502E+04  0.25500000920E-02 0. -1.
       -2   -1    0    0    0  501  0.00000000000E+00  0.00000000000E+00 -0.40298249510E+03  0.40298249511E+03  0.25500000920E-02 0.  1.
    10030    2    1    2    0    0  0.00000000000E+00  0.00000000000E+00  0.16166945551E+04  0.24226595453E+04  0.18043220300E+04 0.  0.
        5    1    3    3  502    0  0.28666756026E+03  0.41942052321E+03  0.18093378896E+04  0.18793130538E+04  0.46999998093E+01 0. -1.
       -5    1    3    3    0  502 -0.28666756026E+03 -0.41942052321E+03 -0.19264333459E+03  0.54334649143E+03  0.46999998093E+01 0.  1.
</event>
<event>
 5   0  0.4494757E-05  0.1791140E+04  0.7818609E-02  0.8711025E-01
        1   -1    0    0  501    0  0.00000000000E+00  0.00000000000E+00  0.93476678713E+03  0.93476678715E+03  0.50400001928E-02 0.  1.
       -1   -1    0    0    0  501  0.00000000000E+00  0.00000000000E+00 -0.85801670812E+03  0.85801670814E+03  0.50400001928E-02 0. -1.
    10030    2    1    2    0    0  0.00000000000E+00  0.00000000000E+00  0.76750079011E+02  0.17927834953E+04  0.17911398846E+04 0.  0.
        4    1    3    3  502    0 -0.35896859344E+03 -0.68863393234E+03 -0.40809342897E+03  0.87727817909E+03  0.12699999809E+01 0. -1.
       -4    1    3    3    0  502  0.35896859344E+03  0.68863393234E+03  0.48484350798E+03  0.91550531619E+03  0.12699999809E+01 0.  1.
</event>
<event>
 5   0  0.9184414E-05  0.1800178E+04  0.7818609E-02  0.8706205E-01
       -2   -1    0    0    0  501  0.00000000000E+00  0.00000000000E+00  0.98426735318E+03  0.98426735318E+03  0.25500000920E-02 0.  1.
        2   -1    0    0  501    0  0.00000000000E+00  0.00000000000E+00 -0.82311032718E+03  0.82311032719E+03  0.25500000920E-02 0. -1.
    10030    2    1    2    0    0  0.00000000000E+00  0.00000000000E+00  0.16115702599E+03  0.18073776804E+04  0.18001784613E+04 0.  0.
        5    1    3    3  502    0 -0.48779467191E+02 -0.26532482629E+03 -0.78155331932E+03  0.82681580827E+03  0.46999998093E+01 0. -1.
       -5    1    3    3    0  502  0.48779467191E+02  0.26532482629E+03  0.94271034531E+03  0.98056187210E+03  0.46999998093E+01 0.  1.
</event>
<event>
 5   0  0.4494757E-05  0.1804148E+04  0.7818609E-02  0.8704097E-01
       -1   -1    0    0    0  501  0.00000000000E+00  0.00000000000E+00  0.12493318827E+04  0.12493318827E+04  0.50400001928E-02 0. -1.
        1   -1    0    0  501    0  0.00000000000E+00  0.00000000000E+00 -0.65133809368E+03  0.65133809370E+03  0.50400001928E-02 0.  1.
    10030    2    1    2    0    0  0.00000000000E+00  0.00000000000E+00  0.59799378902E+03  0.19006699764E+04  0.18041479395E+04 0.  0.
        4    1    3    3  502    0  0.16329004931E+03  0.20798001690E+03  0.12075858926E+04  0.12361976495E+04  0.12699999809E+01 0. -1.
       -4    1    3    3    0  502 -0.16329004931E+03 -0.20798001690E+03 -0.60959210358E+03  0.66447232695E+03  0.12699999809E+01 0.  1.
</event>
<event>
 5   0  0.4623665E-05  0.1792620E+04  0.7818609E-02  0.8710234E-01
       -1   -1    0    0    0  501  0.00000000000E+00  0.00000000000E+00  0.54751926804E+03  0.54751926807E+03  0.50400001928E-02 0.  1.
        1   -1    0    0  501    0  0.00000000000E+00  0.00000000000E+00 -0.14672943366E+04  0.14672943366E+04  0.50400001928E-02 0. -1.
    10030    2    1    2    0    0  0.00000000000E+00  0.00000000000E+00 -0.91977506853E+03  0.20148136047E+04  0.17926203404E+04 0.  0.
        5    1    3    3  502    0  0.31394484619E+03 -0.74439310720E+03 -0.23616726740E+02  0.80824643783E+03  0.46999998093E+01 0.  1.
       -5    1    3    3    0  502 -0.31394484619E+03  0.74439310720E+03 -0.89615834179E+03  0.12065671668E+04  0.46999998093E+01 0. -1.
</event>
<event>
 5   0  0.4335117E-05  0.1796605E+04  0.7818609E-02  0.8708107E-01
        1   -1    0    0  501    0  0.00000000000E+00  0.00000000000E+00  0.14051492171E+04  0.14051492171E+04  0.50400001928E-02 0. -1.
       -1   -1    0    0    0  501  0.00000000000E+00  0.00000000000E+00 -0.57427905696E+03  0.57427905698E+03  0.50400001928E-02 0.  1.
    10030    2    1    2    0    0  0.00000000000E+00  0.00000000000E+00  0.83087016011E+03  0.19794282741E+04  0.17966054295E+04 0.  0.
        3    1    3    3  502    0 -0.64784731313E+03  0.34892058898E+03  0.98313140698E+03  0.12280061450E+04  0.10100000352E+00 0. -1.
       -3    1    3    3    0  502  0.64784731313E+03 -0.34892058898E+03 -0.15226124687E+03  0.75142212906E+03  0.10100000352E+00 0.  1.
</event>
<event>
 5   0  0.4335117E-05  0.1801606E+04  0.7818609E-02  0.8705446E-01
        1   -1    0    0  501    0  0.00000000000E+00  0.00000000000E+00  0.98599862256E+03  0.98599862257E+03  0.50400001928E-02 0. -1.
       -1   -1    0    0    0  501  0.00000000000E+00  0.00000000000E+00 -0.82296863765E+03  0.82296863767E+03  0.50400001928E-02 0.  1.
    10030    2    1    2    0    0  0.00000000000E+00  0.00000000000E+00  0.16302998490E+03  0.18089672602E+04  0.18016058872E+04 0.  0.
        3    1    3    3  502    0 -0.39919791534E+03 -0.77650199614E+03 -0.14104720501E+03  0.88442560448E+03  0.10100000352E+00 0.  1.
       -3    1    3    3    0  502  0.39919791534E+03  0.77650199614E+03  0.30407718991E+03  0.92454165576E+03  0.10100000352E+00 0. -1.
</event>
<event>
 5   0  0.8892280E-05  0.1801155E+04  0.7818609E-02  0.8705686E-01
        2   -1    0    0  501    0  0.00000000000E+00  0.00000000000E+00  0.26805459564E+04  0.26805459564E+04  0.25500000920E-02 0. -1.
       -2   -1    0    0    0  501  0.00000000000E+00  0.00000000000E+00 -0.30256500751E+03  0.30256500752E+03  0.25500000920E-02 0.  1.
    10030    2    1    2    0    0  0.00000000000E+00  0.00000000000E+00  0.23779809489E+04  0.29831109639E+04  0.18011545269E+04 0.  0.
        4    1    3    3  502    0  0.34367378370E+02 -0.65748277817E+03  0.17129242449E+03  0.68029951335E+03  0.12699999809E+01 0.  1.
       -4    1    3    3    0  502 -0.34367378370E+02  0.65748277817E+03  0.22066885244E+04  0.23028114506E+04  0.12699999809E+01 0. -1.
</event>
<event>
 5   0  0.8802655E-05  0.1803207E+04  0.7818609E-02  0.8704596E-01
        2   -1    0    0  501    0  0.00000000000E+00  0.00000000000E+00  0.86622909376E+03  0.86622909376E+03  0.25500000920E-02 0.  1.
       -2   -1    0    0    0  501  0.00000000000E+00  0.00000000000E+00 -0.93842213690E+03  0.93842213690E+03  0.25500000920E-02 0. -1.
    10030    2    1    2    0    0  0.00000000000E+00  0.00000000000E+00 -0.72193043139E+02  0.18046512307E+04  0.18032066517E+04 0.  0.
        2    1    3    3  502    0 -0.26818123856E+03 -0.83337064610E+03 -0.25181675125E+03  0.91095526054E+03  0.25500000920E-02 0. -1.
       -2    1    3    3    0  502  0.26818123856E+03  0.83337064610E+03  0.17962370811E+03  0.89369597012E+03  0.25500000920E-02 0.  1.
</event>
<event>
 5   0  0.4335117E-05  0.1791799E+04  0.7818609E-02  0.8710673E-01
        1   -1    0    0  501    0  0.00000000000E+00  0.00000000000E+00  0.13346192426E+04  0.13346192426E+04  0.50400001928E-02 0.  1.
       -1   -1    0    0    0  501  0.00000000000E+00  0.00000000000E+00 -0.60139722935E+03  0.60139722937E+03  0.50400001928E-02 0. -1.
    10030    2    1    2    0    0  0.00000000000E+00  0.00000000000E+00  0.73322201324E+03  0.19360164720E+04  0.17917994472E+04 0.  0.
        3    1    3    3  502    0 -0.83733239859E+03  0.87157844864E+02  0.69773102748E+03  0.10934123799E+04  0.10100000352E+00 0.  1.
       -3    1    3    3    0  502  0.83733239859E+03 -0.87157844864E+02  0.35490985764E+02  0.84260409204E+03  0.10100000352E+00 0. -1.
</event>
<event>
 5   0  0.9147432E-05  0.1780395E+04  0.7818609E-02  0.8716795E-01
        2   -1    0    0  501    0  0.00000000000E+00  0.00000000000E+00  0.30176655094E+03  0.30176655095E+03  0.25500000920E-02 0. -1.
       -2   -1    0    0    0  501  0.00000000000E+00  0.00000000000E+00 -0.26260424987E+04  0.26260424987E+04  0.25500000920E-02 0.  1.
    10030    2    1    2    0    0  0.00000000000E+00  0.00000000000E+00 -0.23242759478E+04  0.29278090497E+04  0.17803952229E+04 0.  0.
        3    1    3    3  502    0  0.53076405363E+03  0.59432419785E+03 -0.50946708630E+03  0.94577399784E+03  0.10100000352E+00 0. -1.
       -3    1    3    3    0  502 -0.53076405363E+03 -0.59432419785E+03 -0.18148088615E+04  0.19820350518E+04  0.10100000352E+00 0.  1.
</event>
<event>
 5   0  0.4535100E-05  0.1802058E+04  0.7818609E-02  0.8705206E-01
        1   -1    0    0  501    0  0.00000000000E+00  0.00000000000E+00  0.21742308056E+04  0.21742308056E+04  0.50400001928E-02 0.  1.
       -1   -1    0    0    0  501  0.00000000000E+00  0.00000000000E+00 -0.37339798784E+03  0.37339798787E+03  0.50400001928E-02 0. -1.
    10030    2    1    2    0    0  0.00000000000E+00  0.00000000000E+00  0.18008328178E+04  0.25476287935E+04  0.18020581655E+04 0.  0.
        1    1    3    3  502    0  0.50723854688E+03 -0.73147510693E+03  0.70296579235E+03  0.11342432194E+04  0.50400001928E-02 0. -1.
       -1    1    3    3    0  502 -0.50723854688E+03  0.73147510693E+03  0.10978670254E+04  0.14133855741E+04  0.50400001928E-02 0.  1.
</event>
<event>
 5   0  0.4494757E-05  0.1804039E+04  0.7818609E-02  0.8704154E-01
        1   -1    0    0  501    0  0.00000000000E+00  0.00000000000E+00  0.30000544221E+04  0.30000544222E+04  0.50400001928E-02 0. -1.
       -1   -1    0    0    0  501  0.00000000000E+00  0.00000000000E+00 -0.27120827346E+03  0.27120827351E+03  0.50400001928E-02 0.  1.
    10030    2    1    2    0    0  0.00000000000E+00  0.00000000000E+00  0.27288461487E+04  0.32712626957E+04  0.18040394455E+04 0.  0.
        4    1    3    3  502    0  0.43636547165E+03  0.60107117195E+03  0.43638140725E+03  0.86147067512E+03  0.12699999809E+01 0.  1.
       -4    1    3    3    0  502 -0.43636547165E+03 -0.60107117195E+03  0.22924647414E+04  0.24097920205E+04  0.12699999809E+01 0. -1.
</event>
<event>
 5   0  0.4623665E-05  0.1798817E+04  0.7818609E-02  0.8706929E-01
        1   -1    0    0  501    0  0.00000000000E+00  0.00000000000E+00  0.11170235644E+04  0.11170235644E+04  0.50400001928E-02 0. -1.
       -1   -1    0    0    0  501  0.00000000000E+00  0.00000000000E+00 -0.72418871562E+03  0.72418871564E+03  0.50400001928E-02 0.  1.
    10030    2    1    2    0    0  0.00000000000E+00  0.00000000000E+00  0.39283484881E+03  0.18412122801E+04  0.17988172341E+04 0.  0.
        5    1    3    3  502    0  0.20790547459E+03 -0.65938988101E+03 -0.39237378086E+03  0.79498363219E+03  0.46999998093E+01 0.  1.
       -5    1    3    3    0  502 -0.20790547459E+03  0.65938988101E+03  0.78520862967E+03  0.10462286479E+04  0.46999998093E+01 0. -1.
</event>
<event>
 5   0  0.9147432E-05  0.1782905E+04  0.7818609E-02  0.8715444E-01
        2   -1    0    0  501    0  0.00000000000E+00  0.00000000000E+00  0.98923669324E+03  0.98923669324E+03  0.25500000920E-02 0.  1.
       -2   -1    0    0    0  501  0.00000000000E+00  0.00000000000E+00 -0.80333370091E+03  0.80333370091E+03  0.25500000920E-02 0. -1.
    10030    2    1    2    0    0  0.00000000000E+00  0.00000000000E+00  0.18590299233E+03  0.17925703941E+04  0.17829045671E+04 0.  0.
        3    1    3    3  502    0  0.47715612861E+03  0.61128766792E+03 -0.34913285030E+03  0.85043773516E+03  0.10100000352E+00 0.  1.
       -3    1    3    3    0  502 -0.47715612861E+03 -0.61128766792E+03  0.53503584263E+03  0.94213265899E+03  0.10100000352E+00 0. -1.
</event>
<event>
 5   0  0.4535100E-05  0.1793471E+04  0.7818609E-02  0.8709779E-01
        1   -1    0    0  501    0  0.00000000000E+00  0.00000000000E+00  0.22519504090E+04  0.22519504090E+04  0.50400001928E-02 0. -1.
       -1   -1    0    0    0  501  0.00000000000E+00  0.00000000000E+00 -0.35708373706E+03  0.35708373710E+03  0.50400001928E-02 0.  1.
    10030    2    1    2    0    0  0.00000000000E+00  0.00000000000E+00  0.18948666719E+04  0.26090341461E+04  0.17934713466E+04 0.  0.
        1    1    3    3  502    0 -0.47596189703E+03 -0.73721723508E+03  0.67877519500E+03  0.11093983705E+04  0.50400001928E-02 0.  1.
       -1    1    3    3    0  502  0.47596189703E+03  0.73721723508E+03  0.12160914769E+04  0.14996357756E+04  0.50400001928E-02 0. -1.
</event>
<event>
 5   0  0.8893075E-05  0.1797227E+04  0.7818609E-02  0.8707776E-01
        2   -1    0    0  501    0  0.00000000000E+00  0.00000000000E+00  0.14679899520E+04  0.14679899520E+04  0.25500000920E-02 0. -1.
       -2   -1    0    0    0  501  0.00000000000E+00  0.00000000000E+00 -0.55007602258E+03  0.55007602259E+03  0.25500000920E-02 0.  1.
    10030    2    1    2    0    0  0.00000000000E+00  0.00000000000E+00  0.91791392944E+03  0.20180659746E+04  0.17972268349E+04 0.  0.
        1    1    3    3  502    0  0.83005502531E+03 -0.16992180711E+03  0.12276559623E+03  0.85611690628E+03  0.50400001928E-02 0.  1.
       -1    1    3    3    0  502 -0.83005502531E+03  0.16992180711E+03  0.79514833321E+03  0.11619490683E+04  0.50400001928E-02 0. -1.
</event>
<event>
 5   0  0.4494757E-05  0.1905300E+04  0.7818609E-02  0.8652223E-01
       -1   -1    0    0    0  501  0.00000000000E+00  0.00000000000E+00  0.70734567270E+03  0.70734567272E+03  0.50400001928E-02 0. -1.
        1   -1    0    0  501    0  0.00000000000E+00  0.00000000000E+00 -0.12830244851E+04  0.12830244851E+04  0.50400001928E-02 0.  1.
    10030    2    1    2    0    0  0.00000000000E+00  0.00000000000E+00 -0.57567881240E+03  0.19903701578E+04  0.19052997848E+04 0.  0.
        4    1    3    3  502    0  0.14831089480E+03 -0.78064172515E+03  0.26111619698E+03  0.83640953234E+03  0.12699999809E+01 0. -1.
       -4    1    3    3    0  502 -0.14831089480E+03  0.78064172515E+03 -0.83679500939E+03  0.11539606255E+04  0.12699999809E+01 0.  1.
</event>
<event>
 5   0  0.4623665E-05  0.1783441E+04  0.7818609E-02  0.8715155E-01
        1   -1    0    0  501    0  0.00000000000E+00  0.00000000000E+00  0.19600143654E+04  0.19600143654E+04  0.50400001928E-02 0. -1.
       -1   -1    0    0    0  501  0.00000000000E+00  0.00000000000E+00 -0.40569382488E+03  0.40569382492E+03  0.50400001928E-02 0.  1.
    10030    2    1    2    0    0  0.00000000000E+00  0.00000000000E+00  0.15543205405E+04  0.23657081903E+04  0.17834413080E+04 0.  0.
        5    1    3    3  502    0 -0.77201383637E+02  0.82414038401E+03  0.12170580030E+04  0.14718762512E+04  0.46999998093E+01 0. -1.
       -5    1    3    3    0  502  0.77201383637E+02 -0.82414038401E+03  0.33726253751E+03  0.89383193912E+03  0.46999998093E+01 0.  1.
</event>
<event>
 5   0  0.4578107E-05  0.1789733E+04  0.7818609E-02  0.8711778E-01
       -1   -1    0    0    0  501  0.00000000000E+00  0.00000000000E+00  0.10516104527E+04  0.10516104527E+04  0.50400001928E-02 0.  1.
        1   -1    0    0  501    0  0.00000000000E+00  0.00000000000E+00 -0.76148562686E+03  0.76148562688E+03  0.50400001928E-02 0. -1.
    10030    2    1    2    0    0  0.00000000000E+00  0.00000000000E+00  0.29012482586E+03  0.18130960796E+04  0.17897332146E+04 0.  0.
        2    1    3    3  502    0  0.42358546573E+03  0.39114735656E+02 -0.65250865241E+03  0.77892371308E+03  0.25500000920E-02 0. -1.
       -2    1    3    3    0  502 -0.42358546573E+03 -0.39114735656E+02  0.94263347827E+03  0.10341723665E+04  0.25500000920E-02 0.  1.
</event>
<event>
 5   0  0.4494757E-05  0.1810443E+04  0.7818609E-02  0.8700766E-01
       -1   -1    0    0    0  501  0.00000000000E+00  0.00000000000E+00  0.10818460435E+04  0.10818460435E+04  0.50400001928E-02 0.  1.
        1   -1    0    0  501    0  0.00000000000E+00  0.00000000000E+00 -0.75743296761E+03  0.75743296762E+03  0.50400001928E-02 0. -1.
    10030    2    1    2    0    0  0.00000000000E+00  0.00000000000E+00  0.32441307585E+03  0.18392790111E+04  0.18104428842E+04 0.  0.
        4    1    3    3  502    0 -0.40233559703E+03  0.80896064166E+03  0.10534186279E+03  0.90960968187E+03  0.12699999809E+01 0. -1.
       -4    1    3    3    0  502  0.40233559703E+03 -0.80896064166E+03  0.21907121306E+03  0.92966932922E+03  0.12699999809E+01 0.  1.
</event>
<event>
 5   0  0.4623665E-05  0.1799021E+04  0.7818609E-02  0.8706820E-01
        1   -1    0    0  501    0  0.00000000000E+00  0.00000000000E+00  0.10445195529E+04  0.10445195529E+04  0.50400001928E-02 0. -1.
       -1   -1    0    0    0  501  0.00000000000E+00  0.00000000000E+00 -0.77463262917E+03  0.77463262918E+03  0.50400001928E-02 0.  1.
    10030    2    1    2    0    0  0.00000000000E+00  0.00000000000E+00  0.26988692370E+03  0.18191521821E+04  0.17990207642E+04 0.  0.
        5    1    3    3  502    0  0.54649393231E+02 -0.89700560535E+03  0.95894950420E+02  0.90378290741E+03  0.46999998093E+01 0. -1.
       -5    1    3    3    0  502 -0.54649393231E+02  0.89700560535E+03  0.17399197328E+03  0.91536927465E+03  0.46999998093E+01 0.  1.
</event>
<event>
 5   0  0.8802655E-05  0.1799175E+04  0.7818609E-02  0.8706739E-01
       -2   -1    0    0    0  501  0.00000000000E+00  0.00000000000E+00  0.48095671030E+03  0.48095671031E+03  0.25500000920E-02 0. -1.
        2   -1    0    0  501    0  0.00000000000E+00  0.00000000000E+00 -0.16825989958E+04  0.16825989958E+04  0.25500000920E-02 0.  1.
    10030    2    1    2    0    0  0.00000000000E+00  0.00000000000E+00 -0.12016422855E+04  0.21635557061E+04  0.17991745638E+04 0.  0.
        2    1    3    3  502    0  0.32872405581E+03  0.75726740982E+03 -0.10306195162E+04  0.13204885543E+04  0.25500000920E-02 0.  1.
       -2    1    3    3    0  502 -0.32872405581E+03 -0.75726740982E+03 -0.17102276931E+03  0.84306715181E+03  0.25500000920E-02 0. -1.
</event>
<event>
 5   0  0.4535100E-05  0.1793432E+04  0.7818609E-02  0.8709800E-01
       -1   -1    0    0    0  501  0.00000000000E+00  0.00000000000E+00  0.84693122999E+03  0.84693123001E+03  0.50400001928E-02 0. -1.
        1   -1    0    0  501    0  0.00000000000E+00  0.00000000000E+00 -0.94942691031E+03  0.94942691033E+03  0.50400001928E-02 0.  1.
    10030    2    1    2    0    0  0.00000000000E+00  0.00000000000E+00 -0.10249568032E+03  0.17963581403E+04  0.17934316836E+04 0.  0.
        1    1    3    3  502    0  0.39508791641E+02 -0.88750287003E+03 -0.17341822591E+03  0.90514980530E+03  0.50400001928E-02 0. -1.
       -1    1    3    3    0  502 -0.39508791641E+02  0.88750287003E+03  0.70922545585E+02  0.89120833503E+03  0.50400001928E-02 0.  1.
</event>
<event>
 5   0  0.4535100E-05  0.1789566E+04  0.7818609E-02  0.8711868E-01
        1   -1    0    0  501    0  0.00000000000E+00  0.00000000000E+00  0.20061534051E+04  0.20061534051E+04  0.50400001928E-02 0.  1.
       -1   -1    0    0    0  501  0.00000000000E+00  0.00000000000E+00 -0.39909040900E+03  0.39909040903E+03  0.50400001928E-02 0. -1.
    10030    2    1    2    0    0  0.00000000000E+00  0.00000000000E+00  0.16070629961E+04  0.24052438141E+04  0.17895659619E+04 0.  0.
        1    1    3    3  502    0 -0.21668884643E+02 -0.84052160966E+03  0.12149265798E+04  0.14774954183E+04  0.50400001928E-02 0.  1.
       -1    1    3    3    0  502  0.21668884643E+02  0.84052160966E+03  0.39213641624E+03  0.92774839576E+03  0.50400001928E-02 0. -1.
</event>
<event>
 5   0  0.4535100E-05  0.1805681E+04  0.7818609E-02  0.8703284E-01
        1   -1    0    0  501    0  0.00000000000E+00  0.00000000000E+00  0.69013409939E+03  0.69013409940E+03  0.50400001928E-02 0.  1.
       -1   -1    0    0    0  501  0.00000000000E+00  0.00000000000E+00 -0.11811050027E+04  0.11811050028E+04  0.50400001928E-02 0. -1.
    10030    2    1    2    0    0  0.00000000000E+00  0.00000000000E+00 -0.49097090336E+03  0.18712391022E+04  0.18056808548E+04 0.  0.
        1    1    3    3  502    0  0.40729488044E+03 -0.66524630409E+03 -0.71661087730E+03  0.10592322287E+04  0.50400001928E-02 0. -1.
       -1    1    3    3    0  502 -0.40729488044E+03  0.66524630409E+03  0.22563997395E+03  0.81200687350E+03  0.50400001928E-02 0.  1.
</event>
<event>
 5   0  0.8892280E-05  0.1794266E+04  0.7818609E-02  0.8709355E-01
        2   -1    0    0  501    0  0.00000000000E+00  0.00000000000E+00  0.77169037903E+03  0.77169037904E+03  0.25500000920E-02 0.  1.
       -2   -1    0    0    0  501  0.00000000000E+00  0.00000000000E+00 -0.10429669143E+04  0.10429669143E+04  0.25500000920E-02 0. -1.
    10030    2    1    2    0    0  0.00000000000E+00  0.00000000000E+00 -0.27127653522E+03  0.18146572933E+04  0.17942659038E+04 0.  0.
        4    1    3    3  502    0 -0.86674786785E+03 -0.18060965111E+03  0.10832379207E+02  0.88543247390E+03  0.12699999809E+01 0.  1.
       -4    1    3    3    0  502  0.86674786785E+03  0.18060965111E+03 -0.28210891443E+03  0.92922481940E+03  0.12699999809E+01 0. -1.
</event>
<event>
 5   0  0.4335117E-05  0.1796900E+04  0.7818609E-02  0.8707949E-01
       -1   -1    0    0    0  501  0.00000000000E+00  0.00000000000E+00  0.39419065632E+03  0.39419065636E+03  0.50400001928E-02 0.  1.
        1   -1    0    0  501    0  0.00000000000E+00  0.00000000000E+00 -0.20477726407E+04  0.20477726407E+04  0.50400001928E-02 0. -1.
    10030    2    1    2    0    0  0.00000000000E+00  0.00000000000E+00 -0.16535819844E+04  0.24419632971E+04  0.17969004884E+04 0.  0.
        3    1    3    3  502    0 -0.73862984602E+03  0.12037479521E+01 -0.13166270487E+03  0.75027366774E+03  0.10100000352E+00 0.  1.
       -3    1    3    3    0  502  0.73862984602E+03 -0.12037479521E+01 -0.15219192795E+04  0.16916896294E+04  0.10100000352E+00 0. -1.
</event>
<event>
 5   0  0.8892280E-05  0.1789195E+04  0.7818609E-02  0.8712066E-01
        2   -1    0    0  501    0  0.00000000000E+00  0.00000000000E+00  0.15009019935E+04  0.15009019935E+04  0.25500000920E-02 0. -1.
       -2   -1    0    0    0  501  0.00000000000E+00  0.00000000000E+00 -0.53321603071E+03  0.53321603072E+03  0.25500000920E-02 0.  1.
    10030    2    1    2    0    0  0.00000000000E+00  0.00000000000E+00  0.96768596280E+03  0.20341180242E+04  0.17891953538E+04 0.  0.
        4    1    3    3  502    0 -0.22055895453E+02 -0.58732919518E+03  0.12506002502E+04  0.13818265610E+04  0.12699999809E+01 0. -1.
       -4    1    3    3    0  502  0.22055895453E+02  0.58732919518E+03 -0.28291428742E+03  0.65229146320E+03  0.12699999809E+01 0.  1.
</event>
<event>
 5   0  0.9147432E-05  0.1800479E+04  0.7818609E-02  0.8706045E-01
        2   -1    0    0  501    0  0.00000000000E+00  0.00000000000E+00  0.83555239958E+03  0.83555239958E+03  0.25500000920E-02 0. -1.
       -2   -1    0    0    0  501  0.00000000000E+00  0.00000000000E+00 -0.96993433908E+03  0.96993433909E+03  0.25500000920E-02 0.  1.
    10030    2    1    2    0    0  0.00000000000E+00  0.00000000000E+00 -0.13438193950E+03  0.18054867387E+04  0.18004787857E+04 0.  0.
        3    1    3    3  502    0  0.20864292635E+03  0.17977192397E+03 -0.92665198258E+03  0.96671284380E+03  0.10100000352E+00 0.  1.
       -3    1    3    3    0  502 -0.20864292635E+03 -0.17977192397E+03  0.79227004307E+03  0.83877389487E+03  0.10100000352E+00 0. -1.
</event>
<event>
 5   0  0.8893075E-05  0.1817633E+04  0.7818609E-02  0.8696978E-01
        2   -1    0    0  501    0  0.00000000000E+00  0.00000000000E+00  0.96893753334E+03  0.96893753334E+03  0.25500000920E-02 0.  1.
       -2   -1    0    0    0  501  0.00000000000E+00  0.00000000000E+00 -0.85242619242E+03  0.85242619243E+03  0.25500000920E-02 0. -1.
    10030    2    1    2    0    0  0.00000000000E+00  0.00000000000E+00  0.11651134092E+03  0.18213637258E+04  0.18176333318E+04 0.  0.
        1    1    3    3  502    0  0.53484148383E+03 -0.25670588910E+03  0.74814116369E+03  0.95481334676E+03  0.50400001928E-02 0.  1.
       -1    1    3    3    0  502 -0.53484148383E+03  0.25670588910E+03 -0.63162982277E+03  0.86655037901E+03  0.50400001928E-02 0. -1.
</event>
<event>
 5   0  0.8892280E-05  0.1790365E+04  0.7818609E-02  0.8711440E-01
        2   -1    0    0  501    0  0.00000000000E+00  0.00000000000E+00  0.10078816760E+04  0.10078816760E+04  0.25500000920E-02 0.  1.
       -2   -1    0    0    0  501  0.00000000000E+00  0.00000000000E+00 -0.79508513584E+03  0.79508513584E+03  0.25500000920E-02 0. -1.
    10030    2    1    2    0    0  0.00000000000E+00  0.00000000000E+00  0.21279654020E+03  0.18029668119E+04  0.17903650346E+04 0.  0.
        4    1    3    3  502    0  0.30410424272E+03 -0.20574100656E+03 -0.71576808627E+03  0.80444659142E+03  0.12699999809E+01 0. -1.
       -4    1    3    3    0  502 -0.30410424272E+03  0.20574100656E+03  0.92856462648E+03  0.99852022046E+03  0.12699999809E+01 0.  1.
</event>
<event>
 5   0  0.4335117E-05  0.1791527E+04  0.7818609E-02  0.8710818E-01
        1   -1    0    0  501    0  0.00000000000E+00  0.00000000000E+00  0.34685086761E+04  0.34685086761E+04  0.50400001928E-02 0.  1.
       -1   -1    0    0    0  501  0.00000000000E+00  0.00000000000E+00 -0.23133638928E+03  0.23133638933E+03  0.50400001928E-02 0. -1.
    10030    2    1    2    0    0  0.00000000000E+00  0.00000000000E+00  0.32371722868E+04  0.36998450654E+04  0.17915270284E+04 0.  0.
        3    1    3    3  502    0  0.60469737516E+03 -0.24111082902E+03  0.34786617013E+03  0.73810854887E+03  0.10100000352E+00 0. -1.
       -3    1    3    3    0  502 -0.60469737516E+03  0.24111082902E+03  0.28893061167E+04  0.29617365166E+04  0.10100000352E+00 0.  1.
</event>
<event>
 5   0  0.9147432E-05  0.1812057E+04  0.7818609E-02  0.8699914E-01
        2   -1    0    0  501    0  0.00000000000E+00  0.00000000000E+00  0.13325844848E+04  0.13325844848E+04  0.25500000920E-02 0.  1.
       -2   -1    0    0    0  501  0.00000000000E+00  0.00000000000E+00 -0.61601140643E+03  0.61601140643E+03  0.25500000920E-02 0. -1.
    10030    2    1    2    0    0  0.00000000000E+00  0.00000000000E+00  0.71657307833E+03  0.19485958912E+04  0.18120565583E+04 0.  0.
        3    1    3    3  502    0 -0.44580809034E+03 -0.24635234729E+03  0.11640483838E+04  0.12706073282E+04  0.10100000352E+00 0.  1.
       -3    1    3    3    0  502  0.44580809034E+03  0.24635234729E+03 -0.44747530544E+03  0.67798856303E+03  0.10100000352E+00 0. -1.
</event>
<event>
 5   0  0.4335117E-05  0.1800657E+04  0.7818609E-02  0.8705950E-01
        1   -1    0    0  501    0  0.00000000000E+00  0.00000000000E+00  0.69454567255E+03  0.69454567257E+03  0.50400001928E-02 0.  1.
       -1   -1    0    0    0  501  0.00000000000E+00  0.00000000000E+00 -0.11670815277E+04  0.11670815277E+04  0.50400001928E-02 0. -1.
    10030    2    1    2    0    0  0.00000000000E+00  0.00000000000E+00 -0.47253585518E+03  0.18616272003E+04  0.18006570186E+04 0.  0.
        3    1    3    3  502    0 -0.27940691684E+02  0.67011419751E+03 -0.85723635449E+03  0.10884336900E+04  0.10100000352E+00 0. -1.
       -3    1    3    3    0  502  0.27940691684E+02 -0.67011419751E+03  0.38470049931E+03  0.77319351027E+03  0.10100000352E+00 0.  1.
</event>
<event>
 5   0  0.8892280E-05  0.1801245E+04  0.7818609E-02  0.8705638E-01
        2   -1    0    0  501    0  0.00000000000E+00  0.00000000000E+00  0.94588790199E+03  0.94588790199E+03  0.25500000920E-02 0.  1.
       -2   -1    0    0    0  501  0.00000000000E+00  0.00000000000E+00 -0.85752298055E+03  0.85752298056E+03  0.25500000920E-02 0. -1.
    10030    2    1    2    0    0  0.00000000000E+00  0.00000000000E+00  0.88364921434E+02  0.18034108825E+04  0.18012446952E+04 0.  0.
        4    1    3    3  502    0  0.54589595081E+03  0.44891622202E+03 -0.51469205931E+03  0.87432127523E+03  0.12699999809E+01 0. -1.
       -4    1    3    3    0  502 -0.54589595081E+03 -0.44891622202E+03  0.60305698074E+03  0.92908960732E+03  0.12699999809E+01 0.  1.
</event>
<event>
 5   0  0.8802655E-05  0.1802202E+04  0.7818609E-02  0.8705129E-01
       -2   -1    0    0    0  501  0.00000000000E+00  0.00000000000E+00  0.99525313973E+03  0.99525313973E+03  0.25500000920E-02 0.  1.
        2   -1    0    0  501    0  0.00000000000E+00  0.00000000000E+00 -0.81585576988E+03  0.81585576988E+03  0.25500000920E-02 0. -1.
    10030    2    1    2    0    0  0.00000000000E+00  0.00000000000E+00  0.17939736985E+03  0.18111089096E+04  0.18022020048E+04 0.  0.
        2    1    3    3  502    0 -0.78822791646E+03  0.39423755015E+03  0.27839387689E+03  0.92424544626E+03  0.25500000920E-02 0.  1.
       -2    1    3    3    0  502  0.78822791646E+03 -0.39423755015E+03 -0.98996507041E+02  0.88686346336E+03  0.25500000920E-02 0. -1.
</event>
<event>
 5   0  0.8893075E-05  0.1804410E+04  0.7818609E-02  0.8703958E-01
        2   -1    0    0  501    0  0.00000000000E+00  0.00000000000E+00  0.72597976216E+03  0.72597976217E+03  0.25500000920E-02 0. -1.
       -2   -1    0    0    0  501  0.00000000000E+00  0.00000000000E+00 -0.11212079220E+04  0.11212079220E+04  0.25500000920E-02 0.  1.
    10030    2    1    2    0    0  0.00000000000E+00  0.00000000000E+00 -0.39522815985E+03  0.18471876842E+04  0.18044104417E+04 0.  0.
        1    1    3    3  502    0  0.80984284684E+03 -0.38881008424E+03 -0.11223702056E+03  0.90532638700E+03  0.50400001928E-02 0.  1.
       -1    1    3    3    0  502 -0.80984284684E+03  0.38881008424E+03 -0.28299113929E+03  0.94186129718E+03  0.50400001928E-02 0. -1.
</event>
<event>
 5   0  0.9147432E-05  0.1803892E+04  0.7818609E-02  0.8704232E-01
       -2   -1    0    0    0  501  0.00000000000E+00  0.00000000000E+00  0.10870275079E+04  0.10870275079E+04  0.25500000920E-02 0.  1.
        2   -1    0    0  501    0  0.00000000000E+00  0.00000000000E+00 -0.74837747212E+03  0.74837747212E+03  0.25500000920E-02 0. -1.
    10030    2    1    2    0    0  0.00000000000E+00  0.00000000000E+00  0.33865003579E+03  0.18354049800E+04  0.18038923455E+04 0.  0.
        3    1    3    3  502    0 -0.88074053481E+03  0.24643132050E+02  0.36555607523E+03  0.95390902499E+03  0.10100000352E+00 0. -1.
       -3    1    3    3    0  502  0.88074053481E+03 -0.24643132050E+02 -0.26906039434E+02  0.88149595505E+03  0.10100000352E+00 0.  1.
</event>
<event>
 5   0  0.8802655E-05  0.1802840E+04  0.7818609E-02  0.8704790E-01
        2   -1    0    0  501    0  0.00000000000E+00  0.00000000000E+00  0.21408424411E+04  0.21408424411E+04  0.25500000920E-02 0. -1.
       -2   -1    0    0    0  501  0.00000000000E+00  0.00000000000E+00 -0.37955078311E+03  0.37955078312E+03  0.25500000920E-02 0.  1.
    10030    2    1    2    0    0  0.00000000000E+00  0.00000000000E+00  0.17612916580E+04  0.25203932242E+04  0.18028404533E+04 0.  0.
        2    1    3    3  502    0  0.30159121259E+02  0.80011578743E+03  0.30175462408E+03  0.85565805031E+03  0.25500000920E-02 0.  1.
       -2    1    3    3    0  502 -0.30159121259E+02 -0.80011578743E+03  0.14595370339E+04  0.16647351739E+04  0.25500000920E-02 0. -1.
</event>
<event>
 5   0  0.4578107E-05  0.1801859E+04  0.7818609E-02  0.8705311E-01
        1   -1    0    0  501    0  0.00000000000E+00  0.00000000000E+00  0.88357493300E+03  0.88357493301E+03  0.50400001928E-02 0. -1.
       -1   -1    0    0    0  501  0.00000000000E+00  0.00000000000E+00 -0.91862531830E+03  0.91862531831E+03  0.50400001928E-02 0.  1.
    10030    2    1    2    0    0  0.00000000000E+00  0.00000000000E+00 -0.35050385304E+02  0.18022002513E+04  0.18018593775E+04 0.  0.
        2    1    3    3  502    0  0.18131135277E+03 -0.71533852115E+03 -0.53443172506E+03  0.91115326660E+03  0.25500000920E-02 0.  1.
       -2    1    3    3    0  502 -0.18131135277E+03  0.71533852115E+03  0.49938133975E+03  0.89104698472E+03  0.25500000920E-02 0. -1.
</event>
<event>
 5   0  0.4578107E-05  0.1800989E+04  0.7818609E-02  0.8705773E-01
       -1   -1    0    0    0  501  0.00000000000E+00  0.00000000000E+00  0.42362205780E+03  0.42362205783E+03  0.50400001928E-02 0. -1.
        1   -1    0    0  501    0  0.00000000000E+00  0.00000000000E+00 -0.19141845354E+04  0.19141845354E+04  0.50400001928E-02 0.  1.
    10030    2    1    2    0    0  0.00000000000E+00  0.00000000000E+00 -0.14905624776E+04  0.23378065932E+04  0.18009894968E+04 0.  0.
        2    1    3    3  502    0 -0.37329305836E+03 -0.54064214117E+03 -0.15446730823E+04  0.16785876692E+04  0.25500000920E-02 0.  1.
       -2    1    3    3    0  502  0.37329305836E+03  0.54064214117E+03  0.54110604650E+02  0.65921892401E+03  0.25500000920E-02 0. -1.
</event>
<event>
 5   0  0.4494757E-05  0.1807883E+04  0.7818609E-02  0.8702118E-01
       -1   -1    0    0    0  501  0.00000000000E+00  0.00000000000E+00  0.69157362538E+03  0.69157362540E+03  0.50400001928E-02 0.  1.
        1   -1    0    0  501    0  0.00000000000E+00  0.00000000000E+00 -0.11815236786E+04  0.11815236787E+04  0.50400001928E-02 0. -1.
    10030    2    1    2    0    0  0.00000000000E+00  0.00000000000E+00 -0.48995005327E+03  0.18730973041E+04  0.18078834187E+04 0.  0.
        4    1    3    3  502    0 -0.18271512987E+03  0.62018695338E+03 -0.89950057807E+03  0.11077542953E+04  0.12699999809E+01 0. -1.
       -4    1    3    3    0  502  0.18271512987E+03 -0.62018695338E+03  0.40955052481E+03  0.76534300879E+03  0.12699999809E+01 0.  1.
</event>
<event>
 5   0  0.4623665E-05  0.1813060E+04  0.7818609E-02  0.8699385E-01
       -1   -1    0    0    0  501  0.00000000000E+00  0.00000000000E+00  0.36484142521E+03  0.36484142524E+03  0.50400001928E-02 0.  1.
        1   -1    0    0  501    0  0.00000000000E+00  0.00000000000E+00 -0.22524760861E+04  0.22524760861E+04  0.50400001928E-02 0. -1.
    10030    2    1    2    0    0  0.00000000000E+00  0.00000000000E+00 -0.18876346609E+04  0.26173175113E+04  0.18130599389E+04 0.  0.
        5    1    3    3  502    0 -0.10310803559E+03 -0.71621818839E+03 -0.17320958096E+04  0.18771728061E+04  0.46999998093E+01 0. -1.
       -5    1    3    3    0  502  0.10310803559E+03  0.71621818839E+03 -0.15553885126E+03  0.74014470520E+03  0.46999998093E+01 0.  1.
</event>
<event>
 5   0  0.4623665E-05  0.1820992E+04  0.7818609E-02  0.8695215E-01
       -1   -1    0    0    0  501  0.00000000000E+00  0.00000000000E+00  0.35480132136E+03  0.35480132139E+03  0.50400001928E-02 0.  1.
        1   -1    0    0  501    0  0.00000000000E+00  0.00000000000E+00 -0.23365282489E+04  0.23365282489E+04  0.50400001928E-02 0. -1.
    10030    2    1    2    0    0  0.00000000000E+00  0.00000000000E+00 -0.19817269275E+04  0.26913295703E+04  0.18209923780E+04 0.  0.
        5    1    3    3  502    0  0.50370506991E+03 -0.59173433711E+03 -0.28963595708E+03  0.82932466550E+03  0.46999998093E+01 0.  1.
       -5    1    3    3    0  502 -0.50370506991E+03  0.59173433711E+03 -0.16920909704E+04  0.18620049048E+04  0.46999998093E+01 0. -1.
</event>
<event>
 5   0  0.9147432E-05  0.1806918E+04  0.7818609E-02  0.8702629E-01
       -2   -1    0    0    0  501  0.00000000000E+00  0.00000000000E+00  0.44871912186E+03  0.44871912186E+03  0.25500000920E-02 0.  1.
        2   -1    0    0  501    0  0.00000000000E+00  0.00000000000E+00 -0.18190404110E+04  0.18190404110E+04  0.25500000920E-02 0. -1.
    10030    2    1    2    0    0  0.00000000000E+00  0.00000000000E+00 -0.13703212891E+04  0.22677595328E+04  0.18069180566E+04 0.  0.
        3    1    3    3  502    0 -0.46622916880E+03 -0.27474222945E+03 -0.15931260327E+04  0.16825288993E+04  0.10100000352E+00 0. -1.
       -3    1    3    3    0  502  0.46622916880E+03  0.27474222945E+03  0.22280474362E+03  0.58523063357E+03  0.10100000352E+00 0.  1.
</event>
<event>
 5   0  0.9147432E-05  0.1799175E+04  0.7818609E-02  0.8706739E-01
       -2   -1    0    0    0  501  0.00000000000E+00  0.00000000000E+00  0.69269807075E+03  0.69269807076E+03  0.25500000920E-02 0. -1.
        2   -1    0    0  501    0  0.00000000000E+00  0.00000000000E+00 -0.11682684536E+04  0.11682684536E+04  0.25500000920E-02 0.  1.
    10030    2    1    2    0    0  0.00000000000E+00  0.00000000000E+00 -0.47557038287E+03  0.18609665244E+04  0.17991745929E+04 0.  0.
        3    1    3    3  502    0  0.25218880018E+03  0.79242808279E+03 -0.59266615022E+03  0.10211731651E+04  0.10100000352E+00 0.  1.
       -3    1    3    3    0  502 -0.25218880018E+03 -0.79242808279E+03  0.11709576736E+03  0.83979335926E+03  0.10100000352E+00 0. -1.
</event>
<event>
 5   0  0.4623665E-05  0.1805445E+04  0.7818609E-02  0.8703409E-01
       -1   -1    0    0    0  501  0.00000000000E+00  0.00000000000E+00  0.11542207829E+04  0.11542207829E+04  0.50400001928E-02 0.  1.
        1   -1    0    0  501    0  0.00000000000E+00  0.00000000000E+00 -0.70602465907E+03  0.70602465909E+03  0.50400001928E-02 0. -1.
    10030    2    1    2    0    0  0.00000000000E+00  0.00000000000E+00  0.44819612385E+03  0.18602454420E+04  0.18054454683E+04 0.  0.
        5    1    3    3  502    0 -0.77519439752E+03 -0.18724319799E+03 -0.21170561779E+03  0.82512285616E+03  0.46999998093E+01 0. -1.
       -5    1    3    3    0  502  0.77519439752E+03  0.18724319799E+03  0.65990174164E+03  0.10351225859E+04  0.46999998093E+01 0.  1.
</event>
<event>
 5   0  0.8893075E-05  0.1797009E+04  0.7818609E-02  0.8707892E-01
       -2   -1    0    0    0  501  0.00000000000E+00  0.00000000000E+00  0.97305289213E+03  0.97305289213E+03  0.25500000920E-02 0.  1.
        2   -1    0    0  501    0  0.00000000000E+00  0.00000000000E+00 -0.82966715468E+03  0.82966715469E+03  0.25500000920E-02 0. -1.
    10030    2    1    2    0    0  0.00000000000E+00  0.00000000000E+00  0.14338573745E+03  0.18027200468E+04  0.17970086526E+04 0.  0.
        1    1    3    3  502    0  0.63609363059E+03  0.28975398316E+02 -0.56424252077E+03  0.85077864504E+03  0.50400001928E-02 0. -1.
       -1    1    3    3    0  502 -0.63609363059E+03 -0.28975398316E+02  0.70762825821E+03  0.95194140178E+03  0.50400001928E-02 0.  1.
</event>
<event>
 5   0  0.4578107E-05  0.1799291E+04  0.7818609E-02  0.8706676E-01
       -1   -1    0    0    0  501  0.00000000000E+00  0.00000000000E+00  0.44531497368E+03  0.44531497371E+03  0.50400001928E-02 0. -1.
        1   -1    0    0  501    0  0.00000000000E+00  0.00000000000E+00 -0.18175050461E+04  0.18175050461E+04  0.50400001928E-02 0.  1.
    10030    2    1    2    0    0  0.00000000000E+00  0.00000000000E+00 -0.13721900724E+04  0.22628200198E+04  0.17992912069E+04 0.  0.
        2    1    3    3  502    0 -0.56661419479E+03 -0.83042899793E+02 -0.15586807785E+04  0.16605521787E+04  0.25500000920E-02 0.  1.
       -2    1    3    3    0  502  0.56661419479E+03  0.83042899793E+02  0.18649070610E+03  0.60226784109E+03  0.25500000920E-02 0. -1.
</event>
<event>
 5   0  0.9147432E-05  0.1797046E+04  0.7818609E-02  0.8707872E-01
       -2   -1    0    0    0  501  0.00000000000E+00  0.00000000000E+00  0.52693402400E+03  0.52693402401E+03  0.25500000920E-02 0.  1.
        2   -1    0    0  501    0  0.00000000000E+00  0.00000000000E+00 -0.15321535455E+04  0.15321535455E+04  0.25500000920E-02 0. -1.
    10030    2    1    2    0    0  0.00000000000E+00  0.00000000000E+00 -0.10052195215E+04  0.20590875695E+04  0.17970462800E+04 0.  0.
        3    1    3    3  502    0 -0.33949445055E+03 -0.65414174964E+03  0.86329331530E+02  0.74203145099E+03  0.10100000352E+00 0.  1.
       -3    1    3    3    0  502  0.33949445055E+03  0.65414174964E+03 -0.10915488530E+04  0.13170561185E+04  0.10100000352E+00 0. -1.
</event>
<event>
 5   0  0.8892280E-05  0.1766860E+04  0.7818609E-02  0.8724124E-01
       -2   -1    0    0    0  501  0.00000000000E+00  0.00000000000E+00  0.49409787238E+03  0.49409787238E+03  0.25500000920E-02 0. -1.
        2   -1    0    0  501    0  0.00000000000E+00  0.00000000000E+00 -0.15795421826E+04  0.15795421826E+04  0.25500000920E-02 0.  1.
    10030    2    1    2    0    0  0.00000000000E+00  0.00000000000E+00 -0.10854443102E+04  0.20736400550E+04  0.17668598493E+04 0.  0.
        4    1    3    3  502    0 -0.73291696870E+03  0.41898299722E+03 -0.84816554736E+03  0.11967039916E+04  0.12699999809E+01 0. -1.
       -4    1    3    3    0  502  0.73291696870E+03 -0.41898299722E+03 -0.23727876284E+03  0.87693606332E+03  0.12699999809E+01 0.  1.
</event>
<event>
 5   0  0.9184414E-05  0.1752633E+04  0.7818609E-02  0.8731902E-01
        2   -1    0    0  501    0  0.00000000000E+00  0.00000000000E+00  0.87574414713E+03  0.87574414713E+03  0.25500000920E-02 0.  1.
       -2   -1    0    0    0  501  0.00000000000E+00  0.00000000000E+00 -0.87688944324E+03  0.87688944325E+03  0.25500000920E-02 0. -1.
    10030    2    1    2    0    0  0.00000000000E+00  0.00000000000E+00 -0.11452961169E+01  0.17526335904E+04  0.17526332162E+04 0.  0.
        5    1    3    3  502    0  0.37195476514E+03  0.78410836019E+03  0.12080464000E+03  0.87623747859E+03  0.46999998093E+01 0.  1.
       -5    1    3    3    0  502 -0.37195476514E+03 -0.78410836019E+03 -0.12194993612E+03  0.87639611179E+03  0.46999998093E+01 0. -1.
</event>
<event>
 5   0  0.4535100E-05  0.1801355E+04  0.7818609E-02  0.8705579E-01
       -1   -1    0    0    0  501  0.00000000000E+00  0.00000000000E+00  0.63019316842E+03  0.63019316844E+03  0.50400001928E-02 0.  1.
        1   -1    0    0  501    0  0.00000000000E+00  0.00000000000E+00 -0.12872563199E+04  0.12872563199E+04  0.50400001928E-02 0. -1.
    10030    2    1    2    0    0  0.00000000000E+00  0.00000000000E+00 -0.65706315151E+03  0.19174494884E+04  0.18013551997E+04 0.  0.
        1    1    3    3  502    0 -0.50855453370E+03 -0.18557907946E+03  0.43768847395E+03  0.69615982988E+03  0.50400001928E-02 0.  1.
       -1    1    3    3    0  502  0.50855453370E+03  0.18557907946E+03 -0.10947516255E+04  0.12212896585E+04  0.50400001928E-02 0. -1.
</event>
<event>
 5   0  0.4335117E-05  0.1816803E+04  0.7818609E-02  0.8697414E-01
        1   -1    0    0  501    0  0.00000000000E+00  0.00000000000E+00  0.10987510493E+04  0.10987510493E+04  0.50400001928E-02 0.  1.
       -1   -1    0    0    0  501  0.00000000000E+00  0.00000000000E+00 -0.75102859042E+03  0.75102859044E+03  0.50400001928E-02 0. -1.
    10030    2    1    2    0    0  0.00000000000E+00  0.00000000000E+00  0.34772245888E+03  0.18497796398E+04  0.18168031834E+04 0.  0.
        3    1    3    3  502    0  0.20187960320E+02  0.65743497300E+03  0.81178381818E+03  0.10448068123E+04  0.10100000352E+00 0.  1.
       -3    1    3    3    0  502 -0.20187960320E+02 -0.65743497300E+03 -0.46406135930E+03  0.80497282740E+03  0.10100000352E+00 0. -1.
</event>
<event>
 5   0  0.4494757E-05  0.1805728E+04  0.7818609E-02  0.8703259E-01
        1   -1    0    0  501    0  0.00000000000E+00  0.00000000000E+00  0.65888655613E+03  0.65888655615E+03  0.50400001928E-02 0. -1.
       -1   -1    0    0    0  501  0.00000000000E+00  0.00000000000E+00 -0.12371830191E+04  0.12371830192E+04  0.50400001928E-02 0.  1.
    10030    2    1    2    0    0  0.00000000000E+00  0.00000000000E+00 -0.57829646301E+03  0.18960695753E+04  0.18057278409E+04 0.  0.
        4    1    3    3  502    0  0.47518934508E+03  0.35146035260E+03 -0.10058142283E+04  0.11666161185E+04  0.12699999809E+01 0.  1.
       -4    1    3    3    0  502 -0.47518934508E+03 -0.35146035260E+03  0.42751776529E+03  0.72945345682E+03  0.12699999809E+01 0. -1.
</event>
<event>
 5   0  0.4623665E-05  0.1796548E+04  0.7818609E-02  0.8708137E-01
       -1   -1    0    0    0  501  0.00000000000E+00  0.00000000000E+00  0.90157964386E+03  0.90157964387E+03  0.50400001928E-02 0. -1.
        1   -1    0    0  501    0  0.00000000000E+00  0.00000000000E+00 -0.89498065230E+03  0.89498065232E+03  0.50400001928E-02 0.  1.
    10030    2    1    2    0    0  0.00000000000E+00  0.00000000000E+00  0.65989915553E+01  0.17965602962E+04  0.17965481767E+04 0.  0.
        5    1    3    3  502    0  0.61721222524E+03  0.10475229666E+03 -0.64087118943E+03  0.89591402828E+03  0.46999998093E+01 0.  1.
       -5    1    3    3    0  502 -0.61721222524E+03 -0.10475229666E+03  0.64747018098E+03  0.90064626791E+03  0.46999998093E+01 0. -1.
</event>
<event>
 5   0  0.9147432E-05  0.1785745E+04  0.7818609E-02  0.8713917E-01
       -2   -1    0    0    0  501  0.00000000000E+00  0.00000000000E+00  0.74717631000E+03  0.74717631000E+03  0.25500000920E-02 0. -1.
        2   -1    0    0  501    0  0.00000000000E+00  0.00000000000E+00 -0.10669786501E+04  0.10669786501E+04  0.25500000920E-02 0.  1.
    10030    2    1    2    0    0  0.00000000000E+00  0.00000000000E+00 -0.31980234005E+03  0.18141549601E+04  0.17857448537E+04 0.  0.
        3    1    3    3  502    0 -0.78380151057E+03 -0.12800703218E+03 -0.57442525577E+03  0.98015049504E+03  0.10100000352E+00 0.  1.
       -3    1    3    3    0  502  0.78380151057E+03  0.12800703218E+03  0.25462291571E+03  0.83400446502E+03  0.10100000352E+00 0. -1.
</event>
<event>
 5   0  0.4578107E-05  0.1797501E+04  0.7818609E-02  0.8707630E-01
       -1   -1    0    0    0  501  0.00000000000E+00  0.00000000000E+00  0.83570535864E+03  0.83570535865E+03  0.50400001928E-02 0.  1.
        1   -1    0    0  501    0  0.00000000000E+00  0.00000000000E+00 -0.96655166614E+03  0.96655166615E+03  0.50400001928E-02 0. -1.
    10030    2    1    2    0    0  0.00000000000E+00  0.00000000000E+00 -0.13084630750E+03  0.18022570248E+04  0.17975009394E+04 0.  0.
        2    1    3    3  502    0 -0.33311772084E+03 -0.15943295639E+03 -0.88696050335E+03  0.96077323965E+03  0.25500000920E-02 0. -1.
       -2    1    3    3    0  502  0.33311772084E+03  0.15943295639E+03  0.75611419585E+03  0.84148378516E+03  0.25500000920E-02 0.  1.
</event>
<event>
 5   0  0.4494757E-05  0.1800197E+04  0.7818609E-02  0.8706195E-01
        1   -1    0    0  501    0  0.00000000000E+00  0.00000000000E+00  0.16636511077E+04  0.16636511077E+04  0.50400001928E-02 0. -1.
       -1   -1    0    0    0  501  0.00000000000E+00  0.00000000000E+00 -0.48698733810E+03  0.48698733813E+03  0.50400001928E-02 0.  1.
    10030    2    1    2    0    0  0.00000000000E+00  0.00000000000E+00  0.11766637696E+04  0.21506384458E+04  0.18001966831E+04 0.  0.
        4    1    3    3  502    0 -0.63596793382E+03 -0.39619937964E+03 -0.75027157334E+01  0.74932440566E+03  0.12699999809E+01 0. -1.
       -4    1    3    3    0  502  0.63596793382E+03  0.39619937964E+03  0.11841664853E+04  0.14013140401E+04  0.12699999809E+01 0.  1.
</event>
<event>
 5   0  0.4335117E-05  0.1803172E+04  0.7818609E-02  0.8704615E-01
       -1   -1    0    0    0  501  0.00000000000E+00  0.00000000000E+00  0.67447616295E+03  0.67447616297E+03  0.50400001928E-02 0. -1.
        1   -1    0    0  501    0  0.00000000000E+00  0.00000000000E+00 -0.12051680615E+04  0.12051680616E+04  0.50400001928E-02 0.  1.
    10030    2    1    2    0    0  0.00000000000E+00  0.00000000000E+00 -0.53069189859E+03  0.18796442245E+04  0.18031717942E+04 0.  0.
        3    1    3    3  502    0 -0.24926606073E+03  0.22279658258E+02  0.63754425794E+03  0.68490338241E+03  0.10100000352E+00 0. -1.
       -3    1    3    3    0  502  0.24926606073E+03 -0.22279658258E+02 -0.11682361565E+04  0.11947408421E+04  0.10100000352E+00 0.  1.
</event>
<event>
 5   0  0.4494757E-05  0.1799367E+04  0.7818609E-02  0.8706636E-01
       -1   -1    0    0    0  501  0.00000000000E+00  0.00000000000E+00  0.90059369001E+03  0.90059369003E+03  0.50400001928E-02 0.  1.
        1   -1    0    0  501    0  0.00000000000E+00  0.00000000000E+00 -0.89877421574E+03  0.89877421576E+03  0.50400001928E-02 0. -1.
    10030    2    1    2    0    0  0.00000000000E+00  0.00000000000E+00  0.18194742711E+01  0.17993679058E+04  0.17993669859E+04 0.  0.
        4    1    3    3  502    0 -0.49670209083E+03  0.72330174045E+03  0.19978266200E+03  0.89988504805E+03  0.12699999809E+01 0. -1.
       -4    1    3    3    0  502  0.49670209083E+03 -0.72330174045E+03 -0.19796318772E+03  0.89948285774E+03  0.12699999809E+01 0.  1.
</event>
<event>
 5   0  0.8802655E-05  0.1808310E+04  0.7818609E-02  0.8701893E-01
       -2   -1    0    0    0  501  0.00000000000E+00  0.00000000000E+00  0.46838822487E+03  0.46838822487E+03  0.25500000920E-02 0.  1.
        2   -1    0    0  501    0  0.00000000000E+00  0.00000000000E+00 -0.17453381210E+04  0.17453381210E+04  0.25500000920E-02 0. -1.
    10030    2    1    2    0    0  0.00000000000E+00  0.00000000000E+00 -0.12769498962E+04  0.22137263459E+04  0.18083095137E+04 0.  0.
        2    1    3    3  502    0 -0.53828178642E+03 -0.69272237412E+03 -0.90635941648E+03  0.12613877124E+04  0.25500000920E-02 0. -1.
       -2    1    3    3    0  502  0.53828178642E+03  0.69272237412E+03 -0.37059047969E+03  0.95233863349E+03  0.25500000920E-02 0.  1.
</event>
<event>
 5   0  0.9184414E-05  0.1802706E+04  0.7818609E-02  0.8704862E-01
        2   -1    0    0  501    0  0.00000000000E+00  0.00000000000E+00  0.20735780179E+04  0.20735780179E+04  0.25500000920E-02 0.  1.
       -2   -1    0    0    0  501  0.00000000000E+00  0.00000000000E+00 -0.39180438761E+03  0.39180438762E+03  0.25500000920E-02 0. -1.
    10030    2    1    2    0    0  0.00000000000E+00  0.00000000000E+00  0.16817736303E+04  0.24653824055E+04  0.18027057059E+04 0.  0.
        5    1    3    3  502    0  0.93309622918E+02 -0.39019471890E+03 -0.26294293137E+03  0.47970791065E+03  0.46999998093E+01 0. -1.
       -5    1    3    3    0  502 -0.93309622918E+02  0.39019471890E+03  0.19447165617E+04  0.19856744949E+04  0.46999998093E+01 0.  1.
</event>
<event>
 5   0  0.9147432E-05  0.1805023E+04  0.7818609E-02  0.8703633E-01
       -2   -1    0    0    0  501  0.00000000000E+00  0.00000000000E+00  0.11220066592E+04  0.11220066592E+04  0.25500000920E-02 0.  1.
        2   -1    0    0  501    0  0.00000000000E+00  0.00000000000E+00 -0.72595581869E+03  0.72595581870E+03  0.25500000920E-02 0. -1.
    10030    2    1    2    0    0  0.00000000000E+00  0.00000000000E+00  0.39605084048E+03  0.18479624779E+04  0.18050232828E+04 0.  0.
        3    1    3    3  502    0 -0.67116990172E+03 -0.36256293999E+03 -0.29574049295E+03  0.81815852486E+03  0.10100000352E+00 0. -1.
       -3    1    3    3    0  502  0.67116990172E+03  0.36256293999E+03  0.69179133343E+03  0.10298039530E+04  0.10100000352E+00 0.  1.
</event>
<event>
 5   0  0.9184414E-05  0.1800108E+04  0.7818609E-02  0.8706242E-01
       -2   -1    0    0    0  501  0.00000000000E+00  0.00000000000E+00  0.57535837237E+03  0.57535837238E+03  0.25500000920E-02 0. -1.
        2   -1    0    0  501    0  0.00000000000E+00  0.00000000000E+00 -0.14079871668E+04  0.14079871668E+04  0.25500000920E-02 0.  1.
    10030    2    1    2    0    0  0.00000000000E+00  0.00000000000E+00 -0.83262879444E+03  0.19833455392E+04  0.18001080019E+04 0.  0.
        5    1    3    3  502    0  0.96039893845E+02  0.82014795994E+03 -0.21803775647E+02  0.82605316538E+03  0.46999998093E+01 0. -1.
       -5    1    3    3    0  502 -0.96039893845E+02 -0.82014795994E+03 -0.81082501880E+03  0.11572923738E+04  0.46999998093E+01 0.  1.
</event>
<event>
 5   0  0.4494757E-05  0.1791663E+04  0.7818609E-02  0.8710746E-01
        1   -1    0    0  501    0  0.00000000000E+00  0.00000000000E+00  0.50930547829E+03  0.50930547831E+03  0.50400001928E-02 0.  1.
       -1   -1    0    0    0  501  0.00000000000E+00  0.00000000000E+00 -0.15757023965E+04  0.15757023965E+04  0.50400001928E-02 0. -1.
    10030    2    1    2    0    0  0.00000000000E+00  0.00000000000E+00 -0.10663969183E+04  0.20850078749E+04  0.17916627615E+04 0.  0.
        4    1    3    3  502    0  0.49916881970E+03 -0.37992880084E+03  0.21103880521E+03  0.66185677791E+03  0.12699999809E+01 0.  1.
       -4    1    3    3    0  502 -0.49916881970E+03  0.37992880084E+03 -0.12774357235E+04  0.14231510969E+04  0.12699999809E+01 0. -1.
</event>
<event>
 5   0  0.4335117E-05  0.1712191E+04  0.7818609E-02  0.8754442E-01
       -1   -1    0    0    0  501  0.00000000000E+00  0.00000000000E+00  0.65333995957E+03  0.65333995959E+03  0.50400001928E-02 0.  1.
        1   -1    0    0  501    0  0.00000000000E+00  0.00000000000E+00 -0.11217731175E+04  0.11217731175E+04  0.50400001928E-02 0. -1.
    10030    2    1    2    0    0  0.00000000000E+00  0.00000000000E+00 -0.46843315793E+03  0.17751130771E+04  0.17121906474E+04 0.  0.
        3    1    3    3  502    0 -0.51455873443E+03  0.34255122046E+03  0.37982212893E+03  0.72551835927E+03  0.10100000352E+00 0.  1.
       -3    1    3    3    0  502  0.51455873443E+03 -0.34255122046E+03 -0.84825528686E+03  0.10495947178E+04  0.10100000352E+00 0. -1.
</event>
<event>
 5   0  0.4335117E-05  0.1798744E+04  0.7818609E-02  0.8706967E-01
       -1   -1    0    0    0  501  0.00000000000E+00  0.00000000000E+00  0.63598188035E+03  0.63598188037E+03  0.50400001928E-02 0.  1.
        1   -1    0    0  501    0  0.00000000000E+00  0.00000000000E+00 -0.12718449375E+04  0.12718449376E+04  0.50400001928E-02 0. -1.
    10030    2    1    2    0    0  0.00000000000E+00  0.00000000000E+00 -0.63586305720E+03  0.19078268179E+04  0.17987443786E+04 0.  0.
        3    1    3    3  502    0 -0.79824822596E+03  0.35278550011E+03 -0.54839278822E+03  0.10307242598E+04  0.10100000352E+00 0. -1.
       -3    1    3    3    0  502  0.79824822596E+03 -0.35278550011E+03 -0.87470268982E+02  0.87710255814E+03  0.10100000352E+00 0.  1.
</event>
<event>
 5   0  0.4623665E-05  0.1799755E+04  0.7818609E-02  0.8706430E-01
        1   -1    0    0  501    0  0.00000000000E+00  0.00000000000E+00  0.13179059504E+04  0.13179059505E+04  0.50400001928E-02 0. -1.
       -1   -1    0    0    0  501  0.00000000000E+00  0.00000000000E+00 -0.61444387053E+03  0.61444387055E+03  0.50400001928E-02 0.  1.
    10030    2    1    2    0    0  0.00000000000E+00  0.00000000000E+00  0.70346207992E+03  0.19323498210E+04  0.17997546869E+04 0.  0.
        5    1    3    3  502    0 -0.70268562255E+03 -0.38148237054E+02 -0.25042184217E+03  0.74696423017E+03  0.46999998093E+01 0.  1.
       -5    1    3    3    0  502  0.70268562255E+03  0.38148237054E+02  0.95388392209E+03  0.11853855908E+04  0.46999998093E+01 0. -1.
</event>
<event>
 5   0  0.8802655E-05  0.1799679E+04  0.7818609E-02  0.8706470E-01
       -2   -1    0    0    0  501  0.00000000000E+00  0.00000000000E+00  0.12325060883E+04  0.12325060883E+04  0.25500000920E-02 0. -1.
        2   -1    0    0  501    0  0.00000000000E+00  0.00000000000E+00 -0.65696309437E+03  0.65696309437E+03  0.25500000920E-02 0.  1.
    10030    2    1    2    0    0  0.00000000000E+00  0.00000000000E+00  0.57554299392E+03  0.18894691827E+04  0.17996788753E+04 0.  0.
        2    1    3    3  502    0  0.15468759702E+03 -0.75012555738E+03 -0.20812282698E+03  0.79368237704E+03  0.25500000920E-02 0.  1.
       -2    1    3    3    0  502 -0.15468759702E+03  0.75012555738E+03  0.78366582091E+03  0.10957868056E+04  0.25500000920E-02 0. -1.
</event>
<event>
 5   0  0.9147432E-05  0.1795737E+04  0.7818609E-02  0.8708570E-01
        2   -1    0    0  501    0  0.00000000000E+00  0.00000000000E+00  0.11123698256E+04  0.11123698256E+04  0.25500000920E-02 0.  1.
       -2   -1    0    0    0  501  0.00000000000E+00  0.00000000000E+00 -0.72473027172E+03  0.72473027173E+03  0.25500000920E-02 0. -1.
    10030    2    1    2    0    0  0.00000000000E+00  0.00000000000E+00  0.38763955389E+03  0.18371000973E+04  0.17957372703E+04 0.  0.
        3    1    3    3  502    0  0.52260124645E+03 -0.72490013931E+03  0.28286370360E+03  0.93733887137E+03  0.10100000352E+00 0.  1.
       -3    1    3    3    0  502 -0.52260124645E+03  0.72490013931E+03  0.10477585029E+03  0.89976122597E+03  0.10100000352E+00 0. -1.
</event>
<event>
 5   0  0.9147432E-05  0.1797075E+04  0.7818609E-02  0.8707857E-01
       -2   -1    0    0    0  501  0.00000000000E+00  0.00000000000E+00  0.15163988700E+04  0.15163988700E+04  0.25500000920E-02 0. -1.
        2   -1    0    0  501    0  0.00000000000E+00  0.00000000000E+00 -0.53242542778E+03  0.53242542778E+03  0.25500000920E-02 0.  1.
    10030    2    1    2    0    0  0.00000000000E+00  0.00000000000E+00  0.98397344222E+03  0.20488242978E+04  0.17970746418E+04 0.  0.
        3    1    3    3  502    0 -0.87988846550E+03 -0.96014781530E+02  0.66841246291E+03  0.11091428135E+04  0.10100000352E+00 0. -1.
       -3    1    3    3    0  502  0.87988846550E+03  0.96014781530E+02  0.31556097930E+03  0.93968148426E+03  0.10100000352E+00 0.  1.
</event>
<event>
 5   0  0.4578107E-05  0.1807263E+04  0.7818609E-02  0.8702447E-01
       -1   -1    0    0    0  501  0.00000000000E+00  0.00000000000E+00  0.18967613377E+04  0.18967613377E+04  0.50400001928E-02 0. -1.
        1   -1    0    0  501    0  0.00000000000E+00  0.00000000000E+00 -0.43049669601E+03  0.43049669604E+03  0.50400001928E-02 0.  1.
    10030    2    1    2    0    0  0.00000000000E+00  0.00000000000E+00  0.14662646417E+04  0.23272580337E+04  0.18072625587E+04 0.  0.
        2    1    3    3  502    0 -0.48928261123E+03  0.27738919063E+03  0.16438804313E+04  0.17374363612E+04  0.25500000920E-02 0. -1.
       -2    1    3    3    0  502  0.48928261123E+03 -0.27738919063E+03 -0.17761578959E+03  0.58982167258E+03  0.25500000920E-02 0.  1.
</event>
<event>
 5   0  0.8892280E-05  0.1796695E+04  0.7818609E-02  0.8708059E-01
       -2   -1    0    0    0  501  0.00000000000E+00  0.00000000000E+00  0.49185784266E+03  0.49185784267E+03  0.25500000920E-02 0. -1.
        2   -1    0    0  501    0  0.00000000000E+00  0.00000000000E+00 -0.16407749773E+04  0.16407749773E+04  0.25500000920E-02 0.  1.
    10030    2    1    2    0    0  0.00000000000E+00  0.00000000000E+00 -0.11489171347E+04  0.21326328200E+04  0.17966947884E+04 0.  0.
        4    1    3    3  502    0  0.10843803777E+03  0.80940203582E+03 -0.10187997671E+04  0.13056971479E+04  0.12699999809E+01 0.  1.
       -4    1    3    3    0  502 -0.10843803777E+03 -0.80940203582E+03 -0.13011736761E+03  0.82693567215E+03  0.12699999809E+01 0. -1.
</event>
<event>
 5   0  0.9147432E-05  0.1799830E+04  0.7818609E-02  0.8706390E-01
        2   -1    0    0  501    0  0.00000000000E+00  0.00000000000E+00  0.65201066385E+03  0.65201066385E+03  0.25500000920E-02 0. -1.
       -2   -1    0    0    0  501  0.00000000000E+00  0.00000000000E+00 -0.12420766716E+04  0.12420766716E+04  0.25500000920E-02 0.  1.
    10030    2    1    2    0    0  0.00000000000E+00  0.00000000000E+00 -0.59006600771E+03  0.18940873354E+04  0.17998302533E+04 0.  0.
        3    1    3    3  502    0  0.62777727126E+03 -0.60803022952E+03 -0.69221371623E+02  0.87669645307E+03  0.10100000352E+00 0. -1.
       -3    1    3    3    0  502 -0.62777727126E+03  0.60803022952E+03 -0.52084463609E+03  0.10173908823E+04  0.10100000352E+00 0.  1.
</event>
<event>
 5   0  0.9147432E-05  0.1795201E+04  0.7818609E-02  0.8708856E-01
        2   -1    0    0  501    0  0.00000000000E+00  0.00000000000E+00  0.55131375953E+03  0.55131375953E+03  0.25500000920E-02 0.  1.
       -2   -1    0    0    0  501  0.00000000000E+00  0.00000000000E+00 -0.14613933372E+04  0.14613933372E+04  0.25500000920E-02 0. -1.
    10030    2    1    2    0    0  0.00000000000E+00  0.00000000000E+00 -0.91007957768E+03  0.20127070967E+04  0.17952005514E+04 0.  0.
        3    1    3    3  502    0  0.61605496535E+03  0.43275706110E+03  0.92935532799E+02  0.75857723253E+03  0.10100000352E+00 0.  1.
       -3    1    3    3    0  502 -0.61605496535E+03 -0.43275706110E+03 -0.10030151105E+04  0.12541298642E+04  0.10100000352E+00 0. -1.
</event>
<event>
 5   0  0.9147432E-05  0.1792236E+04  0.7818609E-02  0.8710439E-01
        2   -1    0    0  501    0  0.00000000000E+00  0.00000000000E+00  0.16628492084E+04  0.16628492084E+04  0.25500000920E-02 0.  1.
       -2   -1    0    0    0  501  0.00000000000E+00  0.00000000000E+00 -0.48292242371E+03  0.48292242372E+03  0.25500000920E-02 0. -1.
    10030    2    1    2    0    0  0.00000000000E+00  0.00000000000E+00  0.11799267847E+04  0.21457716321E+04  0.17922356653E+04 0.  0.
        3    1    3    3  502    0 -0.18403146331E+03  0.49322340602E+03  0.14581957042E+04  0.15503133972E+04  0.10100000352E+00 0.  1.
       -3    1    3    3    0  502  0.18403146331E+03 -0.49322340602E+03 -0.27826891949E+03  0.59545823489E+03  0.10100000352E+00 0. -1.
</event>
<event>
 5   0  0.9184414E-05  0.1807226E+04  0.7818609E-02  0.8702466E-01
       -2   -1    0    0    0  501  0.00000000000E+00  0.00000000000E+00  0.18867778015E+04  0.18867778015E+04  0.25500000920E-02 0. -1.
        2   -1    0    0  501    0  0.00000000000E+00  0.00000000000E+00 -0.43275720604E+03  0.43275720605E+03  0.25500000920E-02 0.  1.
    10030    2    1    2    0    0  0.00000000000E+00  0.00000000000E+00  0.14540205955E+04  0.23195350076E+04  0.18072262612E+04 0.  0.
        5    1    3    3  502    0 -0.51427784730E+03  0.51949504117E+03  0.45269885661E+02  0.73241262590E+03  0.46999998093E+01 0. -1.
       -5    1    3    3    0  502  0.51427784730E+03 -0.51949504117E+03  0.14087507098E+04  0.15871223817E+04  0.46999998093E+01 0.  1.
</event>
<event>
 5   0  0.4335117E-05  0.1799503E+04  0.7818609E-02  0.8706564E-01
        1   -1    0    0  501    0  0.00000000000E+00  0.00000000000E+00  0.65157835647E+03  0.65157835649E+03  0.50400001928E-02 0. -1.
       -1   -1    0    0    0  501  0.00000000000E+00  0.00000000000E+00 -0.12424490942E+04  0.12424490942E+04  0.50400001928E-02 0.  1.
    10030    2    1    2    0    0  0.00000000000E+00  0.00000000000E+00 -0.59087073777E+03  0.18940274507E+04  0.17995031968E+04 0.  0.
        3    1    3    3  502    0 -0.86465776904E+03  0.24623484506E+03 -0.25765749976E+03  0.93522834317E+03  0.10100000352E+00 0.  1.
       -3    1    3    3    0  502  0.86465776904E+03 -0.24623484506E+03 -0.33321323801E+03  0.95879910757E+03  0.10100000352E+00 0. -1.
</event>
<event>
 5   0  0.4578107E-05  0.1843565E+04  0.7818609E-02  0.8683469E-01
       -1   -1    0    0    0  501  0.00000000000E+00  0.00000000000E+00  0.11988399638E+04  0.11988399639E+04  0.50400001928E-02 0.  1.
        1   -1    0    0  501    0  0.00000000000E+00  0.00000000000E+00 -0.70875463739E+03  0.70875463741E+03  0.50400001928E-02 0. -1.
    10030    2    1    2    0    0  0.00000000000E+00  0.00000000000E+00  0.49008532646E+03  0.19075946013E+04  0.18435654411E+04 0.  0.
        2    1    3    3  502    0 -0.16124316594E+03 -0.87850024920E+03  0.92661928355E+01  0.89322332523E+03  0.25500000920E-02 0.  1.
       -2    1    3    3    0  502  0.16124316594E+03  0.87850024920E+03  0.48081913362E+03  0.10143712760E+04  0.25500000920E-02 0. -1.
</event>
<event>
 5   0  0.4494757E-05  0.1801111E+04  0.7818609E-02  0.8705709E-01
       -1   -1    0    0    0  501  0.00000000000E+00  0.00000000000E+00  0.11060263945E+04  0.11060263945E+04  0.50400001928E-02 0. -1.
        1   -1    0    0  501    0  0.00000000000E+00  0.00000000000E+00 -0.73325556243E+03  0.73325556245E+03  0.50400001928E-02 0.  1.
    10030    2    1    2    0    0  0.00000000000E+00  0.00000000000E+00  0.37277083204E+03  0.18392819569E+04  0.18011107750E+04 0.  0.
        4    1    3    3  502    0  0.30291680327E+03 -0.16642393303E+03 -0.66282916541E+03  0.74752901656E+03  0.12699999809E+01 0.  1.
       -4    1    3    3    0  502 -0.30291680327E+03  0.16642393303E+03  0.10355999974E+04  0.10917529404E+04  0.12699999809E+01 0. -1.
</event>
<event>
 5   0  0.9147432E-05  0.1798085E+04  0.7818609E-02  0.8707319E-01
       -2   -1    0    0    0  501  0.00000000000E+00  0.00000000000E+00  0.10342583290E+04  0.10342583290E+04  0.25500000920E-02 0.  1.
        2   -1    0    0  501    0  0.00000000000E+00  0.00000000000E+00 -0.78150423099E+03  0.78150423100E+03  0.25500000920E-02 0. -1.
    10030    2    1    2    0    0  0.00000000000E+00  0.00000000000E+00  0.25275409796E+03  0.18157625600E+04  0.17980848256E+04 0.  0.
        3    1    3    3  502    0 -0.70929829673E+03 -0.47980637842E+03  0.40285520063E+03  0.94636703101E+03  0.10100000352E+00 0.  1.
       -3    1    3    3    0  502  0.70929829673E+03  0.47980637842E+03 -0.15010110267E+03  0.86939552894E+03  0.10100000352E+00 0. -1.
</event>
<event>
 5   0  0.9147432E-05  0.1796225E+04  0.7818609E-02  0.8708309E-01
       -2   -1    0    0    0  501  0.00000000000E+00  0.00000000000E+00  0.74921127116E+03  0.74921127117E+03  0.25500000920E-02 0.  1.
        2   -1    0    0  501    0  0.00000000000E+00  0.00000000000E+00 -0.10766071826E+04  0.10766071826E+04  0.25500000920E-02 0. -1.
    10030    2    1    2    0    0  0.00000000000E+00  0.00000000000E+00 -0.32739591147E+03  0.18258184538E+04  0.17962251928E+04 0.  0.
        3    1    3    3  502    0 -0.32915477472E+03 -0.49151570514E+03  0.52321348066E+03  0.78973597528E+03  0.10100000352E+00 0.  1.
       -3    1    3    3    0  502  0.32915477472E+03  0.49151570514E+03 -0.85060939212E+03  0.10360824785E+04  0.10100000352E+00 0. -1.
</event>
<event>
 5   0  0.8893075E-05  0.1798225E+04  0.7818609E-02  0.8707244E-01
        2   -1    0    0  501    0  0.00000000000E+00  0.00000000000E+00  0.10354315281E+04  0.10354315281E+04  0.25500000920E-02 0. -1.
       -2   -1    0    0    0  501  0.00000000000E+00  0.00000000000E+00 -0.78074035090E+03  0.78074035090E+03  0.25500000920E-02 0.  1.
    10030    2    1    2    0    0  0.00000000000E+00  0.00000000000E+00  0.25469117724E+03  0.18161718790E+04  0.17982248743E+04 0.  0.
        1    1    3    3  502    0 -0.15187417583E+03  0.47613267483E+03  0.88222407817E+03  0.10139464549E+04  0.50400001928E-02 0. -1.
       -1    1    3    3    0  502  0.15187417583E+03 -0.47613267483E+03 -0.62753290093E+03  0.80222542412E+03  0.50400001928E-02 0.  1.
</event>
<event>
 5   0  0.4535100E-05  0.1797189E+04  0.7818609E-02  0.8707796E-01
       -1   -1    0    0    0  501  0.00000000000E+00  0.00000000000E+00  0.43206757011E+03  0.43206757014E+03  0.50400001928E-02 0. -1.
        1   -1    0    0  501    0  0.00000000000E+00  0.00000000000E+00 -0.18688560922E+04  0.18688560922E+04  0.50400001928E-02 0.  1.
    10030    2    1    2    0    0  0.00000000000E+00  0.00000000000E+00 -0.14367885221E+04  0.23009236624E+04  0.17971890392E+04 0.  0.
        1    1    3    3  502    0 -0.88935694146E+03 -0.68703489636E+02 -0.85744682291E+03  0.12372917978E+04  0.50400001928E-02 0. -1.
       -1    1    3    3    0  502  0.88935694146E+03  0.68703489636E+02 -0.57934169919E+03  0.10636318645E+04  0.50400001928E-02 0.  1.
</event>
<event>
 5   0  0.8802655E-05  0.1801452E+04  0.7818609E-02  0.8705528E-01
       -2   -1    0    0    0  501  0.00000000000E+00  0.00000000000E+00  0.34652539654E+03  0.34652539655E+03  0.25500000920E-02 0.  1.
        2   -1    0    0  501    0  0.00000000000E+00  0.00000000000E+00 -0.23412624109E+04  0.23412624109E+04  0.25500000920E-02 0. -1.
    10030    2    1    2    0    0  0.00000000000E+00  0.00000000000E+00 -0.19947370143E+04  0.26877878074E+04  0.18014515096E+04 0.  0.
        2    1    3    3  502    0 -0.35590529704E+03  0.47826060332E+02 -0.22298383759E+04  0.22585692585E+04  0.25500000920E-02 0. -1.
       -2    1    3    3    0  502  0.35590529704E+03 -0.47826060332E+02  0.23510136162E+03  0.42921854893E+03  0.25500000920E-02 0.  1.
</event>
<event>
 5   0  0.9147432E-05  0.1802243E+04  0.7818609E-02  0.8705107E-01
       -2   -1    0    0    0  501  0.00000000000E+00  0.00000000000E+00  0.43289274155E+03  0.43289274155E+03  0.25500000920E-02 0. -1.
        2   -1    0    0  501    0  0.00000000000E+00  0.00000000000E+00 -0.18758001712E+04  0.18758001712E+04  0.25500000920E-02 0.  1.
    10030    2    1    2    0    0  0.00000000000E+00  0.00000000000E+00 -0.14429074297E+04  0.23086929128E+04  0.18022433562E+04 0.  0.
        3    1    3    3  502    0  0.58375633143E+03  0.11926161233E+03 -0.15874637891E+04  0.16955931347E+04  0.10100000352E+00 0.  1.
       -3    1    3    3    0  502 -0.58375633143E+03 -0.11926161233E+03  0.14455635937E+03  0.61309977809E+03  0.10100000352E+00 0. -1.
</event>
<event>
 5   0  0.4535100E-05  0.1798132E+04  0.7818609E-02  0.8707293E-01
        1   -1    0    0  501    0  0.00000000000E+00  0.00000000000E+00  0.15638809687E+04  0.15638809688E+04  0.50400001928E-02 0.  1.
       -1   -1    0    0    0  501  0.00000000000E+00  0.00000000000E+00 -0.51686778313E+03  0.51686778316E+03  0.50400001928E-02 0. -1.
    10030    2    1    2    0    0  0.00000000000E+00  0.00000000000E+00  0.10470131856E+04  0.20807487519E+04  0.17981320190E+04 0.  0.
        1    1    3    3  502    0 -0.60465657093E+02  0.58058489468E+03  0.13147830577E+04  0.14385372447E+04  0.50400001928E-02 0.  1.
       -1    1    3    3    0  502  0.60465657093E+02 -0.58058489468E+03 -0.26776987205E+03  0.64221150723E+03  0.50400001928E-02 0. -1.
</event>
<event>
 5   0  0.8892280E-05  0.1798744E+04  0.7818609E-02  0.8706968E-01
       -2   -1    0    0    0  501  0.00000000000E+00  0.00000000000E+00  0.78899650750E+03  0.78899650750E+03  0.25500000920E-02 0. -1.
        2   -1    0    0  501    0  0.00000000000E+00  0.00000000000E+00 -0.10251886355E+04  0.10251886355E+04  0.25500000920E-02 0.  1.
    10030    2    1    2    0    0  0.00000000000E+00  0.00000000000E+00 -0.23619212804E+03  0.18141851430E+04  0.17987442875E+04 0.  0.
        4    1    3    3  502    0  0.14308488298E+02 -0.34794069418E+02 -0.10243937682E+04  0.10250851503E+04  0.12699999809E+01 0.  1.
       -4    1    3    3    0  502 -0.14308488298E+02  0.34794069418E+02  0.78820164017E+03  0.78909999276E+03  0.12699999809E+01 0. -1.
</event>
<event>
 5   0  0.4623665E-05  0.1801841E+04  0.7818609E-02  0.8705321E-01
        1   -1    0    0  501    0  0.00000000000E+00  0.00000000000E+00  0.96610158974E+03  0.96610158975E+03  0.50400001928E-02 0. -1.
       -1   -1    0    0    0  501  0.00000000000E+00  0.00000000000E+00 -0.84013684884E+03  0.84013684885E+03  0.50400001928E-02 0.  1.
    10030    2    1    2    0    0  0.00000000000E+00  0.00000000000E+00  0.12596474090E+03  0.18062384386E+04  0.18018407757E+04 0.  0.
        5    1    3    3  502    0  0.58214304067E+03 -0.21953730526E+03 -0.59018160877E+03  0.85756840516E+03  0.46999998093E+01 0.  1.
       -5    1    3    3    0  502 -0.58214304067E+03  0.21953730526E+03  0.71614634967E+03  0.94867003344E+03  0.46999998093E+01 0. -1.
</event>
<event>
 5   0  0.9184414E-05  0.1774443E+04  0.7818609E-02  0.8720010E-01
        2   -1    0    0  501    0  0.00000000000E+00  0.00000000000E+00  0.95034828601E+03  0.95034828601E+03  0.25500000920E-02 0.  1.
       -2   -1    0    0    0  501  0.00000000000E+00  0.00000000000E+00 -0.82828752498E+03  0.82828752498E+03  0.25500000920E-02 0. -1.
    10030    2    1    2    0    0  0.00000000000E+00  0.00000000000E+00  0.12206076103E+03  0.17786358110E+04  0.17744425938E+04 0.  0.
        5    1    3    3  502    0 -0.66571397113E+03 -0.22328852234E+03  0.60462797442E+03  0.92662286450E+03  0.46999998093E+01 0.  1.
       -5    1    3    3    0  502  0.66571397113E+03  0.22328852234E+03 -0.48256721339E+03  0.85201294650E+03  0.46999998093E+01 0. -1.
</event>
<event>
 5   0  0.8892280E-05  0.1803036E+04  0.7818609E-02  0.8704687E-01
       -2   -1    0    0    0  501  0.00000000000E+00  0.00000000000E+00  0.58556739023E+03  0.58556739024E+03  0.25500000920E-02 0. -1.
        2   -1    0    0  501    0  0.00000000000E+00  0.00000000000E+00 -0.13879432336E+04  0.13879432336E+04  0.25500000920E-02 0.  1.
    10030    2    1    2    0    0  0.00000000000E+00  0.00000000000E+00 -0.80237584332E+03  0.19735106238E+04  0.18030355483E+04 0.  0.
        4    1    3    3  502    0 -0.76999879761E+03 -0.18310458060E+03 -0.87363161422E+03  0.11788380915E+04  0.12699999809E+01 0. -1.
       -4    1    3    3    0  502  0.76999879761E+03  0.18310458060E+03  0.71255770900E+02  0.79467253227E+03  0.12699999809E+01 0.  1.
</event>
<event>
 5   0  0.9147432E-05  0.1797423E+04  0.7818609E-02  0.8707671E-01
        2   -1    0    0  501    0  0.00000000000E+00  0.00000000000E+00  0.18311659848E+04  0.18311659848E+04  0.25500000920E-02 0.  1.
       -2   -1    0    0    0  501  0.00000000000E+00  0.00000000000E+00 -0.44107563141E+03  0.44107563142E+03  0.25500000920E-02 0. -1.
    10030    2    1    2    0    0  0.00000000000E+00  0.00000000000E+00  0.13900903534E+04  0.22722416162E+04  0.17974233702E+04 0.  0.
        3    1    3    3  502    0  0.74356155749E+03 -0.50275664500E+03  0.63802233382E+03  0.11012359159E+04  0.10100000352E+00 0. -1.
       -3    1    3    3    0  502 -0.74356155749E+03  0.50275664500E+03  0.75206801958E+03  0.11710057003E+04  0.10100000352E+00 0.  1.
</event>
<event>
 5   0  0.9147432E-05  0.1805201E+04  0.7818609E-02  0.8703539E-01
       -2   -1    0    0    0  501  0.00000000000E+00  0.00000000000E+00  0.40057201005E+03  0.40057201006E+03  0.25500000920E-02 0.  1.
        2   -1    0    0  501    0  0.00000000000E+00  0.00000000000E+00 -0.20338097822E+04  0.20338097822E+04  0.25500000920E-02 0. -1.
    10030    2    1    2    0    0  0.00000000000E+00  0.00000000000E+00 -0.16332377721E+04  0.24343817922E+04  0.18052005678E+04 0.  0.
        3    1    3    3  502    0 -0.97549812373E+02 -0.23174880701E+03  0.35238850769E+03  0.43289854007E+03  0.10100000352E+00 0.  1.
       -3    1    3    3    0  502  0.97549812373E+02  0.23174880701E+03 -0.19856262798E+04  0.20014832522E+04  0.10100000352E+00 0. -1.
</event>
<event>
 5   0  0.8892280E-05  0.1797135E+04  0.7818609E-02  0.8707824E-01
       -2   -1    0    0    0  501  0.00000000000E+00  0.00000000000E+00  0.86512652445E+03  0.86512652445E+03  0.25500000920E-02 0. -1.
        2   -1    0    0  501    0  0.00000000000E+00  0.00000000000E+00 -0.93330119803E+03  0.93330119803E+03  0.25500000920E-02 0.  1.
    10030    2    1    2    0    0  0.00000000000E+00  0.00000000000E+00 -0.68174673580E+02  0.17984277225E+04  0.17971350775E+04 0.  0.
        4    1    3    3  502    0 -0.71724102865E+03  0.41271159897E+03 -0.38456267696E+03  0.91249965617E+03  0.12699999809E+01 0.  1.
       -4    1    3    3    0  502  0.71724102865E+03 -0.41271159897E+03  0.31638800338E+03  0.88592806631E+03  0.12699999809E+01 0. -1.
</event>
<event>
 5   0  0.9147432E-05  0.1786207E+04  0.7818609E-02  0.8713669E-01
        2   -1    0    0  501    0  0.00000000000E+00  0.00000000000E+00  0.22642912544E+04  0.22642912544E+04  0.25500000920E-02 0.  1.
       -2   -1    0    0    0  501  0.00000000000E+00  0.00000000000E+00 -0.35226648653E+03  0.35226648654E+03  0.25500000920E-02 0. -1.
    10030    2    1    2    0    0  0.00000000000E+00  0.00000000000E+00  0.19120247678E+04  0.26165577409E+04  0.17862070705E+04 0.  0.
        3    1    3    3  502    0  0.79671994517E+03  0.29537392552E+03  0.13588524075E+04  0.16026503993E+04  0.10100000352E+00 0.  1.
       -3    1    3    3    0  502 -0.79671994517E+03 -0.29537392552E+03  0.55317236038E+03  0.10139073416E+04  0.10100000352E+00 0. -1.
</event>
<event>
 5   0  0.4623665E-05  0.1805659E+04  0.7818609E-02  0.8703296E-01
       -1   -1    0    0    0  501  0.00000000000E+00  0.00000000000E+00  0.87857026752E+03  0.87857026754E+03  0.50400001928E-02 0.  1.
        1   -1    0    0  501    0  0.00000000000E+00  0.00000000000E+00 -0.92775819930E+03  0.92775819931E+03  0.50400001928E-02 0. -1.
    10030    2    1    2    0    0  0.00000000000E+00  0.00000000000E+00 -0.49187931777E+02  0.18063284668E+04  0.18056586271E+04 0.  0.
        5    1    3    3  502    0  0.55364205073E+03  0.66989192081E+03 -0.26923319477E+03  0.90982597735E+03  0.46999998093E+01 0. -1.
       -5    1    3    3    0  502 -0.55364205073E+03 -0.66989192081E+03  0.22004526299E+03  0.89650248949E+03  0.46999998093E+01 0.  1.
</event>
<event>
 5   0  0.8893075E-05  0.1791156E+04  0.7818609E-02  0.8711017E-01
       -2   -1    0    0    0  501  0.00000000000E+00  0.00000000000E+00  0.87645950696E+03  0.87645950696E+03  0.25500000920E-02 0. -1.
        2   -1    0    0  501    0  0.00000000000E+00  0.00000000000E+00 -0.91511342042E+03  0.91511342043E+03  0.25500000920E-02 0.  1.
    10030    2    1    2    0    0  0.00000000000E+00  0.00000000000E+00 -0.38653913465E+02  0.17915729274E+04  0.17911558919E+04 0.  0.
        1    1    3    3  502    0 -0.13217843000E+03 -0.69698158736E+03 -0.56608517104E+03  0.90758299421E+03  0.50400001928E-02 0.  1.
       -1    1    3    3    0  502  0.13217843000E+03  0.69698158736E+03  0.52743125758E+03  0.88398993318E+03  0.50400001928E-02 0. -1.
</event>
<event>
 5   0  0.4335117E-05  0.1800755E+04  0.7818609E-02  0.8705898E-01
        1   -1    0    0  501    0  0.00000000000E+00  0.00000000000E+00  0.66889792571E+03  0.66889792573E+03  0.50400001928E-02 0. -1.
       -1   -1    0    0    0  501  0.00000000000E+00  0.00000000000E+00 -0.12119629451E+04  0.12119629451E+04  0.50400001928E-02 0.  1.
    10030    2    1    2    0    0  0.00000000000E+00  0.00000000000E+00 -0.54306501939E+03  0.18808608708E+04  0.18007548418E+04 0.  0.
        3    1    3    3  502    0  0.72411270170E+03  0.35510066832E+02  0.28614732071E+03  0.77941033414E+03  0.10100000352E+00 0. -1.
       -3    1    3    3    0  502 -0.72411270170E+03 -0.35510066832E+02 -0.82921234010E+03  0.11014505367E+04  0.10100000352E+00 0.  1.
</event>
<event>
 5   0  0.8892280E-05  0.1803273E+04  0.7818609E-02  0.8704561E-01
        2   -1    0    0  501    0  0.00000000000E+00  0.00000000000E+00  0.49766469386E+03  0.49766469387E+03  0.25500000920E-02 0.  1.
       -2   -1    0    0    0  501  0.00000000000E+00  0.00000000000E+00 -0.16335265345E+04  0.16335265345E+04  0.25500000920E-02 0. -1.
    10030    2    1    2    0    0  0.00000000000E+00  0.00000000000E+00 -0.11358618407E+04  0.21311912284E+04  0.18032731160E+04 0.  0.
        4    1    3    3  502    0  0.28779609880E+03  0.32790233141E+03  0.36460503876E+03  0.56858155142E+03  0.12699999809E+01 0.  1.
       -4    1    3    3    0  502 -0.28779609880E+03 -0.32790233141E+03 -0.15004668794E+04  0.15626096770E+04  0.12699999809E+01 0. -1.
</event>
<event>
 5   0  0.8892280E-05  0.1797974E+04  0.7818609E-02  0.8707378E-01
       -2   -1    0    0    0  501  0.00000000000E+00  0.00000000000E+00  0.51313582063E+03  0.51313582064E+03  0.25500000920E-02 0. -1.
        2   -1    0    0  501    0  0.00000000000E+00  0.00000000000E+00 -0.15749782535E+04  0.15749782535E+04  0.25500000920E-02 0.  1.
    10030    2    1    2    0    0  0.00000000000E+00  0.00000000000E+00 -0.10618424329E+04  0.20881140742E+04  0.17979741473E+04 0.  0.
        4    1    3    3  502    0  0.84134645792E+03 -0.25291979271E+03 -0.30951678215E+03  0.93146901995E+03  0.12699999809E+01 0. -1.
       -4    1    3    3    0  502 -0.84134645792E+03  0.25291979271E+03 -0.75232565076E+03  0.11566450542E+04  0.12699999809E+01 0.  1.
</event>
<event>
 5   0  0.3270375E-05  0.1803078E+04  0.7818609E-02  0.8704664E-01
        3   -1    0    0  501    0  0.00000000000E+00  0.00000000000E+00  0.83462170622E+03  0.83462171233E+03  0.10100000352E+00 0. -1.
       -3   -1    0    0    0  501  0.00000000000E+00  0.00000000000E+00 -0.97382132153E+03  0.97382132677E+03  0.10100000352E+00 0.  1.
    10030    2    1    2    0    0  0.00000000000E+00  0.00000000000E+00 -0.13919961531E+03  0.18084430391E+04  0.18030778388E+04 0.  0.
        3    1    3    3  502    0  0.21704975925E+03 -0.25098636231E+03  0.77114722236E+03  0.83950747513E+03  0.10100000352E+00 0. -1.
       -3    1    3    3    0  502 -0.21704975925E+03  0.25098636231E+03 -0.91034683767E+03  0.96893556396E+03  0.10100000352E+00 0.  1.
</event>
<event>
 5   0  0.8892280E-05  0.1799682E+04  0.7818609E-02  0.8706468E-01
       -2   -1    0    0    0  501  0.00000000000E+00  0.00000000000E+00  0.95550254217E+03  0.95550254217E+03  0.25500000920E-02 0. -1.
        2   -1    0    0  501    0  0.00000000000E+00  0.00000000000E+00 -0.84742214636E+03  0.84742214636E+03  0.25500000920E-02 0.  1.
    10030    2    1    2    0    0  0.00000000000E+00  0.00000000000E+00  0.10808039581E+03  0.18029246885E+04  0.17996822110E+04 0.  0.
        4    1    3    3  502    0 -0.82392790745E+03  0.26757944286E+02  0.41543829233E+03  0.92312716995E+03  0.12699999809E+01 0. -1.
       -4    1    3    3    0  502  0.82392790745E+03 -0.26757944286E+02 -0.30735789652E+03  0.87979751859E+03  0.12699999809E+01 0.  1.
</event>
<event>
 5   0  0.8893075E-05  0.1793832E+04  0.7818609E-02  0.8709587E-01
       -2   -1    0    0    0  501  0.00000000000E+00  0.00000000000E+00  0.61106260873E+03  0.61106260874E+03  0.25500000920E-02 0. -1.
        2   -1    0    0  501    0  0.00000000000E+00  0.00000000000E+00 -0.13164905838E+04  0.13164905838E+04  0.25500000920E-02 0.  1.
    10030    2    1    2    0    0  0.00000000000E+00  0.00000000000E+00 -0.70542797504E+03  0.19275531925E+04  0.17938318433E+04 0.  0.
        1    1    3    3  502    0 -0.15339536822E+03  0.56936447252E+03  0.37350054021E+03  0.69800336326E+03  0.50400001928E-02 0. -1.
       -1    1    3    3    0  502  0.15339536822E+03 -0.56936447252E+03 -0.10789285153E+04  0.12295498293E+04  0.50400001928E-02 0.  1.
</event>
<event>
 5   0  0.4494757E-05  0.1831258E+04  0.7818609E-02  0.8689851E-01
       -1   -1    0    0    0  501  0.00000000000E+00  0.00000000000E+00  0.10126671596E+04  0.10126671596E+04  0.50400001928E-02 0.  1.
        1   -1    0    0  501    0  0.00000000000E+00  0.00000000000E+00 -0.82788939431E+03  0.82788939432E+03  0.50400001928E-02 0. -1.
    10030    2    1    2    0    0  0.00000000000E+00  0.00000000000E+00  0.18477776529E+03  0.18405565539E+04  0.18312579299E+04 0.  0.
        4    1    3    3  502    0  0.25339408504E+03 -0.12184390551E+03  0.96820342111E+03  0.10082033412E+04  0.12699999809E+01 0.  1.
       -4    1    3    3    0  502 -0.25339408504E+03  0.12184390551E+03 -0.78342565583E+03  0.83235321274E+03  0.12699999809E+01 0. -1.
</event>
<event>
 5   0  0.3270375E-05  0.1786974E+04  0.7818609E-02  0.8713258E-01
        3   -1    0    0  501    0  0.00000000000E+00  0.00000000000E+00  0.71797704727E+03  0.71797705437E+03  0.10100000352E+00 0. -1.
       -3   -1    0    0    0  501  0.00000000000E+00  0.00000000000E+00 -0.11118998699E+04  0.11118998745E+04  0.10100000352E+00 0.  1.
    10030    2    1    2    0    0  0.00000000000E+00  0.00000000000E+00 -0.39392282265E+03  0.18298769289E+04  0.17869735266E+04 0.  0.
        5    1    3    3  502    0 -0.45235199611E+03 -0.73216692625E+03  0.48813051501E+02  0.86202989523E+03  0.46999998093E+01 0. -1.
       -5    1    3    3    0  502  0.45235199611E+03  0.73216692625E+03 -0.44273587415E+03  0.96784703365E+03  0.46999998093E+01 0.  1.
</event>
<event>
 5   0  0.4623665E-05  0.1802569E+04  0.7818609E-02  0.8704935E-01
        1   -1    0    0  501    0  0.00000000000E+00  0.00000000000E+00  0.10279179776E+04  0.10279179776E+04  0.50400001928E-02 0.  1.
       -1   -1    0    0    0  501  0.00000000000E+00  0.00000000000E+00 -0.79025109366E+03  0.79025109368E+03  0.50400001928E-02 0. -1.
    10030    2    1    2    0    0  0.00000000000E+00  0.00000000000E+00  0.23766688395E+03  0.18181690713E+04  0.18025685075E+04 0.  0.
        5    1    3    3  502    0 -0.42841352930E+03 -0.39666085804E+03 -0.57370417580E+03  0.81855760929E+03  0.46999998093E+01 0. -1.
       -5    1    3    3    0  502  0.42841352930E+03  0.39666085804E+03  0.81137105975E+03  0.99961146202E+03  0.46999998093E+01 0.  1.
</event>
<event>
 5   0  0.8892280E-05  0.1791480E+04  0.7818609E-02  0.8710844E-01
        2   -1    0    0  501    0  0.00000000000E+00  0.00000000000E+00  0.57313047297E+03  0.57313047297E+03  0.25500000920E-02 0.  1.
       -2   -1    0    0    0  501  0.00000000000E+00  0.00000000000E+00 -0.13999431333E+04  0.13999431333E+04  0.25500000920E-02 0. -1.
    10030    2    1    2    0    0  0.00000000000E+00  0.00000000000E+00 -0.82681266032E+03  0.19730736063E+04  0.17914799135E+04 0.  0.
        4    1    3    3  502    0  0.84478711817E+03  0.22616350608E+03 -0.62677931562E+03  0.10759503380E+04  0.12699999809E+01 0. -1.
       -4    1    3    3    0  502 -0.84478711817E+03 -0.22616350608E+03 -0.20003334470E+03  0.89712326823E+03  0.12699999809E+01 0.  1.
</event>
<event>
 5   0  0.8893075E-05  0.1802308E+04  0.7818609E-02  0.8705073E-01
       -2   -1    0    0    0  501  0.00000000000E+00  0.00000000000E+00  0.34076943813E+03  0.34076943814E+03  0.25500000920E-02 0. -1.
        2   -1    0    0  501    0  0.00000000000E+00  0.00000000000E+00 -0.23830719726E+04  0.23830719726E+04  0.25500000920E-02 0.  1.
    10030    2    1    2    0    0  0.00000000000E+00  0.00000000000E+00 -0.20423025344E+04  0.27238414107E+04  0.18023075177E+04 0.  0.
        1    1    3    3  502    0 -0.16404715158E+03  0.15146788386E+03 -0.23406052996E+04  0.23512309874E+04  0.50400001928E-02 0.  1.
       -1    1    3    3    0  502  0.16404715158E+03 -0.15146788386E+03  0.29830276517E+03  0.37261042325E+03  0.50400001928E-02 0. -1.
</event>
<event>
 5   0  0.8802655E-05  0.1804299E+04  0.7818609E-02  0.8704017E-01
       -2   -1    0    0    0  501  0.00000000000E+00  0.00000000000E+00  0.91046448772E+03  0.91046448773E+03  0.25500000920E-02 0. -1.
        2   -1    0    0  501    0  0.00000000000E+00  0.00000000000E+00 -0.89391030755E+03  0.89391030755E+03  0.25500000920E-02 0.  1.
    10030    2    1    2    0    0  0.00000000000E+00  0.00000000000E+00  0.16554180174E+02  0.18043747953E+04  0.18042988558E+04 0.  0.
        2    1    3    3  502    0 -0.76370518684E+03  0.28177727920E+03 -0.38062170516E+03  0.89861945779E+03  0.25500000920E-02 0.  1.
       -2    1    3    3    0  502  0.76370518684E+03 -0.28177727920E+03  0.39717588534E+03  0.90575533748E+03  0.25500000920E-02 0. -1.
</event>
<event>
 5   0  0.9184414E-05  0.1798824E+04  0.7818609E-02  0.8706925E-01
        2   -1    0    0  501    0  0.00000000000E+00  0.00000000000E+00  0.11058743691E+04  0.11058743691E+04  0.25500000920E-02 0. -1.
       -2   -1    0    0    0  501  0.00000000000E+00  0.00000000000E+00 -0.73149525852E+03  0.73149525853E+03  0.25500000920E-02 0.  1.
    10030    2    1    2    0    0  0.00000000000E+00  0.00000000000E+00  0.37437911053E+03  0.18373696276E+04  0.17988239019E+04 0.  0.
        5    1    3    3  502    0 -0.41591331311E+03  0.59878089129E+03  0.72516074702E+03  0.10283008503E+04  0.46999998093E+01 0. -1.
       -5    1    3    3    0  502  0.41591331311E+03 -0.59878089129E+03 -0.35078163649E+03  0.80906877724E+03  0.46999998093E+01 0.  1.
</event>
<event>
 5   0  0.8802655E-05  0.1789225E+04  0.7818609E-02  0.8712051E-01
        2   -1    0    0  501    0  0.00000000000E+00  0.00000000000E+00  0.25217929650E+04  0.25217929650E+04  0.25500000920E-02 0.  1.
       -2   -1    0    0    0  501  0.00000000000E+00  0.00000000000E+00 -0.31736599357E+03  0.31736599358E+03  0.25500000920E-02 0. -1.
    10030    2    1    2    0    0  0.00000000000E+00  0.00000000000E+00  0.22044269714E+04  0.28391589586E+04  0.17892247818E+04 0.  0.
        2    1    3    3  502    0  0.12950814317E+03 -0.34571570015E+03  0.23952827882E+04  0.24235658315E+04  0.25500000920E-02 0.  1.
       -2    1    3    3    0  502 -0.12950814317E+03  0.34571570015E+03 -0.19085581672E+03  0.41559312706E+03  0.25500000920E-02 0. -1.
</event>
<event>
 5   0  0.4335117E-05  0.1800994E+04  0.7818609E-02  0.8705771E-01
       -1   -1    0    0    0  501  0.00000000000E+00  0.00000000000E+00  0.77748874844E+03  0.77748874846E+03  0.50400001928E-02 0. -1.
        1   -1    0    0  501    0  0.00000000000E+00  0.00000000000E+00 -0.10429670412E+04  0.10429670412E+04  0.50400001928E-02 0.  1.
    10030    2    1    2    0    0  0.00000000000E+00  0.00000000000E+00 -0.26547829273E+03  0.18204557896E+04  0.18009943249E+04 0.  0.
        3    1    3    3  502    0  0.84892646170E+03  0.29123375719E+03 -0.58447379721E+02  0.89939387651E+03  0.10100000352E+00 0. -1.
       -3    1    3    3    0  502 -0.84892646170E+03 -0.29123375719E+03 -0.20703091301E+03  0.92106191314E+03  0.10100000352E+00 0.  1.
</event>
<event>
 5   0  0.8893075E-05  0.1797833E+04  0.7818609E-02  0.8707453E-01
       -2   -1    0    0    0  501  0.00000000000E+00  0.00000000000E+00  0.74897553185E+03  0.74897553185E+03  0.25500000920E-02 0.  1.
        2   -1    0    0  501    0  0.00000000000E+00  0.00000000000E+00 -0.10788750689E+04  0.10788750689E+04  0.25500000920E-02 0. -1.
    10030    2    1    2    0    0  0.00000000000E+00  0.00000000000E+00 -0.32989953702E+03  0.18278506007E+04  0.17978331719E+04 0.  0.
        1    1    3    3  502    0 -0.13700858047E+03 -0.18687731634E+03 -0.10479882667E+04  0.10733004657E+04  0.50400001928E-02 0. -1.
       -1    1    3    3    0  502  0.13700858047E+03  0.18687731634E+03  0.71808872971E+03  0.75455013501E+03  0.50400001928E-02 0.  1.
</event>
<event>
 5   0  0.4578107E-05  0.1797819E+04  0.7818609E-02  0.8707460E-01
        1   -1    0    0  501    0  0.00000000000E+00  0.00000000000E+00  0.10611880872E+04  0.10611880872E+04  0.50400001928E-02 0. -1.
       -1   -1    0    0    0  501  0.00000000000E+00  0.00000000000E+00 -0.76144707894E+03  0.76144707895E+03  0.50400001928E-02 0.  1.
    10030    2    1    2    0    0  0.00000000000E+00  0.00000000000E+00  0.29974100829E+03  0.18226351662E+04  0.17978193116E+04 0.  0.
        2    1    3    3  502    0  0.15403395753E+03  0.21901772256E+03 -0.72007868497E+03  0.76825030779E+03  0.25500000920E-02 0.  1.
       -2    1    3    3    0  502 -0.15403395753E+03 -0.21901772256E+03  0.10198196933E+04  0.10543848584E+04  0.25500000920E-02 0. -1.
</event>
<event>
 5   0  0.4494757E-05  0.1790953E+04  0.7818609E-02  0.8711125E-01
        1   -1    0    0  501    0  0.00000000000E+00  0.00000000000E+00  0.90214324098E+03  0.90214324099E+03  0.50400001928E-02 0. -1.
       -1   -1    0    0    0  501  0.00000000000E+00  0.00000000000E+00 -0.88885919465E+03  0.88885919466E+03  0.50400001928E-02 0.  1.
    10030    2    1    2    0    0  0.00000000000E+00  0.00000000000E+00  0.13284046330E+02  0.17910024357E+04  0.17909531704E+04 0.  0.
        4    1    3    3  502    0 -0.65579418000E+03 -0.51539745393E+01  0.61639983247E+03  0.90002385321E+03  0.12699999809E+01 0. -1.
       -4    1    3    3    0  502  0.65579418000E+03  0.51539745393E+01 -0.60311578614E+03  0.89097858244E+03  0.12699999809E+01 0.  1.
</event>
<event>
 5   0  0.9147432E-05  0.1802024E+04  0.7818609E-02  0.8705224E-01
       -2   -1    0    0    0  501  0.00000000000E+00  0.00000000000E+00  0.10694495293E+04  0.10694495293E+04  0.25500000920E-02 0.  1.
        2   -1    0    0  501    0  0.00000000000E+00  0.00000000000E+00 -0.75910322879E+03  0.75910322879E+03  0.25500000920E-02 0. -1.
    10030    2    1    2    0    0  0.00000000000E+00  0.00000000000E+00  0.31034630053E+03  0.18285527581E+04  0.18020239629E+04 0.  0.
        3    1    3    3  502    0 -0.25327784610E+03 -0.51974904642E+03  0.85638461926E+03  0.10332876487E+04  0.10100000352E+00 0.  1.
       -3    1    3    3    0  502  0.25327784610E+03  0.51974904642E+03 -0.54603831873E+03  0.79526510945E+03  0.10100000352E+00 0. -1.
</event>
<event>
 5   0  0.9184414E-05  0.1810161E+04  0.7818609E-02  0.8700915E-01
       -2   -1    0    0    0  501  0.00000000000E+00  0.00000000000E+00  0.80251601752E+03  0.80251601752E+03  0.25500000920E-02 0. -1.
        2   -1    0    0  501    0  0.00000000000E+00  0.00000000000E+00 -0.10207528186E+04  0.10207528186E+04  0.25500000920E-02 0.  1.
    10030    2    1    2    0    0  0.00000000000E+00  0.00000000000E+00 -0.21823680105E+03  0.18232688361E+04  0.18101607518E+04 0.  0.
        5    1    3    3  502    0  0.69861480772E+03  0.56122820271E+03 -0.23695734057E+03  0.92693614469E+03  0.46999998093E+01 0.  1.
       -5    1    3    3    0  502 -0.69861480772E+03 -0.56122820271E+03  0.18720539521E+02  0.89633269140E+03  0.46999998093E+01 0. -1.
</event>
<event>
 5   0  0.3270375E-05  0.1797835E+04  0.7818609E-02  0.8707452E-01
        3   -1    0    0  501    0  0.00000000000E+00  0.00000000000E+00  0.99962074328E+03  0.99962074838E+03  0.10100000352E+00 0.  1.
       -3   -1    0    0    0  501  0.00000000000E+00  0.00000000000E+00 -0.80835883115E+03  0.80835883746E+03  0.10100000352E+00 0. -1.
    10030    2    1    2    0    0  0.00000000000E+00  0.00000000000E+00  0.19126191213E+03  0.18079795858E+04  0.17978345485E+04 0.  0.
        3    1    3    3  502    0  0.53569547999E+03  0.28006303290E+03 -0.57344082495E+03  0.83321026134E+03  0.10100000352E+00 0. -1.
       -3    1    3    3    0  502 -0.53569547999E+03 -0.28006303290E+03  0.76470273709E+03  0.97476932450E+03  0.10100000352E+00 0.  1.
</event>
<event>
 5   0  0.9184414E-05  0.1799299E+04  0.7818609E-02  0.8706673E-01
       -2   -1    0    0    0  501  0.00000000000E+00  0.00000000000E+00  0.32241648836E+03  0.32241648837E+03  0.25500000920E-02 0.  1.
        2   -1    0    0  501    0  0.00000000000E+00  0.00000000000E+00 -0.25103206850E+04  0.25103206850E+04  0.25500000920E-02 0. -1.
    10030    2    1    2    0    0  0.00000000000E+00  0.00000000000E+00 -0.21879041967E+04  0.28327371734E+04  0.17992985077E+04 0.  0.
        5    1    3    3  502    0 -0.84790479135E+03 -0.15070818666E+03 -0.68434341038E+03  0.11000015846E+04  0.46999998093E+01 0.  1.
       -5    1    3    3    0  502  0.84790479135E+03  0.15070818666E+03 -0.15035607863E+04  0.17327355888E+04  0.46999998093E+01 0. -1.
</event>
<event>
 5   0  0.8893075E-05  0.1794587E+04  0.7818609E-02  0.8709183E-01
       -2   -1    0    0    0  501  0.00000000000E+00  0.00000000000E+00  0.74489842580E+03  0.74489842581E+03  0.25500000920E-02 0.  1.
        2   -1    0    0  501    0  0.00000000000E+00  0.00000000000E+00 -0.10808667629E+04  0.10808667629E+04  0.25500000920E-02 0. -1.
    10030    2    1    2    0    0  0.00000000000E+00  0.00000000000E+00 -0.33596833714E+03  0.18257651887E+04  0.17945873623E+04 0.  0.
        1    1    3    3  502    0 -0.16056722018E+03  0.85704148240E+03 -0.38340323317E+03  0.95252295195E+03  0.50400001928E-02 0. -1.
       -1    1    3    3    0  502  0.16056722018E+03 -0.85704148240E+03  0.47434896033E+02  0.87324223680E+03  0.50400001928E-02 0.  1.
</event>
<event>
 5   0  0.4494757E-05  0.1801602E+04  0.7818609E-02  0.8705448E-01
       -1   -1    0    0    0  501  0.00000000000E+00  0.00000000000E+00  0.44746606887E+03  0.44746606890E+03  0.50400001928E-02 0. -1.
        1   -1    0    0  501    0  0.00000000000E+00  0.00000000000E+00 -0.18134166139E+04  0.18134166139E+04  0.50400001928E-02 0.  1.
    10030    2    1    2    0    0  0.00000000000E+00  0.00000000000E+00 -0.13659505451E+04  0.22608826828E+04  0.18016019577E+04 0.  0.
        4    1    3    3  502    0 -0.52734470769E+03  0.39421765040E+02  0.23217204457E+03  0.57753959818E+03  0.12699999809E+01 0. -1.
       -4    1    3    3    0  502  0.52734470769E+03 -0.39421765040E+02 -0.15981225896E+04  0.16833430846E+04  0.12699999809E+01 0.  1.
</event>
<event>
 5   0  0.4623665E-05  0.1860886E+04  0.7818609E-02  0.8674575E-01
       -1   -1    0    0    0  501  0.00000000000E+00  0.00000000000E+00  0.40994054118E+03  0.40994054121E+03  0.50400001928E-02 0. -1.
        1   -1    0    0  501    0  0.00000000000E+00  0.00000000000E+00 -0.21118287133E+04  0.21118287134E+04  0.50400001928E-02 0.  1.
    10030    2    1    2    0    0  0.00000000000E+00  0.00000000000E+00 -0.17018881722E+04  0.25217692546E+04  0.18608860316E+04 0.  0.
        5    1    3    3  502    0 -0.84137491095E+03 -0.34560605528E+03 -0.11163131549E+04  0.14399765401E+04  0.46999998093E+01 0.  1.
       -5    1    3    3    0  502  0.84137491095E+03  0.34560605528E+03 -0.58557501726E+03  0.10817927145E+04  0.46999998093E+01 0. -1.
</event>
<event>
 5   0  0.9184414E-05  0.1780192E+04  0.7818609E-02  0.8716905E-01
        2   -1    0    0  501    0  0.00000000000E+00  0.00000000000E+00  0.12242670716E+04  0.12242670716E+04  0.25500000920E-02 0.  1.
       -2   -1    0    0    0  501  0.00000000000E+00  0.00000000000E+00 -0.64713885146E+03  0.64713885146E+03  0.25500000920E-02 0. -1.
    10030    2    1    2    0    0  0.00000000000E+00  0.00000000000E+00  0.57712822010E+03  0.18714059230E+04  0.17801918847E+04 0.  0.
        5    1    3    3  502    0  0.29459097023E+03 -0.16969767916E+03  0.11533107024E+04  0.12023846341E+04  0.46999998093E+01 0.  1.
       -5    1    3    3    0  502 -0.29459097023E+03  0.16969767916E+03 -0.57618248233E+03  0.66902128890E+03  0.46999998093E+01 0. -1.
</event>
<event>
 5   0  0.8802655E-05  0.1734447E+04  0.7818609E-02  0.8741958E-01
       -2   -1    0    0    0  501  0.00000000000E+00  0.00000000000E+00  0.37781743787E+03  0.37781743788E+03  0.25500000920E-02 0.  1.
        2   -1    0    0  501    0  0.00000000000E+00  0.00000000000E+00 -0.19905829474E+04  0.19905829475E+04  0.25500000920E-02 0. -1.
    10030    2    1    2    0    0  0.00000000000E+00  0.00000000000E+00 -0.16127655096E+04  0.23684003853E+04  0.17344474037E+04 0.  0.
        2    1    3    3  502    0 -0.48872260465E+03  0.53067672258E+03 -0.14922133186E+03  0.73670521517E+03  0.25500000920E-02 0.  1.
       -2    1    3    3    0  502  0.48872260465E+03 -0.53067672258E+03 -0.14635441777E+04  0.16316951702E+04  0.25500000920E-02 0. -1.
</event>
<event>
 5   0  0.9147432E-05  0.1800572E+04  0.7818609E-02  0.8705996E-01
       -2   -1    0    0    0  501  0.00000000000E+00  0.00000000000E+00  0.24485983001E+03  0.24485983002E+03  0.25500000920E-02 0.  1.
        2   -1    0    0  501    0  0.00000000000E+00  0.00000000000E+00 -0.33101165745E+04  0.33101165745E+04  0.25500000920E-02 0. -1.
    10030    2    1    2    0    0  0.00000000000E+00  0.00000000000E+00 -0.30652567445E+04  0.35549764045E+04  0.18005716667E+04 0.  0.
        3    1    3    3  502    0  0.13583667661E+03  0.39711839067E+03 -0.31051411737E+04  0.31333777840E+04  0.10100000352E+00 0. -1.
       -3    1    3    3    0  502 -0.13583667661E+03 -0.39711839067E+03  0.39884429149E+02  0.42159862050E+03  0.10100000352E+00 0.  1.
</event>
<event>
 5   0  0.4535100E-05  0.1797260E+04  0.7818609E-02  0.8707758E-01
        1   -1    0    0  501    0  0.00000000000E+00  0.00000000000E+00  0.82333624864E+03  0.82333624866E+03  0.50400001928E-02 0.  1.
       -1   -1    0    0    0  501  0.00000000000E+00  0.00000000000E+00 -0.98080898936E+03  0.98080898937E+03  0.50400001928E-02 0. -1.
    10030    2    1    2    0    0  0.00000000000E+00  0.00000000000E+00 -0.15747274072E+03  0.18041452380E+04  0.17972596851E+04 0.  0.
        1    1    3    3  502    0  0.38986889705E+02 -0.36458075229E+03 -0.90230411149E+03  0.97395678146E+03  0.50400001928E-02 0. -1.
       -1    1    3    3    0  502 -0.38986889705E+02  0.36458075229E+03  0.74483137077E+03  0.83018845657E+03  0.50400001928E-02 0.  1.
</event>
<event>
 5   0  0.9147432E-05  0.1796647E+04  0.7818609E-02  0.8708084E-01
        2   -1    0    0  501    0  0.00000000000E+00  0.00000000000E+00  0.12764659419E+04  0.12764659419E+04  0.25500000920E-02 0. -1.
       -2   -1    0    0    0  501  0.00000000000E+00  0.00000000000E+00 -0.63220294487E+03  0.63220294487E+03  0.25500000920E-02 0.  1.
    10030    2    1    2    0    0  0.00000000000E+00  0.00000000000E+00  0.64426299699E+03  0.19086688867E+04  0.17966474640E+04 0.  0.
        3    1    3    3  502    0 -0.45075803737E+03 -0.16891477868E+03 -0.48362493132E+03  0.68235481614E+03  0.10100000352E+00 0.  1.
       -3    1    3    3    0  502  0.45075803737E+03  0.16891477868E+03  0.11278879283E+04  0.12263140706E+04  0.10100000352E+00 0. -1.
</event>
<event>
 5   0  0.9184414E-05  0.1795834E+04  0.7818609E-02  0.8708518E-01
        2   -1    0    0  501    0  0.00000000000E+00  0.00000000000E+00  0.18659709122E+04  0.18659709122E+04  0.25500000920E-02 0.  1.
       -2   -1    0    0    0  501  0.00000000000E+00  0.00000000000E+00 -0.43208348490E+03  0.43208348491E+03  0.25500000920E-02 0. -1.
    10030    2    1    2    0    0  0.00000000000E+00  0.00000000000E+00  0.14338874273E+04  0.22980543971E+04  0.17958343069E+04 0.  0.
        5    1    3    3  502    0  0.20848551804E+03 -0.25414396538E+03 -0.35230083661E+03  0.48186443720E+03  0.46999998093E+01 0. -1.
       -5    1    3    3    0  502 -0.20848551804E+03  0.25414396538E+03  0.17861882639E+04  0.18161899599E+04  0.46999998093E+01 0.  1.
</event>
<event>
 5   0  0.4535100E-05  0.1815835E+04  0.7818609E-02  0.8697923E-01
       -1   -1    0    0    0  501  0.00000000000E+00  0.00000000000E+00  0.82992587963E+03  0.82992587965E+03  0.50400001928E-02 0.  1.
        1   -1    0    0  501    0  0.00000000000E+00  0.00000000000E+00 -0.99323885785E+03  0.99323885786E+03  0.50400001928E-02 0. -1.
    10030    2    1    2    0    0  0.00000000000E+00  0.00000000000E+00 -0.16331297822E+03  0.18231647375E+04  0.18158354912E+04 0.  0.
        1    1    3    3  502    0  0.74477204481E+03 -0.42836261398E+02  0.43792068962E+03  0.86504038891E+03  0.50400001928E-02 0.  1.
       -1    1    3    3    0  502 -0.74477204481E+03  0.42836261398E+02 -0.60123366783E+03  0.95812434860E+03  0.50400001928E-02 0. -1.
</event>
<event>
 5   0  0.4578107E-05  0.1778884E+04  0.7818609E-02  0.8717610E-01
       -1   -1    0    0    0  501  0.00000000000E+00  0.00000000000E+00  0.12103738643E+04  0.12103738644E+04  0.50400001928E-02 0.  1.
        1   -1    0    0  501    0  0.00000000000E+00  0.00000000000E+00 -0.65360554197E+03  0.65360554199E+03  0.50400001928E-02 0. -1.
    10030    2    1    2    0    0  0.00000000000E+00  0.00000000000E+00  0.55676832238E+03  0.18639794063E+04  0.17788839935E+04 0.  0.
        2    1    3    3  502    0  0.22587836949E+03 -0.10632325946E+03 -0.61614009236E+03  0.66479642503E+03  0.25500000920E-02 0. -1.
       -2    1    3    3    0  502 -0.22587836949E+03  0.10632325946E+03  0.11729084147E+04  0.11991829813E+04  0.25500000920E-02 0.  1.
</event>
<event>
 5   0  0.8892280E-05  0.1800273E+04  0.7818609E-02  0.8706154E-01
        2   -1    0    0  501    0  0.00000000000E+00  0.00000000000E+00  0.12160627500E+04  0.12160627500E+04  0.25500000920E-02 0.  1.
       -2   -1    0    0    0  501  0.00000000000E+00  0.00000000000E+00 -0.66628639572E+03  0.66628639573E+03  0.25500000920E-02 0. -1.
    10030    2    1    2    0    0  0.00000000000E+00  0.00000000000E+00  0.54977635425E+03  0.18823491457E+04  0.18002733866E+04 0.  0.
        4    1    3    3  502    0  0.93867858721E+02  0.33384187561E+03 -0.59363393074E+03  0.68750594866E+03  0.12699999809E+01 0. -1.
       -4    1    3    3    0  502 -0.93867858721E+02 -0.33384187561E+03  0.11434102850E+04  0.11948431970E+04  0.12699999809E+01 0.  1.
</event>
<event>
 5   0  0.8892280E-05  0.1799216E+04  0.7818609E-02  0.8706717E-01
        2   -1    0    0  501    0  0.00000000000E+00  0.00000000000E+00  0.13833824176E+04  0.13833824176E+04  0.25500000920E-02 0.  1.
       -2   -1    0    0    0  501  0.00000000000E+00  0.00000000000E+00 -0.58501128732E+03  0.58501128732E+03  0.25500000920E-02 0. -1.
    10030    2    1    2    0    0  0.00000000000E+00  0.00000000000E+00  0.79837113032E+03  0.19683937050E+04  0.17992157503E+04 0.  0.
        4    1    3    3  502    0  0.89257146523E+03 -0.10730901818E+03  0.43536584399E+03  0.99887140160E+03  0.12699999809E+01 0. -1.
       -4    1    3    3    0  502 -0.89257146523E+03  0.10730901818E+03  0.36300528633E+03  0.96952230336E+03  0.12699999809E+01 0.  1.
</event>
<event>
 5   0  0.8802655E-05  0.1803710E+04  0.7818609E-02  0.8704329E-01
        2   -1    0    0  501    0  0.00000000000E+00  0.00000000000E+00  0.10648460764E+04  0.10648460764E+04  0.25500000920E-02 0. -1.
       -2   -1    0    0    0  501  0.00000000000E+00  0.00000000000E+00 -0.76381242121E+03  0.76381242121E+03  0.25500000920E-02 0.  1.
    10030    2    1    2    0    0  0.00000000000E+00  0.00000000000E+00  0.30103365524E+03  0.18286584977E+04  0.18037102427E+04 0.  0.
        2    1    3    3  502    0  0.41223182585E+02 -0.63753847661E+03  0.79586505926E+03  0.10205664371E+04  0.25500000920E-02 0. -1.
       -2    1    3    3    0  502 -0.41223182585E+02  0.63753847661E+03 -0.49483140403E+03  0.80809206057E+03  0.25500000920E-02 0.  1.
</event>
<event>
 5   0  0.8893075E-05  0.1800988E+04  0.7818609E-02  0.8705774E-01
        2   -1    0    0  501    0  0.00000000000E+00  0.00000000000E+00  0.11368998519E+04  0.11368998519E+04  0.25500000920E-02 0.  1.
       -2   -1    0    0    0  501  0.00000000000E+00  0.00000000000E+00 -0.71324644644E+03  0.71324644644E+03  0.25500000920E-02 0. -1.
    10030    2    1    2    0    0  0.00000000000E+00  0.00000000000E+00  0.42365340548E+03  0.18501462984E+04  0.18009883724E+04 0.  0.
        1    1    3    3  502    0 -0.51393990676E+03  0.43687793657E+02  0.97011161635E+03  0.10987080592E+04  0.50400001928E-02 0.  1.
       -1    1    3    3    0  502  0.51393990676E+03 -0.43687793657E+02 -0.54645821087E+03  0.75143823920E+03  0.50400001928E-02 0. -1.
</event>
<event>
 5   0  0.8892280E-05  0.1801909E+04  0.7818609E-02  0.8705285E-01
        2   -1    0    0  501    0  0.00000000000E+00  0.00000000000E+00  0.80169951110E+03  0.80169951110E+03  0.25500000920E-02 0.  1.
       -2   -1    0    0    0  501  0.00000000000E+00  0.00000000000E+00 -0.10124976094E+04  0.10124976094E+04  0.25500000920E-02 0. -1.
    10030    2    1    2    0    0  0.00000000000E+00  0.00000000000E+00 -0.21079809827E+03  0.18141971205E+04  0.18019088084E+04 0.  0.
        4    1    3    3  502    0  0.29816168480E+03 -0.52490588461E+03 -0.77875790119E+03  0.98533855073E+03  0.12699999809E+01 0. -1.
       -4    1    3    3    0  502 -0.29816168480E+03  0.52490588461E+03  0.56795980293E+03  0.82885856974E+03  0.12699999809E+01 0.  1.
</event>
<event>
 5   0  0.9147432E-05  0.1800550E+04  0.7818609E-02  0.8706007E-01
        2   -1    0    0  501    0  0.00000000000E+00  0.00000000000E+00  0.17201321453E+04  0.17201321453E+04  0.25500000920E-02 0.  1.
       -2   -1    0    0    0  501  0.00000000000E+00  0.00000000000E+00 -0.47118182530E+03  0.47118182531E+03  0.25500000920E-02 0. -1.
    10030    2    1    2    0    0  0.00000000000E+00  0.00000000000E+00  0.12489503200E+04  0.21913139707E+04  0.18005499205E+04 0.  0.
        3    1    3    3  502    0  0.65173112404E+03 -0.18797941472E+03 -0.95943177469E+02  0.68505096299E+03  0.10100000352E+00 0. -1.
       -3    1    3    3    0  502 -0.65173112404E+03  0.18797941472E+03  0.13448934975E+04  0.15062630077E+04  0.10100000352E+00 0.  1.
</event>
<event>
 5   0  0.4335117E-05  0.1806582E+04  0.7818609E-02  0.8702807E-01
        1   -1    0    0  501    0  0.00000000000E+00  0.00000000000E+00  0.10567031755E+04  0.10567031755E+04  0.50400001928E-02 0. -1.
       -1   -1    0    0    0  501  0.00000000000E+00  0.00000000000E+00 -0.77215082580E+03  0.77215082582E+03  0.50400001928E-02 0.  1.
    10030    2    1    2    0    0  0.00000000000E+00  0.00000000000E+00  0.28455234971E+03  0.18288540013E+04  0.18065815560E+04 0.  0.
        3    1    3    3  502    0 -0.27679019225E+03  0.73965920860E+03  0.58611690075E+03  0.98348441113E+03  0.10100000352E+00 0. -1.
       -3    1    3    3    0  502  0.27679019225E+03 -0.73965920860E+03 -0.30156455104E+03  0.84536959020E+03  0.10100000352E+00 0.  1.
</event>
<event>
 5   0  0.4335117E-05  0.1781588E+04  0.7818609E-02  0.8716152E-01
        1   -1    0    0  501    0  0.00000000000E+00  0.00000000000E+00  0.10458898524E+04  0.10458898524E+04  0.50400001928E-02 0.  1.
       -1   -1    0    0    0  501  0.00000000000E+00  0.00000000000E+00 -0.75869746140E+03  0.75869746142E+03  0.50400001928E-02 0. -1.
    10030    2    1    2    0    0  0.00000000000E+00  0.00000000000E+00  0.28719239100E+03  0.18045873138E+04  0.17815880286E+04 0.  0.
        3    1    3    3  502    0  0.75815561326E+03 -0.28457469764E+03 -0.23231641537E+03  0.84246876471E+03  0.10100000352E+00 0. -1.
       -3    1    3    3    0  502 -0.75815561326E+03  0.28457469764E+03  0.51950880637E+03  0.96211854912E+03  0.10100000352E+00 0.  1.
</event>
<event>
 5   0  0.4494757E-05  0.1799223E+04  0.7818609E-02  0.8706713E-01
        1   -1    0    0  501    0  0.00000000000E+00  0.00000000000E+00  0.20991472047E+04  0.20991472047E+04  0.50400001928E-02 0. -1.
       -1   -1    0    0    0  501  0.00000000000E+00  0.00000000000E+00 -0.38553772772E+03  0.38553772775E+03  0.50400001928E-02 0.  1.
    10030    2    1    2    0    0  0.00000000000E+00  0.00000000000E+00  0.17136094769E+04  0.24846849324E+04  0.17992225471E+04 0.  0.
        4    1    3    3  502    0  0.43750915467E+03 -0.43931387159E+03  0.17569728403E+04  0.18631602488E+04  0.12699999809E+01 0. -1.
       -4    1    3    3    0  502 -0.43750915467E+03  0.43931387159E+03 -0.43363363355E+02  0.62152468364E+03  0.12699999809E+01 0.  1.
</event>
<event>
 5   0  0.4535100E-05  0.1790432E+04  0.7818609E-02  0.8711404E-01
       -1   -1    0    0    0  501  0.00000000000E+00  0.00000000000E+00  0.87603551096E+03  0.87603551097E+03  0.50400001928E-02 0. -1.
        1   -1    0    0  501    0  0.00000000000E+00  0.00000000000E+00 -0.91481626826E+03  0.91481626827E+03  0.50400001928E-02 0.  1.
    10030    2    1    2    0    0  0.00000000000E+00  0.00000000000E+00 -0.38780757301E+02  0.17908517792E+04  0.17904318329E+04 0.  0.
        1    1    3    3  502    0  0.55175985787E+03  0.20268157047E+03 -0.69474707102E+03  0.91005068676E+03  0.50400001928E-02 0. -1.
       -1    1    3    3    0  502 -0.55175985787E+03 -0.20268157047E+03  0.65596631372E+03  0.88080109249E+03  0.50400001928E-02 0.  1.
</event>
<event>
 5   0  0.8893075E-05  0.1790197E+04  0.7818609E-02  0.8711530E-01
       -2   -1    0    0    0  501  0.00000000000E+00  0.00000000000E+00  0.66793415623E+03  0.66793415624E+03  0.25500000920E-02 0.  1.
        2   -1    0    0  501    0  0.00000000000E+00  0.00000000000E+00 -0.11995216036E+04  0.11995216036E+04  0.25500000920E-02 0. -1.
    10030    2    1    2    0    0  0.00000000000E+00  0.00000000000E+00 -0.53158744734E+03  0.18674557598E+04  0.17901971402E+04 0.  0.
        1    1    3    3  502    0  0.22387634632E+03 -0.65820254928E+03  0.32231921228E+03  0.76631644179E+03  0.50400001928E-02 0.  1.
       -1    1    3    3    0  502 -0.22387634632E+03  0.65820254928E+03 -0.85390665962E+03  0.11011393180E+04  0.50400001928E-02 0. -1.
</event>
<event>
 5   0  0.8892280E-05  0.1799285E+04  0.7818609E-02  0.8706680E-01
        2   -1    0    0  501    0  0.00000000000E+00  0.00000000000E+00  0.13807027812E+04  0.13807027812E+04  0.25500000920E-02 0. -1.
       -2   -1    0    0    0  501  0.00000000000E+00  0.00000000000E+00 -0.58619146787E+03  0.58619146787E+03  0.25500000920E-02 0.  1.
    10030    2    1    2    0    0  0.00000000000E+00  0.00000000000E+00  0.79451131336E+03  0.19668942491E+04  0.17992845134E+04 0.  0.
        4    1    3    3  502    0  0.29860337353E+02 -0.23768607485E+03 -0.55068450929E+03  0.60053422184E+03  0.12699999809E+01 0.  1.
       -4    1    3    3    0  502 -0.29860337353E+02  0.23768607485E+03  0.13451958227E+04  0.13663600273E+04  0.12699999809E+01 0. -1.
</event>
<event>
 5   0  0.8802655E-05  0.1800309E+04  0.7818609E-02  0.8706135E-01
        2   -1    0    0  501    0  0.00000000000E+00  0.00000000000E+00  0.88851816486E+03  0.88851816486E+03  0.25500000920E-02 0. -1.
       -2   -1    0    0    0  501  0.00000000000E+00  0.00000000000E+00 -0.91194355957E+03  0.91194355957E+03  0.25500000920E-02 0.  1.
    10030    2    1    2    0    0  0.00000000000E+00  0.00000000000E+00 -0.23425394713E+02  0.18004617244E+04  0.18003093268E+04 0.  0.
        2    1    3    3  502    0  0.75705725885E+03 -0.34338424804E+03  0.33361348136E+03  0.89573790248E+03  0.25500000920E-02 0. -1.
       -2    1    3    3    0  502 -0.75705725885E+03  0.34338424804E+03 -0.35703887607E+03  0.90472382196E+03  0.25500000920E-02 0.  1.
</event>
<event>
 5   0  0.4623665E-05  0.1791327E+04  0.7818609E-02  0.8710925E-01
       -1   -1    0    0    0  501  0.00000000000E+00  0.00000000000E+00  0.89570662502E+03  0.89570662503E+03  0.50400001928E-02 0. -1.
        1   -1    0    0  501    0  0.00000000000E+00  0.00000000000E+00 -0.89562002604E+03  0.89562002606E+03  0.50400001928E-02 0.  1.
    10030    2    1    2    0    0  0.00000000000E+00  0.00000000000E+00  0.86598976789E-01  0.17913266511E+04  0.17913266490E+04 0.  0.
        5    1    3    3  502    0  0.31586062078E+03 -0.49745598768E+03 -0.67446415820E+03  0.89563071750E+03  0.46999998093E+01 0.  1.
       -5    1    3    3    0  502 -0.31586062078E+03  0.49745598768E+03  0.67455075718E+03  0.89569593359E+03  0.46999998093E+01 0. -1.
</event>
<event>
 5   0  0.4335117E-05  0.1777930E+04  0.7818609E-02  0.8718125E-01
       -1   -1    0    0    0  501  0.00000000000E+00  0.00000000000E+00  0.13100610702E+04  0.13100610702E+04  0.50400001928E-02 0. -1.
        1   -1    0    0  501    0  0.00000000000E+00  0.00000000000E+00 -0.60322258189E+03  0.60322258191E+03  0.50400001928E-02 0.  1.
    10030    2    1    2    0    0  0.00000000000E+00  0.00000000000E+00  0.70683848829E+03  0.19132836521E+04  0.17779296063E+04 0.  0.
        3    1    3    3  502    0 -0.38265668388E+03  0.62023705273E+03  0.90123002870E+03  0.11590236038E+04  0.10100000352E+00 0. -1.
       -3    1    3    3    0  502  0.38265668388E+03 -0.62023705273E+03 -0.19439154041E+03  0.75426004832E+03  0.10100000352E+00 0.  1.
</event>
<event>
 5   0  0.8893075E-05  0.1794732E+04  0.7818609E-02  0.8709106E-01
        2   -1    0    0  501    0  0.00000000000E+00  0.00000000000E+00  0.94538407475E+03  0.94538407475E+03  0.25500000920E-02 0. -1.
       -2   -1    0    0    0  501  0.00000000000E+00  0.00000000000E+00 -0.85178688527E+03  0.85178688527E+03  0.25500000920E-02 0.  1.
    10030    2    1    2    0    0  0.00000000000E+00  0.00000000000E+00  0.93597189475E+02  0.17971709600E+04  0.17947320206E+04 0.  0.
        1    1    3    3  502    0  0.15794276026E+03 -0.79080755603E+03  0.44096182816E+03  0.91911361655E+03  0.50400001928E-02 0. -1.
       -1    1    3    3    0  502 -0.15794276026E+03  0.79080755603E+03 -0.34736463869E+03  0.87805734348E+03  0.50400001928E-02 0.  1.
</event>
<event>
 5   0  0.4494757E-05  0.1801487E+04  0.7818609E-02  0.8705509E-01
        1   -1    0    0  501    0  0.00000000000E+00  0.00000000000E+00  0.16197833026E+04  0.16197833026E+04  0.50400001928E-02 0. -1.
       -1   -1    0    0    0  501  0.00000000000E+00  0.00000000000E+00 -0.50089360200E+03  0.50089360203E+03  0.50400001928E-02 0.  1.
    10030    2    1    2    0    0  0.00000000000E+00  0.00000000000E+00  0.11188897006E+04  0.21206769046E+04  0.18014872666E+04 0.  0.
        4    1    3    3  502    0  0.53255987934E+03 -0.32628405330E+03 -0.20459576940E+03  0.65722321192E+03  0.12699999809E+01 0.  1.
       -4    1    3    3    0  502 -0.53255987934E+03  0.32628405330E+03  0.13234854700E+04  0.14634536927E+04  0.12699999809E+01 0. -1.
</event>
<event>
 5   0  0.4335117E-05  0.1803727E+04  0.7818609E-02  0.8704320E-01
       -1   -1    0    0    0  501  0.00000000000E+00  0.00000000000E+00  0.47311581810E+03  0.47311581813E+03  0.50400001928E-02 0.  1.
        1   -1    0    0  501    0  0.00000000000E+00  0.00000000000E+00 -0.17191517068E+04  0.17191517068E+04  0.50400001928E-02 0. -1.
    10030    2    1    2    0    0  0.00000000000E+00  0.00000000000E+00 -0.12460358887E+04  0.21922675249E+04  0.18037271038E+04 0.  0.
        3    1    3    3  502    0 -0.58572616086E+03 -0.24661567637E+03  0.15471461099E+03  0.65408795158E+03  0.10100000352E+00 0.  1.
       -3    1    3    3    0  502  0.58572616086E+03  0.24661567637E+03 -0.14007504997E+04  0.15381795734E+04  0.10100000352E+00 0. -1.
</event>
<event>
 5   0  0.4535100E-05  0.1773667E+04  0.7818609E-02  0.8720430E-01
        1   -1    0    0  501    0  0.00000000000E+00  0.00000000000E+00  0.14655302719E+04  0.14655302719E+04  0.50400001928E-02 0.  1.
       -1   -1    0    0    0  501  0.00000000000E+00  0.00000000000E+00 -0.53664783881E+03  0.53664783884E+03  0.50400001928E-02 0. -1.
    10030    2    1    2    0    0  0.00000000000E+00  0.00000000000E+00  0.92888243307E+03  0.20021781107E+04  0.17736669960E+04 0.  0.
        1    1    3    3  502    0 -0.69258479513E+03  0.94528433257E+02  0.10805251361E+04  0.12869125429E+04  0.50400001928E-02 0.  1.
       -1    1    3    3    0  502  0.69258479513E+03 -0.94528433257E+02 -0.15164270307E+03  0.71526556786E+03  0.50400001928E-02 0. -1.
</event>
<event>
 5   0  0.4623665E-05  0.1802722E+04  0.7818609E-02  0.8704853E-01
       -1   -1    0    0    0  501  0.00000000000E+00  0.00000000000E+00  0.82272584349E+03  0.82272584351E+03  0.50400001928E-02 0. -1.
        1   -1    0    0  501    0  0.00000000000E+00  0.00000000000E+00 -0.98751219230E+03  0.98751219231E+03  0.50400001928E-02 0.  1.
    10030    2    1    2    0    0  0.00000000000E+00  0.00000000000E+00 -0.16478634881E+03  0.18102380358E+04  0.18027221654E+04 0.  0.
        5    1    3    3  502    0 -0.10019690292E+03  0.64838253893E+03 -0.70302364991E+03  0.96161514052E+03  0.46999998093E+01 0.  1.
       -5    1    3    3    0  502  0.10019690292E+03 -0.64838253893E+03  0.53823730110E+03  0.84862289530E+03  0.46999998093E+01 0. -1.
</event>
<event>
 5   0  0.4335117E-05  0.1800180E+04  0.7818609E-02  0.8706204E-01
        1   -1    0    0  501    0  0.00000000000E+00  0.00000000000E+00  0.81303114639E+03  0.81303114641E+03  0.50400001928E-02 0.  1.
       -1   -1    0    0    0  501  0.00000000000E+00  0.00000000000E+00 -0.99647128097E+03  0.99647128098E+03  0.50400001928E-02 0. -1.
    10030    2    1    2    0    0  0.00000000000E+00  0.00000000000E+00 -0.18344013458E+03  0.18095024274E+04  0.18001801998E+04 0.  0.
        3    1    3    3  502    0 -0.62073655054E+03  0.20663495963E+03 -0.71310439476E+03  0.96774467694E+03  0.10100000352E+00 0. -1.
       -3    1    3    3    0  502  0.62073655054E+03 -0.20663495963E+03  0.52966426019E+03  0.84175775045E+03  0.10100000352E+00 0.  1.
</event>
<event>
 5   0  0.8892280E-05  0.1824332E+04  0.7818609E-02  0.8693466E-01
        2   -1    0    0  501    0  0.00000000000E+00  0.00000000000E+00  0.10618820487E+04  0.10618820487E+04  0.25500000920E-02 0. -1.
       -2   -1    0    0    0  501  0.00000000000E+00  0.00000000000E+00 -0.78355860292E+03  0.78355860293E+03  0.25500000920E-02 0.  1.
    10030    2    1    2    0    0  0.00000000000E+00  0.00000000000E+00  0.27832344574E+03  0.18454406516E+04  0.18243320033E+04 0.  0.
        4    1    3    3  502    0  0.30377349511E+03  0.18700277153E+03 -0.71007384859E+03  0.79464133811E+03  0.12699999809E+01 0.  1.
       -4    1    3    3    0  502 -0.30377349511E+03 -0.18700277153E+03  0.98839729432E+03  0.10507993135E+04  0.12699999809E+01 0. -1.
</event>
<event>
 5   0  0.8893075E-05  0.1800084E+04  0.7818609E-02  0.8706255E-01
        2   -1    0    0  501    0  0.00000000000E+00  0.00000000000E+00  0.22492513541E+04  0.22492513541E+04  0.25500000920E-02 0.  1.
       -2   -1    0    0    0  501  0.00000000000E+00  0.00000000000E+00 -0.36015344058E+03  0.36015344058E+03  0.25500000920E-02 0. -1.
    10030    2    1    2    0    0  0.00000000000E+00  0.00000000000E+00  0.18890979136E+04  0.26094047947E+04  0.18000840135E+04 0.  0.
        1    1    3    3  502    0  0.25652755979E+03  0.68516922957E+03  0.18463082763E+03  0.75455404354E+03  0.50400001928E-02 0. -1.
       -1    1    3    3    0  502 -0.25652755979E+03 -0.68516922957E+03  0.17044670859E+04  0.18548507512E+04  0.50400001928E-02 0.  1.
</event>
<event>
 5   0  0.4494757E-05  0.1802420E+04  0.7818609E-02  0.8705014E-01
       -1   -1    0    0    0  501  0.00000000000E+00  0.00000000000E+00  0.70179744385E+03  0.70179744386E+03  0.50400001928E-02 0. -1.
        1   -1    0    0  501    0  0.00000000000E+00  0.00000000000E+00 -0.11572846440E+04  0.11572846440E+04  0.50400001928E-02 0.  1.
    10030    2    1    2    0    0  0.00000000000E+00  0.00000000000E+00 -0.45548720011E+03  0.18590820878E+04  0.18024199344E+04 0.  0.
        4    1    3    3  502    0  0.79986552219E+03  0.36205682120E+03 -0.18111106653E+02  0.87817971991E+03  0.12699999809E+01 0. -1.
       -4    1    3    3    0  502 -0.79986552219E+03 -0.36205682120E+03 -0.43737609345E+03  0.98090236792E+03  0.12699999809E+01 0.  1.
</event>
<event>
 5   0  0.9184414E-05  0.1792764E+04  0.7818609E-02  0.8710157E-01
       -2   -1    0    0    0  501  0.00000000000E+00  0.00000000000E+00  0.38390804501E+03  0.38390804502E+03  0.25500000920E-02 0.  1.
        2   -1    0    0  501    0  0.00000000000E+00  0.00000000000E+00 -0.20929512562E+04  0.20929512562E+04  0.25500000920E-02 0. -1.
    10030    2    1    2    0    0  0.00000000000E+00  0.00000000000E+00 -0.17090432112E+04  0.24768593013E+04  0.17927641508E+04 0.  0.
        5    1    3    3  502    0 -0.64195801335E+03  0.59241696029E+03 -0.11322541960E+04  0.14300662922E+04  0.46999998093E+01 0. -1.
       -5    1    3    3    0  502  0.64195801335E+03 -0.59241696029E+03 -0.57678901521E+03  0.10467930091E+04  0.46999998093E+01 0.  1.
</event>
<event>
 5   0  0.4494757E-05  0.1800099E+04  0.7818609E-02  0.8706247E-01
       -1   -1    0    0    0  501  0.00000000000E+00  0.00000000000E+00  0.56108741919E+03  0.56108741921E+03  0.50400001928E-02 0. -1.
        1   -1    0    0  501    0  0.00000000000E+00  0.00000000000E+00 -0.14437843216E+04  0.14437843216E+04  0.50400001928E-02 0.  1.
    10030    2    1    2    0    0  0.00000000000E+00  0.00000000000E+00 -0.88269690245E+03  0.20048717408E+04  0.18000991294E+04 0.  0.
        4    1    3    3  502    0 -0.45751065441E+03 -0.41057000710E+02 -0.13034029695E+04  0.13819777820E+04  0.12699999809E+01 0.  1.
       -4    1    3    3    0  502  0.45751065441E+03  0.41057000710E+02  0.42070606704E+03  0.62289395884E+03  0.12699999809E+01 0. -1.
</event>
<event>
 5   0  0.4535100E-05  0.1796852E+04  0.7818609E-02  0.8707975E-01
       -1   -1    0    0    0  501  0.00000000000E+00  0.00000000000E+00  0.12909273535E+04  0.12909273535E+04  0.50400001928E-02 0.  1.
        1   -1    0    0  501    0  0.00000000000E+00  0.00000000000E+00 -0.62526329823E+03  0.62526329825E+03  0.50400001928E-02 0. -1.
    10030    2    1    2    0    0  0.00000000000E+00  0.00000000000E+00  0.66566405529E+03  0.19161906518E+04  0.17968522420E+04 0.  0.
        1    1    3    3  502    0 -0.60424539988E+03  0.94975639422E+02 -0.36892805822E+03  0.71431140795E+03  0.50400001928E-02 0. -1.
       -1    1    3    3    0  502  0.60424539988E+03 -0.94975639422E+02  0.10345921135E+04  0.12018792438E+04  0.50400001928E-02 0.  1.
</event>
<event>
 5   0  0.4535100E-05  0.1802057E+04  0.7818609E-02  0.8705207E-01
       -1   -1    0    0    0  501  0.00000000000E+00  0.00000000000E+00  0.10033043403E+04  0.10033043403E+04  0.50400001928E-02 0.  1.
        1   -1    0    0  501    0  0.00000000000E+00  0.00000000000E+00 -0.80917825371E+03  0.80917825373E+03  0.50400001928E-02 0. -1.
    10030    2    1    2    0    0  0.00000000000E+00  0.00000000000E+00  0.19412608654E+03  0.18124825940E+04  0.18020566628E+04 0.  0.
        1    1    3    3  502    0 -0.60761601328E+03  0.28147938992E+02 -0.57151019470E+03  0.83463370932E+03  0.50400001928E-02 0. -1.
       -1    1    3    3    0  502  0.60761601328E+03 -0.28147938992E+02  0.76563628124E+03  0.97784888467E+03  0.50400001928E-02 0.  1.
</event>
<event>
 5   0  0.4335117E-05  0.1807511E+04  0.7818609E-02  0.8702315E-01
       -1   -1    0    0    0  501  0.00000000000E+00  0.00000000000E+00  0.46208690021E+03  0.46208690023E+03  0.50400001928E-02 0.  1.
        1   -1    0    0  501    0  0.00000000000E+00  0.00000000000E+00 -0.17675766632E+04  0.17675766632E+04  0.50400001928E-02 0. -1.
    10030    2    1    2    0    0  0.00000000000E+00  0.00000000000E+00 -0.13054897630E+04  0.22296635634E+04  0.18075110193E+04 0.  0.
        3    1    3    3  502    0 -0.26503458688E+03 -0.14400643276E+03 -0.17036529316E+04  0.17301486949E+04  0.10100000352E+00 0. -1.
       -3    1    3    3    0  502  0.26503458688E+03  0.14400643276E+03  0.39816316857E+03  0.49951486857E+03  0.10100000352E+00 0.  1.
</event>
<event>
 5   0  0.9184414E-05  0.1800051E+04  0.7818609E-02  0.8706272E-01
       -2   -1    0    0    0  501  0.00000000000E+00  0.00000000000E+00  0.39513797665E+03  0.39513797665E+03  0.25500000920E-02 0. -1.
        2   -1    0    0  501    0  0.00000000000E+00  0.00000000000E+00 -0.20500333071E+04  0.20500333071E+04  0.25500000920E-02 0.  1.
    10030    2    1    2    0    0  0.00000000000E+00  0.00000000000E+00 -0.16548953305E+04  0.24451712838E+04  0.18000511249E+04 0.  0.
        5    1    3    3  502    0  0.28496014719E+03  0.52802431082E+03 -0.17386954323E+04  0.18393193998E+04  0.46999998093E+01 0.  1.
       -5    1    3    3    0  502 -0.28496014719E+03 -0.52802431082E+03  0.83800101752E+02  0.60585188401E+03  0.46999998093E+01 0. -1.
</event>
<event>
 5   0  0.8893075E-05  0.1802311E+04  0.7818609E-02  0.8705071E-01
        2   -1    0    0  501    0  0.00000000000E+00  0.00000000000E+00  0.28668890764E+04  0.28668890764E+04  0.25500000920E-02 0.  1.
       -2   -1    0    0    0  501  0.00000000000E+00  0.00000000000E+00 -0.28326221415E+03  0.28326221416E+03  0.25500000920E-02 0. -1.
    10030    2    1    2    0    0  0.00000000000E+00  0.00000000000E+00  0.25836268623E+04  0.31501512906E+04  0.18023111247E+04 0.  0.
        1    1    3    3  502    0  0.82593740288E+03  0.23409507933E+03  0.81280245621E+03  0.11822101896E+04  0.50400001928E-02 0. -1.
       -1    1    3    3    0  502 -0.82593740288E+03 -0.23409507933E+03  0.17708244061E+04  0.19679411009E+04  0.50400001928E-02 0.  1.
</event>
<event>
 5   0  0.4494757E-05  0.1799869E+04  0.7818609E-02  0.8706369E-01
        1   -1    0    0  501    0  0.00000000000E+00  0.00000000000E+00  0.16817513872E+04  0.16817513872E+04  0.50400001928E-02 0.  1.
       -1   -1    0    0    0  501  0.00000000000E+00  0.00000000000E+00 -0.48157074249E+03  0.48157074251E+03  0.50400001928E-02 0. -1.
    10030    2    1    2    0    0  0.00000000000E+00  0.00000000000E+00  0.12001806447E+04  0.21633221297E+04  0.17998691777E+04 0.  0.
        4    1    3    3  502    0  0.51631838163E+03  0.39546010545E+02 -0.28456182380E+03  0.59086851551E+03  0.12699999809E+01 0. -1.
       -4    1    3    3    0  502 -0.51631838163E+03 -0.39546010545E+02  0.14847424685E+04  0.15724536142E+04  0.12699999809E+01 0.  1.
</event>
<event>
 5   0  0.4335117E-05  0.1793808E+04  0.7818609E-02  0.8709599E-01
       -1   -1    0    0    0  501  0.00000000000E+00  0.00000000000E+00  0.49957496032E+03  0.49957496035E+03  0.50400001928E-02 0.  1.
        1   -1    0    0  501    0  0.00000000000E+00  0.00000000000E+00 -0.16102429024E+04  0.16102429024E+04  0.50400001928E-02 0. -1.
    10030    2    1    2    0    0  0.00000000000E+00  0.00000000000E+00 -0.11106679421E+04  0.21098178627E+04  0.17938082775E+04 0.  0.
        3    1    3    3  502    0  0.24993741957E+03 -0.77554863614E+03 -0.11447904088E+03  0.82283039669E+03  0.10100000352E+00 0.  1.
       -3    1    3    3    0  502 -0.24993741957E+03  0.77554863614E+03 -0.99618890119E+03  0.12869874660E+04  0.10100000352E+00 0. -1.
</event>
<event>
 5   0  0.9184414E-05  0.1802080E+04  0.7818609E-02  0.8705194E-01
       -2   -1    0    0    0  501  0.00000000000E+00  0.00000000000E+00  0.53168193253E+03  0.53168193253E+03  0.25500000920E-02 0.  1.
        2   -1    0    0  501    0  0.00000000000E+00  0.00000000000E+00 -0.15269900221E+04  0.15269900221E+04  0.25500000920E-02 0. -1.
    10030    2    1    2    0    0  0.00000000000E+00  0.00000000000E+00 -0.99530808958E+03  0.20586719546E+04  0.18020799160E+04 0.  0.
        5    1    3    3  502    0  0.55650010458E+01 -0.78983102212E+03 -0.99296381920E+03  0.12688038654E+04  0.46999998093E+01 0. -1.
       -5    1    3    3    0  502 -0.55650010458E+01  0.78983102212E+03 -0.23442703817E+01  0.78986808920E+03  0.46999998093E+01 0.  1.
</event>
<event>
 5   0  0.4335117E-05  0.1795732E+04  0.7818609E-02  0.8708572E-01
        1   -1    0    0  501    0  0.00000000000E+00  0.00000000000E+00  0.98935483500E+03  0.98935483501E+03  0.50400001928E-02 0.  1.
       -1   -1    0    0    0  501  0.00000000000E+00  0.00000000000E+00 -0.81483776976E+03  0.81483776977E+03  0.50400001928E-02 0. -1.
    10030    2    1    2    0    0  0.00000000000E+00  0.00000000000E+00  0.17451706524E+03  0.18041926048E+04  0.17957323712E+04 0.  0.
        3    1    3    3  502    0  0.56169899208E+03 -0.39672248543E+03  0.66727305693E+03  0.95820030831E+03  0.10100000352E+00 0.  1.
       -3    1    3    3    0  502 -0.56169899208E+03  0.39672248543E+03 -0.49275599169E+03  0.84599229647E+03  0.10100000352E+00 0. -1.
</event>
<event>
 5   0  0.4335117E-05  0.1810967E+04  0.7818609E-02  0.8700489E-01
        1   -1    0    0  501    0  0.00000000000E+00  0.00000000000E+00  0.14392667061E+04  0.14392667061E+04  0.50400001928E-02 0. -1.
       -1   -1    0    0    0  501  0.00000000000E+00  0.00000000000E+00 -0.56966542343E+03  0.56966542345E+03  0.50400001928E-02 0.  1.
    10030    2    1    2    0    0  0.00000000000E+00  0.00000000000E+00  0.86960128268E+03  0.20089321296E+04  0.18109671202E+04 0.  0.
        3    1    3    3  502    0  0.74318440327E+03 -0.38704767673E+03  0.81549357334E+03  0.11692556349E+04  0.10100000352E+00 0. -1.
       -3    1    3    3    0  502 -0.74318440327E+03  0.38704767673E+03  0.54107709338E+02  0.83967649470E+03  0.10100000352E+00 0.  1.
</event>
<event>
 5   0  0.8892280E-05  0.1807732E+04  0.7818609E-02  0.8702199E-01
       -2   -1    0    0    0  501  0.00000000000E+00  0.00000000000E+00  0.12101737183E+04  0.12101737183E+04  0.25500000920E-02 0. -1.
        2   -1    0    0  501    0  0.00000000000E+00  0.00000000000E+00 -0.67508790503E+03  0.67508790504E+03  0.25500000920E-02 0.  1.
    10030    2    1    2    0    0  0.00000000000E+00  0.00000000000E+00  0.53508581323E+03  0.18852616233E+04  0.18077318830E+04 0.  0.
        4    1    3    3  502    0 -0.30772026988E+03  0.84986752666E+03  0.26510827592E+03  0.94193980074E+03  0.12699999809E+01 0. -1.
       -4    1    3    3    0  502  0.30772026988E+03 -0.84986752666E+03  0.26997753731E+03  0.94332182256E+03  0.12699999809E+01 0.  1.
</event>
<event>
 5   0  0.8802655E-05  0.1796718E+04  0.7818609E-02  0.8708047E-01
       -2   -1    0    0    0  501  0.00000000000E+00  0.00000000000E+00  0.63369835225E+03  0.63369835225E+03  0.25500000920E-02 0.  1.
        2   -1    0    0  501    0  0.00000000000E+00  0.00000000000E+00 -0.12735536464E+04  0.12735536464E+04  0.25500000920E-02 0. -1.
    10030    2    1    2    0    0  0.00000000000E+00  0.00000000000E+00 -0.63985529420E+03  0.19072519987E+04  0.17967179492E+04 0.  0.
        2    1    3    3  502    0 -0.78858003013E+03  0.19128442133E+03 -0.72913038600E+03  0.10909075642E+04  0.25500000920E-02 0. -1.
       -2    1    3    3    0  502  0.78858003013E+03 -0.19128442133E+03  0.89275091806E+02  0.81634443453E+03  0.25500000920E-02 0.  1.
</event>
<event>
 5   0  0.4578107E-05  0.1796793E+04  0.7818609E-02  0.8708007E-01
        1   -1    0    0  501    0  0.00000000000E+00  0.00000000000E+00  0.78874073506E+03  0.78874073507E+03  0.50400001928E-02 0.  1.
       -1   -1    0    0    0  501  0.00000000000E+00  0.00000000000E+00 -0.10232970727E+04  0.10232970727E+04  0.50400001928E-02 0. -1.
    10030    2    1    2    0    0  0.00000000000E+00  0.00000000000E+00 -0.23455633763E+03  0.18120378078E+04  0.17967927931E+04 0.  0.
        2    1    3    3  502    0 -0.10495992325E+03  0.37654690022E+03 -0.93303680066E+03  0.10116134761E+04  0.25500000920E-02 0. -1.
       -2    1    3    3    0  502  0.10495992325E+03 -0.37654690022E+03  0.69848046303E+03  0.80042433171E+03  0.25500000920E-02 0.  1.
</event>
<event>
 5   0  0.8802655E-05  0.1798936E+04  0.7818609E-02  0.8706866E-01
       -2   -1    0    0    0  501  0.00000000000E+00  0.00000000000E+00  0.12994218666E+04  0.12994218666E+04  0.25500000920E-02 0.  1.
        2   -1    0    0  501    0  0.00000000000E+00  0.00000000000E+00 -0.62261725807E+03  0.62261725808E+03  0.25500000920E-02 0. -1.
    10030    2    1    2    0    0  0.00000000000E+00  0.00000000000E+00  0.67680460850E+03  0.19220391247E+04  0.17989357739E+04 0.  0.
        2    1    3    3  502    0 -0.28308350012E+03  0.51944270807E+03 -0.38552231478E+03  0.70610512688E+03  0.25500000920E-02 0. -1.
       -2    1    3    3    0  502  0.28308350012E+03 -0.51944270807E+03  0.10623269233E+04  0.12159339978E+04  0.25500000920E-02 0.  1.
</event>
<event>
 5   0  0.4578107E-05  0.1800043E+04  0.7818609E-02  0.8706277E-01
       -1   -1    0    0    0  501  0.00000000000E+00  0.00000000000E+00  0.89995276685E+03  0.89995276686E+03  0.50400001928E-02 0. -1.
        1   -1    0    0  501    0  0.00000000000E+00  0.00000000000E+00 -0.90009019160E+03  0.90009019162E+03  0.50400001928E-02 0.  1.
    10030    2    1    2    0    0  0.00000000000E+00  0.00000000000E+00 -0.13742475352E+00  0.18000429585E+04  0.18000429532E+04 0.  0.
        2    1    3    3  502    0  0.38221135529E+01  0.64916798687E+02 -0.89773784060E+03  0.90009001203E+03  0.25500000920E-02 0.  1.
       -2    1    3    3    0  502 -0.38221135529E+01 -0.64916798687E+02  0.89760041584E+03  0.89995294645E+03  0.25500000920E-02 0. -1.
</event>
<event>
 5   0  0.3270375E-05  0.1799956E+04  0.7818609E-02  0.8706323E-01
       -3   -1    0    0    0  501  0.00000000000E+00  0.00000000000E+00  0.96032607568E+03  0.96032608099E+03  0.10100000352E+00 0. -1.
        3   -1    0    0  501    0  0.00000000000E+00  0.00000000000E+00 -0.84342201739E+03  0.84342202344E+03  0.10100000352E+00 0.  1.
    10030    2    1    2    0    0  0.00000000000E+00  0.00000000000E+00  0.11690405828E+03  0.18037481044E+04  0.17999557398E+04 0.  0.
        1    1    3    3  502    0  0.80027297918E+03 -0.33784989212E+03 -0.17737499899E+03  0.88658969151E+03  0.50400001928E-02 0.  1.
       -1    1    3    3    0  502 -0.80027297918E+03  0.33784989212E+03  0.29427905728E+03  0.91715841292E+03  0.50400001928E-02 0. -1.
</event>
<event>
 5   0  0.4535100E-05  0.1801658E+04  0.7818609E-02  0.8705418E-01
        1   -1    0    0  501    0  0.00000000000E+00  0.00000000000E+00  0.96363999488E+03  0.96363999489E+03  0.50400001928E-02 0.  1.
       -1   -1    0    0    0  501  0.00000000000E+00  0.00000000000E+00 -0.84211245538E+03  0.84211245540E+03  0.50400001928E-02 0. -1.
    10030    2    1    2    0    0  0.00000000000E+00  0.00000000000E+00  0.12152753950E+03  0.18057524503E+04  0.18016583941E+04 0.  0.
        1    1    3    3  502    0 -0.72456101208E+03 -0.49111441395E+03  0.27411178859E+03  0.91723459403E+03  0.50400001928E-02 0.  1.
       -1    1    3    3    0  502  0.72456101208E+03  0.49111441395E+03 -0.15258424909E+03  0.88851785627E+03  0.50400001928E-02 0. -1.
</event>
<event>
 5   0  0.8802655E-05  0.1804075E+04  0.7818609E-02  0.8704135E-01
       -2   -1    0    0    0  501  0.00000000000E+00  0.00000000000E+00  0.45256369810E+03  0.45256369811E+03  0.25500000920E-02 0.  1.
        2   -1    0    0  501    0  0.00000000000E+00  0.00000000000E+00 -0.17979168401E+04  0.17979168401E+04  0.25500000920E-02 0. -1.
    10030    2    1    2    0    0  0.00000000000E+00  0.00000000000E+00 -0.13453531420E+04  0.22504805382E+04  0.18040752690E+04 0.  0.
        2    1    3    3  502    0  0.59719994005E+03 -0.29956704044E+02  0.16981073562E+03  0.62159541379E+03  0.25500000920E-02 0.  1.
       -2    1    3    3    0  502 -0.59719994005E+03  0.29956704044E+02 -0.15151638776E+04  0.16288851244E+04  0.25500000920E-02 0. -1.
</event>
<event>
 5   0  0.8892280E-05  0.1792881E+04  0.7818609E-02  0.8710095E-01
        2   -1    0    0  501    0  0.00000000000E+00  0.00000000000E+00  0.16484225358E+04  0.16484225358E+04  0.25500000920E-02 0. -1.
       -2   -1    0    0    0  501  0.00000000000E+00  0.00000000000E+00 -0.48749957608E+03  0.48749957609E+03  0.25500000920E-02 0.  1.
    10030    2    1    2    0    0  0.00000000000E+00  0.00000000000E+00  0.11609229597E+04  0.21359221119E+04  0.17928806847E+04 0.  0.
        4    1    3    3  502    0  0.87357198567E+03 -0.15057333472E+03  0.42150264917E+03  0.98156326308E+03  0.12699999809E+01 0. -1.
       -4    1    3    3    0  502 -0.87357198567E+03  0.15057333472E+03  0.73942031056E+03  0.11543588488E+04  0.12699999809E+01 0.  1.
</event>
<event>
 5   0  0.8893075E-05  0.1801980E+04  0.7818609E-02  0.8705247E-01
       -2   -1    0    0    0  501  0.00000000000E+00  0.00000000000E+00  0.10716667519E+04  0.10716667519E+04  0.25500000920E-02 0. -1.
        2   -1    0    0  501    0  0.00000000000E+00  0.00000000000E+00 -0.75749575139E+03  0.75749575139E+03  0.25500000920E-02 0.  1.
    10030    2    1    2    0    0  0.00000000000E+00  0.00000000000E+00  0.31417100048E+03  0.18291625033E+04  0.18019800348E+04 0.  0.
        1    1    3    3  502    0  0.35699656838E+03 -0.47598657563E+03 -0.52971011945E+03  0.79661947044E+03  0.50400001928E-02 0.  1.
       -1    1    3    3    0  502 -0.35699656838E+03  0.47598657563E+03  0.84388111992E+03  0.10325430328E+04  0.50400001928E-02 0. -1.
</event>
<event>
 5   0  0.8893075E-05  0.1794054E+04  0.7818609E-02  0.8709468E-01
       -2   -1    0    0    0  501  0.00000000000E+00  0.00000000000E+00  0.10976588100E+04  0.10976588100E+04  0.25500000920E-02 0. -1.
        2   -1    0    0  501    0  0.00000000000E+00  0.00000000000E+00 -0.73306729205E+03  0.73306729205E+03  0.25500000920E-02 0.  1.
    10030    2    1    2    0    0  0.00000000000E+00  0.00000000000E+00  0.36459151791E+03  0.18307261020E+04  0.17940543709E+04 0.  0.
        1    1    3    3  502    0  0.87177865263E+03 -0.18042632442E+03  0.29457249727E+03  0.93772311153E+03  0.50400001928E-02 0.  1.
       -1    1    3    3    0  502 -0.87177865263E+03  0.18042632442E+03  0.70019020640E+02  0.89300299048E+03  0.50400001928E-02 0. -1.
</event>
<event>
 5   0  0.4578107E-05  0.1797228E+04  0.7818609E-02  0.8707775E-01
        1   -1    0    0  501    0  0.00000000000E+00  0.00000000000E+00  0.92423170623E+03  0.92423170624E+03  0.50400001928E-02 0. -1.
       -1   -1    0    0    0  501  0.00000000000E+00  0.00000000000E+00 -0.87370617391E+03  0.87370617392E+03  0.50400001928E-02 0.  1.
    10030    2    1    2    0    0  0.00000000000E+00  0.00000000000E+00  0.50525532325E+02  0.17979378802E+04  0.17972278074E+04 0.  0.
        2    1    3    3  502    0  0.79395259856E+03  0.12110119026E+03 -0.37798546546E+03  0.88763688474E+03  0.25500000920E-02 0.  1.
       -2    1    3    3    0  502 -0.79395259856E+03 -0.12110119026E+03  0.42851099779E+03  0.91030099543E+03  0.25500000920E-02 0. -1.
</event>
<event>
 5   0  0.3270375E-05  0.1821877E+04  0.7818609E-02  0.8694751E-01
        4   -1    0    0  501    0  0.00000000000E+00  0.00000000000E+00  0.56696961662E+03  0.56697103901E+03  0.12699999809E+01 0. -1.
       -4   -1    0    0    0  501  0.00000000000E+00  0.00000000000E+00 -0.14635825055E+04  0.14635830566E+04  0.12699999809E+01 0.  1.
    10030    2    1    2    0    0  0.00000000000E+00  0.00000000000E+00 -0.89661288892E+03  0.20305540956E+04  0.18218768516E+04 0.  0.
        1    1    3    3  502    0  0.63575948889E+03 -0.64152148763E+03 -0.58050452077E+03  0.10736505230E+04  0.50400001928E-02 0. -1.
       -1    1    3    3    0  502 -0.63575948889E+03  0.64152148763E+03 -0.31610836815E+03  0.95690357260E+03  0.50400001928E-02 0.  1.
</event>
<event>
 5   0  0.8893075E-05  0.1733451E+04  0.7818609E-02  0.8742512E-01
        2   -1    0    0  501    0  0.00000000000E+00  0.00000000000E+00  0.11677341445E+04  0.11677341445E+04  0.25500000920E-02 0. -1.
       -2   -1    0    0    0  501  0.00000000000E+00  0.00000000000E+00 -0.64330864086E+03  0.64330864086E+03  0.25500000920E-02 0.  1.
    10030    2    1    2    0    0  0.00000000000E+00  0.00000000000E+00  0.52442550368E+03  0.18110427854E+04  0.17334514304E+04 0.  0.
        1    1    3    3  502    0 -0.86767527711E+02  0.27074522557E+02  0.11627410441E+04  0.11662882874E+04  0.50400001928E-02 0. -1.
       -1    1    3    3    0  502  0.86767527711E+02 -0.27074522557E+02 -0.63831554039E+03  0.64475449805E+03  0.50400001928E-02 0.  1.
</event>
<event>
 5   0  0.9184414E-05  0.1806311E+04  0.7818609E-02  0.8702950E-01
       -2   -1    0    0    0  501  0.00000000000E+00  0.00000000000E+00  0.45840141372E+03  0.45840141373E+03  0.25500000920E-02 0.  1.
        2   -1    0    0  501    0  0.00000000000E+00  0.00000000000E+00 -0.17794233973E+04  0.17794233973E+04  0.25500000920E-02 0. -1.
    10030    2    1    2    0    0  0.00000000000E+00  0.00000000000E+00 -0.13210219836E+04  0.22378248111E+04  0.18063113806E+04 0.  0.
        5    1    3    3  502    0  0.76050890503E+03 -0.40814962593E+03 -0.33107704097E+03  0.92444253950E+03  0.46999998093E+01 0.  1.
       -5    1    3    3    0  502 -0.76050890503E+03  0.40814962593E+03 -0.98994494266E+03  0.13133822716E+04  0.46999998093E+01 0. -1.
</event>
<event>
 5   0  0.8892280E-05  0.1830809E+04  0.7818609E-02  0.8690085E-01
        2   -1    0    0  501    0  0.00000000000E+00  0.00000000000E+00  0.17455753419E+04  0.17455753419E+04  0.25500000920E-02 0.  1.
       -2   -1    0    0    0  501  0.00000000000E+00  0.00000000000E+00 -0.48005110546E+03  0.48005110547E+03  0.25500000920E-02 0. -1.
    10030    2    1    2    0    0  0.00000000000E+00  0.00000000000E+00  0.12655242364E+04  0.22256264473E+04  0.18308089715E+04 0.  0.
        4    1    3    3  502    0  0.52801986545E+03 -0.33119279624E+03 -0.18224171449E+03  0.64938994602E+03  0.12699999809E+01 0. -1.
       -4    1    3    3    0  502 -0.52801986545E+03  0.33119279624E+03  0.14477659509E+04  0.15762365013E+04  0.12699999809E+01 0.  1.
</event>
<event>
 5   0  0.4535100E-05  0.1796531E+04  0.7818609E-02  0.8708147E-01
       -1   -1    0    0    0  501  0.00000000000E+00  0.00000000000E+00  0.40550024422E+03  0.40550024425E+03  0.50400001928E-02 0. -1.
        1   -1    0    0  501    0  0.00000000000E+00  0.00000000000E+00 -0.19898398340E+04  0.19898398340E+04  0.50400001928E-02 0.  1.
    10030    2    1    2    0    0  0.00000000000E+00  0.00000000000E+00 -0.15843395898E+04  0.23953400783E+04  0.17965305883E+04 0.  0.
        1    1    3    3  502    0  0.17022340002E+03  0.86790693047E+03 -0.58286876787E+03  0.10592329519E+04  0.50400001928E-02 0. -1.
       -1    1    3    3    0  502 -0.17022340002E+03 -0.86790693047E+03 -0.10014708219E+04  0.13361071263E+04  0.50400001928E-02 0.  1.
</event>
<event>
 5   0  0.9147432E-05  0.1807050E+04  0.7818609E-02  0.8702559E-01
       -2   -1    0    0    0  501  0.00000000000E+00  0.00000000000E+00  0.89001560830E+03  0.89001560831E+03  0.25500000920E-02 0.  1.
        2   -1    0    0  501    0  0.00000000000E+00  0.00000000000E+00 -0.91723948093E+03  0.91723948093E+03  0.25500000920E-02 0. -1.
    10030    2    1    2    0    0  0.00000000000E+00  0.00000000000E+00 -0.27223872624E+02  0.18072550892E+04  0.18070500321E+04 0.  0.
        3    1    3    3  502    0 -0.12959991880E+03  0.81658160433E+03  0.35078608763E+03  0.89813837740E+03  0.10100000352E+00 0.  1.
       -3    1    3    3    0  502  0.12959991880E+03 -0.81658160433E+03 -0.37800996025E+03  0.90911671184E+03  0.10100000352E+00 0. -1.
</event>
<event>
 5   0  0.8893075E-05  0.1796713E+04  0.7818609E-02  0.8708049E-01
       -2   -1    0    0    0  501  0.00000000000E+00  0.00000000000E+00  0.48122405903E+03  0.48122405904E+03  0.25500000920E-02 0.  1.
        2   -1    0    0  501    0  0.00000000000E+00  0.00000000000E+00 -0.16770658278E+04  0.16770658278E+04  0.25500000920E-02 0. -1.
    10030    2    1    2    0    0  0.00000000000E+00  0.00000000000E+00 -0.11958417688E+04  0.21582898868E+04  0.17967130265E+04 0.  0.
        1    1    3    3  502    0  0.22985852818E+03 -0.55921528483E+02  0.44313684448E+03  0.50232700832E+03  0.50400001928E-02 0.  1.
       -1    1    3    3    0  502 -0.22985852818E+03  0.55921528483E+02 -0.16389786132E+04  0.16559628785E+04  0.50400001928E-02 0. -1.
</event>
<event>
 5   0  0.4494757E-05  0.1802334E+04  0.7818609E-02  0.8705059E-01
       -1   -1    0    0    0  501  0.00000000000E+00  0.00000000000E+00  0.72413974808E+03  0.72413974810E+03  0.50400001928E-02 0.  1.
        1   -1    0    0  501    0  0.00000000000E+00  0.00000000000E+00 -0.11214709307E+04  0.11214709307E+04  0.50400001928E-02 0. -1.
    10030    2    1    2    0    0  0.00000000000E+00  0.00000000000E+00 -0.39733118265E+03  0.18456106788E+04  0.18023336842E+04 0.  0.
        4    1    3    3  502    0 -0.49098027836E+03 -0.34053806644E+03 -0.88945405237E+03  0.10715213169E+04  0.12699999809E+01 0. -1.
       -4    1    3    3    0  502  0.49098027836E+03  0.34053806644E+03  0.49212286972E+03  0.77408936192E+03  0.12699999809E+01 0.  1.
</event>
<event>
 5   0  0.9147432E-05  0.1810220E+04  0.7818609E-02  0.8700883E-01
        2   -1    0    0  501    0  0.00000000000E+00  0.00000000000E+00  0.10957946346E+04  0.10957946346E+04  0.25500000920E-02 0. -1.
       -2   -1    0    0    0  501  0.00000000000E+00  0.00000000000E+00 -0.74760760917E+03  0.74760760918E+03  0.25500000920E-02 0.  1.
    10030    2    1    2    0    0  0.00000000000E+00  0.00000000000E+00  0.34818702546E+03  0.18434022438E+04  0.18102203258E+04 0.  0.
        3    1    3    3  502    0 -0.85686897195E+02  0.12065824142E+03  0.10833910665E+04  0.10934518136E+04  0.10100000352E+00 0. -1.
       -3    1    3    3    0  502  0.85686897195E+02 -0.12065824142E+03 -0.73520404103E+03  0.74995043018E+03  0.10100000352E+00 0.  1.
</event>
<event>
 5   0  0.8893075E-05  0.1758442E+04  0.7818609E-02  0.8728717E-01
       -2   -1    0    0    0  501  0.00000000000E+00  0.00000000000E+00  0.53642759522E+03  0.53642759523E+03  0.25500000920E-02 0. -1.
        2   -1    0    0  501    0  0.00000000000E+00  0.00000000000E+00 -0.14410702674E+04  0.14410702674E+04  0.25500000920E-02 0.  1.
    10030    2    1    2    0    0  0.00000000000E+00  0.00000000000E+00 -0.90464267217E+03  0.19774978626E+04  0.17584423313E+04 0.  0.
        1    1    3    3  502    0  0.28987078247E+03  0.77984772855E+03 -0.77206889982E+03  0.11350233197E+04  0.50400001928E-02 0.  1.
       -1    1    3    3    0  502 -0.28987078247E+03 -0.77984772855E+03 -0.13257377235E+03  0.84247454288E+03  0.50400001928E-02 0. -1.
</event>
<event>
 5   0  0.4578107E-05  0.1837521E+04  0.7818609E-02  0.8686597E-01
       -1   -1    0    0    0  501  0.00000000000E+00  0.00000000000E+00  0.15063566129E+04  0.15063566129E+04  0.50400001928E-02 0.  1.
        1   -1    0    0  501    0  0.00000000000E+00  0.00000000000E+00 -0.56037270273E+03  0.56037270276E+03  0.50400001928E-02 0. -1.
    10030    2    1    2    0    0  0.00000000000E+00  0.00000000000E+00  0.94598391019E+03  0.20667293157E+04  0.18375212940E+04 0.  0.
        2    1    3    3  502    0 -0.41178923791E+03 -0.67102974177E+03 -0.59651569534E+02  0.78956291741E+03  0.25500000920E-02 0. -1.
       -2    1    3    3    0  502  0.41178923791E+03  0.67102974177E+03  0.10056354797E+04  0.12771663983E+04  0.25500000920E-02 0.  1.
</event>
<event>
 5   0  0.9184414E-05  0.1782031E+04  0.7818609E-02  0.8715914E-01
       -2   -1    0    0    0  501  0.00000000000E+00  0.00000000000E+00  0.20191311969E+04  0.20191311969E+04  0.25500000920E-02 0.  1.
        2   -1    0    0  501    0  0.00000000000E+00  0.00000000000E+00 -0.39319329456E+03  0.39319329457E+03  0.25500000920E-02 0. -1.
    10030    2    1    2    0    0  0.00000000000E+00  0.00000000000E+00  0.16259379023E+04  0.24123244914E+04  0.17820312539E+04 0.  0.
        5    1    3    3  502    0 -0.19089119842E+02 -0.76101763051E+03  0.18620068282E+03  0.78371232778E+03  0.46999998093E+01 0. -1.
       -5    1    3    3    0  502  0.19089119842E+02  0.76101763051E+03  0.14397372195E+04  0.16286121637E+04  0.46999998093E+01 0.  1.
</event>
<event>
 5   0  0.4535100E-05  0.1811146E+04  0.7818609E-02  0.8700395E-01
        1   -1    0    0  501    0  0.00000000000E+00  0.00000000000E+00  0.64961913834E+03  0.64961913836E+03  0.50400001928E-02 0. -1.
       -1   -1    0    0    0  501  0.00000000000E+00  0.00000000000E+00 -0.12623738729E+04  0.12623738729E+04  0.50400001928E-02 0.  1.
    10030    2    1    2    0    0  0.00000000000E+00  0.00000000000E+00 -0.61275473459E+03  0.19119930113E+04  0.18111457452E+04 0.  0.
        1    1    3    3  502    0  0.21204493164E+03  0.66797186068E+03 -0.91182037349E+03  0.11500286315E+04  0.50400001928E-02 0.  1.
       -1    1    3    3    0  502 -0.21204493164E+03 -0.66797186068E+03  0.29906563890E+03  0.76196437981E+03  0.50400001928E-02 0. -1.
</event>
<event>
 5   0  0.8893075E-05  0.1798774E+04  0.7818609E-02  0.8706952E-01
       -2   -1    0    0    0  501  0.00000000000E+00  0.00000000000E+00  0.10988427340E+04  0.10988427340E+04  0.25500000920E-02 0.  1.
        2   -1    0    0  501    0  0.00000000000E+00  0.00000000000E+00 -0.73613552621E+03  0.73613552621E+03  0.25500000920E-02 0. -1.
    10030    2    1    2    0    0  0.00000000000E+00  0.00000000000E+00  0.36270720782E+03  0.18349782602E+04  0.17987742207E+04 0.  0.
        1    1    3    3  502    0  0.47772724846E+03  0.62460204760E+02 -0.59338744775E+03  0.76435153186E+03  0.50400001928E-02 0. -1.
       -1    1    3    3    0  502 -0.47772724846E+03 -0.62460204760E+02  0.95609465556E+03  0.10706267284E+04  0.50400001928E-02 0.  1.
</event>
<event>
 5   0  0.8802655E-05  0.1752078E+04  0.7818609E-02  0.8732207E-01
       -2   -1    0    0    0  501  0.00000000000E+00  0.00000000000E+00  0.68655381722E+03  0.68655381723E+03  0.25500000920E-02 0. -1.
        2   -1    0    0  501    0  0.00000000000E+00  0.00000000000E+00 -0.11178216366E+04  0.11178216366E+04  0.25500000920E-02 0.  1.
    10030    2    1    2    0    0  0.00000000000E+00  0.00000000000E+00 -0.43126781934E+03  0.18043754538E+04  0.17520784361E+04 0.  0.
        2    1    3    3  502    0 -0.32810870376E+03 -0.74279188203E+03  0.12288658582E+03  0.82127718492E+03  0.25500000920E-02 0. -1.
       -2    1    3    3    0  502  0.32810870376E+03  0.74279188203E+03 -0.55415440516E+03  0.98309826887E+03  0.25500000920E-02 0.  1.
</event>
<event>
 5   0  0.4623665E-05  0.1800351E+04  0.7818609E-02  0.8706113E-01
        1   -1    0    0  501    0  0.00000000000E+00  0.00000000000E+00  0.76257312250E+03  0.76257312252E+03  0.50400001928E-02 0.  1.
       -1   -1    0    0    0  501  0.00000000000E+00  0.00000000000E+00 -0.10626076608E+04  0.10626076608E+04  0.50400001928E-02 0. -1.
    10030    2    1    2    0    0  0.00000000000E+00  0.00000000000E+00 -0.30003453833E+03  0.18251807834E+04  0.18003511235E+04 0.  0.
        5    1    3    3  502    0  0.37927598370E+03 -0.10149238526E+03  0.67118079238E+03  0.77759676063E+03  0.46999998093E+01 0.  1.
       -5    1    3    3    0  502 -0.37927598370E+03  0.10149238526E+03 -0.97121533071E+03  0.10475840227E+04  0.46999998093E+01 0. -1.
</event>
<event>
 5   0  0.4335117E-05  0.1795619E+04  0.7818609E-02  0.8708633E-01
       -1   -1    0    0    0  501  0.00000000000E+00  0.00000000000E+00  0.85437503846E+03  0.85437503847E+03  0.50400001928E-02 0.  1.
        1   -1    0    0  501    0  0.00000000000E+00  0.00000000000E+00 -0.94345214110E+03  0.94345214112E+03  0.50400001928E-02 0. -1.
    10030    2    1    2    0    0  0.00000000000E+00  0.00000000000E+00 -0.89077102645E+02  0.17978271796E+04  0.17956190680E+04 0.  0.
        3    1    3    3  502    0  0.17531637921E+03 -0.84304851840E+03 -0.29900717052E+03  0.91152176903E+03  0.10100000352E+00 0.  1.
       -3    1    3    3    0  502 -0.17531637921E+03  0.84304851840E+03  0.20993006788E+03  0.88630541056E+03  0.10100000352E+00 0. -1.
</event>
<event>
 5   0  0.9147432E-05  0.1804192E+04  0.7818609E-02  0.8704073E-01
       -2   -1    0    0    0  501  0.00000000000E+00  0.00000000000E+00  0.41479620620E+03  0.41479620621E+03  0.25500000920E-02 0.  1.
        2   -1    0    0  501    0  0.00000000000E+00  0.00000000000E+00 -0.19618726426E+04  0.19618726426E+04  0.25500000920E-02 0. -1.
    10030    2    1    2    0    0  0.00000000000E+00  0.00000000000E+00 -0.15470764364E+04  0.23766688488E+04  0.18041921507E+04 0.  0.
        3    1    3    3  502    0  0.55430438069E+03 -0.22737929034E+03  0.11485844324E+03  0.61003865477E+03  0.10100000352E+00 0.  1.
       -3    1    3    3    0  502 -0.55430438069E+03  0.22737929034E+03 -0.16619348796E+04  0.17666301940E+04  0.10100000352E+00 0. -1.
</event>
<event>
 5   0  0.9184414E-05  0.1805246E+04  0.7818609E-02  0.8703515E-01
        2   -1    0    0  501    0  0.00000000000E+00  0.00000000000E+00  0.17676286973E+04  0.17676286973E+04  0.25500000920E-02 0. -1.
       -2   -1    0    0    0  501  0.00000000000E+00  0.00000000000E+00 -0.46091597967E+03  0.46091597967E+03  0.25500000920E-02 0.  1.
    10030    2    1    2    0    0  0.00000000000E+00  0.00000000000E+00  0.13067127176E+04  0.22285446770E+04  0.18052460361E+04 0.  0.
        5    1    3    3  502    0 -0.68352034097E+03  0.16041653730E+03 -0.46904001441E+02  0.70367293348E+03  0.46999998093E+01 0.  1.
       -5    1    3    3    0  502  0.68352034097E+03 -0.16041653730E+03  0.13536167191E+04  0.15248717435E+04  0.46999998093E+01 0. -1.
</event>
<event>
 5   0  0.4623665E-05  0.1797454E+04  0.7818609E-02  0.8707655E-01
        1   -1    0    0  501    0  0.00000000000E+00  0.00000000000E+00  0.14773112834E+04  0.14773112834E+04  0.50400001928E-02 0.  1.
       -1   -1    0    0    0  501  0.00000000000E+00  0.00000000000E+00 -0.54674321968E+03  0.54674321971E+03  0.50400001928E-02 0. -1.
    10030    2    1    2    0    0  0.00000000000E+00  0.00000000000E+00  0.93056806373E+03  0.20240545031E+04  0.17974536741E+04 0.  0.
        5    1    3    3  502    0  0.37302079902E+03  0.58822350949E+02 -0.45305385660E+03  0.58981732125E+03  0.46999998093E+01 0. -1.
       -5    1    3    3    0  502 -0.37302079902E+03 -0.58822350949E+02  0.13836219203E+04  0.14342371819E+04  0.46999998093E+01 0.  1.
</event>
<event>
 5   0  0.8893075E-05  0.1809296E+04  0.7818609E-02  0.8701372E-01
        2   -1    0    0  501    0  0.00000000000E+00  0.00000000000E+00  0.10002091367E+04  0.10002091367E+04  0.25500000920E-02 0.  1.
       -2   -1    0    0    0  501  0.00000000000E+00  0.00000000000E+00 -0.81821650577E+03  0.81821650577E+03  0.25500000920E-02 0. -1.
    10030    2    1    2    0    0  0.00000000000E+00  0.00000000000E+00  0.18199263092E+03  0.18184256425E+04  0.18092955810E+04 0.  0.
        1    1    3    3  502    0  0.50663662446E+03  0.55670216346E+03  0.59531489401E+03  0.95968629828E+03  0.50400001928E-02 0.  1.
       -1    1    3    3    0  502 -0.50663662446E+03 -0.55670216346E+03 -0.41332226309E+03  0.85873934418E+03  0.50400001928E-02 0. -1.
</event>
<event>
 5   0  0.4535100E-05  0.1802069E+04  0.7818609E-02  0.8705200E-01
       -1   -1    0    0    0  501  0.00000000000E+00  0.00000000000E+00  0.69821491493E+03  0.69821491495E+03  0.50400001928E-02 0. -1.
        1   -1    0    0  501    0  0.00000000000E+00  0.00000000000E+00 -0.11627696576E+04  0.11627696576E+04  0.50400001928E-02 0.  1.
    10030    2    1    2    0    0  0.00000000000E+00  0.00000000000E+00 -0.46455474266E+03  0.18609845725E+04  0.18020689416E+04 0.  0.
        1    1    3    3  502    0  0.88499932762E+03 -0.89648892764E+02 -0.38050532279E+03  0.96749420389E+03  0.50400001928E-02 0. -1.
       -1    1    3    3    0  502 -0.88499932762E+03  0.89648892764E+02 -0.84049419866E+02  0.89349036865E+03  0.50400001928E-02 0.  1.
</event>
<event>
 5   0  0.9147432E-05  0.1798256E+04  0.7818609E-02  0.8707228E-01
       -2   -1    0    0    0  501  0.00000000000E+00  0.00000000000E+00  0.98533996273E+03  0.98533996273E+03  0.25500000920E-02 0. -1.
        2   -1    0    0  501    0  0.00000000000E+00  0.00000000000E+00 -0.82045868058E+03  0.82045868058E+03  0.25500000920E-02 0.  1.
    10030    2    1    2    0    0  0.00000000000E+00  0.00000000000E+00  0.16488128215E+03  0.18057986433E+04  0.17982555166E+04 0.  0.
        3    1    3    3  502    0  0.85172361074E+03  0.28806204101E+03  0.86685307042E+02  0.90328688755E+03  0.10100000352E+00 0. -1.
       -3    1    3    3    0  502 -0.85172361074E+03 -0.28806204101E+03  0.78195975110E+02  0.90251175576E+03  0.10100000352E+00 0.  1.
</event>
<event>
 5   0  0.8892280E-05  0.1805066E+04  0.7818609E-02  0.8703610E-01
        2   -1    0    0  501    0  0.00000000000E+00  0.00000000000E+00  0.13888437653E+04  0.13888437653E+04  0.25500000920E-02 0. -1.
       -2   -1    0    0    0  501  0.00000000000E+00  0.00000000000E+00 -0.58650647245E+03  0.58650647246E+03  0.25500000920E-02 0.  1.
    10030    2    1    2    0    0  0.00000000000E+00  0.00000000000E+00  0.80233729288E+03  0.19753502378E+04  0.18050660460E+04 0.  0.
        4    1    3    3  502    0 -0.96725140170E+02  0.71380797371E+03 -0.19389974758E+03  0.74597339168E+03  0.12699999809E+01 0. -1.
       -4    1    3    3    0  502  0.96725140170E+02 -0.71380797371E+03  0.99623704045E+03  0.12293768461E+04  0.12699999809E+01 0.  1.
</event>
<event>
 5   0  0.8802655E-05  0.1792700E+04  0.7818609E-02  0.8710191E-01
       -2   -1    0    0    0  501  0.00000000000E+00  0.00000000000E+00  0.80050038632E+03  0.80050038633E+03  0.25500000920E-02 0.  1.
        2   -1    0    0  501    0  0.00000000000E+00  0.00000000000E+00 -0.10036759947E+04  0.10036759947E+04  0.25500000920E-02 0. -1.
    10030    2    1    2    0    0  0.00000000000E+00  0.00000000000E+00 -0.20317560836E+03  0.18041763810E+04  0.17926996642E+04 0.  0.
        2    1    3    3  502    0  0.65288141920E+03  0.19005667986E+03  0.48616068054E+03  0.83589945353E+03  0.25500000920E-02 0.  1.
       -2    1    3    3    0  502 -0.65288141920E+03 -0.19005667986E+03 -0.68933628889E+03  0.96827692748E+03  0.25500000920E-02 0. -1.
</event>
<event>
 5   0  0.8802655E-05  0.1797053E+04  0.7818609E-02  0.8707868E-01
        2   -1    0    0  501    0  0.00000000000E+00  0.00000000000E+00  0.12766448045E+04  0.12766448045E+04  0.25500000920E-02 0.  1.
       -2   -1    0    0    0  501  0.00000000000E+00  0.00000000000E+00 -0.63239981542E+03  0.63239981543E+03  0.25500000920E-02 0. -1.
    10030    2    1    2    0    0  0.00000000000E+00  0.00000000000E+00  0.64424498912E+03  0.19090446200E+04  0.17970530752E+04 0.  0.
        2    1    3    3  502    0 -0.13857813525E+03 -0.50468220835E+03 -0.45376497994E+03  0.69268368540E+03  0.25500000920E-02 0. -1.
       -2    1    3    3    0  502  0.13857813525E+03  0.50468220835E+03  0.10980099691E+04  0.12163609346E+04  0.25500000920E-02 0.  1.
</event>
<event>
 5   0  0.8893075E-05  0.1798543E+04  0.7818609E-02  0.8707075E-01
        2   -1    0    0  501    0  0.00000000000E+00  0.00000000000E+00  0.13496412324E+04  0.13496412324E+04  0.25500000920E-02 0. -1.
       -2   -1    0    0    0  501  0.00000000000E+00  0.00000000000E+00 -0.59918822321E+03  0.59918822321E+03  0.25500000920E-02 0.  1.
    10030    2    1    2    0    0  0.00000000000E+00  0.00000000000E+00  0.75045300915E+03  0.19488294556E+04  0.17985428902E+04 0.  0.
        1    1    3    3  502    0  0.76574953193E+03 -0.36926763575E+03  0.57541517893E+02  0.85208095787E+03  0.50400001928E-02 0.  1.
       -1    1    3    3    0  502 -0.76574953193E+03  0.36926763575E+03  0.69291149126E+03  0.10967484977E+04  0.50400001928E-02 0. -1.
</event>
<event>
 5   0  0.4623665E-05  0.1801086E+04  0.7818609E-02  0.8705722E-01
        1   -1    0    0  501    0  0.00000000000E+00  0.00000000000E+00  0.11892925622E+04  0.11892925622E+04  0.50400001928E-02 0. -1.
       -1   -1    0    0    0  501  0.00000000000E+00  0.00000000000E+00 -0.68189887791E+03  0.68189887793E+03  0.50400001928E-02 0.  1.
    10030    2    1    2    0    0  0.00000000000E+00  0.00000000000E+00  0.50739368425E+03  0.18711914401E+04  0.18010855212E+04 0.  0.
        5    1    3    3  502    0  0.37912030054E+03 -0.55641158178E+03 -0.36760168777E+03  0.76712394140E+03  0.46999998093E+01 0.  1.
       -5    1    3    3    0  502 -0.37912030054E+03  0.55641158178E+03  0.87499537201E+03  0.11040674987E+04  0.46999998093E+01 0. -1.
</event>
<event>
 5   0  0.4535100E-05  0.1797146E+04  0.7818609E-02  0.8707818E-01
       -1   -1    0    0    0  501  0.00000000000E+00  0.00000000000E+00  0.10774197535E+04  0.10774197535E+04  0.50400001928E-02 0.  1.
        1   -1    0    0  501    0  0.00000000000E+00  0.00000000000E+00 -0.74941439472E+03  0.74941439474E+03  0.50400001928E-02 0. -1.
    10030    2    1    2    0    0  0.00000000000E+00  0.00000000000E+00  0.32800535880E+03  0.18268341483E+04  0.17971464854E+04 0.  0.
        1    1    3    3  502    0  0.10521266394E+03 -0.82014296728E+03 -0.19356033497E+03  0.84921716583E+03  0.50400001928E-02 0.  1.
       -1    1    3    3    0  502 -0.10521266394E+03  0.82014296728E+03  0.52156569377E+03  0.97761698245E+03  0.50400001928E-02 0. -1.
</event>
<event>
 5   0  0.8893075E-05  0.1800726E+04  0.7818609E-02  0.8705914E-01
       -2   -1    0    0    0  501  0.00000000000E+00  0.00000000000E+00  0.11943614695E+04  0.11943614695E+04  0.25500000920E-02 0.  1.
        2   -1    0    0  501    0  0.00000000000E+00  0.00000000000E+00 -0.67873361405E+03  0.67873361406E+03  0.25500000920E-02 0. -1.
    10030    2    1    2    0    0  0.00000000000E+00  0.00000000000E+00  0.51562785547E+03  0.18730950836E+04  0.18007257167E+04 0.  0.
        1    1    3    3  502    0  0.39431822201E+03 -0.65714242434E+03  0.74938467837E+03  0.10718677261E+04  0.50400001928E-02 0.  1.
       -1    1    3    3    0  502 -0.39431822201E+03  0.65714242434E+03 -0.23375682291E+03  0.80122735746E+03  0.50400001928E-02 0. -1.
</event>
<event>
 5   0  0.4578107E-05  0.1808700E+04  0.7818609E-02  0.8701687E-01
        1   -1    0    0  501    0  0.00000000000E+00  0.00000000000E+00  0.13746777058E+04  0.13746777058E+04  0.50400001928E-02 0. -1.
       -1   -1    0    0    0  501  0.00000000000E+00  0.00000000000E+00 -0.59493858136E+03  0.59493858139E+03  0.50400001928E-02 0.  1.
    10030    2    1    2    0    0  0.00000000000E+00  0.00000000000E+00  0.77973912447E+03  0.19696162872E+04  0.18086998692E+04 0.  0.
        2    1    3    3  502    0 -0.46606292427E+03 -0.71972709374E+03  0.70289258705E+03  0.11087288793E+04  0.25500000920E-02 0. -1.
       -2    1    3    3    0  502  0.46606292427E+03  0.71972709374E+03  0.76846537425E+02  0.86088740794E+03  0.25500000920E-02 0.  1.
</event>
<event>
 5   0  0.4335117E-05  0.1800939E+04  0.7818609E-02  0.8705800E-01
       -1   -1    0    0    0  501  0.00000000000E+00  0.00000000000E+00  0.44469868031E+03  0.44469868033E+03  0.50400001928E-02 0. -1.
        1   -1    0    0  501    0  0.00000000000E+00  0.00000000000E+00 -0.18233587478E+04  0.18233587478E+04  0.50400001928E-02 0.  1.
    10030    2    1    2    0    0  0.00000000000E+00  0.00000000000E+00 -0.13786600675E+04  0.22680574282E+04  0.18009388984E+04 0.  0.
        3    1    3    3  502    0 -0.44482683098E+03  0.37969644034E+03  0.17295559878E+03  0.60988027163E+03  0.10100000352E+00 0. -1.
       -3    1    3    3    0  502  0.44482683098E+03 -0.37969644034E+03 -0.15516156663E+04  0.16581771565E+04  0.10100000352E+00 0.  1.
</event>
<event>
 5   0  0.4494757E-05  0.1802392E+04  0.7818609E-02  0.8705028E-01
       -1   -1    0    0    0  501  0.00000000000E+00  0.00000000000E+00  0.55781048386E+03  0.55781048389E+03  0.50400001928E-02 0.  1.
        1   -1    0    0  501    0  0.00000000000E+00  0.00000000000E+00 -0.14559688193E+04  0.14559688193E+04  0.50400001928E-02 0. -1.
    10030    2    1    2    0    0  0.00000000000E+00  0.00000000000E+00 -0.89815833544E+03  0.20137793032E+04  0.18023924896E+04 0.  0.
        4    1    3    3  502    0  0.45610214713E+03  0.27720899404E+03  0.36222324538E+03  0.64504363216E+03  0.12699999809E+01 0.  1.
       -4    1    3    3    0  502 -0.45610214713E+03 -0.27720899404E+03 -0.12603815808E+04  0.13687356710E+04  0.12699999809E+01 0. -1.
</event>
<event>
 5   0  0.8893075E-05  0.1891134E+04  0.7818609E-02  0.8659282E-01
       -2   -1    0    0    0  501  0.00000000000E+00  0.00000000000E+00  0.80188912355E+03  0.80188912355E+03  0.25500000920E-02 0.  1.
        2   -1    0    0  501    0  0.00000000000E+00  0.00000000000E+00 -0.11149887400E+04  0.11149887400E+04  0.25500000920E-02 0. -1.
    10030    2    1    2    0    0  0.00000000000E+00  0.00000000000E+00 -0.31309961646E+03  0.19168778636E+04  0.18911344146E+04 0.  0.
        1    1    3    3  502    0 -0.91940099336E+03  0.21964215495E+03 -0.13263884459E+03  0.95453335507E+03  0.50400001928E-02 0. -1.
       -1    1    3    3    0  502  0.91940099336E+03 -0.21964215495E+03 -0.18046077187E+03  0.96234450849E+03  0.50400001928E-02 0.  1.
</event>
<event>
 5   0  0.4578107E-05  0.1816816E+04  0.7818609E-02  0.8697408E-01
        1   -1    0    0  501    0  0.00000000000E+00  0.00000000000E+00  0.17970883346E+04  0.17970883346E+04  0.50400001928E-02 0. -1.
       -1   -1    0    0    0  501  0.00000000000E+00  0.00000000000E+00 -0.45919018034E+03  0.45919018036E+03  0.50400001928E-02 0.  1.
    10030    2    1    2    0    0  0.00000000000E+00  0.00000000000E+00  0.13378981543E+04  0.22562785150E+04  0.18168162444E+04 0.  0.
        2    1    3    3  502    0  0.63417052999E+02  0.59360974330E+03 -0.18136747103E+03  0.62392981136E+03  0.25500000920E-02 0.  1.
       -2    1    3    3    0  502 -0.63417052999E+02 -0.59360974330E+03  0.15192656253E+04  0.16323487036E+04  0.25500000920E-02 0. -1.
</event>
<event>
 5   0  0.4335117E-05  0.1799053E+04  0.7818609E-02  0.8706803E-01
        1   -1    0    0  501    0  0.00000000000E+00  0.00000000000E+00  0.15820800092E+04  0.15820800092E+04  0.50400001928E-02 0. -1.
       -1   -1    0    0    0  501  0.00000000000E+00  0.00000000000E+00 -0.51144548879E+03  0.51144548881E+03  0.50400001928E-02 0.  1.
    10030    2    1    2    0    0  0.00000000000E+00  0.00000000000E+00  0.10706345204E+04  0.20935254981E+04  0.17990527326E+04 0.  0.
        3    1    3    3  502    0  0.60495069203E+03  0.60884052771E+03  0.22199588614E+03  0.88652936310E+03  0.10100000352E+00 0.  1.
       -3    1    3    3    0  502 -0.60495069203E+03 -0.60884052771E+03  0.84863863431E+03  0.12069961350E+04  0.10100000352E+00 0. -1.
</event>
<event>
 5   0  0.4623665E-05  0.1807913E+04  0.7818609E-02  0.8702103E-01
       -1   -1    0    0    0  501  0.00000000000E+00  0.00000000000E+00  0.75077196430E+03  0.75077196432E+03  0.50400001928E-02 0. -1.
        1   -1    0    0  501    0  0.00000000000E+00  0.00000000000E+00 -0.10883961856E+04  0.10883961857E+04  0.50400001928E-02 0.  1.
    10030    2    1    2    0    0  0.00000000000E+00  0.00000000000E+00 -0.33762422135E+03  0.18391681500E+04  0.18079129871E+04 0.  0.
        5    1    3    3  502    0  0.62510648890E+03 -0.11519168252E+03 -0.82264265561E+03  0.10396106363E+04  0.46999998093E+01 0.  1.
       -5    1    3    3    0  502 -0.62510648890E+03  0.11519168252E+03  0.48501843426E+03  0.79955751373E+03  0.46999998093E+01 0. -1.
</event>
<event>
 5   0  0.8893075E-05  0.1793915E+04  0.7818609E-02  0.8709542E-01
        2   -1    0    0  501    0  0.00000000000E+00  0.00000000000E+00  0.17191303654E+04  0.17191303654E+04  0.25500000920E-02 0.  1.
       -2   -1    0    0    0  501  0.00000000000E+00  0.00000000000E+00 -0.46798797728E+03  0.46798797729E+03  0.25500000920E-02 0. -1.
    10030    2    1    2    0    0  0.00000000000E+00  0.00000000000E+00  0.12511423881E+04  0.21871183427E+04  0.17939145380E+04 0.  0.
        1    1    3    3  502    0 -0.16702674444E+03 -0.75956812522E+03  0.11703866541E+04  0.14052211891E+04  0.50400001928E-02 0.  1.
       -1    1    3    3    0  502  0.16702674444E+03  0.75956812522E+03  0.80755734064E+02  0.78189715361E+03  0.50400001928E-02 0. -1.
</event>
<event>
 5   0  0.4623665E-05  0.1805425E+04  0.7818609E-02  0.8703420E-01
       -1   -1    0    0    0  501  0.00000000000E+00  0.00000000000E+00  0.35069271998E+03  0.35069272002E+03  0.50400001928E-02 0. -1.
        1   -1    0    0  501    0  0.00000000000E+00  0.00000000000E+00 -0.23236566242E+04  0.23236566242E+04  0.50400001928E-02 0.  1.
    10030    2    1    2    0    0  0.00000000000E+00  0.00000000000E+00 -0.19729639042E+04  0.26743493442E+04  0.18054245616E+04 0.  0.
        5    1    3    3  502    0  0.26572880899E+03 -0.27311975640E+03  0.22569591469E+03  0.44290736861E+03  0.46999998093E+01 0. -1.
       -5    1    3    3    0  502 -0.26572880899E+03  0.27311975640E+03 -0.21986598189E+04  0.22314419756E+04  0.46999998093E+01 0.  1.
</event>
<event>
 5   0  0.8802655E-05  0.1811551E+04  0.7818609E-02  0.8700181E-01
        2   -1    0    0  501    0  0.00000000000E+00  0.00000000000E+00  0.97230192048E+03  0.97230192048E+03  0.25500000920E-02 0. -1.
       -2   -1    0    0    0  501  0.00000000000E+00  0.00000000000E+00 -0.84380094870E+03  0.84380094870E+03  0.25500000920E-02 0.  1.
    10030    2    1    2    0    0  0.00000000000E+00  0.00000000000E+00  0.12850097178E+03  0.18161028692E+04  0.18115510293E+04 0.  0.
        2    1    3    3  502    0  0.67435852661E+03 -0.35008990142E+03  0.55854812286E+03  0.94302617516E+03  0.25500000920E-02 0. -1.
       -2    1    3    3    0  502 -0.67435852661E+03  0.35008990142E+03 -0.43004715108E+03  0.87307669402E+03  0.25500000920E-02 0.  1.
</event>
<event>
 5   0  0.4578107E-05  0.1799315E+04  0.7818609E-02  0.8706664E-01
       -1   -1    0    0    0  501  0.00000000000E+00  0.00000000000E+00  0.30812355590E+03  0.30812355594E+03  0.50400001928E-02 0.  1.
        1   -1    0    0  501    0  0.00000000000E+00  0.00000000000E+00 -0.26268146745E+04  0.26268146745E+04  0.50400001928E-02 0. -1.
    10030    2    1    2    0    0  0.00000000000E+00  0.00000000000E+00 -0.23186911186E+04  0.29349382305E+04  0.17993148454E+04 0.  0.
        2    1    3    3  502    0 -0.12077332010E+03 -0.83080801849E+03 -0.16867756091E+04  0.18841550132E+04  0.25500000920E-02 0. -1.
       -2    1    3    3    0  502  0.12077332010E+03  0.83080801849E+03 -0.63191550954E+03  0.10507832172E+04  0.25500000920E-02 0.  1.
</event>
<event>
 5   0  0.9184414E-05  0.1757536E+04  0.7818609E-02  0.8729213E-01
       -2   -1    0    0    0  501  0.00000000000E+00  0.00000000000E+00  0.27346851867E+03  0.27346851868E+03  0.25500000920E-02 0. -1.
        2   -1    0    0  501    0  0.00000000000E+00  0.00000000000E+00 -0.28238481386E+04  0.28238481386E+04  0.25500000920E-02 0.  1.
    10030    2    1    2    0    0  0.00000000000E+00  0.00000000000E+00 -0.25503796199E+04  0.30973166573E+04  0.17575364206E+04 0.  0.
        5    1    3    3  502    0  0.63059042318E+02  0.42632435522E+03 -0.26248015043E+04  0.26599499856E+04  0.46999998093E+01 0.  1.
       -5    1    3    3    0  502 -0.63059042318E+02 -0.42632435522E+03  0.74421884373E+02  0.43736667173E+03  0.46999998093E+01 0. -1.
</event>
<event>
 5   0  0.8892280E-05  0.1836186E+04  0.7818609E-02  0.8687289E-01
        2   -1    0    0  501    0  0.00000000000E+00  0.00000000000E+00  0.15076588529E+04  0.15076588529E+04  0.25500000920E-02 0. -1.
       -2   -1    0    0    0  501  0.00000000000E+00  0.00000000000E+00 -0.55907517879E+03  0.55907517879E+03  0.25500000920E-02 0.  1.
    10030    2    1    2    0    0  0.00000000000E+00  0.00000000000E+00  0.94858367416E+03  0.20667340317E+04  0.18361858760E+04 0.  0.
        4    1    3    3  502    0  0.12534040282E+03  0.30650613573E+03 -0.48951516173E+03  0.59100163645E+03  0.12699999809E+01 0.  1.
       -4    1    3    3    0  502 -0.12534040282E+03 -0.30650613573E+03  0.14380988359E+04  0.14757323953E+04  0.12699999809E+01 0. -1.
</event>
<event>
 5   0  0.8892280E-05  0.1800715E+04  0.7818609E-02  0.8705920E-01
       -2   -1    0    0    0  501  0.00000000000E+00  0.00000000000E+00  0.47558540407E+03  0.47558540408E+03  0.25500000920E-02 0. -1.
        2   -1    0    0  501    0  0.00000000000E+00  0.00000000000E+00 -0.17045168788E+04  0.17045168788E+04  0.25500000920E-02 0.  1.
    10030    2    1    2    0    0  0.00000000000E+00  0.00000000000E+00 -0.12289314747E+04  0.21801022829E+04  0.18007146898E+04 0.  0.
        4    1    3    3  502    0  0.77626316868E+03 -0.38160267867E+03 -0.91698404992E+03  0.12605817991E+04  0.12699999809E+01 0.  1.
       -4    1    3    3    0  502 -0.77626316868E+03  0.38160267867E+03 -0.31194742479E+03  0.91952048381E+03  0.12699999809E+01 0. -1.
</event>
<event>
 5   0  0.4623665E-05  0.1796412E+04  0.7818609E-02  0.8708210E-01
        1   -1    0    0  501    0  0.00000000000E+00  0.00000000000E+00  0.68068218922E+03  0.68068218924E+03  0.50400001928E-02 0.  1.
       -1   -1    0    0    0  501  0.00000000000E+00  0.00000000000E+00 -0.11852431317E+04  0.11852431317E+04  0.50400001928E-02 0. -1.
    10030    2    1    2    0    0  0.00000000000E+00  0.00000000000E+00 -0.50456094243E+03  0.18659253209E+04  0.17964118566E+04 0.  0.
        5    1    3    3  502    0  0.33972755963E+02  0.85168242015E+03 -0.54649863454E+03  0.10125215753E+04  0.46999998093E+01 0. -1.
       -5    1    3    3    0  502 -0.33972755963E+02 -0.85168242015E+03  0.41937692108E+02  0.85340374558E+03  0.46999998093E+01 0.  1.
</event>
<event>
 5   0  0.3270375E-05  0.1799342E+04  0.7818609E-02  0.8706649E-01
        3   -1    0    0  501    0  0.00000000000E+00  0.00000000000E+00  0.69452317163E+03  0.69452317898E+03  0.10100000352E+00 0. -1.
       -3   -1    0    0    0  501  0.00000000000E+00  0.00000000000E+00 -0.11654156049E+04  0.11654156092E+04  0.10100000352E+00 0.  1.
    10030    2    1    2    0    0  0.00000000000E+00  0.00000000000E+00 -0.47089243323E+03  0.18599387882E+04  0.17993422721E+04 0.  0.
        2    1    3    3  502    0  0.29021274964E+03 -0.81693680783E+03 -0.48395680602E+03  0.99288638733E+03  0.25500000920E-02 0.  1.
       -2    1    3    3    0  502 -0.29021274964E+03  0.81693680783E+03  0.13064372791E+02  0.86705240089E+03  0.25500000920E-02 0. -1.
</event>
<event>
 5   0  0.4623665E-05  0.1806414E+04  0.7818609E-02  0.8702896E-01
        1   -1    0    0  501    0  0.00000000000E+00  0.00000000000E+00  0.13589114499E+04  0.13589114499E+04  0.50400001928E-02 0. -1.
       -1   -1    0    0    0  501  0.00000000000E+00  0.00000000000E+00 -0.60032083146E+03  0.60032083148E+03  0.50400001928E-02 0.  1.
    10030    2    1    2    0    0  0.00000000000E+00  0.00000000000E+00  0.75859061842E+03  0.19592322814E+04  0.18064139631E+04 0.  0.
        5    1    3    3  502    0 -0.42318370162E+03  0.35866725710E+02  0.12438426869E+04  0.13143582415E+04  0.46999998093E+01 0. -1.
       -5    1    3    3    0  502  0.42318370162E+03 -0.35866725710E+02 -0.48525206846E+03  0.64487403985E+03  0.46999998093E+01 0.  1.
</event>
<event>
 5   0  0.8892280E-05  0.1799252E+04  0.7818609E-02  0.8706697E-01
        2   -1    0    0  501    0  0.00000000000E+00  0.00000000000E+00  0.12775480968E+04  0.12775480968E+04  0.25500000920E-02 0.  1.
       -2   -1    0    0    0  501  0.00000000000E+00  0.00000000000E+00 -0.63350031014E+03  0.63350031015E+03  0.25500000920E-02 0. -1.
    10030    2    1    2    0    0  0.00000000000E+00  0.00000000000E+00  0.64404778661E+03  0.19110484069E+04  0.17992521952E+04 0.  0.
        4    1    3    3  502    0  0.40336928603E+03 -0.78592176136E+03  0.50272954078E+03  0.10164243208E+04  0.12699999809E+01 0. -1.
       -4    1    3    3    0  502 -0.40336928603E+03  0.78592176136E+03  0.14131824584E+03  0.89462408608E+03  0.12699999809E+01 0.  1.
</event>
<event>
 5   0  0.9184414E-05  0.1800469E+04  0.7818609E-02  0.8706050E-01
       -2   -1    0    0    0  501  0.00000000000E+00  0.00000000000E+00  0.11908582272E+04  0.11908582272E+04  0.25500000920E-02 0.  1.
        2   -1    0    0  501    0  0.00000000000E+00  0.00000000000E+00 -0.68053650018E+03  0.68053650018E+03  0.25500000920E-02 0. -1.
    10030    2    1    2    0    0  0.00000000000E+00  0.00000000000E+00  0.51032172705E+03  0.18713947274E+04  0.18004693723E+04 0.  0.
        5    1    3    3  502    0  0.83603737846E+03  0.26188259677E+03  0.39980446415E+02  0.87701853958E+03  0.46999998093E+01 0. -1.
       -5    1    3    3    0  502 -0.83603737846E+03 -0.26188259677E+03  0.47034128064E+03  0.99437618784E+03  0.46999998093E+01 0.  1.
</event>
<event>
 5   0  0.4335117E-05  0.1785575E+04  0.7818609E-02  0.8714008E-01
       -1   -1    0    0    0  501  0.00000000000E+00  0.00000000000E+00  0.61596970346E+03  0.61596970348E+03  0.50400001928E-02 0.  1.
        1   -1    0    0  501    0  0.00000000000E+00  0.00000000000E+00 -0.12940078134E+04  0.12940078134E+04  0.50400001928E-02 0. -1.
    10030    2    1    2    0    0  0.00000000000E+00  0.00000000000E+00 -0.67803810992E+03  0.19099775169E+04  0.17855750996E+04 0.  0.
        3    1    3    3  502    0  0.83136405359E+03 -0.18650000383E+03 -0.53753363135E+02  0.85372002160E+03  0.10100000352E+00 0. -1.
       -3    1    3    3    0  502 -0.83136405359E+03  0.18650000383E+03 -0.62428474678E+03  0.10562574953E+04  0.10100000352E+00 0.  1.
</event>
<event>
 5   0  0.8892280E-05  0.1810357E+04  0.7818609E-02  0.8700811E-01
        2   -1    0    0  501    0  0.00000000000E+00  0.00000000000E+00  0.14148541673E+04  0.14148541673E+04  0.25500000920E-02 0.  1.
       -2   -1    0    0    0  501  0.00000000000E+00  0.00000000000E+00 -0.57910415629E+03  0.57910415630E+03  0.25500000920E-02 0. -1.
    10030    2    1    2    0    0  0.00000000000E+00  0.00000000000E+00  0.83575001105E+03  0.19939583236E+04  0.18103567923E+04 0.  0.
        4    1    3    3  502    0  0.12980934041E+03 -0.57561250976E+03  0.11739048054E+04  0.13138623715E+04  0.12699999809E+01 0.  1.
       -4    1    3    3    0  502 -0.12980934041E+03  0.57561250976E+03 -0.33815479435E+03  0.68009595212E+03  0.12699999809E+01 0. -1.
</event>
<event>
 5   0  0.8893075E-05  0.1810834E+04  0.7818609E-02  0.8700559E-01
        2   -1    0    0  501    0  0.00000000000E+00  0.00000000000E+00  0.10938711861E+04  0.10938711862E+04  0.25500000920E-02 0. -1.
       -2   -1    0    0    0  501  0.00000000000E+00  0.00000000000E+00 -0.74943034011E+03  0.74943034012E+03  0.25500000920E-02 0.  1.
    10030    2    1    2    0    0  0.00000000000E+00  0.00000000000E+00  0.34444084604E+03  0.18433015263E+04  0.18108343437E+04 0.  0.
        1    1    3    3  502    0 -0.10903777802E+03  0.48918185606E+03  0.93979058181E+03  0.10650795571E+04  0.50400001928E-02 0. -1.
       -1    1    3    3    0  502  0.10903777802E+03 -0.48918185606E+03 -0.59534973577E+03  0.77822196914E+03  0.50400001928E-02 0.  1.
</event>
<event>
 5   0  0.4335117E-05  0.1806701E+04  0.7818609E-02  0.8702744E-01
       -1   -1    0    0    0  501  0.00000000000E+00  0.00000000000E+00  0.10090750113E+04  0.10090750113E+04  0.50400001928E-02 0.  1.
        1   -1    0    0  501    0  0.00000000000E+00  0.00000000000E+00 -0.80870351907E+03  0.80870351908E+03  0.50400001928E-02 0. -1.
    10030    2    1    2    0    0  0.00000000000E+00  0.00000000000E+00  0.20037149224E+03  0.18177785304E+04  0.18067014282E+04 0.  0.
        3    1    3    3  502    0  0.55781447714E+03  0.18022895927E+03  0.79171557958E+03  0.98511574843E+03  0.10100000352E+00 0. -1.
       -3    1    3    3    0  502 -0.55781447714E+03 -0.18022895927E+03 -0.59134408733E+03  0.83266278198E+03  0.10100000352E+00 0.  1.
</event>
<event>
 5   0  0.9147432E-05  0.1806369E+04  0.7818609E-02  0.8702920E-01
        2   -1    0    0  501    0  0.00000000000E+00  0.00000000000E+00  0.12230925863E+04  0.12230925863E+04  0.25500000920E-02 0. -1.
       -2   -1    0    0    0  501  0.00000000000E+00  0.00000000000E+00 -0.66695030395E+03  0.66695030396E+03  0.25500000920E-02 0.  1.
    10030    2    1    2    0    0  0.00000000000E+00  0.00000000000E+00  0.55614228237E+03  0.18900428903E+04  0.18063687024E+04 0.  0.
        3    1    3    3  502    0  0.40206424375E+03 -0.50604732959E+03  0.93816867241E+03  0.11392541525E+04  0.10100000352E+00 0. -1.
       -3    1    3    3    0  502 -0.40206424375E+03  0.50604732959E+03 -0.38202639005E+03  0.75078873778E+03  0.10100000352E+00 0.  1.
</event>
<event>
 5   0  0.4335117E-05  0.1800968E+04  0.7818609E-02  0.8705785E-01
       -1   -1    0    0    0  501  0.00000000000E+00  0.00000000000E+00  0.49220108835E+03  0.49220108838E+03  0.50400001928E-02 0.  1.
        1   -1    0    0  501    0  0.00000000000E+00  0.00000000000E+00 -0.16474389630E+04  0.16474389630E+04  0.50400001928E-02 0. -1.
    10030    2    1    2    0    0  0.00000000000E+00  0.00000000000E+00 -0.11552378746E+04  0.21396400514E+04  0.18009677961E+04 0.  0.
        3    1    3    3  502    0 -0.61283781173E+03  0.52075750979E+03 -0.10589078213E+04  0.13296782888E+04  0.10100000352E+00 0. -1.
       -3    1    3    3    0  502  0.61283781173E+03 -0.52075750979E+03 -0.96330053363E+02  0.80996176259E+03  0.10100000352E+00 0.  1.
</event>
<event>
 5   0  0.4623665E-05  0.1805819E+04  0.7818609E-02  0.8703211E-01
       -1   -1    0    0    0  501  0.00000000000E+00  0.00000000000E+00  0.16293698388E+04  0.16293698388E+04  0.50400001928E-02 0.  1.
        1   -1    0    0  501    0  0.00000000000E+00  0.00000000000E+00 -0.50034389922E+03  0.50034389924E+03  0.50400001928E-02 0. -1.
    10030    2    1    2    0    0  0.00000000000E+00  0.00000000000E+00  0.11290259396E+04  0.21297137380E+04  0.18058186603E+04 0.  0.
        5    1    3    3  502    0  0.76094828596E+03  0.27537342408E+03  0.10367739395E+04  0.13152167533E+04  0.46999998093E+01 0. -1.
       -5    1    3    3    0  502 -0.76094828596E+03 -0.27537342408E+03  0.92252000075E+02  0.81449698472E+03  0.46999998093E+01 0.  1.
</event>
<event>
 5   0  0.4535100E-05  0.1866947E+04  0.7818609E-02  0.8671486E-01
       -1   -1    0    0    0  501  0.00000000000E+00  0.00000000000E+00  0.51000127862E+03  0.51000127864E+03  0.50400001928E-02 0.  1.
        1   -1    0    0  501    0  0.00000000000E+00  0.00000000000E+00 -0.17085706851E+04  0.17085706851E+04  0.50400001928E-02 0. -1.
    10030    2    1    2    0    0  0.00000000000E+00  0.00000000000E+00 -0.11985694065E+04  0.22185719638E+04  0.18669474915E+04 0.  0.
        1    1    3    3  502    0 -0.70529269853E+03  0.30552098693E+02  0.12648194133E+03  0.71719516371E+03  0.50400001928E-02 0.  1.
       -1    1    3    3    0  502  0.70529269853E+03 -0.30552098693E+02 -0.13250513478E+04  0.15013768001E+04  0.50400001928E-02 0. -1.
</event>
<event>
 5   0  0.4535100E-05  0.1792160E+04  0.7818609E-02  0.8710480E-01
        1   -1    0    0  501    0  0.00000000000E+00  0.00000000000E+00  0.22175789672E+04  0.22175789672E+04  0.50400001928E-02 0. -1.
       -1   -1    0    0    0  501  0.00000000000E+00  0.00000000000E+00 -0.36208830632E+03  0.36208830636E+03  0.50400001928E-02 0.  1.
    10030    2    1    2    0    0  0.00000000000E+00  0.00000000000E+00  0.18554906609E+04  0.25796672736E+04  0.17921600514E+04 0.  0.
        1    1    3    3  502    0  0.25866371949E+03  0.14105479221E+03  0.21458671731E+04  0.21659984531E+04  0.50400001928E-02 0. -1.
       -1    1    3    3    0  502 -0.25866371949E+03 -0.14105479221E+03 -0.29037651220E+03  0.41366882049E+03  0.50400001928E-02 0.  1.
</event>
<event>
 5   0  0.9147432E-05  0.1801313E+04  0.7818609E-02  0.8705601E-01
       -2   -1    0    0    0  501  0.00000000000E+00  0.00000000000E+00  0.95196493674E+03  0.95196493674E+03  0.25500000920E-02 0.  1.
        2   -1    0    0  501    0  0.00000000000E+00  0.00000000000E+00 -0.85211357416E+03  0.85211357416E+03  0.25500000920E-02 0. -1.
    10030    2    1    2    0    0  0.00000000000E+00  0.00000000000E+00  0.99851362586E+02  0.18040785109E+04  0.18013131263E+04 0.  0.
        3    1    3    3  502    0 -0.32122532138E+03 -0.30031755619E+03  0.83713865511E+03  0.94560958103E+03  0.10100000352E+00 0.  1.
       -3    1    3    3    0  502  0.32122532138E+03  0.30031755619E+03 -0.73728729252E+03  0.85846892988E+03  0.10100000352E+00 0. -1.
</event>
<event>
 5   0  0.4535100E-05  0.1797993E+04  0.7818609E-02  0.8707368E-01
       -1   -1    0    0    0  501  0.00000000000E+00  0.00000000000E+00  0.91483628044E+03  0.91483628045E+03  0.50400001928E-02 0.  1.
        1   -1    0    0  501    0  0.00000000000E+00  0.00000000000E+00 -0.88343086685E+03  0.88343086687E+03  0.50400001928E-02 0. -1.
    10030    2    1    2    0    0  0.00000000000E+00  0.00000000000E+00  0.31405413584E+02  0.17982671473E+04  0.17979928902E+04 0.  0.
        1    1    3    3  502    0  0.15847971162E+03 -0.97237883438E+02 -0.86399020035E+03  0.88377038381E+03  0.50400001928E-02 0. -1.
       -1    1    3    3    0  502 -0.15847971162E+03  0.97237883438E+02  0.89539561394E+03  0.91449676350E+03  0.50400001928E-02 0.  1.
</event>
<event>
 5   0  0.4578107E-05  0.1795711E+04  0.7818609E-02  0.8708584E-01
        1   -1    0    0  501    0  0.00000000000E+00  0.00000000000E+00  0.14467916964E+04  0.14467916964E+04  0.50400001928E-02 0. -1.
       -1   -1    0    0    0  501  0.00000000000E+00  0.00000000000E+00 -0.55719459765E+03  0.55719459767E+03  0.50400001928E-02 0.  1.
    10030    2    1    2    0    0  0.00000000000E+00  0.00000000000E+00  0.88959709874E+03  0.20039862941E+04  0.17957110204E+04 0.  0.
        2    1    3    3  502    0 -0.25204482900E+03  0.65577943992E+03 -0.17912706025E+03  0.72502398123E+03  0.25500000920E-02 0.  1.
       -2    1    3    3    0  502  0.25204482900E+03 -0.65577943992E+03  0.10687241590E+04  0.12789623128E+04  0.25500000920E-02 0. -1.
</event>
<event>
 5   0  0.4623665E-05  0.1796927E+04  0.7818609E-02  0.8707935E-01
       -1   -1    0    0    0  501  0.00000000000E+00  0.00000000000E+00  0.48298679614E+03  0.48298679617E+03  0.50400001928E-02 0. -1.
        1   -1    0    0  501    0  0.00000000000E+00  0.00000000000E+00 -0.16713429776E+04  0.16713429776E+04  0.50400001928E-02 0.  1.
    10030    2    1    2    0    0  0.00000000000E+00  0.00000000000E+00 -0.11883561815E+04  0.21543297738E+04  0.17969269212E+04 0.  0.
        5    1    3    3  502    0 -0.29484638348E+03 -0.47126207559E+03 -0.14403921090E+04  0.15439474899E+04  0.46999998093E+01 0.  1.
       -5    1    3    3    0  502  0.29484638348E+03  0.47126207559E+03  0.25203592755E+03  0.61038228392E+03  0.46999998093E+01 0. -1.
</event>
<event>
 5   0  0.8892280E-05  0.1802517E+04  0.7818609E-02  0.8704962E-01
        2   -1    0    0  501    0  0.00000000000E+00  0.00000000000E+00  0.93067620942E+03  0.93067620942E+03  0.25500000920E-02 0. -1.
       -2   -1    0    0    0  501  0.00000000000E+00  0.00000000000E+00 -0.87277048370E+03  0.87277048370E+03  0.25500000920E-02 0.  1.
    10030    2    1    2    0    0  0.00000000000E+00  0.00000000000E+00  0.57905725721E+02  0.18034466931E+04  0.18025168243E+04 0.  0.
        4    1    3    3  502    0  0.21012320529E+03  0.31242345543E+02 -0.84736269741E+03  0.87358628619E+03  0.12699999809E+01 0.  1.
       -4    1    3    3    0  502 -0.21012320529E+03 -0.31242345543E+02  0.90526842314E+03  0.92986040693E+03  0.12699999809E+01 0. -1.
</event>
<event>
 5   0  0.9147432E-05  0.1816664E+04  0.7818609E-02  0.8697487E-01
       -2   -1    0    0    0  501  0.00000000000E+00  0.00000000000E+00  0.34928592079E+03  0.34928592080E+03  0.25500000920E-02 0. -1.
        2   -1    0    0  501    0  0.00000000000E+00  0.00000000000E+00 -0.23621543395E+04  0.23621543395E+04  0.25500000920E-02 0.  1.
    10030    2    1    2    0    0  0.00000000000E+00  0.00000000000E+00 -0.20128684187E+04  0.27114402603E+04  0.18166642547E+04 0.  0.
        3    1    3    3  502    0 -0.95807992164E+02 -0.64698642785E+03 -0.65665612150E+02  0.65732989587E+03  0.10100000352E+00 0. -1.
       -3    1    3    3    0  502  0.95807992164E+02  0.64698642785E+03 -0.19472028066E+04  0.20541103645E+04  0.10100000352E+00 0.  1.
</event>
<event>
 5   0  0.4494757E-05  0.1798996E+04  0.7818609E-02  0.8706833E-01
        1   -1    0    0  501    0  0.00000000000E+00  0.00000000000E+00  0.88559897396E+03  0.88559897397E+03  0.50400001928E-02 0.  1.
       -1   -1    0    0    0  501  0.00000000000E+00  0.00000000000E+00 -0.91361556438E+03  0.91361556440E+03  0.50400001928E-02 0. -1.
    10030    2    1    2    0    0  0.00000000000E+00  0.00000000000E+00 -0.28016590427E+02  0.17992145384E+04  0.17989963940E+04 0.  0.
        4    1    3    3  502    0 -0.89038326988E+03 -0.12211475872E+03  0.23426337681E+02  0.89902435328E+03  0.12699999809E+01 0. -1.
       -4    1    3    3    0  502  0.89038326988E+03  0.12211475872E+03 -0.51442928108E+02  0.90019018509E+03  0.12699999809E+01 0.  1.
</event>
<event>
 5   0  0.4578107E-05  0.1860508E+04  0.7818609E-02  0.8674768E-01
        1   -1    0    0  501    0  0.00000000000E+00  0.00000000000E+00  0.13681303144E+04  0.13681303144E+04  0.50400001928E-02 0. -1.
       -1   -1    0    0    0  501  0.00000000000E+00  0.00000000000E+00 -0.63252175332E+03  0.63252175334E+03  0.50400001928E-02 0.  1.
    10030    2    1    2    0    0  0.00000000000E+00  0.00000000000E+00  0.73560856107E+03  0.20006520677E+04  0.18605076568E+04 0.  0.
        2    1    3    3  502    0  0.44268754952E+03  0.79851342310E+03  0.17611787945E+03  0.92984593392E+03  0.25500000920E-02 0.  1.
       -2    1    3    3    0  502 -0.44268754952E+03 -0.79851342310E+03  0.55949068161E+03  0.10708061338E+04  0.25500000920E-02 0. -1.
</event>
<event>
 5   0  0.4494757E-05  0.1799053E+04  0.7818609E-02  0.8706803E-01
       -1   -1    0    0    0  501  0.00000000000E+00  0.00000000000E+00  0.10463425649E+04  0.10463425649E+04  0.50400001928E-02 0.  1.
        1   -1    0    0  501    0  0.00000000000E+00  0.00000000000E+00 -0.77331073510E+03  0.77331073511E+03  0.50400001928E-02 0. -1.
    10030    2    1    2    0    0  0.00000000000E+00  0.00000000000E+00  0.27303182977E+03  0.18196533000E+04  0.17990530154E+04 0.  0.
        4    1    3    3  502    0  0.61612100530E+02  0.33721707172E+03 -0.70465286272E+03  0.78361257917E+03  0.12699999809E+01 0. -1.
       -4    1    3    3    0  502 -0.61612100530E+02 -0.33721707172E+03  0.97768469248E+03  0.10360407208E+04  0.12699999809E+01 0.  1.
</event>
<event>
 5   0  0.4535100E-05  0.1798679E+04  0.7818609E-02  0.8707002E-01
       -1   -1    0    0    0  501  0.00000000000E+00  0.00000000000E+00  0.13696699443E+04  0.13696699443E+04  0.50400001928E-02 0.  1.
        1   -1    0    0  501    0  0.00000000000E+00  0.00000000000E+00 -0.59051595722E+03  0.59051595724E+03  0.50400001928E-02 0. -1.
    10030    2    1    2    0    0  0.00000000000E+00  0.00000000000E+00  0.77915398705E+03  0.19601859015E+04  0.17986794692E+04 0.  0.
        1    1    3    3  502    0 -0.41707117494E+03  0.76343024366E+03  0.14097581530E+03  0.88127650736E+03  0.50400001928E-02 0. -1.
       -1    1    3    3    0  502  0.41707117494E+03 -0.76343024366E+03  0.63817817175E+03  0.10789093942E+04  0.50400001928E-02 0.  1.
</event>
<event>
 5   0  0.3270375E-05  0.1797464E+04  0.7818609E-02  0.8707649E-01
        3   -1    0    0  501    0  0.00000000000E+00  0.00000000000E+00  0.80126599444E+03  0.80126600080E+03  0.10100000352E+00 0. -1.
       -3   -1    0    0    0  501  0.00000000000E+00  0.00000000000E+00 -0.10080535920E+04  0.10080535970E+04  0.10100000352E+00 0.  1.
    10030    2    1    2    0    0  0.00000000000E+00  0.00000000000E+00 -0.20678759753E+03  0.18093195978E+04  0.17974638513E+04 0.  0.
        3    1    3    3  502    0  0.21083888009E+03  0.74067695428E+03  0.36298028342E+03  0.85135778631E+03  0.10100000352E+00 0. -1.
       -3    1    3    3    0  502 -0.21083888009E+03 -0.74067695428E+03 -0.56976788095E+03  0.95796181151E+03  0.10100000352E+00 0.  1.
</event>
<event>
 5   0  0.4535100E-05  0.1804245E+04  0.7818609E-02  0.8704045E-01
       -1   -1    0    0    0  501  0.00000000000E+00  0.00000000000E+00  0.40779169189E+03  0.40779169192E+03  0.50400001928E-02 0.  1.
        1   -1    0    0  501    0  0.00000000000E+00  0.00000000000E+00 -0.19956887300E+04  0.19956887301E+04  0.50400001928E-02 0. -1.
    10030    2    1    2    0    0  0.00000000000E+00  0.00000000000E+00 -0.15878970382E+04  0.24034804220E+04  0.18042453090E+04 0.  0.
        1    1    3    3  502    0 -0.34911729264E+03 -0.28539699089E+03 -0.18347900715E+04  0.18893885077E+04  0.50400001928E-02 0. -1.
       -1    1    3    3    0  502  0.34911729264E+03  0.28539699089E+03  0.24689303333E+03  0.51409191431E+03  0.50400001928E-02 0.  1.
</event>
<event>
 5   0  0.8892280E-05  0.1789984E+04  0.7818609E-02  0.8711644E-01
        2   -1    0    0  501    0  0.00000000000E+00  0.00000000000E+00  0.76142831514E+03  0.76142831515E+03  0.25500000920E-02 0. -1.
       -2   -1    0    0    0  501  0.00000000000E+00  0.00000000000E+00 -0.10519844058E+04  0.10519844058E+04  0.25500000920E-02 0.  1.
    10030    2    1    2    0    0  0.00000000000E+00  0.00000000000E+00 -0.29055609061E+03  0.18134127209E+04  0.17899840375E+04 0.  0.
        4    1    3    3  502    0  0.83214443451E+03 -0.12106846291E+03 -0.45569870660E+03  0.95644385967E+03  0.12699999809E+01 0.  1.
       -4    1    3    3    0  502 -0.83214443451E+03  0.12106846291E+03  0.16514261598E+03  0.85696886123E+03  0.12699999809E+01 0. -1.
</event>
<event>
 5   0  0.8892280E-05  0.1804199E+04  0.7818609E-02  0.8704070E-01
       -2   -1    0    0    0  501  0.00000000000E+00  0.00000000000E+00  0.65963607091E+03  0.65963607091E+03  0.25500000920E-02 0.  1.
        2   -1    0    0  501    0  0.00000000000E+00  0.00000000000E+00 -0.12336859141E+04  0.12336859141E+04  0.25500000920E-02 0. -1.
    10030    2    1    2    0    0  0.00000000000E+00  0.00000000000E+00 -0.57404984320E+03  0.18933219850E+04  0.18041992452E+04 0.  0.
        4    1    3    3  502    0  0.36958924184E+03  0.45675266427E+03 -0.10053548087E+04  0.11644565721E+04  0.12699999809E+01 0. -1.
       -4    1    3    3    0  502 -0.36958924184E+03 -0.45675266427E+03  0.43130496551E+03  0.72886541293E+03  0.12699999809E+01 0.  1.
</event>
<event>
 5   0  0.4535100E-05  0.1803078E+04  0.7818609E-02  0.8704664E-01
       -1   -1    0    0    0  501  0.00000000000E+00  0.00000000000E+00  0.10058815242E+04  0.10058815242E+04  0.50400001928E-02 0. -1.
        1   -1    0    0  501    0  0.00000000000E+00  0.00000000000E+00 -0.80802022072E+03  0.80802022074E+03  0.50400001928E-02 0.  1.
    10030    2    1    2    0    0  0.00000000000E+00  0.00000000000E+00  0.19786130352E+03  0.18139017450E+04  0.18030780474E+04 0.  0.
        1    1    3    3  502    0  0.34086905755E+03 -0.21315331616E+03  0.91071113947E+03  0.99550029140E+03  0.50400001928E-02 0. -1.
       -1    1    3    3    0  502 -0.34086905755E+03  0.21315331616E+03 -0.71284983596E+03  0.81840145359E+03  0.50400001928E-02 0.  1.
</event>
<event>
 5   0  0.4494757E-05  0.1794393E+04  0.7818609E-02  0.8709287E-01
        1   -1    0    0  501    0  0.00000000000E+00  0.00000000000E+00  0.12709288502E+04  0.12709288502E+04  0.50400001928E-02 0.  1.
       -1   -1    0    0    0  501  0.00000000000E+00  0.00000000000E+00 -0.63336504757E+03  0.63336504759E+03  0.50400001928E-02 0. -1.
    10030    2    1    2    0    0  0.00000000000E+00  0.00000000000E+00  0.63756380266E+03  0.19042938978E+04  0.17943933924E+04 0.  0.
        4    1    3    3  502    0 -0.15831464106E+03 -0.29679140968E+03  0.12014760434E+04  0.12476758242E+04  0.12699999809E+01 0.  1.
       -4    1    3    3    0  502  0.15831464106E+03  0.29679140968E+03 -0.56391224077E+03  0.65661807364E+03  0.12699999809E+01 0. -1.
</event>
<event>
 5   0  0.8892280E-05  0.1797233E+04  0.7818609E-02  0.8707772E-01
       -2   -1    0    0    0  501  0.00000000000E+00  0.00000000000E+00  0.37184599662E+03  0.37184599663E+03  0.25500000920E-02 0. -1.
        2   -1    0    0  501    0  0.00000000000E+00  0.00000000000E+00 -0.21716284976E+04  0.21716284976E+04  0.25500000920E-02 0.  1.
    10030    2    1    2    0    0  0.00000000000E+00  0.00000000000E+00 -0.17997825009E+04  0.25434744942E+04  0.17972327206E+04 0.  0.
        4    1    3    3  502    0 -0.53158679325E+03  0.63479087626E+03 -0.13941359944E+04  0.16214687044E+04  0.12699999809E+01 0.  1.
       -4    1    3    3    0  502  0.53158679325E+03 -0.63479087626E+03 -0.40564650649E+03  0.92200578982E+03  0.12699999809E+01 0. -1.
</event>
<event>
 5   0  0.8892280E-05  0.1802190E+04  0.7818609E-02  0.8705136E-01
        2   -1    0    0  501    0  0.00000000000E+00  0.00000000000E+00  0.18408334453E+04  0.18408334453E+04  0.25500000920E-02 0.  1.
       -2   -1    0    0    0  501  0.00000000000E+00  0.00000000000E+00 -0.44108943277E+03  0.44108943278E+03  0.25500000920E-02 0. -1.
    10030    2    1    2    0    0  0.00000000000E+00  0.00000000000E+00  0.13997440125E+04  0.22819228780E+04  0.18021899791E+04 0.  0.
        4    1    3    3  502    0  0.61499859421E+03 -0.63086542571E+03  0.93930033322E+03  0.12878280883E+04  0.12699999809E+01 0.  1.
       -4    1    3    3    0  502 -0.61499859421E+03  0.63086542571E+03  0.46044367927E+03  0.99409478970E+03  0.12699999809E+01 0. -1.
</event>
<event>
 5   0  0.9184414E-05  0.1816965E+04  0.7818609E-02  0.8697330E-01
       -2   -1    0    0    0  501  0.00000000000E+00  0.00000000000E+00  0.49111138495E+03  0.49111138496E+03  0.25500000920E-02 0.  1.
        2   -1    0    0  501    0  0.00000000000E+00  0.00000000000E+00 -0.16805560319E+04  0.16805560319E+04  0.25500000920E-02 0. -1.
    10030    2    1    2    0    0  0.00000000000E+00  0.00000000000E+00 -0.11894446469E+04  0.21716674168E+04  0.18169647221E+04 0.  0.
        5    1    3    3  502    0  0.27109693536E+03 -0.11131170402E+03 -0.16224939083E+04  0.16487548079E+04  0.46999998093E+01 0. -1.
       -5    1    3    3    0  502 -0.27109693536E+03  0.11131170402E+03  0.43304926142E+03  0.52291260898E+03  0.46999998093E+01 0.  1.
</event>
<event>
 5   0  0.8893075E-05  0.1799317E+04  0.7818609E-02  0.8706663E-01
       -2   -1    0    0    0  501  0.00000000000E+00  0.00000000000E+00  0.60211885830E+03  0.60211885831E+03  0.25500000920E-02 0.  1.
        2   -1    0    0  501    0  0.00000000000E+00  0.00000000000E+00 -0.13442282946E+04  0.13442282946E+04  0.25500000920E-02 0. -1.
    10030    2    1    2    0    0  0.00000000000E+00  0.00000000000E+00 -0.74210943629E+03  0.19463471529E+04  0.17993167659E+04 0.  0.
        1    1    3    3  502    0  0.77918984189E+03  0.11218125820E+03  0.10003633609E+03  0.79355448015E+03  0.50400001928E-02 0.  1.
       -1    1    3    3    0  502 -0.77918984189E+03 -0.11218125820E+03 -0.84214577238E+03  0.11527926728E+04  0.50400001928E-02 0. -1.
</event>
<event>
 5   0  0.4623665E-05  0.1804485E+04  0.7818609E-02  0.8703918E-01
       -1   -1    0    0    0  501  0.00000000000E+00  0.00000000000E+00  0.11959737281E+04  0.11959737281E+04  0.50400001928E-02 0.  1.
        1   -1    0    0  501    0  0.00000000000E+00  0.00000000000E+00 -0.68065203723E+03  0.68065203725E+03  0.50400001928E-02 0. -1.
    10030    2    1    2    0    0  0.00000000000E+00  0.00000000000E+00  0.51532169082E+03  0.18766257653E+04  0.18044854718E+04 0.  0.
        5    1    3    3  502    0 -0.75907177338E+03 -0.45776313113E+03  0.43255917585E+03  0.98633998802E+03  0.46999998093E+01 0.  1.
       -5    1    3    3    0  502  0.75907177338E+03  0.45776313113E+03  0.82762514974E+02  0.89028577729E+03  0.46999998093E+01 0. -1.
</event>
<event>
 5   0  0.9184414E-05  0.1802005E+04  0.7818609E-02  0.8705234E-01
       -2   -1    0    0    0  501  0.00000000000E+00  0.00000000000E+00  0.10641398797E+04  0.10641398797E+04  0.25500000920E-02 0.  1.
        2   -1    0    0  501    0  0.00000000000E+00  0.00000000000E+00 -0.76287483734E+03  0.76287483734E+03  0.25500000920E-02 0. -1.
    10030    2    1    2    0    0  0.00000000000E+00  0.00000000000E+00  0.30126504234E+03  0.18270147170E+04  0.18020050362E+04 0.  0.
        5    1    3    3  502    0  0.91333224845E+01  0.78861856036E+03 -0.29105199787E+03  0.84067592257E+03  0.46999998093E+01 0.  1.
       -5    1    3    3    0  502 -0.91333224845E+01 -0.78861856036E+03  0.59231704021E+03  0.98633879445E+03  0.46999998093E+01 0. -1.
</event>
<event>
 5   0  0.4578107E-05  0.1788069E+04  0.7818609E-02  0.8712670E-01
       -1   -1    0    0    0  501  0.00000000000E+00  0.00000000000E+00  0.11225625779E+04  0.11225625779E+04  0.50400001928E-02 0. -1.
        1   -1    0    0  501    0  0.00000000000E+00  0.00000000000E+00 -0.71202928927E+03  0.71202928929E+03  0.50400001928E-02 0.  1.
    10030    2    1    2    0    0  0.00000000000E+00  0.00000000000E+00  0.41053328865E+03  0.18345918672E+04  0.17880687174E+04 0.  0.
        2    1    3    3  502    0  0.13328266559E+03 -0.27601220418E+03 -0.65643659605E+03  0.72446946826E+03  0.25500000920E-02 0.  1.
       -2    1    3    3    0  502 -0.13328266559E+03  0.27601220418E+03  0.10669698847E+04  0.11101223990E+04  0.25500000920E-02 0. -1.
</event>
<event>
 5   0  0.9184414E-05  0.1802297E+04  0.7818609E-02  0.8705079E-01
        2   -1    0    0  501    0  0.00000000000E+00  0.00000000000E+00  0.20179034531E+04  0.20179034531E+04  0.25500000920E-02 0. -1.
       -2   -1    0    0    0  501  0.00000000000E+00  0.00000000000E+00 -0.40243167664E+03  0.40243167665E+03  0.25500000920E-02 0.  1.
    10030    2    1    2    0    0  0.00000000000E+00  0.00000000000E+00  0.16154717765E+04  0.24203351298E+04  0.18022966126E+04 0.  0.
        5    1    3    3  502    0  0.31289180492E+03 -0.31921947811E+03 -0.24304325530E+03  0.50881673590E+03  0.46999998093E+01 0.  1.
       -5    1    3    3    0  502 -0.31289180492E+03  0.31921947811E+03  0.18585150318E+04  0.19115183939E+04  0.46999998093E+01 0. -1.
</event>
<event>
 5   0  0.4335117E-05  0.1792275E+04  0.7818609E-02  0.8710418E-01
       -1   -1    0    0    0  501  0.00000000000E+00  0.00000000000E+00  0.34037725835E+03  0.34037725839E+03  0.50400001928E-02 0. -1.
        1   -1    0    0  501    0  0.00000000000E+00  0.00000000000E+00 -0.23593313549E+04  0.23593313549E+04  0.50400001928E-02 0.  1.
    10030    2    1    2    0    0  0.00000000000E+00  0.00000000000E+00 -0.20189540965E+04  0.26997086133E+04  0.17922753563E+04 0.  0.
        3    1    3    3  502    0  0.76446599745E+03  0.36320067530E+03 -0.14531073548E+04  0.16816194536E+04  0.10100000352E+00 0.  1.
       -3    1    3    3    0  502 -0.76446599745E+03 -0.36320067530E+03 -0.56584674170E+03  0.10180891597E+04  0.10100000352E+00 0. -1.
</event>
<event>
 5   0  0.4494757E-05  0.1800800E+04  0.7818609E-02  0.8705874E-01
       -1   -1    0    0    0  501  0.00000000000E+00  0.00000000000E+00  0.71670470100E+03  0.71670470102E+03  0.50400001928E-02 0. -1.
        1   -1    0    0  501    0  0.00000000000E+00  0.00000000000E+00 -0.11311777424E+04  0.11311777424E+04  0.50400001928E-02 0.  1.
    10030    2    1    2    0    0  0.00000000000E+00  0.00000000000E+00 -0.41447304135E+03  0.18478824434E+04  0.18008002728E+04 0.  0.
        4    1    3    3  502    0 -0.19153588051E+03 -0.62579013001E+02 -0.11077434367E+04  0.11259215163E+04  0.12699999809E+01 0.  1.
       -4    1    3    3    0  502  0.19153588051E+03  0.62579013001E+02  0.69327039531E+03  0.72196092714E+03  0.12699999809E+01 0. -1.
</event>
<event>
 5   0  0.4335117E-05  0.1790191E+04  0.7818609E-02  0.8711533E-01
        1   -1    0    0  501    0  0.00000000000E+00  0.00000000000E+00  0.15696389609E+04  0.15696389609E+04  0.50400001928E-02 0. -1.
       -1   -1    0    0    0  501  0.00000000000E+00  0.00000000000E+00 -0.51043332651E+03  0.51043332653E+03  0.50400001928E-02 0.  1.
    10030    2    1    2    0    0  0.00000000000E+00  0.00000000000E+00  0.10592056344E+04  0.20800722875E+04  0.17901910918E+04 0.  0.
        3    1    3    3  502    0  0.55369168006E+02  0.88828895312E+03  0.41892644882E+03  0.98367799036E+03  0.10100000352E+00 0.  1.
       -3    1    3    3    0  502 -0.55369168006E+02 -0.88828895312E+03  0.64027918558E+03  0.10963942971E+04  0.10100000352E+00 0. -1.
</event>
<event>
 5   0  0.4335117E-05  0.1791897E+04  0.7818609E-02  0.8710620E-01
       -1   -1    0    0    0  501  0.00000000000E+00  0.00000000000E+00  0.87970347114E+03  0.87970347115E+03  0.50400001928E-02 0.  1.
        1   -1    0    0  501    0  0.00000000000E+00  0.00000000000E+00 -0.91249390227E+03  0.91249390229E+03  0.50400001928E-02 0. -1.
    10030    2    1    2    0    0  0.00000000000E+00  0.00000000000E+00 -0.32790431131E+02  0.17921973734E+04  0.17918973779E+04 0.  0.
        3    1    3    3  502    0 -0.65043320972E+03 -0.56053512524E+03  0.23950120222E+03  0.89141675046E+03  0.10100000352E+00 0.  1.
       -3    1    3    3    0  502  0.65043320972E+03  0.56053512524E+03 -0.27229163335E+03  0.90078062298E+03  0.10100000352E+00 0. -1.
</event>
<event>
 5   0  0.8802655E-05  0.1808142E+04  0.7818609E-02  0.8701982E-01
        2   -1    0    0  501    0  0.00000000000E+00  0.00000000000E+00  0.82071767460E+03  0.82071767460E+03  0.25500000920E-02 0. -1.
       -2   -1    0    0    0  501  0.00000000000E+00  0.00000000000E+00 -0.99588955047E+03  0.99588955048E+03  0.25500000920E-02 0.  1.
    10030    2    1    2    0    0  0.00000000000E+00  0.00000000000E+00 -0.17517187587E+03  0.18166072251E+04  0.18081417600E+04 0.  0.
        2    1    3    3  502    0  0.86551727464E+03  0.10574404583E+03  0.15236734407E+03  0.88516538764E+03  0.25500000920E-02 0. -1.
       -2    1    3    3    0  502 -0.86551727464E+03 -0.10574404583E+03 -0.32753921994E+03  0.93144183744E+03  0.25500000920E-02 0.  1.
</event>
<event>
 5   0  0.4623665E-05  0.1814852E+04  0.7818609E-02  0.8698441E-01
        1   -1    0    0  501    0  0.00000000000E+00  0.00000000000E+00  0.77970800922E+03  0.77970800923E+03  0.50400001928E-02 0. -1.
       -1   -1    0    0    0  501  0.00000000000E+00  0.00000000000E+00 -0.10560645860E+04  0.10560645860E+04  0.50400001928E-02 0.  1.
    10030    2    1    2    0    0  0.00000000000E+00  0.00000000000E+00 -0.27635657678E+03  0.18357725952E+04  0.18148520777E+04 0.  0.
        5    1    3    3  502    0  0.41279166631E+03  0.70211459794E+03  0.26648078725E+03  0.85696905918E+03  0.46999998093E+01 0. -1.
       -5    1    3    3    0  502 -0.41279166631E+03 -0.70211459794E+03 -0.54283736402E+03  0.97880353606E+03  0.46999998093E+01 0.  1.
</event>
<event>
 5   0  0.4578107E-05  0.1829696E+04  0.7818609E-02  0.8690665E-01
        1   -1    0    0  501    0  0.00000000000E+00  0.00000000000E+00  0.51167971932E+03  0.51167971934E+03  0.50400001928E-02 0. -1.
       -1   -1    0    0    0  501  0.00000000000E+00  0.00000000000E+00 -0.16356854540E+04  0.16356854540E+04  0.50400001928E-02 0.  1.
    10030    2    1    2    0    0  0.00000000000E+00  0.00000000000E+00 -0.11240057347E+04  0.21473651733E+04  0.18296962305E+04 0.  0.
        2    1    3    3  502    0 -0.20296810035E+03 -0.57187855090E+03 -0.13654867028E+04  0.14942540153E+04  0.25500000920E-02 0.  1.
       -2    1    3    3    0  502  0.20296810035E+03  0.57187855090E+03  0.24148096815E+03  0.65311115801E+03  0.25500000920E-02 0. -1.
</event>
<event>
 5   0  0.4335117E-05  0.1798505E+04  0.7818609E-02  0.8707095E-01
        1   -1    0    0  501    0  0.00000000000E+00  0.00000000000E+00  0.86353311380E+03  0.86353311382E+03  0.50400001928E-02 0.  1.
       -1   -1    0    0    0  501  0.00000000000E+00  0.00000000000E+00 -0.93644945858E+03  0.93644945859E+03  0.50400001928E-02 0. -1.
    10030    2    1    2    0    0  0.00000000000E+00  0.00000000000E+00 -0.72916344775E+02  0.17999825724E+04  0.17985050647E+04 0.  0.
        3    1    3    3  502    0 -0.55384180252E+03  0.22263597728E+03 -0.70957860478E+03  0.92725903995E+03  0.10100000352E+00 0. -1.
       -3    1    3    3    0  502  0.55384180252E+03 -0.22263597728E+03  0.63666226001E+03  0.87272353246E+03  0.10100000352E+00 0.  1.
</event>
<event>
 5   0  0.8893075E-05  0.1768391E+04  0.7818609E-02  0.8723292E-01
        2   -1    0    0  501    0  0.00000000000E+00  0.00000000000E+00  0.96514070716E+03  0.96514070716E+03  0.25500000920E-02 0.  1.
       -2   -1    0    0    0  501  0.00000000000E+00  0.00000000000E+00 -0.81003918106E+03  0.81003918107E+03  0.25500000920E-02 0. -1.
    10030    2    1    2    0    0  0.00000000000E+00  0.00000000000E+00  0.15510152610E+03  0.17751798882E+04  0.17683911197E+04 0.  0.
        1    1    3    3  502    0  0.39882295473E+03 -0.65966887167E+03 -0.35721583719E+03  0.84960339208E+03  0.50400001928E-02 0. -1.
       -1    1    3    3    0  502 -0.39882295473E+03  0.65966887167E+03  0.51231736328E+03  0.92557649615E+03  0.50400001928E-02 0.  1.
</event>
<event>
 5   0  0.8802655E-05  0.1796367E+04  0.7818609E-02  0.8708234E-01
        2   -1    0    0  501    0  0.00000000000E+00  0.00000000000E+00  0.92526577797E+03  0.92526577797E+03  0.25500000920E-02 0. -1.
       -2   -1    0    0    0  501  0.00000000000E+00  0.00000000000E+00 -0.87189417704E+03  0.87189417704E+03  0.25500000920E-02 0.  1.
    10030    2    1    2    0    0  0.00000000000E+00  0.00000000000E+00  0.53371600928E+02  0.17971599550E+04  0.17963672721E+04 0.  0.
        2    1    3    3  502    0  0.33996366085E+02 -0.88936335414E+03 -0.94243157965E+02  0.89498865994E+03  0.25500000920E-02 0.  1.
       -2    1    3    3    0  502 -0.33996366085E+02  0.88936335414E+03  0.14761475889E+03  0.90217129507E+03  0.25500000920E-02 0. -1.
</event>
<event>
 5   0  0.4335117E-05  0.1817001E+04  0.7818609E-02  0.8697311E-01
       -1   -1    0    0    0  501  0.00000000000E+00  0.00000000000E+00  0.43242643279E+03  0.43242643282E+03  0.50400001928E-02 0.  1.
        1   -1    0    0  501    0  0.00000000000E+00  0.00000000000E+00 -0.19087010721E+04  0.19087010721E+04  0.50400001928E-02 0. -1.
    10030    2    1    2    0    0  0.00000000000E+00  0.00000000000E+00 -0.14762746393E+04  0.23411275049E+04  0.18170006009E+04 0.  0.
        3    1    3    3  502    0 -0.40192927096E+03 -0.21265405520E+03  0.27525200067E+03  0.53153791974E+03  0.10100000352E+00 0.  1.
       -3    1    3    3    0  502  0.40192927096E+03  0.21265405520E+03 -0.17515266400E+04  0.18095895852E+04  0.10100000352E+00 0. -1.
</event>
<event>
 5   0  0.8893075E-05  0.1801285E+04  0.7818609E-02  0.8705616E-01
       -2   -1    0    0    0  501  0.00000000000E+00  0.00000000000E+00  0.12105681602E+04  0.12105681602E+04  0.25500000920E-02 0.  1.
        2   -1    0    0  501    0  0.00000000000E+00  0.00000000000E+00 -0.67006295854E+03  0.67006295855E+03  0.25500000920E-02 0. -1.
    10030    2    1    2    0    0  0.00000000000E+00  0.00000000000E+00  0.54050520167E+03  0.18806311188E+04  0.18012849669E+04 0.  0.
        1    1    3    3  502    0  0.46448166274E+03 -0.43228674868E+03 -0.39707557370E+03  0.74852124844E+03  0.50400001928E-02 0. -1.
       -1    1    3    3    0  502 -0.46448166274E+03  0.43228674868E+03  0.93758077537E+03  0.11321098703E+04  0.50400001928E-02 0.  1.
</event>
<event>
 5   0  0.4535100E-05  0.1795262E+04  0.7818609E-02  0.8708823E-01
       -1   -1    0    0    0  501  0.00000000000E+00  0.00000000000E+00  0.10399054147E+04  0.10399054148E+04  0.50400001928E-02 0.  1.
        1   -1    0    0  501    0  0.00000000000E+00  0.00000000000E+00 -0.77482164853E+03  0.77482164855E+03  0.50400001928E-02 0. -1.
    10030    2    1    2    0    0  0.00000000000E+00  0.00000000000E+00  0.26508376621E+03  0.18147270633E+04  0.17952617946E+04 0.  0.
        1    1    3    3  502    0  0.60136227527E+03  0.51743154629E+03 -0.29197497841E+03  0.84535281348E+03  0.50400001928E-02 0. -1.
       -1    1    3    3    0  502 -0.60136227527E+03 -0.51743154629E+03  0.55705874462E+03  0.96937424982E+03  0.50400001928E-02 0.  1.
</event>
<event>
 5   0  0.4335117E-05  0.1801589E+04  0.7818609E-02  0.8705455E-01
       -1   -1    0    0    0  501  0.00000000000E+00  0.00000000000E+00  0.10633443484E+04  0.10633443484E+04  0.50400001928E-02 0.  1.
        1   -1    0    0  501    0  0.00000000000E+00  0.00000000000E+00 -0.76309344832E+03  0.76309344834E+03  0.50400001928E-02 0. -1.
    10030    2    1    2    0    0  0.00000000000E+00  0.00000000000E+00  0.30025090004E+03  0.18264377967E+04  0.18015894156E+04 0.  0.
        3    1    3    3  502    0  0.61746553261E+03 -0.56822855554E+03 -0.18193410107E+03  0.85863112139E+03  0.10100000352E+00 0. -1.
       -3    1    3    3    0  502 -0.61746553261E+03  0.56822855554E+03  0.48218500112E+03  0.96780667532E+03  0.10100000352E+00 0.  1.
</event>
<event>
 5   0  0.8892280E-05  0.1799534E+04  0.7818609E-02  0.8706547E-01
       -2   -1    0    0    0  501  0.00000000000E+00  0.00000000000E+00  0.43397440400E+03  0.43397440401E+03  0.25500000920E-02 0. -1.
        2   -1    0    0  501    0  0.00000000000E+00  0.00000000000E+00 -0.18655029421E+04  0.18655029421E+04  0.25500000920E-02 0.  1.
    10030    2    1    2    0    0  0.00000000000E+00  0.00000000000E+00 -0.14315285381E+04  0.22994773461E+04  0.17995338591E+04 0.  0.
        4    1    3    3  502    0  0.17062657040E+03  0.98067345731E+02  0.40613423197E+03  0.45130616892E+03  0.12699999809E+01 0. -1.
       -4    1    3    3    0  502 -0.17062657040E+03 -0.98067345731E+02 -0.18376627701E+04  0.18481711772E+04  0.12699999809E+01 0.  1.
</event>
<event>
 5   0  0.3270375E-05  0.1801623E+04  0.7818609E-02  0.8705437E-01
       -4   -1    0    0    0  501  0.00000000000E+00  0.00000000000E+00  0.72343969115E+03  0.72344080589E+03  0.12699999809E+01 0.  1.
        4   -1    0    0  501    0  0.00000000000E+00  0.00000000000E+00 -0.11216683458E+04  0.11216690648E+04  0.12699999809E+01 0. -1.
    10030    2    1    2    0    0  0.00000000000E+00  0.00000000000E+00 -0.39822865466E+03  0.18451098707E+04  0.18016227056E+04 0.  0.
        2    1    3    3  502    0 -0.35769455968E+03  0.16755514215E+03 -0.10282491928E+04  0.11015064803E+04  0.25500000920E-02 0. -1.
       -2    1    3    3    0  502  0.35769455968E+03 -0.16755514215E+03  0.63002053813E+03  0.74360339036E+03  0.25500000920E-02 0.  1.
</event>
<event>
 5   0  0.3270375E-05  0.1801382E+04  0.7818609E-02  0.8705565E-01
       -3   -1    0    0    0  501  0.00000000000E+00  0.00000000000E+00  0.11016286156E+04  0.11016286202E+04  0.10100000352E+00 0. -1.
        3   -1    0    0  501    0  0.00000000000E+00  0.00000000000E+00 -0.73640454416E+03  0.73640455109E+03  0.10100000352E+00 0.  1.
    10030    2    1    2    0    0  0.00000000000E+00  0.00000000000E+00  0.36522407142E+03  0.18380331713E+04  0.18013820573E+04 0.  0.
        5    1    3    3  502    0 -0.52082847446E+03 -0.69446505086E+03  0.42766134556E+03  0.96770880081E+03  0.46999998093E+01 0. -1.
       -5    1    3    3    0  502  0.52082847446E+03  0.69446505086E+03 -0.62437274134E+02  0.87032437050E+03  0.46999998093E+01 0.  1.
</event>
<event>
 5   0  0.8893075E-05  0.1800225E+04  0.7818609E-02  0.8706180E-01
       -2   -1    0    0    0  501  0.00000000000E+00  0.00000000000E+00  0.57622817989E+03  0.57622817990E+03  0.25500000920E-02 0.  1.
        2   -1    0    0  501    0  0.00000000000E+00  0.00000000000E+00 -0.14060445151E+04  0.14060445151E+04  0.25500000920E-02 0. -1.
    10030    2    1    2    0    0  0.00000000000E+00  0.00000000000E+00 -0.82981633516E+03  0.19822726950E+04  0.18002249546E+04 0.  0.
        1    1    3    3  502    0 -0.58423022711E+03  0.12728343349E+03 -0.11557586493E+04  0.13012701818E+04  0.50400001928E-02 0. -1.
       -1    1    3    3    0  502  0.58423022711E+03 -0.12728343349E+03  0.32594231413E+03  0.68100251312E+03  0.50400001928E-02 0.  1.
</event>
<event>
 5   0  0.9184414E-05  0.1785603E+04  0.7818609E-02  0.8713993E-01
       -2   -1    0    0    0  501  0.00000000000E+00  0.00000000000E+00  0.10424281888E+04  0.10424281888E+04  0.25500000920E-02 0. -1.
        2   -1    0    0  501    0  0.00000000000E+00  0.00000000000E+00 -0.76465147301E+03  0.76465147301E+03  0.25500000920E-02 0.  1.
    10030    2    1    2    0    0  0.00000000000E+00  0.00000000000E+00  0.27777671575E+03  0.18070796618E+04  0.17856026994E+04 0.  0.
        5    1    3    3  502    0  0.18108301203E+03 -0.53588673535E+03 -0.56014859668E+03  0.79608679850E+03  0.46999998093E+01 0.  1.
       -5    1    3    3    0  502 -0.18108301203E+03  0.53588673535E+03  0.83792531243E+03  0.10109928633E+04  0.46999998093E+01 0. -1.
</event>
<event>
 5   0  0.8892280E-05  0.1797372E+04  0.7818609E-02  0.8707698E-01
       -2   -1    0    0    0  501  0.00000000000E+00  0.00000000000E+00  0.76668870450E+03  0.76668870450E+03  0.25500000920E-02 0. -1.
        2   -1    0    0  501    0  0.00000000000E+00  0.00000000000E+00 -0.10534088260E+04  0.10534088260E+04  0.25500000920E-02 0.  1.
    10030    2    1    2    0    0  0.00000000000E+00  0.00000000000E+00 -0.28672012146E+03  0.18200975305E+04  0.17973721352E+04 0.  0.
        4    1    3    3  502    0  0.22462515869E+03  0.29058587950E+03  0.68721669196E+03  0.77920793751E+03  0.12699999809E+01 0. -1.
       -4    1    3    3    0  502 -0.22462515869E+03 -0.29058587950E+03 -0.97393681342E+03  0.10408895930E+04  0.12699999809E+01 0.  1.
</event>
<event>
 5   0  0.4335117E-05  0.1795579E+04  0.7818609E-02  0.8708654E-01
       -1   -1    0    0    0  501  0.00000000000E+00  0.00000000000E+00  0.75865957634E+03  0.75865957635E+03  0.50400001928E-02 0.  1.
        1   -1    0    0  501    0  0.00000000000E+00  0.00000000000E+00 -0.10624338477E+04  0.10624338477E+04  0.50400001928E-02 0. -1.
    10030    2    1    2    0    0  0.00000000000E+00  0.00000000000E+00 -0.30377427135E+03  0.18210934241E+04  0.17955785840E+04 0.  0.
        3    1    3    3  502    0 -0.50967956357E+03  0.80773689098E+02 -0.89698834131E+03  0.10348360938E+04  0.10100000352E+00 0. -1.
       -3    1    3    3    0  502  0.50967956357E+03 -0.80773689098E+02  0.59321406996E+03  0.78625733025E+03  0.10100000352E+00 0.  1.
</event>
<event>
 5   0  0.4335117E-05  0.1798049E+04  0.7818609E-02  0.8707338E-01
        1   -1    0    0  501    0  0.00000000000E+00  0.00000000000E+00  0.13871544819E+04  0.13871544819E+04  0.50400001928E-02 0. -1.
       -1   -1    0    0    0  501  0.00000000000E+00  0.00000000000E+00 -0.58266408850E+03  0.58266408852E+03  0.50400001928E-02 0.  1.
    10030    2    1    2    0    0  0.00000000000E+00  0.00000000000E+00  0.80449039338E+03  0.19698185704E+04  0.17980490559E+04 0.  0.
        3    1    3    3  502    0 -0.21183106376E+03 -0.42489211695E+03  0.12386165229E+04  0.13264903360E+04  0.10100000352E+00 0. -1.
       -3    1    3    3    0  502  0.21183106376E+03  0.42489211695E+03 -0.43412612951E+03  0.64332823438E+03  0.10100000352E+00 0.  1.
</event>
<event>
 5   0  0.9147432E-05  0.1827211E+04  0.7818609E-02  0.8691962E-01
        2   -1    0    0  501    0  0.00000000000E+00  0.00000000000E+00  0.11565915941E+04  0.11565915941E+04  0.25500000920E-02 0.  1.
       -2   -1    0    0    0  501  0.00000000000E+00  0.00000000000E+00 -0.72166753374E+03  0.72166753374E+03  0.25500000920E-02 0. -1.
    10030    2    1    2    0    0  0.00000000000E+00  0.00000000000E+00  0.43492406032E+03  0.18782591278E+04  0.18272105552E+04 0.  0.
        3    1    3    3  502    0  0.20313580423E+03 -0.49461358826E+03  0.97894682754E+03  0.11154567038E+04  0.10100000352E+00 0.  1.
       -3    1    3    3    0  502 -0.20313580423E+03  0.49461358826E+03 -0.54402276722E+03  0.76280242403E+03  0.10100000352E+00 0. -1.
</event>
<event>
 5   0  0.8892280E-05  0.1807111E+04  0.7818609E-02  0.8702527E-01
       -2   -1    0    0    0  501  0.00000000000E+00  0.00000000000E+00  0.11848434997E+04  0.11848434997E+04  0.25500000920E-02 0. -1.
        2   -1    0    0  501    0  0.00000000000E+00  0.00000000000E+00 -0.68904687793E+03  0.68904687794E+03  0.25500000920E-02 0.  1.
    10030    2    1    2    0    0  0.00000000000E+00  0.00000000000E+00  0.49579662175E+03  0.18738903776E+04  0.18071111912E+04 0.  0.
        4    1    3    3  502    0 -0.49956777943E+03 -0.61368444024E+03 -0.20437816068E+03  0.81728122694E+03  0.12699999809E+01 0.  1.
       -4    1    3    3    0  502  0.49956777943E+03  0.61368444024E+03  0.70017478243E+03  0.10566091507E+04  0.12699999809E+01 0. -1.
</event>
<event>
 5   0  0.4578107E-05  0.1802520E+04  0.7818609E-02  0.8704960E-01
        1   -1    0    0  501    0  0.00000000000E+00  0.00000000000E+00  0.17603571510E+04  0.17603571510E+04  0.50400001928E-02 0.  1.
       -1   -1    0    0    0  501  0.00000000000E+00  0.00000000000E+00 -0.46142325174E+03  0.46142325176E+03  0.50400001928E-02 0. -1.
    10030    2    1    2    0    0  0.00000000000E+00  0.00000000000E+00  0.12989338993E+04  0.22217804028E+04  0.18025201479E+04 0.  0.
        2    1    3    3  502    0  0.26120215804E+03 -0.83600644044E+03  0.38759776814E+03  0.95779192192E+03  0.25500000920E-02 0. -1.
       -2    1    3    3    0  502 -0.26120215804E+03  0.83600644044E+03  0.91133613112E+03  0.12639884808E+04  0.25500000920E-02 0.  1.
</event>
<event>
 5   0  0.4535100E-05  0.1795920E+04  0.7818609E-02  0.8708472E-01
        1   -1    0    0  501    0  0.00000000000E+00  0.00000000000E+00  0.16691619302E+04  0.16691619302E+04  0.50400001928E-02 0.  1.
       -1   -1    0    0    0  501  0.00000000000E+00  0.00000000000E+00 -0.48307611642E+03  0.48307611644E+03  0.50400001928E-02 0. -1.
    10030    2    1    2    0    0  0.00000000000E+00  0.00000000000E+00  0.11860858138E+04  0.21522380467E+04  0.17959201129E+04 0.  0.
        1    1    3    3  502    0  0.25189547652E+03 -0.67251809213E+03 -0.52985113114E+02  0.72009675570E+03  0.50400001928E-02 0.  1.
       -1    1    3    3    0  502 -0.25189547652E+03  0.67251809213E+03  0.12390709269E+04  0.14321412910E+04  0.50400001928E-02 0. -1.
</event>
<event>
 5   0  0.4578107E-05  0.1805192E+04  0.7818609E-02  0.8703543E-01
        1   -1    0    0  501    0  0.00000000000E+00  0.00000000000E+00  0.97754308599E+03  0.97754308601E+03  0.50400001928E-02 0.  1.
       -1   -1    0    0    0  501  0.00000000000E+00  0.00000000000E+00 -0.83339547435E+03  0.83339547436E+03  0.50400001928E-02 0. -1.
    10030    2    1    2    0    0  0.00000000000E+00  0.00000000000E+00  0.14414761165E+03  0.18109385604E+04  0.18051924926E+04 0.  0.
        2    1    3    3  502    0 -0.72967543865E+03 -0.33375514758E+03 -0.34259558041E+03  0.87246230636E+03  0.25500000920E-02 0.  1.
       -2    1    3    3    0  502  0.72967543865E+03  0.33375514758E+03  0.48674319206E+03  0.93847625400E+03  0.25500000920E-02 0. -1.
</event>
<event>
 5   0  0.8892280E-05  0.1802921E+04  0.7818609E-02  0.8704748E-01
       -2   -1    0    0    0  501  0.00000000000E+00  0.00000000000E+00  0.45440197494E+03  0.45440197494E+03  0.25500000920E-02 0. -1.
        2   -1    0    0  501    0  0.00000000000E+00  0.00000000000E+00 -0.17883518376E+04  0.17883518376E+04  0.25500000920E-02 0.  1.
    10030    2    1    2    0    0  0.00000000000E+00  0.00000000000E+00 -0.13339498627E+04  0.22427538126E+04  0.18029205273E+04 0.  0.
        4    1    3    3  502    0 -0.89996295847E+03  0.47352700379E+02 -0.64048745486E+03  0.11056226289E+04  0.12699999809E+01 0.  1.
       -4    1    3    3    0  502  0.89996295847E+03 -0.47352700379E+02 -0.69346240783E+03  0.11371311836E+04  0.12699999809E+01 0. -1.
</event>
<event>
 5   0  0.8892280E-05  0.1797349E+04  0.7818609E-02  0.8707710E-01
        2   -1    0    0  501    0  0.00000000000E+00  0.00000000000E+00  0.54097355542E+03  0.54097355542E+03  0.25500000920E-02 0.  1.
       -2   -1    0    0    0  501  0.00000000000E+00  0.00000000000E+00 -0.14928937640E+04  0.14928937640E+04  0.25500000920E-02 0. -1.
    10030    2    1    2    0    0  0.00000000000E+00  0.00000000000E+00 -0.95192020853E+03  0.20338673194E+04  0.17973492119E+04 0.  0.
        4    1    3    3  502    0 -0.42192248562E+03 -0.18249459649E+03 -0.13497750896E+04  0.14259092773E+04  0.12699999809E+01 0. -1.
       -4    1    3    3    0  502  0.42192248562E+03  0.18249459649E+03  0.39785488110E+03  0.60795804208E+03  0.12699999809E+01 0.  1.
</event>
<event>
 5   0  0.9184414E-05  0.1778067E+04  0.7818609E-02  0.8718051E-01
        2   -1    0    0  501    0  0.00000000000E+00  0.00000000000E+00  0.66843285327E+03  0.66843285327E+03  0.25500000920E-02 0. -1.
       -2   -1    0    0    0  501  0.00000000000E+00  0.00000000000E+00 -0.11824387575E+04  0.11824387575E+04  0.25500000920E-02 0.  1.
    10030    2    1    2    0    0  0.00000000000E+00  0.00000000000E+00 -0.51400590424E+03  0.18508716108E+04  0.17780673919E+04 0.  0.
        5    1    3    3  502    0  0.86182743782E+03 -0.61630702394E+02 -0.47489142906E+03  0.98594565543E+03  0.46999998093E+01 0. -1.
       -5    1    3    3    0  502 -0.86182743782E+03  0.61630702394E+02 -0.39114475173E+02  0.86492595535E+03  0.46999998093E+01 0.  1.
</event>
<event>
 5   0  0.4335117E-05  0.1797548E+04  0.7818609E-02  0.8707604E-01
        1   -1    0    0  501    0  0.00000000000E+00  0.00000000000E+00  0.12615474315E+04  0.12615474315E+04  0.50400001928E-02 0. -1.
       -1   -1    0    0    0  501  0.00000000000E+00  0.00000000000E+00 -0.64032066731E+03  0.64032066733E+03  0.50400001928E-02 0.  1.
    10030    2    1    2    0    0  0.00000000000E+00  0.00000000000E+00  0.62122676419E+03  0.19018680988E+04  0.17975482115E+04 0.  0.
        3    1    3    3  502    0  0.61768641286E+03  0.49364170850E+03  0.76270033994E+03  0.10986038684E+04  0.10100000352E+00 0. -1.
       -3    1    3    3    0  502 -0.61768641286E+03 -0.49364170850E+03 -0.14147357575E+03  0.80326423040E+03  0.10100000352E+00 0.  1.
</event>
<event>
 5   0  0.4578107E-05  0.1788635E+04  0.7818609E-02  0.8712367E-01
       -1   -1    0    0    0  501  0.00000000000E+00  0.00000000000E+00  0.71402166030E+03  0.71402166032E+03  0.50400001928E-02 0.  1.
        1   -1    0    0  501    0  0.00000000000E+00  0.00000000000E+00 -0.11201394038E+04  0.11201394038E+04  0.50400001928E-02 0. -1.
    10030    2    1    2    0    0  0.00000000000E+00  0.00000000000E+00 -0.40611774347E+03  0.18341610641E+04  0.17886350068E+04 0.  0.
        2    1    3    3  502    0  0.34970715723E+03  0.11355945870E+02 -0.10470382712E+04  0.11039534387E+04  0.25500000920E-02 0. -1.
       -2    1    3    3    0  502 -0.34970715723E+03 -0.11355945870E+02  0.64092052776E+03  0.73020762543E+03  0.25500000920E-02 0.  1.
</event>
<event>
 5   0  0.8893075E-05  0.1798175E+04  0.7818609E-02  0.8707271E-01
       -2   -1    0    0    0  501  0.00000000000E+00  0.00000000000E+00  0.49608761374E+03  0.49608761375E+03  0.25500000920E-02 0. -1.
        2   -1    0    0  501    0  0.00000000000E+00  0.00000000000E+00 -0.16294666675E+04  0.16294666675E+04  0.25500000920E-02 0.  1.
    10030    2    1    2    0    0  0.00000000000E+00  0.00000000000E+00 -0.11333790538E+04  0.21255542812E+04  0.17981748867E+04 0.  0.
        1    1    3    3  502    0 -0.28320755529E+03  0.43376701347E+03 -0.14353224847E+04  0.15259459284E+04  0.50400001928E-02 0.  1.
       -1    1    3    3    0  502  0.28320755529E+03 -0.43376701347E+03  0.30194343090E+03  0.59960835287E+03  0.50400001928E-02 0. -1.
</event>
<event>
 5   0  0.4494757E-05  0.1732490E+04  0.7818609E-02  0.8743048E-01
       -1   -1    0    0    0  501  0.00000000000E+00  0.00000000000E+00  0.33959174987E+03  0.33959174991E+03  0.50400001928E-02 0.  1.
        1   -1    0    0  501    0  0.00000000000E+00  0.00000000000E+00 -0.22096543408E+04  0.22096543408E+04  0.50400001928E-02 0. -1.
    10030    2    1    2    0    0  0.00000000000E+00  0.00000000000E+00 -0.18700625910E+04  0.25492460908E+04  0.17324899818E+04 0.  0.
        4    1    3    3  502    0 -0.50800998709E+03 -0.66490751927E+03 -0.60534249021E+03  0.10327716590E+04  0.12699999809E+01 0.  1.
       -4    1    3    3    0  502  0.50800998709E+03  0.66490751927E+03 -0.12647201007E+04  0.15164744318E+04  0.12699999809E+01 0. -1.
</event>
<event>
 5   0  0.8892280E-05  0.1801918E+04  0.7818609E-02  0.8705280E-01
        2   -1    0    0  501    0  0.00000000000E+00  0.00000000000E+00  0.16823133169E+04  0.16823133169E+04  0.25500000920E-02 0.  1.
       -2   -1    0    0    0  501  0.00000000000E+00  0.00000000000E+00 -0.48250630683E+03  0.48250630684E+03  0.25500000920E-02 0. -1.
    10030    2    1    2    0    0  0.00000000000E+00  0.00000000000E+00  0.11998070101E+04  0.21648196238E+04  0.18019176291E+04 0.  0.
        4    1    3    3  502    0 -0.22303513357E+03  0.38253537546E+03  0.15425584109E+04  0.16048570180E+04  0.12699999809E+01 0.  1.
       -4    1    3    3    0  502  0.22303513357E+03 -0.38253537546E+03 -0.34275140076E+03  0.55996260581E+03  0.12699999809E+01 0. -1.
</event>
<event>
 5   0  0.3270375E-05  0.1801506E+04  0.7818609E-02  0.8705499E-01
        3   -1    0    0  501    0  0.00000000000E+00  0.00000000000E+00  0.89005836125E+03  0.89005836698E+03  0.10100000352E+00 0.  1.
       -3   -1    0    0    0  501  0.00000000000E+00  0.00000000000E+00 -0.91157593716E+03  0.91157594276E+03  0.10100000352E+00 0. -1.
    10030    2    1    2    0    0  0.00000000000E+00  0.00000000000E+00 -0.21517575910E+02  0.18016343097E+04  0.18015058090E+04 0.  0.
        3    1    3    3  502    0  0.16481904891E+03 -0.28897995896E+03 -0.84788542796E+03  0.91081526377E+03  0.10100000352E+00 0. -1.
       -3    1    3    3    0  502 -0.16481904891E+03  0.28897995896E+03  0.82636785205E+03  0.89081904597E+03  0.10100000352E+00 0.  1.
</event>
<event>
 5   0  0.8802655E-05  0.1799376E+04  0.7818609E-02  0.8706631E-01
        2   -1    0    0  501    0  0.00000000000E+00  0.00000000000E+00  0.93597134744E+03  0.93597134744E+03  0.25500000920E-02 0.  1.
       -2   -1    0    0    0  501  0.00000000000E+00  0.00000000000E+00 -0.86481166800E+03  0.86481166801E+03  0.25500000920E-02 0. -1.
    10030    2    1    2    0    0  0.00000000000E+00  0.00000000000E+00  0.71159679437E+02  0.18007830154E+04  0.17993764944E+04 0.  0.
        2    1    3    3  502    0 -0.75890879178E+03 -0.29179056233E+03 -0.34988958252E+03  0.88515931135E+03  0.25500000920E-02 0. -1.
       -2    1    3    3    0  502  0.75890879178E+03  0.29179056233E+03  0.42104926196E+03  0.91562370410E+03  0.25500000920E-02 0.  1.
</event>
<event>
 5   0  0.4494757E-05  0.1741690E+04  0.7818609E-02  0.8737938E-01
       -1   -1    0    0    0  501  0.00000000000E+00  0.00000000000E+00  0.67009275947E+03  0.67009275948E+03  0.50400001928E-02 0. -1.
        1   -1    0    0  501    0  0.00000000000E+00  0.00000000000E+00 -0.11317399294E+04  0.11317399294E+04  0.50400001928E-02 0.  1.
    10030    2    1    2    0    0  0.00000000000E+00  0.00000000000E+00 -0.46164716990E+03  0.18018326889E+04  0.17416896765E+04 0.  0.
        4    1    3    3  502    0  0.24684748755E+02 -0.45423088444E+03  0.53740504457E+03  0.70408865069E+03  0.12699999809E+01 0. -1.
       -4    1    3    3    0  502 -0.24684748755E+02  0.45423088444E+03 -0.99905221448E+03  0.10977440382E+04  0.12699999809E+01 0.  1.
</event>
<event>
 5   0  0.8892280E-05  0.1802224E+04  0.7818609E-02  0.8705118E-01
       -2   -1    0    0    0  501  0.00000000000E+00  0.00000000000E+00  0.34295460010E+03  0.34295460011E+03  0.25500000920E-02 0. -1.
        2   -1    0    0  501    0  0.00000000000E+00  0.00000000000E+00 -0.23676686372E+04  0.23676686372E+04  0.25500000920E-02 0.  1.
    10030    2    1    2    0    0  0.00000000000E+00  0.00000000000E+00 -0.20247140371E+04  0.27106232373E+04  0.18022240157E+04 0.  0.
        4    1    3    3  502    0  0.23248697667E+03  0.23798142402E+03 -0.22719122687E+04  0.22961429228E+04  0.12699999809E+01 0.  1.
       -4    1    3    3    0  502 -0.23248697667E+03 -0.23798142402E+03  0.24719823159E+03  0.41448031449E+03  0.12699999809E+01 0. -1.
</event>
<event>
 5   0  0.4335117E-05  0.1795126E+04  0.7818609E-02  0.8708896E-01
       -1   -1    0    0    0  501  0.00000000000E+00  0.00000000000E+00  0.45735532882E+03  0.45735532885E+03  0.50400001928E-02 0. -1.
        1   -1    0    0  501    0  0.00000000000E+00  0.00000000000E+00 -0.17614740345E+04  0.17614740346E+04  0.50400001928E-02 0.  1.
    10030    2    1    2    0    0  0.00000000000E+00  0.00000000000E+00 -0.13041187057E+04  0.22188293634E+04  0.17951262199E+04 0.  0.
        3    1    3    3  502    0  0.58932412906E+03  0.28043969885E+03  0.10954979876E+03  0.66177830305E+03  0.10100000352E+00 0. -1.
       -3    1    3    3    0  502 -0.58932412906E+03 -0.28043969885E+03 -0.14136685045E+04  0.15570510604E+04  0.10100000352E+00 0.  1.
</event>
<event>
 5   0  0.9184414E-05  0.1802565E+04  0.7818609E-02  0.8704937E-01
       -2   -1    0    0    0  501  0.00000000000E+00  0.00000000000E+00  0.72849944606E+03  0.72849944607E+03  0.25500000920E-02 0.  1.
        2   -1    0    0  501    0  0.00000000000E+00  0.00000000000E+00 -0.11150457099E+04  0.11150457099E+04  0.25500000920E-02 0. -1.
    10030    2    1    2    0    0  0.00000000000E+00  0.00000000000E+00 -0.38654626380E+03  0.18435451559E+04  0.18025650412E+04 0.  0.
        5    1    3    3  502    0  0.28064089980E+03  0.65993534770E+02  0.68005673530E+03  0.73865669597E+03  0.46999998093E+01 0.  1.
       -5    1    3    3    0  502 -0.28064089980E+03 -0.65993534770E+02 -0.10666029991E+04  0.11048884600E+04  0.46999998093E+01 0. -1.
</event>
<event>
 5   0  0.9184414E-05  0.1801355E+04  0.7818609E-02  0.8705579E-01
       -2   -1    0    0    0  501  0.00000000000E+00  0.00000000000E+00  0.60292147773E+03  0.60292147773E+03  0.25500000920E-02 0.  1.
        2   -1    0    0  501    0  0.00000000000E+00  0.00000000000E+00 -0.13454820054E+04  0.13454820054E+04  0.25500000920E-02 0. -1.
    10030    2    1    2    0    0  0.00000000000E+00  0.00000000000E+00 -0.74256052764E+03  0.19484034831E+04  0.18013550443E+04 0.  0.
        5    1    3    3  502    0  0.15054173209E+03 -0.56814861796E+03  0.36688294038E+03  0.69287866697E+03  0.46999998093E+01 0.  1.
       -5    1    3    3    0  502 -0.15054173209E+03  0.56814861796E+03 -0.11094434680E+04  0.12555248161E+04  0.46999998093E+01 0. -1.
</event>
<event>
 5   0  0.8893075E-05  0.1801211E+04  0.7818609E-02  0.8705656E-01
       -2   -1    0    0    0  501  0.00000000000E+00  0.00000000000E+00  0.50225224193E+03  0.50225224193E+03  0.25500000920E-02 0.  1.
        2   -1    0    0  501    0  0.00000000000E+00  0.00000000000E+00 -0.16149054283E+04  0.16149054283E+04  0.25500000920E-02 0. -1.
    10030    2    1    2    0    0  0.00000000000E+00  0.00000000000E+00 -0.11126531863E+04  0.21171576702E+04  0.18012105617E+04 0.  0.
        1    1    3    3  502    0  0.13511862460E+03 -0.11085691642E+02  0.49018939688E+03  0.50859176174E+03  0.50400001928E-02 0.  1.
       -1    1    3    3    0  502 -0.13511862460E+03  0.11085691642E+02 -0.16028425832E+04  0.16085659085E+04  0.50400001928E-02 0. -1.
</event>
<event>
 5   0  0.4578107E-05  0.1808854E+04  0.7818609E-02  0.8701605E-01
        1   -1    0    0  501    0  0.00000000000E+00  0.00000000000E+00  0.12404324494E+04  0.12404324494E+04  0.50400001928E-02 0.  1.
       -1   -1    0    0    0  501  0.00000000000E+00  0.00000000000E+00 -0.65943799949E+03  0.65943799951E+03  0.50400001928E-02 0. -1.
    10030    2    1    2    0    0  0.00000000000E+00  0.00000000000E+00  0.58099444988E+03  0.18998704489E+04  0.18088541046E+04 0.  0.
        2    1    3    3  502    0 -0.24925669575E+03  0.54212586739E+03 -0.42337771128E+03  0.73162698343E+03  0.25500000920E-02 0. -1.
       -2    1    3    3    0  502  0.24925669575E+03 -0.54212586739E+03  0.10043721612E+04  0.11682434655E+04  0.25500000920E-02 0.  1.
</event>
<event>
 5   0  0.4335117E-05  0.1798114E+04  0.7818609E-02  0.8707303E-01
       -1   -1    0    0    0  501  0.00000000000E+00  0.00000000000E+00  0.62680522650E+03  0.62680522652E+03  0.50400001928E-02 0.  1.
        1   -1    0    0  501    0  0.00000000000E+00  0.00000000000E+00 -0.12895601569E+04  0.12895601569E+04  0.50400001928E-02 0. -1.
    10030    2    1    2    0    0  0.00000000000E+00  0.00000000000E+00 -0.66275493043E+03  0.19163653835E+04  0.17981135073E+04 0.  0.
        3    1    3    3  502    0  0.29493420283E+03  0.72245915037E+03 -0.80725008030E+03  0.11227582600E+04  0.10100000352E+00 0. -1.
       -3    1    3    3    0  502 -0.29493420283E+03 -0.72245915037E+03  0.14449514987E+03  0.79360712351E+03  0.10100000352E+00 0.  1.
</event>
<event>
 5   0  0.4335117E-05  0.1801329E+04  0.7818609E-02  0.8705593E-01
       -1   -1    0    0    0  501  0.00000000000E+00  0.00000000000E+00  0.54565691399E+03  0.54565691401E+03  0.50400001928E-02 0.  1.
        1   -1    0    0  501    0  0.00000000000E+00  0.00000000000E+00 -0.14866424088E+04  0.14866424088E+04  0.50400001928E-02 0. -1.
    10030    2    1    2    0    0  0.00000000000E+00  0.00000000000E+00 -0.94098549483E+03  0.20322993228E+04  0.18013291859E+04 0.  0.
        3    1    3    3  502    0 -0.19527559100E+03 -0.80384317963E+03 -0.68585455864E+02  0.83006047300E+03  0.10100000352E+00 0.  1.
       -3    1    3    3    0  502  0.19527559100E+03  0.80384317963E+03 -0.87240003896E+03  0.12022388498E+04  0.10100000352E+00 0. -1.
</event>
<event>
 5   0  0.8892280E-05  0.1804894E+04  0.7818609E-02  0.8703701E-01
        2   -1    0    0  501    0  0.00000000000E+00  0.00000000000E+00  0.10149038996E+04  0.10149038996E+04  0.25500000920E-02 0.  1.
       -2   -1    0    0    0  501  0.00000000000E+00  0.00000000000E+00 -0.80245099849E+03  0.80245099849E+03  0.25500000920E-02 0. -1.
    10030    2    1    2    0    0  0.00000000000E+00  0.00000000000E+00  0.21245290114E+03  0.18173548981E+04  0.18048940663E+04 0.  0.
        4    1    3    3  502    0 -0.37314857046E+03 -0.58607408764E+02 -0.71902597111E+03  0.81220357302E+03  0.12699999809E+01 0. -1.
       -4    1    3    3    0  502  0.37314857046E+03  0.58607408764E+02  0.93147887225E+03  0.10051513251E+04  0.12699999809E+01 0.  1.
</event>
<event>
 5   0  0.4623665E-05  0.1797771E+04  0.7818609E-02  0.8707486E-01
        1   -1    0    0  501    0  0.00000000000E+00  0.00000000000E+00  0.60548974027E+03  0.60548974029E+03  0.50400001928E-02 0. -1.
       -1   -1    0    0    0  501  0.00000000000E+00  0.00000000000E+00 -0.13344487813E+04  0.13344487813E+04  0.50400001928E-02 0.  1.
    10030    2    1    2    0    0  0.00000000000E+00  0.00000000000E+00 -0.72895904107E+03  0.19399385216E+04  0.17977708931E+04 0.  0.
        5    1    3    3  502    0 -0.47830363296E+03  0.85127865132E+02  0.45160163971E+03  0.66331534711E+03  0.46999998093E+01 0. -1.
       -5    1    3    3    0  502  0.47830363296E+03 -0.85127865132E+02 -0.11805606808E+04  0.12766231745E+04  0.46999998093E+01 0.  1.
</event>
<event>
 5   0  0.4494757E-05  0.1797233E+04  0.7818609E-02  0.8707772E-01
       -1   -1    0    0    0  501  0.00000000000E+00  0.00000000000E+00  0.33023863410E+03  0.33023863414E+03  0.50400001928E-02 0.  1.
        1   -1    0    0  501    0  0.00000000000E+00  0.00000000000E+00 -0.24452359963E+04  0.24452359963E+04  0.50400001928E-02 0. -1.
    10030    2    1    2    0    0  0.00000000000E+00  0.00000000000E+00 -0.21149973622E+04  0.27754746305E+04  0.17972327568E+04 0.  0.
        4    1    3    3  502    0  0.15952480234E+02  0.56766537285E+03  0.17997509277E+02  0.56817601181E+03  0.12699999809E+01 0. -1.
       -4    1    3    3    0  502 -0.15952480234E+02 -0.56766537285E+03 -0.21329948715E+04  0.22072986186E+04  0.12699999809E+01 0.  1.
</event>
<event>
 5   0  0.4578107E-05  0.1796106E+04  0.7818609E-02  0.8708373E-01
        1   -1    0    0  501    0  0.00000000000E+00  0.00000000000E+00  0.20761536742E+04  0.20761536742E+04  0.50400001928E-02 0. -1.
       -1   -1    0    0    0  501  0.00000000000E+00  0.00000000000E+00 -0.38845839253E+03  0.38845839256E+03  0.50400001928E-02 0.  1.
    10030    2    1    2    0    0  0.00000000000E+00  0.00000000000E+00  0.16876952816E+04  0.24646120667E+04  0.17961061427E+04 0.  0.
        2    1    3    3  502    0 -0.45396013571E+03  0.37946168086E+03 -0.83201758228E+02  0.59748933433E+03  0.25500000920E-02 0.  1.
       -2    1    3    3    0  502  0.45396013571E+03 -0.37946168086E+03  0.17708970399E+04  0.18671227324E+04  0.25500000920E-02 0. -1.
</event>
<event>
 5   0  0.9147432E-05  0.1812287E+04  0.7818609E-02  0.8699792E-01
        2   -1    0    0  501    0  0.00000000000E+00  0.00000000000E+00  0.94764399257E+03  0.94764399257E+03  0.25500000920E-02 0.  1.
       -2   -1    0    0    0  501  0.00000000000E+00  0.00000000000E+00 -0.86646084581E+03  0.86646084582E+03  0.25500000920E-02 0. -1.
    10030    2    1    2    0    0  0.00000000000E+00  0.00000000000E+00  0.81183146760E+02  0.18141048384E+04  0.18122874114E+04 0.  0.
        3    1    3    3  502    0 -0.19583849099E+03 -0.80473858164E+03  0.40857348494E+03  0.92352000635E+03  0.10100000352E+00 0.  1.
       -3    1    3    3    0  502  0.19583849099E+03  0.80473858164E+03 -0.32739033818E+03  0.89058483204E+03  0.10100000352E+00 0. -1.
</event>
<event>
 5   0  0.8892280E-05  0.1793523E+04  0.7818609E-02  0.8709751E-01
       -2   -1    0    0    0  501  0.00000000000E+00  0.00000000000E+00  0.14579162719E+04  0.14579162719E+04  0.25500000920E-02 0. -1.
        2   -1    0    0  501    0  0.00000000000E+00  0.00000000000E+00 -0.55159627965E+03  0.55159627965E+03  0.25500000920E-02 0.  1.
    10030    2    1    2    0    0  0.00000000000E+00  0.00000000000E+00  0.90631999228E+03  0.20095125516E+04  0.17935230042E+04 0.  0.
        4    1    3    3  502    0 -0.18116542526E+03  0.44296074513E+03  0.13028729454E+04  0.13879894300E+04  0.12699999809E+01 0. -1.
       -4    1    3    3    0  502  0.18116542526E+03 -0.44296074513E+03 -0.39655295317E+03  0.62152312154E+03  0.12699999809E+01 0.  1.
</event>
<event>
 5   0  0.8893075E-05  0.1800931E+04  0.7818609E-02  0.8705804E-01
       -2   -1    0    0    0  501  0.00000000000E+00  0.00000000000E+00  0.73271746230E+03  0.73271746230E+03  0.25500000920E-02 0. -1.
        2   -1    0    0  501    0  0.00000000000E+00  0.00000000000E+00 -0.11066182694E+04  0.11066182694E+04  0.25500000920E-02 0.  1.
    10030    2    1    2    0    0  0.00000000000E+00  0.00000000000E+00 -0.37390080711E+03  0.18393357317E+04  0.18009314591E+04 0.  0.
        1    1    3    3  502    0 -0.36625089513E+03  0.57004932073E+03 -0.79267651844E+03  0.10428000811E+04  0.50400001928E-02 0.  1.
       -1    1    3    3    0  502  0.36625089513E+03 -0.57004932073E+03  0.41877571133E+03  0.79653565060E+03  0.50400001928E-02 0. -1.
</event>
<event>
 5   0  0.9147432E-05  0.1763046E+04  0.7818609E-02  0.8726202E-01
        2   -1    0    0  501    0  0.00000000000E+00  0.00000000000E+00  0.11316527763E+04  0.11316527763E+04  0.25500000920E-02 0. -1.
       -2   -1    0    0    0  501  0.00000000000E+00  0.00000000000E+00 -0.68667984678E+03  0.68667984678E+03  0.25500000920E-02 0.  1.
    10030    2    1    2    0    0  0.00000000000E+00  0.00000000000E+00  0.44497292957E+03  0.18183326231E+04  0.17630464033E+04 0.  0.
        3    1    3    3  502    0  0.61260702749E+03  0.38199693274E+03 -0.29921585392E+03  0.78149802571E+03  0.10100000352E+00 0.  1.
       -3    1    3    3    0  502 -0.61260702749E+03 -0.38199693274E+03  0.74418878348E+03  0.10368345974E+04  0.10100000352E+00 0. -1.
</event>
<event>
 5   0  0.4623665E-05  0.1802129E+04  0.7818609E-02  0.8705168E-01
       -1   -1    0    0    0  501  0.00000000000E+00  0.00000000000E+00  0.11733692255E+04  0.11733692255E+04  0.50400001928E-02 0. -1.
        1   -1    0    0  501    0  0.00000000000E+00  0.00000000000E+00 -0.69195373570E+03  0.69195373572E+03  0.50400001928E-02 0.  1.
    10030    2    1    2    0    0  0.00000000000E+00  0.00000000000E+00  0.48141548975E+03  0.18653229612E+04  0.18021289842E+04 0.  0.
        5    1    3    3  502    0  0.39124367245E+03 -0.71726302866E+02 -0.59614757838E+03  0.71668005342E+03  0.46999998093E+01 0.  1.
       -5    1    3    3    0  502 -0.39124367245E+03  0.71726302866E+02  0.10775630681E+04  0.11486429078E+04  0.46999998093E+01 0. -1.
</event>
<event>
 5   0  0.4494757E-05  0.1805034E+04  0.7818609E-02  0.8703627E-01
       -1   -1    0    0    0  501  0.00000000000E+00  0.00000000000E+00  0.81833146281E+03  0.81833146283E+03  0.50400001928E-02 0. -1.
        1   -1    0    0  501    0  0.00000000000E+00  0.00000000000E+00 -0.99536280027E+03  0.99536280028E+03  0.50400001928E-02 0.  1.
    10030    2    1    2    0    0  0.00000000000E+00  0.00000000000E+00 -0.17703133746E+03  0.18136942631E+04  0.18050337353E+04 0.  0.
        4    1    3    3  502    0 -0.19530228927E+03  0.20232517805E+03  0.77318670128E+03  0.82273795938E+03  0.12699999809E+01 0. -1.
       -4    1    3    3    0  502  0.19530228927E+03 -0.20232517805E+03 -0.95021803873E+03  0.99095630373E+03  0.12699999809E+01 0.  1.
</event>
<event>
 5   0  0.4623665E-05  0.1797242E+04  0.7818609E-02  0.8707767E-01
       -1   -1    0    0    0  501  0.00000000000E+00  0.00000000000E+00  0.13006988540E+04  0.13006988540E+04  0.50400001928E-02 0. -1.
        1   -1    0    0  501    0  0.00000000000E+00  0.00000000000E+00 -0.62083537666E+03  0.62083537668E+03  0.50400001928E-02 0.  1.
    10030    2    1    2    0    0  0.00000000000E+00  0.00000000000E+00  0.67986347733E+03  0.19215342307E+04  0.17972421795E+04 0.  0.
        5    1    3    3  502    0 -0.39890038551E+03  0.40064844526E+03 -0.40683992191E+03  0.69654971561E+03  0.46999998093E+01 0.  1.
       -5    1    3    3    0  502  0.39890038551E+03 -0.40064844526E+03  0.10867033992E+04  0.12249845151E+04  0.46999998093E+01 0. -1.
</event>
<event>
 5   0  0.4535100E-05  0.1777290E+04  0.7818609E-02  0.8718471E-01
       -1   -1    0    0    0  501  0.00000000000E+00  0.00000000000E+00  0.99830738157E+03  0.99830738159E+03  0.50400001928E-02 0. -1.
        1   -1    0    0  501    0  0.00000000000E+00  0.00000000000E+00 -0.79102869273E+03  0.79102869274E+03  0.50400001928E-02 0.  1.
    10030    2    1    2    0    0  0.00000000000E+00  0.00000000000E+00  0.20727868885E+03  0.17893360743E+04  0.17772898278E+04 0.  0.
        1    1    3    3  502    0  0.77987080683E+03 -0.28372226779E+03 -0.21630855350E+03  0.85760491541E+03  0.50400001928E-02 0.  1.
       -1    1    3    3    0  502 -0.77987080683E+03  0.28372226779E+03  0.42358724235E+03  0.93173115892E+03  0.50400001928E-02 0. -1.
</event>
<event>
 5   0  0.8892280E-05  0.1802138E+04  0.7818609E-02  0.8705163E-01
       -2   -1    0    0    0  501  0.00000000000E+00  0.00000000000E+00  0.84364981208E+03  0.84364981209E+03  0.25500000920E-02 0.  1.
        2   -1    0    0  501    0  0.00000000000E+00  0.00000000000E+00 -0.96239657354E+03  0.96239657354E+03  0.25500000920E-02 0. -1.
    10030    2    1    2    0    0  0.00000000000E+00  0.00000000000E+00 -0.11874676145E+03  0.18060463856E+04  0.18021383836E+04 0.  0.
        4    1    3    3  502    0 -0.76094182621E+03 -0.56822497428E+01 -0.54297481515E+03  0.93481977602E+03  0.12699999809E+01 0. -1.
       -4    1    3    3    0  502  0.76094182621E+03  0.56822497428E+01  0.42422805370E+03  0.87122660961E+03  0.12699999809E+01 0.  1.
</event>
<event>
 5   0  0.8893075E-05  0.1799216E+04  0.7818609E-02  0.8706716E-01
        2   -1    0    0  501    0  0.00000000000E+00  0.00000000000E+00  0.22112443387E+04  0.22112443387E+04  0.25500000920E-02 0.  1.
       -2   -1    0    0    0  501  0.00000000000E+00  0.00000000000E+00 -0.36599066571E+03  0.36599066572E+03  0.25500000920E-02 0. -1.
    10030    2    1    2    0    0  0.00000000000E+00  0.00000000000E+00  0.18452536730E+04  0.25772350044E+04  0.17992162600E+04 0.  0.
        1    1    3    3  502    0  0.51661193931E+03 -0.43430490911E+03  0.17746297111E+04  0.18986361583E+04  0.50400001928E-02 0.  1.
       -1    1    3    3    0  502 -0.51661193931E+03  0.43430490911E+03  0.70623961827E+02  0.67859884610E+03  0.50400001928E-02 0. -1.
</event>
<event>
 5   0  0.8802655E-05  0.1808564E+04  0.7818609E-02  0.8701758E-01
       -2   -1    0    0    0  501  0.00000000000E+00  0.00000000000E+00  0.78962489960E+03  0.78962489960E+03  0.25500000920E-02 0. -1.
        2   -1    0    0  501    0  0.00000000000E+00  0.00000000000E+00 -0.10355880104E+04  0.10355880104E+04  0.25500000920E-02 0.  1.
    10030    2    1    2    0    0  0.00000000000E+00  0.00000000000E+00 -0.24596311083E+03  0.18252129100E+04  0.18085641584E+04 0.  0.
        2    1    3    3  502    0 -0.34541561003E+03 -0.40070734546E+03 -0.86311374626E+03  0.10123456225E+04  0.25500000920E-02 0.  1.
       -2    1    3    3    0  502  0.34541561003E+03  0.40070734546E+03  0.61715063543E+03  0.81286728755E+03  0.25500000920E-02 0. -1.
</event>
<event>
 5   0  0.4335117E-05  0.1795286E+04  0.7818609E-02  0.8708810E-01
       -1   -1    0    0    0  501  0.00000000000E+00  0.00000000000E+00  0.83219967554E+03  0.83219967555E+03  0.50400001928E-02 0.  1.
        1   -1    0    0  501    0  0.00000000000E+00  0.00000000000E+00 -0.96823264676E+03  0.96823264677E+03  0.50400001928E-02 0. -1.
    10030    2    1    2    0    0  0.00000000000E+00  0.00000000000E+00 -0.13603297122E+03  0.18004323223E+04  0.17952859321E+04 0.  0.
        3    1    3    3  502    0 -0.33424573037E+03 -0.42305079486E+03 -0.78775807149E+03  0.95459675922E+03  0.10100000352E+00 0. -1.
       -3    1    3    3    0  502  0.33424573037E+03  0.42305079486E+03  0.65172510027E+03  0.84583556311E+03  0.10100000352E+00 0.  1.
</event>
<event>
 5   0  0.9147432E-05  0.1755814E+04  0.7818609E-02  0.8730156E-01
       -2   -1    0    0    0  501  0.00000000000E+00  0.00000000000E+00  0.74146594049E+03  0.74146594049E+03  0.25500000920E-02 0. -1.
        2   -1    0    0  501    0  0.00000000000E+00  0.00000000000E+00 -0.10394557952E+04  0.10394557952E+04  0.25500000920E-02 0.  1.
    10030    2    1    2    0    0  0.00000000000E+00  0.00000000000E+00 -0.29798985473E+03  0.17809217357E+04  0.17558144194E+04 0.  0.
        3    1    3    3  502    0 -0.65679685619E+03 -0.23183209991E+03  0.39305572306E+03  0.79976311773E+03  0.10100000352E+00 0. -1.
       -3    1    3    3    0  502  0.65679685619E+03  0.23183209991E+03 -0.69104557779E+03  0.98115861798E+03  0.10100000352E+00 0.  1.
</event>
<event>
 5   0  0.9184414E-05  0.1796485E+04  0.7818609E-02  0.8708171E-01
        2   -1    0    0  501    0  0.00000000000E+00  0.00000000000E+00  0.96853124186E+03  0.96853124186E+03  0.25500000920E-02 0. -1.
       -2   -1    0    0    0  501  0.00000000000E+00  0.00000000000E+00 -0.83305477561E+03  0.83305477562E+03  0.25500000920E-02 0.  1.
    10030    2    1    2    0    0  0.00000000000E+00  0.00000000000E+00  0.13547646625E+03  0.18015860175E+04  0.17964849862E+04 0.  0.
        5    1    3    3  502    0 -0.70298917507E+03 -0.55671481595E+03  0.15703331973E+02  0.89688006511E+03  0.46999998093E+01 0.  1.
       -5    1    3    3    0  502  0.70298917507E+03  0.55671481595E+03  0.11977313427E+03  0.90470595237E+03  0.46999998093E+01 0. -1.
</event>
<event>
 5   0  0.8893075E-05  0.1802718E+04  0.7818609E-02  0.8704855E-01
       -2   -1    0    0    0  501  0.00000000000E+00  0.00000000000E+00  0.98019818693E+03  0.98019818694E+03  0.25500000920E-02 0.  1.
        2   -1    0    0  501    0  0.00000000000E+00  0.00000000000E+00 -0.82886143275E+03  0.82886143275E+03  0.25500000920E-02 0. -1.
    10030    2    1    2    0    0  0.00000000000E+00  0.00000000000E+00  0.15133675418E+03  0.18090596197E+04  0.18027184734E+04 0.  0.
        1    1    3    3  502    0  0.23876354315E+03 -0.78102105144E+03 -0.30704769390E+03  0.87251372407E+03  0.50400001928E-02 0. -1.
       -1    1    3    3    0  502 -0.23876354315E+03  0.78102105144E+03  0.45838444809E+03  0.93654589562E+03  0.50400001928E-02 0.  1.
</event>
<event>
 5   0  0.4335117E-05  0.1799060E+04  0.7818609E-02  0.8706800E-01
        1   -1    0    0  501    0  0.00000000000E+00  0.00000000000E+00  0.25007078429E+04  0.25007078430E+04  0.50400001928E-02 0.  1.
       -1   -1    0    0    0  501  0.00000000000E+00  0.00000000000E+00 -0.32357003954E+03  0.32357003958E+03  0.50400001928E-02 0. -1.
    10030    2    1    2    0    0  0.00000000000E+00  0.00000000000E+00  0.21771378034E+04  0.28242778825E+04  0.17990599053E+04 0.  0.
        3    1    3    3  502    0  0.23868792817E+03 -0.80264632252E+03  0.16043378340E+04  0.18097273115E+04  0.10100000352E+00 0. -1.
       -3    1    3    3    0  502 -0.23868792817E+03  0.80264632252E+03  0.57279996944E+03  0.10145505711E+04  0.10100000352E+00 0.  1.
</event>
<event>
 5   0  0.4494757E-05  0.1799171E+04  0.7818609E-02  0.8706740E-01
       -1   -1    0    0    0  501  0.00000000000E+00  0.00000000000E+00  0.42185738225E+03  0.42185738228E+03  0.50400001928E-02 0. -1.
        1   -1    0    0  501    0  0.00000000000E+00  0.00000000000E+00 -0.19183124411E+04  0.19183124411E+04  0.50400001928E-02 0.  1.
    10030    2    1    2    0    0  0.00000000000E+00  0.00000000000E+00 -0.14964550589E+04  0.23401698234E+04  0.17991712145E+04 0.  0.
        4    1    3    3  502    0 -0.77907225349E+03  0.44928859118E+03 -0.72098002161E+03  0.11526611032E+04  0.12699999809E+01 0. -1.
       -4    1    3    3    0  502  0.77907225349E+03 -0.44928859118E+03 -0.77547503726E+03  0.11875087202E+04  0.12699999809E+01 0.  1.
</event>
<event>
 5   0  0.4335117E-05  0.1785742E+04  0.7818609E-02  0.8713919E-01
       -1   -1    0    0    0  501  0.00000000000E+00  0.00000000000E+00  0.53308421534E+03  0.53308421537E+03  0.50400001928E-02 0.  1.
        1   -1    0    0  501    0  0.00000000000E+00  0.00000000000E+00 -0.14954831108E+04  0.14954831108E+04  0.50400001928E-02 0. -1.
    10030    2    1    2    0    0  0.00000000000E+00  0.00000000000E+00 -0.96239889547E+03  0.20285673262E+04  0.17857417963E+04 0.  0.
        3    1    3    3  502    0 -0.20413445898E+03 -0.43837165614E+03  0.37145025363E+03  0.60976707633E+03  0.10100000352E+00 0.  1.
       -3    1    3    3    0  502  0.20413445898E+03  0.43837165614E+03 -0.13338491491E+04  0.14188002499E+04  0.10100000352E+00 0. -1.
</event>
<event>
 5   0  0.8892280E-05  0.1797879E+04  0.7818609E-02  0.8707428E-01
       -2   -1    0    0    0  501  0.00000000000E+00  0.00000000000E+00  0.53583969618E+03  0.53583969619E+03  0.25500000920E-02 0.  1.
        2   -1    0    0  501    0  0.00000000000E+00  0.00000000000E+00 -0.15080855768E+04  0.15080855768E+04  0.25500000920E-02 0. -1.
    10030    2    1    2    0    0  0.00000000000E+00  0.00000000000E+00 -0.97224588063E+03  0.20439252730E+04  0.17978788806E+04 0.  0.
        4    1    3    3  502    0  0.72287600063E+03 -0.48786153177E+03 -0.23826818702E+03  0.90406411737E+03  0.12699999809E+01 0.  1.
       -4    1    3    3    0  502 -0.72287600063E+03  0.48786153177E+03 -0.73397769361E+03  0.11398611556E+04  0.12699999809E+01 0. -1.
</event>
<event>
 5   0  0.9184414E-05  0.1797432E+04  0.7818609E-02  0.8707667E-01
       -2   -1    0    0    0  501  0.00000000000E+00  0.00000000000E+00  0.54580187176E+03  0.54580187176E+03  0.25500000920E-02 0. -1.
        2   -1    0    0  501    0  0.00000000000E+00  0.00000000000E+00 -0.14798228641E+04  0.14798228641E+04  0.25500000920E-02 0.  1.
    10030    2    1    2    0    0  0.00000000000E+00  0.00000000000E+00 -0.93402099233E+03  0.20256247359E+04  0.17974315999E+04 0.  0.
        5    1    3    3  502    0 -0.39097897006E+03 -0.47979487208E+03  0.26732881906E+03  0.67420654239E+03  0.46999998093E+01 0. -1.
       -5    1    3    3    0  502  0.39097897006E+03  0.47979487208E+03 -0.12013498114E+04  0.13514181935E+04  0.46999998093E+01 0.  1.
</event>
<event>
 5   0  0.8802655E-05  0.1801177E+04  0.7818609E-02  0.8705674E-01
       -2   -1    0    0    0  501  0.00000000000E+00  0.00000000000E+00  0.49091054754E+03  0.49091054754E+03  0.25500000920E-02 0.  1.
        2   -1    0    0  501    0  0.00000000000E+00  0.00000000000E+00 -0.16521532726E+04  0.16521532726E+04  0.25500000920E-02 0. -1.
    10030    2    1    2    0    0  0.00000000000E+00  0.00000000000E+00 -0.11612427250E+04  0.21430638201E+04  0.18011768016E+04 0.  0.
        2    1    3    3  502    0  0.62218603571E+03  0.63902513413E+03 -0.72918554240E+03  0.11520330465E+04  0.25500000920E-02 0.  1.
       -2    1    3    3    0  502 -0.62218603571E+03 -0.63902513413E+03 -0.43205718264E+03  0.99103077357E+03  0.25500000920E-02 0. -1.
</event>
<event>
 5   0  0.9147432E-05  0.1801525E+04  0.7818609E-02  0.8705489E-01
        2   -1    0    0  501    0  0.00000000000E+00  0.00000000000E+00  0.14004355410E+04  0.14004355410E+04  0.25500000920E-02 0.  1.
       -2   -1    0    0    0  501  0.00000000000E+00  0.00000000000E+00 -0.57937202562E+03  0.57937202563E+03  0.25500000920E-02 0. -1.
    10030    2    1    2    0    0  0.00000000000E+00  0.00000000000E+00  0.82106351540E+03  0.19798075667E+04  0.18015251052E+04 0.  0.
        3    1    3    3  502    0  0.68255389028E+03 -0.39765640416E+03 -0.65158516608E+02  0.79262606026E+03  0.10100000352E+00 0. -1.
       -3    1    3    3    0  502 -0.68255389028E+03  0.39765640416E+03  0.88622203201E+03  0.11871815064E+04  0.10100000352E+00 0.  1.
</event>
<event>
 5   0  0.8802655E-05  0.1804004E+04  0.7818609E-02  0.8704173E-01
        2   -1    0    0  501    0  0.00000000000E+00  0.00000000000E+00  0.19688937440E+04  0.19688937440E+04  0.25500000920E-02 0. -1.
       -2   -1    0    0    0  501  0.00000000000E+00  0.00000000000E+00 -0.41323103260E+03  0.41323103261E+03  0.25500000920E-02 0.  1.
    10030    2    1    2    0    0  0.00000000000E+00  0.00000000000E+00  0.15556627114E+04  0.23821247766E+04  0.18040044290E+04 0.  0.
        2    1    3    3  502    0 -0.66139857205E+03 -0.74384950682E+01  0.15876377937E+04  0.17199119647E+04  0.25500000920E-02 0. -1.
       -2    1    3    3    0  502  0.66139857205E+03  0.74384950682E+01 -0.31975082340E+02  0.66221281188E+03  0.25500000920E-02 0.  1.
</event>
<event>
 5   0  0.9147432E-05  0.1796076E+04  0.7818609E-02  0.8708389E-01
       -2   -1    0    0    0  501  0.00000000000E+00  0.00000000000E+00  0.89733817603E+03  0.89733817604E+03  0.25500000920E-02 0.  1.
        2   -1    0    0  501    0  0.00000000000E+00  0.00000000000E+00 -0.89873882814E+03  0.89873882814E+03  0.25500000920E-02 0. -1.
    10030    2    1    2    0    0  0.00000000000E+00  0.00000000000E+00 -0.14006521012E+01  0.17960770042E+04  0.17960764580E+04 0.  0.
        3    1    3    3  502    0 -0.44743115515E+03 -0.37554241521E+03  0.68138924966E+03  0.89750658158E+03  0.10100000352E+00 0.  1.
       -3    1    3    3    0  502  0.44743115515E+03  0.37554241521E+03 -0.68278990176E+03  0.89857042260E+03  0.10100000352E+00 0. -1.
</event>
<event>
 5   0  0.9147432E-05  0.1793796E+04  0.7818609E-02  0.8709606E-01
       -2   -1    0    0    0  501  0.00000000000E+00  0.00000000000E+00  0.51155643040E+03  0.51155643041E+03  0.25500000920E-02 0.  1.
        2   -1    0    0  501    0  0.00000000000E+00  0.00000000000E+00 -0.15725072112E+04  0.15725072112E+04  0.25500000920E-02 0. -1.
    10030    2    1    2    0    0  0.00000000000E+00  0.00000000000E+00 -0.10609507808E+04  0.20840636416E+04  0.17937961710E+04 0.  0.
        3    1    3    3  502    0 -0.75420658475E+03  0.45934440171E+03 -0.34824658263E+03  0.94926315865E+03  0.10100000352E+00 0. -1.
       -3    1    3    3    0  502  0.75420658475E+03 -0.45934440171E+03 -0.71270419818E+03  0.11348004830E+04  0.10100000352E+00 0.  1.
</event>
<event>
 5   0  0.8892280E-05  0.1799092E+04  0.7818609E-02  0.8706782E-01
        2   -1    0    0  501    0  0.00000000000E+00  0.00000000000E+00  0.18506447891E+04  0.18506447891E+04  0.25500000920E-02 0. -1.
       -2   -1    0    0    0  501  0.00000000000E+00  0.00000000000E+00 -0.43724396075E+03  0.43724396076E+03  0.25500000920E-02 0.  1.
    10030    2    1    2    0    0  0.00000000000E+00  0.00000000000E+00  0.14134008284E+04  0.22878887499E+04  0.17990922795E+04 0.  0.
        4    1    3    3  502    0  0.71458599449E+03  0.52745658418E+03  0.52534265145E+03  0.10319060549E+04  0.12699999809E+01 0.  1.
       -4    1    3    3    0  502 -0.71458599449E+03 -0.52745658418E+03  0.88805817694E+03  0.12559826950E+04  0.12699999809E+01 0. -1.
</event>
<event>
 5   0  0.4335117E-05  0.1809123E+04  0.7818609E-02  0.8701463E-01
        1   -1    0    0  501    0  0.00000000000E+00  0.00000000000E+00  0.17184825117E+04  0.17184825117E+04  0.50400001928E-02 0. -1.
       -1   -1    0    0    0  501  0.00000000000E+00  0.00000000000E+00 -0.47613631722E+03  0.47613631725E+03  0.50400001928E-02 0.  1.
    10030    2    1    2    0    0  0.00000000000E+00  0.00000000000E+00  0.12423461945E+04  0.21946188290E+04  0.18091234722E+04 0.  0.
        3    1    3    3  502    0  0.25951684880E+03 -0.17746510824E+03 -0.40772605306E+03  0.51486250980E+03  0.10100000352E+00 0.  1.
       -3    1    3    3    0  502 -0.25951684880E+03  0.17746510824E+03  0.16500722475E+04  0.16797563192E+04  0.10100000352E+00 0. -1.
</event>
<event>
 5   0  0.4578107E-05  0.1804613E+04  0.7818609E-02  0.8703850E-01
       -1   -1    0    0    0  501  0.00000000000E+00  0.00000000000E+00  0.10148418088E+04  0.10148418088E+04  0.50400001928E-02 0. -1.
        1   -1    0    0  501    0  0.00000000000E+00  0.00000000000E+00 -0.80225025355E+03  0.80225025356E+03  0.50400001928E-02 0.  1.
    10030    2    1    2    0    0  0.00000000000E+00  0.00000000000E+00  0.21259155528E+03  0.18170920624E+04  0.18046130870E+04 0.  0.
        2    1    3    3  502    0 -0.50904429648E+03  0.55291261924E+03  0.60906675708E+03  0.96736796250E+03  0.25500000920E-02 0. -1.
       -2    1    3    3    0  502  0.50904429648E+03 -0.55291261924E+03 -0.39647520180E+03  0.84972409990E+03  0.25500000920E-02 0.  1.
</event>
<event>
 5   0  0.4578107E-05  0.1804486E+04  0.7818609E-02  0.8703917E-01
        1   -1    0    0  501    0  0.00000000000E+00  0.00000000000E+00  0.15765421985E+04  0.15765421985E+04  0.50400001928E-02 0.  1.
       -1   -1    0    0    0  501  0.00000000000E+00  0.00000000000E+00 -0.51634702834E+03  0.51634702836E+03  0.50400001928E-02 0. -1.
    10030    2    1    2    0    0  0.00000000000E+00  0.00000000000E+00  0.10601951701E+04  0.20928892268E+04  0.18044864968E+04 0.  0.
        2    1    3    3  502    0 -0.74736463307E+03 -0.68961379133E+02 -0.50664994033E+02  0.75224763755E+03  0.25500000920E-02 0. -1.
       -2    1    3    3    0  502  0.74736463307E+03  0.68961379133E+02  0.11108601642E+04  0.13406415893E+04  0.25500000920E-02 0.  1.
</event>
<event>
 5   0  0.4335117E-05  0.1799443E+04  0.7818609E-02  0.8706596E-01
        1   -1    0    0  501    0  0.00000000000E+00  0.00000000000E+00  0.10948437964E+04  0.10948437964E+04  0.50400001928E-02 0.  1.
       -1   -1    0    0    0  501  0.00000000000E+00  0.00000000000E+00 -0.73937396040E+03  0.73937396041E+03  0.50400001928E-02 0. -1.
    10030    2    1    2    0    0  0.00000000000E+00  0.00000000000E+00  0.35546983597E+03  0.18342177568E+04  0.17994432403E+04 0.  0.
        3    1    3    3  502    0 -0.48243140668E+03 -0.63848012902E+03 -0.24143216720E+03  0.83587465500E+03  0.10100000352E+00 0. -1.
       -3    1    3    3    0  502  0.48243140668E+03  0.63848012902E+03  0.59690200318E+03  0.99834310180E+03  0.10100000352E+00 0.  1.
</event>
<event>
 5   0  0.8893075E-05  0.1793126E+04  0.7818609E-02  0.8709963E-01
       -2   -1    0    0    0  501  0.00000000000E+00  0.00000000000E+00  0.46396686482E+03  0.46396686482E+03  0.25500000920E-02 0.  1.
        2   -1    0    0  501    0  0.00000000000E+00  0.00000000000E+00 -0.17325064265E+04  0.17325064265E+04  0.25500000920E-02 0. -1.
    10030    2    1    2    0    0  0.00000000000E+00  0.00000000000E+00 -0.12685395616E+04  0.21964732913E+04  0.17931264038E+04 0.  0.
        1    1    3    3  502    0 -0.72280149300E+03  0.88901941565E+02  0.63167808974E+01  0.72827567256E+03  0.50400001928E-02 0.  1.
       -1    1    3    3    0  502  0.72280149300E+03 -0.88901941565E+02 -0.12748563425E+04  0.14681976187E+04  0.50400001928E-02 0. -1.
</event>
<event>
 5   0  0.4335117E-05  0.1792824E+04  0.7818609E-02  0.8710125E-01
        1   -1    0    0  501    0  0.00000000000E+00  0.00000000000E+00  0.80246800813E+03  0.80246800815E+03  0.50400001928E-02 0.  1.
       -1   -1    0    0    0  501  0.00000000000E+00  0.00000000000E+00 -0.10013534393E+04  0.10013534393E+04  0.50400001928E-02 0. -1.
    10030    2    1    2    0    0  0.00000000000E+00  0.00000000000E+00 -0.19888543119E+03  0.18038214475E+04  0.17928235830E+04 0.  0.
        3    1    3    3  502    0 -0.22785069128E+03  0.17503656727E+02 -0.97155392372E+03  0.99806780953E+03  0.10100000352E+00 0. -1.
       -3    1    3    3    0  502  0.22785069128E+03 -0.17503656727E+02  0.77266849254E+03  0.80575363795E+03  0.10100000352E+00 0.  1.
</event>
<event>
 5   0  0.9147432E-05  0.1802622E+04  0.7818609E-02  0.8704906E-01
       -2   -1    0    0    0  501  0.00000000000E+00  0.00000000000E+00  0.19730272332E+04  0.19730272332E+04  0.25500000920E-02 0.  1.
        2   -1    0    0  501    0  0.00000000000E+00  0.00000000000E+00 -0.41173371761E+03  0.41173371762E+03  0.25500000920E-02 0. -1.
    10030    2    1    2    0    0  0.00000000000E+00  0.00000000000E+00  0.15612935156E+04  0.23847609508E+04  0.18026223539E+04 0.  0.
        3    1    3    3  502    0 -0.22150884324E+02 -0.29813226775E+02  0.19720143913E+04  0.19723641296E+04  0.10100000352E+00 0.  1.
       -3    1    3    3    0  502  0.22150884324E+02  0.29813226775E+02 -0.41072087572E+03  0.41239682118E+03  0.10100000352E+00 0. -1.
</event>
<event>
 5   0  0.4535100E-05  0.1799319E+04  0.7818609E-02  0.8706662E-01
       -1   -1    0    0    0  501  0.00000000000E+00  0.00000000000E+00  0.73439888144E+03  0.73439888146E+03  0.50400001928E-02 0.  1.
        1   -1    0    0  501    0  0.00000000000E+00  0.00000000000E+00 -0.11021083713E+04  0.11021083713E+04  0.50400001928E-02 0. -1.
    10030    2    1    2    0    0  0.00000000000E+00  0.00000000000E+00 -0.36770948981E+03  0.18365072527E+04  0.17993189324E+04 0.  0.
        1    1    3    3  502    0  0.25400208597E+02 -0.48326425116E+03 -0.95794758225E+03  0.10732441835E+04  0.50400001928E-02 0. -1.
       -1    1    3    3    0  502 -0.25400208597E+02  0.48326425116E+03  0.59023809244E+03  0.76326306923E+03  0.50400001928E-02 0.  1.
</event>
<event>
 5   0  0.8892280E-05  0.1799421E+04  0.7818609E-02  0.8706608E-01
       -2   -1    0    0    0  501  0.00000000000E+00  0.00000000000E+00  0.64990954334E+03  0.64990954335E+03  0.25500000920E-02 0.  1.
        2   -1    0    0  501    0  0.00000000000E+00  0.00000000000E+00 -0.12455254350E+04  0.12455254350E+04  0.25500000920E-02 0. -1.
    10030    2    1    2    0    0  0.00000000000E+00  0.00000000000E+00 -0.59561589166E+03  0.18954349784E+04  0.17994208698E+04 0.  0.
        4    1    3    3  502    0 -0.78311135040E+03  0.37816660623E+03 -0.54077523548E+03  0.10240668130E+04  0.12699999809E+01 0.  1.
       -4    1    3    3    0  502  0.78311135040E+03 -0.37816660623E+03 -0.54840656180E+02  0.87136816539E+03  0.12699999809E+01 0. -1.
</event>
<event>
 5   0  0.8892280E-05  0.1811175E+04  0.7818609E-02  0.8700379E-01
        2   -1    0    0  501    0  0.00000000000E+00  0.00000000000E+00  0.15322489642E+04  0.15322489642E+04  0.25500000920E-02 0. -1.
       -2   -1    0    0    0  501  0.00000000000E+00  0.00000000000E+00 -0.53521926298E+03  0.53521926299E+03  0.25500000920E-02 0.  1.
    10030    2    1    2    0    0  0.00000000000E+00  0.00000000000E+00  0.99702970124E+03  0.20674682272E+04  0.18111754872E+04 0.  0.
        4    1    3    3  502    0 -0.11319880718E+02  0.56810983047E+03  0.13034270589E+04  0.14219003587E+04  0.12699999809E+01 0. -1.
       -4    1    3    3    0  502  0.11319880718E+02 -0.56810983047E+03 -0.30639735769E+03  0.64556786853E+03  0.12699999809E+01 0.  1.
</event>
<event>
 5   0  0.4623665E-05  0.1791243E+04  0.7818609E-02  0.8710970E-01
        1   -1    0    0  501    0  0.00000000000E+00  0.00000000000E+00  0.11210877792E+04  0.11210877792E+04  0.50400001928E-02 0.  1.
       -1   -1    0    0    0  501  0.00000000000E+00  0.00000000000E+00 -0.71549955126E+03  0.71549955127E+03  0.50400001928E-02 0. -1.
    10030    2    1    2    0    0  0.00000000000E+00  0.00000000000E+00  0.40558822796E+03  0.18365873305E+04  0.17912429238E+04 0.  0.
        5    1    3    3  502    0 -0.90008544535E+02  0.26262300362E+03  0.10758440362E+04  0.11110962426E+04  0.46999998093E+01 0.  1.
       -5    1    3    3    0  502  0.90008544535E+02 -0.26262300362E+03 -0.67025580824E+03  0.72549108789E+03  0.46999998093E+01 0. -1.
</event>
<event>
 5   0  0.4335117E-05  0.1796097E+04  0.7818609E-02  0.8708378E-01
       -1   -1    0    0    0  501  0.00000000000E+00  0.00000000000E+00  0.14376003679E+04  0.14376003679E+04  0.50400001928E-02 0. -1.
        1   -1    0    0  501    0  0.00000000000E+00  0.00000000000E+00 -0.56099782898E+03  0.56099782900E+03  0.50400001928E-02 0.  1.
    10030    2    1    2    0    0  0.00000000000E+00  0.00000000000E+00  0.87660253891E+03  0.19985981969E+04  0.17960965290E+04 0.  0.
        3    1    3    3  502    0 -0.65358798068E+03  0.57634780433E+03  0.19671340986E+03  0.89333656360E+03  0.10100000352E+00 0.  1.
       -3    1    3    3    0  502  0.65358798068E+03 -0.57634780433E+03  0.67988912905E+03  0.11052616333E+04  0.10100000352E+00 0. -1.
</event>
<event>
 5   0  0.4578107E-05  0.1796628E+04  0.7818609E-02  0.8708095E-01
       -1   -1    0    0    0  501  0.00000000000E+00  0.00000000000E+00  0.94685839853E+03  0.94685839854E+03  0.50400001928E-02 0. -1.
        1   -1    0    0  501    0  0.00000000000E+00  0.00000000000E+00 -0.85225861930E+03  0.85225861932E+03  0.50400001928E-02 0.  1.
    10030    2    1    2    0    0  0.00000000000E+00  0.00000000000E+00  0.94599779227E+02  0.17991170179E+04  0.17966282102E+04 0.  0.
        2    1    3    3  502    0 -0.19833860848E+03  0.55576699762E+03 -0.63095149623E+03  0.86389521926E+03  0.25500000920E-02 0.  1.
       -2    1    3    3    0  502  0.19833860848E+03 -0.55576699762E+03  0.72555127546E+03  0.93522179860E+03  0.25500000920E-02 0. -1.
</event>
<event>
 5   0  0.8892280E-05  0.1814056E+04  0.7818609E-02  0.8698860E-01
        2   -1    0    0  501    0  0.00000000000E+00  0.00000000000E+00  0.13898523384E+04  0.13898523384E+04  0.25500000920E-02 0.  1.
       -2   -1    0    0    0  501  0.00000000000E+00  0.00000000000E+00 -0.59193301210E+03  0.59193301211E+03  0.25500000920E-02 0. -1.
    10030    2    1    2    0    0  0.00000000000E+00  0.00000000000E+00  0.79791932630E+03  0.19817853505E+04  0.18140556563E+04 0.  0.
        4    1    3    3  502    0 -0.27045571534E+03 -0.73407607129E+03  0.90040278266E+03  0.11927869702E+04  0.12699999809E+01 0.  1.
       -4    1    3    3    0  502  0.27045571534E+03  0.73407607129E+03 -0.10248345636E+03  0.78899838030E+03  0.12699999809E+01 0. -1.
</event>
<event>
 5   0  0.4335117E-05  0.1816292E+04  0.7818609E-02  0.8697683E-01
       -1   -1    0    0    0  501  0.00000000000E+00  0.00000000000E+00  0.53126441276E+03  0.53126441278E+03  0.50400001928E-02 0.  1.
        1   -1    0    0  501    0  0.00000000000E+00  0.00000000000E+00 -0.15523892150E+04  0.15523892150E+04  0.50400001928E-02 0. -1.
    10030    2    1    2    0    0  0.00000000000E+00  0.00000000000E+00 -0.10211248023E+04  0.20836536278E+04  0.18162919861E+04 0.  0.
        3    1    3    3  502    0 -0.46323706653E+03 -0.73653328258E+03 -0.80896564541E+03  0.11880636691E+04  0.10100000352E+00 0. -1.
       -3    1    3    3    0  502  0.46323706653E+03  0.73653328258E+03 -0.21215915687E+03  0.89558995874E+03  0.10100000352E+00 0.  1.
</event>
<event>
 5   0  0.8802655E-05  0.1807317E+04  0.7818609E-02  0.8702418E-01
       -2   -1    0    0    0  501  0.00000000000E+00  0.00000000000E+00  0.67811299716E+03  0.67811299716E+03  0.25500000920E-02 0. -1.
        2   -1    0    0  501    0  0.00000000000E+00  0.00000000000E+00 -0.12042223651E+04  0.12042223651E+04  0.25500000920E-02 0.  1.
    10030    2    1    2    0    0  0.00000000000E+00  0.00000000000E+00 -0.52610936791E+03  0.18823353622E+04  0.18073171689E+04 0.  0.
        2    1    3    3  502    0  0.78292904684E+03  0.45098817996E+03 -0.24723862488E+03  0.93674712088E+03  0.25500000920E-02 0. -1.
       -2    1    3    3    0  502 -0.78292904684E+03 -0.45098817996E+03 -0.27887074302E+03  0.94558824134E+03  0.25500000920E-02 0.  1.
</event>
<event>
 5   0  0.8892280E-05  0.1797337E+04  0.7818609E-02  0.8707717E-01
        2   -1    0    0  501    0  0.00000000000E+00  0.00000000000E+00  0.81402339202E+03  0.81402339202E+03  0.25500000920E-02 0.  1.
       -2   -1    0    0    0  501  0.00000000000E+00  0.00000000000E+00 -0.99211542571E+03  0.99211542571E+03  0.25500000920E-02 0. -1.
    10030    2    1    2    0    0  0.00000000000E+00  0.00000000000E+00 -0.17809203369E+03  0.18061388177E+04  0.17973371015E+04 0.  0.
        4    1    3    3  502    0  0.26939282675E+02 -0.31974200005E+03  0.75449483757E+03  0.81989312984E+03  0.12699999809E+01 0.  1.
       -4    1    3    3    0  502 -0.26939282675E+02  0.31974200005E+03 -0.93258687126E+03  0.98624568789E+03  0.12699999809E+01 0. -1.
</event>
<event>
 5   0  0.4623665E-05  0.1779662E+04  0.7818609E-02  0.8717190E-01
        1   -1    0    0  501    0  0.00000000000E+00  0.00000000000E+00  0.90375078005E+03  0.90375078007E+03  0.50400001928E-02 0. -1.
       -1   -1    0    0    0  501  0.00000000000E+00  0.00000000000E+00 -0.87612569396E+03  0.87612569397E+03  0.50400001928E-02 0.  1.
    10030    2    1    2    0    0  0.00000000000E+00  0.00000000000E+00  0.27625086099E+02  0.17798764740E+04  0.17796620796E+04 0.  0.
        5    1    3    3  502    0 -0.39362358748E+03 -0.73361803950E+02 -0.78092505991E+03  0.87760328286E+03  0.46999998093E+01 0.  1.
       -5    1    3    3    0  502  0.39362358748E+03  0.73361803950E+02  0.80855014601E+03  0.90227319117E+03  0.46999998093E+01 0. -1.
</event>
<event>
 5   0  0.4578107E-05  0.1756906E+04  0.7818609E-02  0.8729558E-01
        1   -1    0    0  501    0  0.00000000000E+00  0.00000000000E+00  0.75439806607E+03  0.75439806608E+03  0.50400001928E-02 0. -1.
       -1   -1    0    0    0  501  0.00000000000E+00  0.00000000000E+00 -0.10229076687E+04  0.10229076688E+04  0.50400001928E-02 0.  1.
    10030    2    1    2    0    0  0.00000000000E+00  0.00000000000E+00 -0.26850960267E+03  0.17773057348E+04  0.17569058792E+04 0.  0.
        2    1    3    3  502    0 -0.61469828266E+03  0.61997844452E+03 -0.35902895883E+02  0.87379417961E+03  0.25500000920E-02 0.  1.
       -2    1    3    3    0  502  0.61469828266E+03 -0.61997844452E+03 -0.23260670679E+03  0.90351155523E+03  0.25500000920E-02 0. -1.
</event>
<event>
 5   0  0.8802655E-05  0.1796291E+04  0.7818609E-02  0.8708274E-01
        2   -1    0    0  501    0  0.00000000000E+00  0.00000000000E+00  0.15455579608E+04  0.15455579608E+04  0.25500000920E-02 0.  1.
       -2   -1    0    0    0  501  0.00000000000E+00  0.00000000000E+00 -0.52192491048E+03  0.52192491049E+03  0.25500000920E-02 0. -1.
    10030    2    1    2    0    0  0.00000000000E+00  0.00000000000E+00  0.10236330503E+04  0.20674828713E+04  0.17962908454E+04 0.  0.
        2    1    3    3  502    0  0.74410409412E+02  0.16654938429E+03 -0.50037902973E+03  0.53259250824E+03  0.25500000920E-02 0. -1.
       -2    1    3    3    0  502 -0.74410409412E+02 -0.16654938429E+03  0.15240120801E+04  0.15348903631E+04  0.25500000920E-02 0.  1.
</event>
<event>
 5   0  0.9147432E-05  0.1798930E+04  0.7818609E-02  0.8706869E-01
       -2   -1    0    0    0  501  0.00000000000E+00  0.00000000000E+00  0.83820514028E+03  0.83820514028E+03  0.25500000920E-02 0. -1.
        2   -1    0    0  501    0  0.00000000000E+00  0.00000000000E+00 -0.96520203069E+03  0.96520203069E+03  0.25500000920E-02 0.  1.
    10030    2    1    2    0    0  0.00000000000E+00  0.00000000000E+00 -0.12699689041E+03  0.18034071710E+04  0.17989300192E+04 0.  0.
        3    1    3    3  502    0  0.57182870128E+03 -0.69146198161E+03 -0.12634064210E+03  0.90612896635E+03  0.10100000352E+00 0. -1.
       -3    1    3    3    0  502 -0.57182870128E+03  0.69146198161E+03 -0.65624831387E+00  0.89727820462E+03  0.10100000352E+00 0.  1.
</event>
<event>
 5   0  0.9184414E-05  0.1803868E+04  0.7818609E-02  0.8704245E-01
       -2   -1    0    0    0  501  0.00000000000E+00  0.00000000000E+00  0.33355283568E+03  0.33355283569E+03  0.25500000920E-02 0. -1.
        2   -1    0    0  501    0  0.00000000000E+00  0.00000000000E+00 -0.24388493234E+04  0.24388493234E+04  0.25500000920E-02 0.  1.
    10030    2    1    2    0    0  0.00000000000E+00  0.00000000000E+00 -0.21052964877E+04  0.27724021591E+04  0.18038681855E+04 0.  0.
        5    1    3    3  502    0 -0.66699345574E+03  0.13428231493E+02 -0.11979640371E+03  0.67781550273E+03  0.46999998093E+01 0.  1.
       -5    1    3    3    0  502  0.66699345574E+03 -0.13428231493E+02 -0.19855000840E+04  0.20945866563E+04  0.46999998093E+01 0. -1.
</event>
<event>
 5   0  0.4578107E-05  0.1797767E+04  0.7818609E-02  0.8707488E-01
       -1   -1    0    0    0  501  0.00000000000E+00  0.00000000000E+00  0.47376361145E+03  0.47376361148E+03  0.50400001928E-02 0. -1.
        1   -1    0    0  501    0  0.00000000000E+00  0.00000000000E+00 -0.17054734282E+04  0.17054734282E+04  0.50400001928E-02 0.  1.
    10030    2    1    2    0    0  0.00000000000E+00  0.00000000000E+00 -0.12317098167E+04  0.21792370397E+04  0.17977666708E+04 0.  0.
        2    1    3    3  502    0 -0.71881435071E+03 -0.53758638374E+03 -0.55774478277E+03  0.10567745424E+04  0.25500000920E-02 0. -1.
       -2    1    3    3    0  502  0.71881435071E+03  0.53758638374E+03 -0.67396503397E+03  0.11224624973E+04  0.25500000920E-02 0.  1.
</event>
<event>
 5   0  0.8802655E-05  0.1804581E+04  0.7818609E-02  0.8703867E-01
       -2   -1    0    0    0  501  0.00000000000E+00  0.00000000000E+00  0.53151296530E+03  0.53151296531E+03  0.25500000920E-02 0.  1.
        2   -1    0    0  501    0  0.00000000000E+00  0.00000000000E+00 -0.15317181347E+04  0.15317181347E+04  0.25500000920E-02 0. -1.
    10030    2    1    2    0    0  0.00000000000E+00  0.00000000000E+00 -0.10002051694E+04  0.20632311000E+04  0.18045808907E+04 0.  0.
        2    1    3    3  502    0 -0.68546014159E+03 -0.42892519289E+03 -0.42348371276E+02  0.80970723805E+03  0.25500000920E-02 0.  1.
       -2    1    3    3    0  502  0.68546014159E+03  0.42892519289E+03 -0.95785679814E+03  0.12535238620E+04  0.25500000920E-02 0. -1.
</event>
<event>
 5   0  0.4578107E-05  0.1802025E+04  0.7818609E-02  0.8705223E-01
       -1   -1    0    0    0  501  0.00000000000E+00  0.00000000000E+00  0.15139163046E+04  0.15139163046E+04  0.50400001928E-02 0. -1.
        1   -1    0    0  501    0  0.00000000000E+00  0.00000000000E+00 -0.53624075696E+03  0.53624075699E+03  0.50400001928E-02 0.  1.
    10030    2    1    2    0    0  0.00000000000E+00  0.00000000000E+00  0.97767554760E+03  0.20501570616E+04  0.18020251110E+04 0.  0.
        2    1    3    3  502    0 -0.82210090111E+03  0.12085439834E+03  0.88518725995E+03  0.12140890257E+04  0.25500000920E-02 0. -1.
       -2    1    3    3    0  502  0.82210090111E+03 -0.12085439834E+03  0.92488287657E+02  0.83606803584E+03  0.25500000920E-02 0.  1.
</event>
<event>
 5   0  0.9184414E-05  0.1802878E+04  0.7818609E-02  0.8704771E-01
       -2   -1    0    0    0  501  0.00000000000E+00  0.00000000000E+00  0.42413672603E+03  0.42413672604E+03  0.25500000920E-02 0.  1.
        2   -1    0    0  501    0  0.00000000000E+00  0.00000000000E+00 -0.19158731301E+04  0.19158731301E+04  0.25500000920E-02 0. -1.
    10030    2    1    2    0    0  0.00000000000E+00  0.00000000000E+00 -0.14917364040E+04  0.23400098561E+04  0.18028778737E+04 0.  0.
        5    1    3    3  502    0  0.88197767269E+03  0.80218386240E+02 -0.96402269273E+03  0.13090765626E+04  0.46999998093E+01 0. -1.
       -5    1    3    3    0  502 -0.88197767269E+03 -0.80218386240E+02 -0.52771371131E+03  0.10309332935E+04  0.46999998093E+01 0.  1.
</event>
<event>
 5   0  0.4535100E-05  0.1810968E+04  0.7818609E-02  0.8700489E-01
        1   -1    0    0  501    0  0.00000000000E+00  0.00000000000E+00  0.17240036923E+04  0.17240036923E+04  0.50400001928E-02 0. -1.
       -1   -1    0    0    0  501  0.00000000000E+00  0.00000000000E+00 -0.47557973799E+03  0.47557973802E+03  0.50400001928E-02 0.  1.
    10030    2    1    2    0    0  0.00000000000E+00  0.00000000000E+00  0.12484239543E+04  0.21995834304E+04  0.18109679449E+04 0.  0.
        1    1    3    3  502    0  0.39124506165E+03 -0.17671512003E+03 -0.34411430702E+03  0.55019595440E+03  0.50400001928E-02 0.  1.
       -1    1    3    3    0  502 -0.39124506165E+03  0.17671512003E+03  0.15925382614E+04  0.16493874760E+04  0.50400001928E-02 0. -1.
</event>
<event>
 5   0  0.4578107E-05  0.1798964E+04  0.7818609E-02  0.8706851E-01
        1   -1    0    0  501    0  0.00000000000E+00  0.00000000000E+00  0.20081377191E+04  0.20081377191E+04  0.50400001928E-02 0.  1.
       -1   -1    0    0    0  501  0.00000000000E+00  0.00000000000E+00 -0.40289455641E+03  0.40289455644E+03  0.50400001928E-02 0. -1.
    10030    2    1    2    0    0  0.00000000000E+00  0.00000000000E+00  0.16052431626E+04  0.24110322755E+04  0.17989638747E+04 0.  0.
        2    1    3    3  502    0 -0.62378446559E+03 -0.51208235274E+03  0.27034055866E+03  0.85112831768E+03  0.25500000920E-02 0. -1.
       -2    1    3    3    0  502  0.62378446559E+03  0.51208235274E+03  0.13349026040E+04  0.15599039578E+04  0.25500000920E-02 0.  1.
</event>
<event>
 5   0  0.4535100E-05  0.1722460E+04  0.7818609E-02  0.8748657E-01
       -1   -1    0    0    0  501  0.00000000000E+00  0.00000000000E+00  0.67595166514E+03  0.67595166516E+03  0.50400001928E-02 0.  1.
        1   -1    0    0  501    0  0.00000000000E+00  0.00000000000E+00 -0.10972927354E+04  0.10972927354E+04  0.50400001928E-02 0. -1.
    10030    2    1    2    0    0  0.00000000000E+00  0.00000000000E+00 -0.42134107023E+03  0.17732444005E+04  0.17224596967E+04 0.  0.
        1    1    3    3  502    0  0.41926740901E+02  0.27493782694E+03 -0.10497902869E+04  0.10860056660E+04  0.50400001928E-02 0. -1.
       -1    1    3    3    0  502 -0.41926740901E+02 -0.27493782694E+03  0.62844921662E+03  0.68723873449E+03  0.50400001928E-02 0.  1.
</event>
<event>
 5   0  0.9184414E-05  0.1800215E+04  0.7818609E-02  0.8706185E-01
       -2   -1    0    0    0  501  0.00000000000E+00  0.00000000000E+00  0.13464789626E+04  0.13464789626E+04  0.25500000920E-02 0. -1.
        2   -1    0    0  501    0  0.00000000000E+00  0.00000000000E+00 -0.60171257720E+03  0.60171257720E+03  0.25500000920E-02 0.  1.
    10030    2    1    2    0    0  0.00000000000E+00  0.00000000000E+00  0.74476638539E+03  0.19481915398E+04  0.18002147947E+04 0.  0.
        5    1    3    3  502    0  0.44804185386E+03 -0.63588787977E+03 -0.11769469059E+03  0.78674584755E+03  0.46999998093E+01 0.  1.
       -5    1    3    3    0  502 -0.44804185386E+03  0.63588787977E+03  0.86246107598E+03  0.11614456922E+04  0.46999998093E+01 0. -1.
</event>
<event>
 5   0  0.4623665E-05  0.1804265E+04  0.7818609E-02  0.8704035E-01
        1   -1    0    0  501    0  0.00000000000E+00  0.00000000000E+00  0.10876212557E+04  0.10876212557E+04  0.50400001928E-02 0. -1.
       -1   -1    0    0    0  501  0.00000000000E+00  0.00000000000E+00 -0.74827822943E+03  0.74827822945E+03  0.50400001928E-02 0.  1.
    10030    2    1    2    0    0  0.00000000000E+00  0.00000000000E+00  0.33934302623E+03  0.18358994851E+04  0.18042652882E+04 0.  0.
        5    1    3    3  502    0  0.19740799739E+03  0.42211134086E+03  0.95566113946E+03  0.10632300809E+04  0.46999998093E+01 0. -1.
       -5    1    3    3    0  502 -0.19740799739E+03 -0.42211134086E+03 -0.61631811322E+03  0.77266940421E+03  0.46999998093E+01 0.  1.
</event>
<event>
 5   0  0.4335117E-05  0.1801897E+04  0.7818609E-02  0.8705292E-01
        1   -1    0    0  501    0  0.00000000000E+00  0.00000000000E+00  0.10674519704E+04  0.10674519705E+04  0.50400001928E-02 0.  1.
       -1   -1    0    0    0  501  0.00000000000E+00  0.00000000000E+00 -0.76041621971E+03  0.76041621972E+03  0.50400001928E-02 0. -1.
    10030    2    1    2    0    0  0.00000000000E+00  0.00000000000E+00  0.30703575074E+03  0.18278681902E+04  0.18018965477E+04 0.  0.
        3    1    3    3  502    0 -0.14117802140E+03 -0.41181939234E+03 -0.64663599724E+03  0.77952842716E+03  0.10100000352E+00 0. -1.
       -3    1    3    3    0  502  0.14117802140E+03  0.41181939234E+03  0.95367174798E+03  0.10483397630E+04  0.10100000352E+00 0.  1.
</event>
<event>
 5   0  0.8893075E-05  0.1802403E+04  0.7818609E-02  0.8705022E-01
        2   -1    0    0  501    0  0.00000000000E+00  0.00000000000E+00  0.13146456858E+04  0.13146456858E+04  0.25500000920E-02 0. -1.
       -2   -1    0    0    0  501  0.00000000000E+00  0.00000000000E+00 -0.61778208623E+03  0.61778208623E+03  0.25500000920E-02 0.  1.
    10030    2    1    2    0    0  0.00000000000E+00  0.00000000000E+00  0.69686359961E+03  0.19324277721E+04  0.18024034559E+04 0.  0.
        1    1    3    3  502    0 -0.54107601479E+03  0.71893804049E+03  0.40235299999E+03  0.98565871197E+03  0.50400001928E-02 0.  1.
       -1    1    3    3    0  502  0.54107601479E+03 -0.71893804049E+03  0.29451059962E+03  0.94676906010E+03  0.50400001928E-02 0. -1.
</event>
<event>
 5   0  0.4335117E-05  0.1804418E+04  0.7818609E-02  0.8703953E-01
        1   -1    0    0  501    0  0.00000000000E+00  0.00000000000E+00  0.10925236999E+04  0.10925236999E+04  0.50400001928E-02 0. -1.
       -1   -1    0    0    0  501  0.00000000000E+00  0.00000000000E+00 -0.74504674182E+03  0.74504674183E+03  0.50400001928E-02 0.  1.
    10030    2    1    2    0    0  0.00000000000E+00  0.00000000000E+00  0.34747695806E+03  0.18375704417E+04  0.18044181588E+04 0.  0.
        3    1    3    3  502    0 -0.50863831603E+02 -0.78756742800E+03  0.61895686298E+03  0.10029741729E+04  0.10100000352E+00 0. -1.
       -3    1    3    3    0  502  0.50863831603E+02  0.78756742800E+03 -0.27147990492E+03  0.83459626885E+03  0.10100000352E+00 0.  1.
</event>
<event>
 5   0  0.9147432E-05  0.1787212E+04  0.7818609E-02  0.8713130E-01
       -2   -1    0    0    0  501  0.00000000000E+00  0.00000000000E+00  0.44474531294E+03  0.44474531295E+03  0.25500000920E-02 0. -1.
        2   -1    0    0  501    0  0.00000000000E+00  0.00000000000E+00 -0.17954804213E+04  0.17954804213E+04  0.25500000920E-02 0.  1.
    10030    2    1    2    0    0  0.00000000000E+00  0.00000000000E+00 -0.13507351083E+04  0.22402257342E+04  0.17872117970E+04 0.  0.
        3    1    3    3  502    0 -0.33056565726E+03  0.66467154475E+03 -0.51809826133E+02  0.74414123958E+03  0.10100000352E+00 0. -1.
       -3    1    3    3    0  502  0.33056565726E+03 -0.66467154475E+03 -0.12989252822E+04  0.14960844946E+04  0.10100000352E+00 0.  1.
</event>
<event>
 5   0  0.4535100E-05  0.1797317E+04  0.7818609E-02  0.8707728E-01
       -1   -1    0    0    0  501  0.00000000000E+00  0.00000000000E+00  0.13745309163E+04  0.13745309163E+04  0.50400001928E-02 0. -1.
        1   -1    0    0  501    0  0.00000000000E+00  0.00000000000E+00 -0.58753636119E+03  0.58753636121E+03  0.50400001928E-02 0.  1.
    10030    2    1    2    0    0  0.00000000000E+00  0.00000000000E+00  0.78699455512E+03  0.19620672775E+04  0.17973167700E+04 0.  0.
        1    1    3    3  502    0 -0.66734425814E+02  0.67095904029E+03 -0.25505389192E+03  0.72089666745E+03  0.50400001928E-02 0.  1.
       -1    1    3    3    0  502  0.66734425814E+02 -0.67095904029E+03  0.10420484470E+04  0.12411706101E+04  0.50400001928E-02 0. -1.
</event>
<event>
 5   0  0.4535100E-05  0.1796908E+04  0.7818609E-02  0.8707945E-01
       -1   -1    0    0    0  501  0.00000000000E+00  0.00000000000E+00  0.56940780743E+03  0.56940780745E+03  0.50400001928E-02 0. -1.
        1   -1    0    0  501    0  0.00000000000E+00  0.00000000000E+00 -0.14176481629E+04  0.14176481629E+04  0.50400001928E-02 0.  1.
    10030    2    1    2    0    0  0.00000000000E+00  0.00000000000E+00 -0.84824035544E+03  0.19870559703E+04  0.17969083807E+04 0.  0.
        1    1    3    3  502    0 -0.44105516372E+03 -0.74882297610E+03 -0.17206510742E+03  0.88592996799E+03  0.50400001928E-02 0. -1.
       -1    1    3    3    0  502  0.44105516372E+03  0.74882297610E+03 -0.67617524802E+03  0.11011260023E+04  0.50400001928E-02 0.  1.
</event>
<event>
 5   0  0.8893075E-05  0.1806285E+04  0.7818609E-02  0.8702964E-01
       -2   -1    0    0    0  501  0.00000000000E+00  0.00000000000E+00  0.55900758098E+03  0.55900758099E+03  0.25500000920E-02 0. -1.
        2   -1    0    0  501    0  0.00000000000E+00  0.00000000000E+00 -0.14591324121E+04  0.14591324121E+04  0.25500000920E-02 0.  1.
    10030    2    1    2    0    0  0.00000000000E+00  0.00000000000E+00 -0.90012483107E+03  0.20181399930E+04  0.18062846730E+04 0.  0.
        1    1    3    3  502    0 -0.42180446539E+03  0.43585303361E+03 -0.11977102040E+04  0.13425336520E+04  0.50400001928E-02 0.  1.
       -1    1    3    3    0  502  0.42180446539E+03 -0.43585303361E+03  0.29758537290E+03  0.67560634109E+03  0.50400001928E-02 0. -1.
</event>
<event>
 5   0  0.4535100E-05  0.1802778E+04  0.7818609E-02  0.8704824E-01
       -1   -1    0    0    0  501  0.00000000000E+00  0.00000000000E+00  0.46493514082E+03  0.46493514085E+03  0.50400001928E-02 0.  1.
        1   -1    0    0  501    0  0.00000000000E+00  0.00000000000E+00 -0.17475595671E+04  0.17475595671E+04  0.50400001928E-02 0. -1.
    10030    2    1    2    0    0  0.00000000000E+00  0.00000000000E+00 -0.12826244263E+04  0.22124947080E+04  0.18027776940E+04 0.  0.
        1    1    3    3  502    0  0.23430492313E+03 -0.46664879494E+03  0.26041127644E+03  0.58350143765E+03  0.50400001928E-02 0.  1.
       -1    1    3    3    0  502 -0.23430492313E+03  0.46664879494E+03 -0.15430357027E+04  0.16289932703E+04  0.50400001928E-02 0. -1.
</event>
<event>
 5   0  0.4535100E-05  0.1801707E+04  0.7818609E-02  0.8705392E-01
        1   -1    0    0  501    0  0.00000000000E+00  0.00000000000E+00  0.70213698774E+03  0.70213698775E+03  0.50400001928E-02 0.  1.
       -1   -1    0    0    0  501  0.00000000000E+00  0.00000000000E+00 -0.11558100952E+04  0.11558100952E+04  0.50400001928E-02 0. -1.
    10030    2    1    2    0    0  0.00000000000E+00  0.00000000000E+00 -0.45367310744E+03  0.18579470829E+04  0.18017069891E+04 0.  0.
        1    1    3    3  502    0 -0.39783214164E+03  0.79430393447E+03 -0.72678151443E+02  0.89133117693E+03  0.50400001928E-02 0.  1.
       -1    1    3    3    0  502  0.39783214164E+03 -0.79430393447E+03 -0.38099495600E+03  0.96661590601E+03  0.50400001928E-02 0. -1.
</event>
<event>
 5   0  0.9147432E-05  0.1794479E+04  0.7818609E-02  0.8709241E-01
        2   -1    0    0  501    0  0.00000000000E+00  0.00000000000E+00  0.18708238697E+04  0.18708238697E+04  0.25500000920E-02 0.  1.
       -2   -1    0    0    0  501  0.00000000000E+00  0.00000000000E+00 -0.43031246224E+03  0.43031246225E+03  0.25500000920E-02 0. -1.
    10030    2    1    2    0    0  0.00000000000E+00  0.00000000000E+00  0.14405114074E+04  0.23011363319E+04  0.17944791175E+04 0.  0.
        3    1    3    3  502    0 -0.24870931670E+03  0.12737484530E+03 -0.37309286967E+03  0.46613192878E+03  0.10100000352E+00 0. -1.
       -3    1    3    3    0  502  0.24870931670E+03 -0.12737484530E+03  0.18136042771E+04  0.18350044032E+04  0.10100000352E+00 0.  1.
</event>
<event>
 5   0  0.9184414E-05  0.1803971E+04  0.7818609E-02  0.8704191E-01
       -2   -1    0    0    0  501  0.00000000000E+00  0.00000000000E+00  0.38321925284E+03  0.38321925285E+03  0.25500000920E-02 0.  1.
        2   -1    0    0  501    0  0.00000000000E+00  0.00000000000E+00 -0.21230086207E+04  0.21230086207E+04  0.25500000920E-02 0. -1.
    10030    2    1    2    0    0  0.00000000000E+00  0.00000000000E+00 -0.17397893678E+04  0.25062278735E+04  0.18039709282E+04 0.  0.
        5    1    3    3  502    0  0.31170160695E+03  0.73662631255E+03 -0.14490436124E+04  0.16551512610E+04  0.46999998093E+01 0. -1.
       -5    1    3    3    0  502 -0.31170160695E+03 -0.73662631255E+03 -0.29074575545E+03  0.85107661255E+03  0.46999998093E+01 0.  1.
</event>
<event>
 5   0  0.8802655E-05  0.1795852E+04  0.7818609E-02  0.8708509E-01
       -2   -1    0    0    0  501  0.00000000000E+00  0.00000000000E+00  0.67884672309E+03  0.67884672309E+03  0.25500000920E-02 0.  1.
        2   -1    0    0  501    0  0.00000000000E+00  0.00000000000E+00 -0.11877068281E+04  0.11877068281E+04  0.25500000920E-02 0. -1.
    10030    2    1    2    0    0  0.00000000000E+00  0.00000000000E+00 -0.50886010499E+03  0.18665535512E+04  0.17958517625E+04 0.  0.
        2    1    3    3  502    0  0.84593009639E+03  0.53496091375E+02 -0.56242617060E+03  0.10172427228E+04  0.25500000920E-02 0. -1.
       -2    1    3    3    0  502 -0.84593009639E+03 -0.53496091375E+02  0.53566065606E+02  0.84931082835E+03  0.25500000920E-02 0.  1.
</event>
<event>
 5   0  0.8802655E-05  0.1799345E+04  0.7818609E-02  0.8706648E-01
        2   -1    0    0  501    0  0.00000000000E+00  0.00000000000E+00  0.72303037251E+03  0.72303037251E+03  0.25500000920E-02 0. -1.
       -2   -1    0    0    0  501  0.00000000000E+00  0.00000000000E+00 -0.11194698388E+04  0.11194698388E+04  0.25500000920E-02 0.  1.
    10030    2    1    2    0    0  0.00000000000E+00  0.00000000000E+00 -0.39643946625E+03  0.18425002113E+04  0.17993450970E+04 0.  0.
        2    1    3    3  502    0  0.21313440223E+03 -0.80829032029E+03  0.14240102000E+03  0.84796082798E+03  0.25500000920E-02 0. -1.
       -2    1    3    3    0  502 -0.21313440223E+03  0.80829032029E+03 -0.53884048625E+03  0.99453938329E+03  0.25500000920E-02 0.  1.
</event>
<event>
 5   0  0.9147432E-05  0.1800158E+04  0.7818609E-02  0.8706215E-01
       -2   -1    0    0    0  501  0.00000000000E+00  0.00000000000E+00  0.15613040860E+04  0.15613040860E+04  0.25500000920E-02 0.  1.
        2   -1    0    0  501    0  0.00000000000E+00  0.00000000000E+00 -0.51888839817E+03  0.51888839818E+03  0.25500000920E-02 0. -1.
    10030    2    1    2    0    0  0.00000000000E+00  0.00000000000E+00  0.10424156878E+04  0.20801924841E+04  0.18001584111E+04 0.  0.
        3    1    3    3  502    0  0.33784955378E+03 -0.27855447626E+03  0.14299281340E+04  0.14954696238E+04  0.10100000352E+00 0.  1.
       -3    1    3    3    0  502 -0.33784955378E+03  0.27855447626E+03 -0.38751244618E+03  0.58472286032E+03  0.10100000352E+00 0. -1.
</event>
<event>
 5   0  0.4578107E-05  0.1802682E+04  0.7818609E-02  0.8704874E-01
        1   -1    0    0  501    0  0.00000000000E+00  0.00000000000E+00  0.16634542620E+04  0.16634542620E+04  0.50400001928E-02 0.  1.
       -1   -1    0    0    0  501  0.00000000000E+00  0.00000000000E+00 -0.48839078712E+03  0.48839078714E+03  0.50400001928E-02 0. -1.
    10030    2    1    2    0    0  0.00000000000E+00  0.00000000000E+00  0.11750634749E+04  0.21518450492E+04  0.18026821532E+04 0.  0.
        2    1    3    3  502    0 -0.81296452995E+03  0.36832557580E+03  0.73776937348E+03  0.11579631709E+04  0.25500000920E-02 0. -1.
       -2    1    3    3    0  502  0.81296452995E+03 -0.36832557580E+03  0.43729410140E+03  0.99388187823E+03  0.25500000920E-02 0.  1.
</event>
<event>
 5   0  0.8893075E-05  0.1806128E+04  0.7818609E-02  0.8703048E-01
        2   -1    0    0  501    0  0.00000000000E+00  0.00000000000E+00  0.54114751657E+03  0.54114751657E+03  0.25500000920E-02 0.  1.
       -2   -1    0    0    0  501  0.00000000000E+00  0.00000000000E+00 -0.15070279621E+04  0.15070279621E+04  0.25500000920E-02 0. -1.
    10030    2    1    2    0    0  0.00000000000E+00  0.00000000000E+00 -0.96588044556E+03  0.20481754787E+04  0.18061278350E+04 0.  0.
        1    1    3    3  502    0 -0.37684582534E+03  0.61883727771E+03  0.12832639086E+03  0.73582607658E+03  0.50400001928E-02 0.  1.
       -1    1    3    3    0  502  0.37684582534E+03 -0.61883727771E+03 -0.10942068364E+04  0.13123494021E+04  0.50400001928E-02 0. -1.
</event>
<event>
 5   0  0.4335117E-05  0.1806164E+04  0.7818609E-02  0.8703028E-01
       -1   -1    0    0    0  501  0.00000000000E+00  0.00000000000E+00  0.71951120983E+03  0.71951120985E+03  0.50400001928E-02 0.  1.
        1   -1    0    0  501    0  0.00000000000E+00  0.00000000000E+00 -0.11334875790E+04  0.11334875790E+04  0.50400001928E-02 0. -1.
    10030    2    1    2    0    0  0.00000000000E+00  0.00000000000E+00 -0.41397636914E+03  0.18529987888E+04  0.18061639120E+04 0.  0.
        3    1    3    3  502    0 -0.18356296982E+03  0.85253301962E+03  0.33721225921E+02  0.87272277655E+03  0.10100000352E+00 0.  1.
       -3    1    3    3    0  502  0.18356296982E+03 -0.85253301962E+03 -0.44769759506E+03  0.98027601228E+03  0.10100000352E+00 0. -1.
</event>
<event>
 5   0  0.4335117E-05  0.1795796E+04  0.7818609E-02  0.8708538E-01
       -1   -1    0    0    0  501  0.00000000000E+00  0.00000000000E+00  0.73781799919E+03  0.73781799920E+03  0.50400001928E-02 0.  1.
        1   -1    0    0  501    0  0.00000000000E+00  0.00000000000E+00 -0.10927100234E+04  0.10927100234E+04  0.50400001928E-02 0. -1.
    10030    2    1    2    0    0  0.00000000000E+00  0.00000000000E+00 -0.35489202418E+03  0.18305280226E+04  0.17957963394E+04 0.  0.
        3    1    3    3  502    0  0.17194606720E+03 -0.52515727264E+03 -0.89885219409E+03  0.10551260058E+04  0.10100000352E+00 0. -1.
       -3    1    3    3    0  502 -0.17194606720E+03  0.52515727264E+03  0.54396016991E+03  0.77540201681E+03  0.10100000352E+00 0.  1.
</event>
<event>
 5   0  0.4494757E-05  0.1789151E+04  0.7818609E-02  0.8712090E-01
        1   -1    0    0  501    0  0.00000000000E+00  0.00000000000E+00  0.14988564805E+04  0.14988564805E+04  0.50400001928E-02 0.  1.
       -1   -1    0    0    0  501  0.00000000000E+00  0.00000000000E+00 -0.53391711873E+03  0.53391711875E+03  0.50400001928E-02 0. -1.
    10030    2    1    2    0    0  0.00000000000E+00  0.00000000000E+00  0.96493936177E+03  0.20327735993E+04  0.17891507857E+04 0.  0.
        4    1    3    3  502    0 -0.17596317203E+03 -0.33188375948E+03  0.14049038880E+04  0.14542580291E+04  0.12699999809E+01 0.  1.
       -4    1    3    3    0  502  0.17596317203E+03  0.33188375948E+03 -0.43996452622E+03  0.57851557019E+03  0.12699999809E+01 0. -1.
</event>
<event>
 5   0  0.8892280E-05  0.1815423E+04  0.7818609E-02  0.8698141E-01
        2   -1    0    0  501    0  0.00000000000E+00  0.00000000000E+00  0.52242453110E+03  0.52242453111E+03  0.25500000920E-02 0. -1.
       -2   -1    0    0    0  501  0.00000000000E+00  0.00000000000E+00 -0.15771462003E+04  0.15771462003E+04  0.25500000920E-02 0.  1.
    10030    2    1    2    0    0  0.00000000000E+00  0.00000000000E+00 -0.10547216692E+04  0.20995707314E+04  0.18154226661E+04 0.  0.
        4    1    3    3  502    0  0.67878489048E+03  0.23106085695E+03  0.11635413132E+03  0.72641444365E+03  0.12699999809E+01 0. -1.
       -4    1    3    3    0  502 -0.67878489048E+03 -0.23106085695E+03 -0.11710758005E+04  0.13731562878E+04  0.12699999809E+01 0.  1.
</event>
<event>
 5   0  0.4335117E-05  0.1812423E+04  0.7818609E-02  0.8699721E-01
       -1   -1    0    0    0  501  0.00000000000E+00  0.00000000000E+00  0.38618618882E+03  0.38618618885E+03  0.50400001928E-02 0.  1.
        1   -1    0    0  501    0  0.00000000000E+00  0.00000000000E+00 -0.21264851573E+04  0.21264851573E+04  0.50400001928E-02 0. -1.
    10030    2    1    2    0    0  0.00000000000E+00  0.00000000000E+00 -0.17402989684E+04  0.25126713461E+04  0.18124229071E+04 0.  0.
        3    1    3    3  502    0  0.26595921502E+03 -0.24453310617E+03 -0.20223212794E+04  0.20543403105E+04  0.10100000352E+00 0. -1.
       -3    1    3    3    0  502 -0.26595921502E+03  0.24453310617E+03  0.28202231100E+03  0.45833103557E+03  0.10100000352E+00 0.  1.
</event>
<event>
 5   0  0.9184414E-05  0.1789864E+04  0.7818609E-02  0.8711708E-01
        2   -1    0    0  501    0  0.00000000000E+00  0.00000000000E+00  0.57220989739E+03  0.57220989740E+03  0.25500000920E-02 0.  1.
       -2   -1    0    0    0  501  0.00000000000E+00  0.00000000000E+00 -0.13996675566E+04  0.13996675566E+04  0.25500000920E-02 0. -1.
    10030    2    1    2    0    0  0.00000000000E+00  0.00000000000E+00 -0.82745765924E+03  0.19718774540E+04  0.17898643848E+04 0.  0.
        5    1    3    3  502    0 -0.88574334405E+03  0.12084813232E+03 -0.45963110361E+03  0.10052006685E+04  0.46999998093E+01 0.  1.
       -5    1    3    3    0  502  0.88574334405E+03 -0.12084813232E+03 -0.36782655563E+03  0.96667678550E+03  0.46999998093E+01 0. -1.
</event>
<event>
 5   0  0.4335117E-05  0.1805366E+04  0.7818609E-02  0.8703451E-01
       -1   -1    0    0    0  501  0.00000000000E+00  0.00000000000E+00  0.84065945476E+03  0.84065945478E+03  0.50400001928E-02 0. -1.
        1   -1    0    0  501    0  0.00000000000E+00  0.00000000000E+00 -0.96928305601E+03  0.96928305602E+03  0.50400001928E-02 0.  1.
    10030    2    1    2    0    0  0.00000000000E+00  0.00000000000E+00 -0.12862360124E+03  0.18099425108E+04  0.18053664065E+04 0.  0.
        3    1    3    3  502    0 -0.54837771855E+03  0.66204926166E+03  0.21172154514E+03  0.88535494009E+03  0.10100000352E+00 0.  1.
       -3    1    3    3    0  502  0.54837771855E+03 -0.66204926166E+03 -0.34034514638E+03  0.92458757072E+03  0.10100000352E+00 0. -1.
</event>
<event>
 5   0  0.8893075E-05  0.1799383E+04  0.7818609E-02  0.8706628E-01
        2   -1    0    0  501    0  0.00000000000E+00  0.00000000000E+00  0.18846012935E+04  0.18846012935E+04  0.25500000920E-02 0.  1.
       -2   -1    0    0    0  501  0.00000000000E+00  0.00000000000E+00 -0.42950454285E+03  0.42950454286E+03  0.25500000920E-02 0. -1.
    10030    2    1    2    0    0  0.00000000000E+00  0.00000000000E+00  0.14550967506E+04  0.23141058363E+04  0.17993830243E+04 0.  0.
        1    1    3    3  502    0  0.53435351959E+03 -0.18511258934E+03  0.16274603324E+04  0.17229125016E+04  0.50400001928E-02 0.  1.
       -1    1    3    3    0  502 -0.53435351959E+03  0.18511258934E+03 -0.17236358181E+03  0.59119333470E+03  0.50400001928E-02 0. -1.
</event>
<event>
 5   0  0.4335117E-05  0.1795577E+04  0.7818609E-02  0.8708655E-01
       -1   -1    0    0    0  501  0.00000000000E+00  0.00000000000E+00  0.37763106573E+03  0.37763106576E+03  0.50400001928E-02 0.  1.
        1   -1    0    0  501    0  0.00000000000E+00  0.00000000000E+00 -0.21344215436E+04  0.21344215436E+04  0.50400001928E-02 0. -1.
    10030    2    1    2    0    0  0.00000000000E+00  0.00000000000E+00 -0.17567904778E+04  0.25120526093E+04  0.17955766564E+04 0.  0.
        3    1    3    3  502    0  0.21313401506E+03 -0.70250466284E+03 -0.16014138860E+04  0.17616655058E+04  0.10100000352E+00 0. -1.
       -3    1    3    3    0  502 -0.21313401506E+03  0.70250466284E+03 -0.15537659182E+03  0.75038710355E+03  0.10100000352E+00 0.  1.
</event>
<event>
 5   0  0.9184414E-05  0.1817244E+04  0.7818609E-02  0.8697183E-01
        2   -1    0    0  501    0  0.00000000000E+00  0.00000000000E+00  0.22681282070E+04  0.22681282070E+04  0.25500000920E-02 0.  1.
       -2   -1    0    0    0  501  0.00000000000E+00  0.00000000000E+00 -0.36399789549E+03  0.36399789550E+03  0.25500000920E-02 0. -1.
    10030    2    1    2    0    0  0.00000000000E+00  0.00000000000E+00  0.19041303115E+04  0.26321261025E+04  0.18172439507E+04 0.  0.
        5    1    3    3  502    0 -0.30813717485E+03  0.52044454236E+03 -0.30043215905E+02  0.60558709119E+03  0.46999998093E+01 0. -1.
       -5    1    3    3    0  502  0.30813717485E+03 -0.52044454236E+03  0.19341735274E+04  0.20265390113E+04  0.46999998093E+01 0.  1.
</event>
<event>
 5   0  0.9147432E-05  0.1701854E+04  0.7818609E-02  0.8760307E-01
       -2   -1    0    0    0  501  0.00000000000E+00  0.00000000000E+00  0.52637764344E+03  0.52637764344E+03  0.25500000920E-02 0.  1.
        2   -1    0    0  501    0  0.00000000000E+00  0.00000000000E+00 -0.13755848734E+04  0.13755848734E+04  0.25500000920E-02 0. -1.
    10030    2    1    2    0    0  0.00000000000E+00  0.00000000000E+00 -0.84920722996E+03  0.19019625168E+04  0.17018544286E+04 0.  0.
        3    1    3    3  502    0 -0.67864201292E+03  0.46490489157E+03 -0.66788149193E+03  0.10596023959E+04  0.10100000352E+00 0. -1.
       -3    1    3    3    0  502  0.67864201292E+03 -0.46490489157E+03 -0.18132573803E+03  0.84236012096E+03  0.10100000352E+00 0.  1.
</event>
<event>
 5   0  0.9147432E-05  0.1800092E+04  0.7818609E-02  0.8706250E-01
        2   -1    0    0  501    0  0.00000000000E+00  0.00000000000E+00  0.81113048274E+03  0.81113048274E+03  0.25500000920E-02 0.  1.
       -2   -1    0    0    0  501  0.00000000000E+00  0.00000000000E+00 -0.99870876972E+03  0.99870876972E+03  0.25500000920E-02 0. -1.
    10030    2    1    2    0    0  0.00000000000E+00  0.00000000000E+00 -0.18757828698E+03  0.18098392525E+04  0.18000923604E+04 0.  0.
        3    1    3    3  502    0  0.15315184170E+03  0.16800257252E+03  0.78178951669E+03  0.81417148660E+03  0.10100000352E+00 0.  1.
       -3    1    3    3    0  502 -0.15315184170E+03 -0.16800257252E+03 -0.96936780367E+03  0.99566776586E+03  0.10100000352E+00 0. -1.
</event>
<event>
 5   0  0.4535100E-05  0.1901720E+04  0.7818609E-02  0.8654001E-01
       -1   -1    0    0    0  501  0.00000000000E+00  0.00000000000E+00  0.76194514003E+03  0.76194514005E+03  0.50400001928E-02 0. -1.
        1   -1    0    0  501    0  0.00000000000E+00  0.00000000000E+00 -0.11866135086E+04  0.11866135087E+04  0.50400001928E-02 0.  1.
    10030    2    1    2    0    0  0.00000000000E+00  0.00000000000E+00 -0.42466836861E+03  0.19485586487E+04  0.19017196387E+04 0.  0.
        1    1    3    3  502    0 -0.18000887531E+03 -0.23140273456E+03  0.71447958047E+03  0.77228977184E+03  0.50400001928E-02 0. -1.
       -1    1    3    3    0  502  0.18000887531E+03  0.23140273456E+03 -0.11391479491E+04  0.11762688769E+04  0.50400001928E-02 0.  1.
</event>
<event>
 5   0  0.4494757E-05  0.1800376E+04  0.7818609E-02  0.8706099E-01
        1   -1    0    0  501    0  0.00000000000E+00  0.00000000000E+00  0.14390024479E+04  0.14390024479E+04  0.50400001928E-02 0. -1.
       -1   -1    0    0    0  501  0.00000000000E+00  0.00000000000E+00 -0.56312532652E+03  0.56312532654E+03  0.50400001928E-02 0.  1.
    10030    2    1    2    0    0  0.00000000000E+00  0.00000000000E+00  0.87587712136E+03  0.20021277744E+04  0.18003763199E+04 0.  0.
        4    1    3    3  502    0  0.32143362456E+03  0.81974660187E+03  0.64608425746E+03  0.10921220385E+04  0.12699999809E+01 0. -1.
       -4    1    3    3    0  502 -0.32143362456E+03 -0.81974660187E+03  0.22979286391E+03  0.91000573596E+03  0.12699999809E+01 0.  1.
</event>
<event>
 5   0  0.4535100E-05  0.1798942E+04  0.7818609E-02  0.8706862E-01
       -1   -1    0    0    0  501  0.00000000000E+00  0.00000000000E+00  0.43920489993E+03  0.43920489996E+03  0.50400001928E-02 0. -1.
        1   -1    0    0  501    0  0.00000000000E+00  0.00000000000E+00 -0.18420741508E+04  0.18420741508E+04  0.50400001928E-02 0.  1.
    10030    2    1    2    0    0  0.00000000000E+00  0.00000000000E+00 -0.14028692508E+04  0.22812790507E+04  0.17989419036E+04 0.  0.
        1    1    3    3  502    0 -0.38067707444E+03 -0.61123503841E+03 -0.17912158132E+02  0.72030837328E+03  0.50400001928E-02 0. -1.
       -1    1    3    3    0  502  0.38067707444E+03  0.61123503841E+03 -0.13849570927E+04  0.15609706775E+04  0.50400001928E-02 0.  1.
</event>
<event>
 5   0  0.3270375E-05  0.1791876E+04  0.7818609E-02  0.8710631E-01
       -3   -1    0    0    0  501  0.00000000000E+00  0.00000000000E+00  0.73332898756E+03  0.73332899452E+03  0.10100000352E+00 0. -1.
        3   -1    0    0  501    0  0.00000000000E+00  0.00000000000E+00 -0.10946045853E+04  0.10946045900E+04  0.10100000352E+00 0.  1.
    10030    2    1    2    0    0  0.00000000000E+00  0.00000000000E+00 -0.36127559774E+03  0.18279335845E+04  0.17918764276E+04 0.  0.
        2    1    3    3  502    0 -0.68252336613E+03  0.55279225929E+03 -0.19470878104E+00  0.87830374311E+03  0.25500000920E-02 0. -1.
       -2    1    3    3    0  502  0.68252336613E+03 -0.55279225929E+03 -0.36108088896E+03  0.94962984137E+03  0.25500000920E-02 0.  1.
</event>
<event>
 5   0  0.4335117E-05  0.1802350E+04  0.7818609E-02  0.8705051E-01
        1   -1    0    0  501    0  0.00000000000E+00  0.00000000000E+00  0.13185809578E+04  0.13185809578E+04  0.50400001928E-02 0.  1.
       -1   -1    0    0    0  501  0.00000000000E+00  0.00000000000E+00 -0.61590168444E+03  0.61590168446E+03  0.50400001928E-02 0. -1.
    10030    2    1    2    0    0  0.00000000000E+00  0.00000000000E+00  0.70267927339E+03  0.19344826423E+04  0.18023498362E+04 0.  0.
        3    1    3    3  502    0 -0.55896740414E+02  0.32816699445E+03 -0.54748942975E+03  0.64075167399E+03  0.10100000352E+00 0. -1.
       -3    1    3    3    0  502  0.55896740414E+02 -0.32816699445E+03  0.12501687031E+04  0.12937309683E+04  0.10100000352E+00 0.  1.
</event>
<event>
 5   0  0.4494757E-05  0.1796229E+04  0.7818609E-02  0.8708307E-01
       -1   -1    0    0    0  501  0.00000000000E+00  0.00000000000E+00  0.77761235125E+03  0.77761235126E+03  0.50400001928E-02 0.  1.
        1   -1    0    0  501    0  0.00000000000E+00  0.00000000000E+00 -0.10372901999E+04  0.10372901999E+04  0.50400001928E-02 0. -1.
    10030    2    1    2    0    0  0.00000000000E+00  0.00000000000E+00 -0.25967784868E+03  0.18149025512E+04  0.17962290180E+04 0.  0.
        4    1    3    3  502    0 -0.63596695923E+03 -0.23044236348E+03 -0.72678578756E+03  0.99286295631E+03  0.12699999809E+01 0. -1.
       -4    1    3    3    0  502  0.63596695923E+03  0.23044236348E+03  0.46710793888E+03  0.82203959489E+03  0.12699999809E+01 0.  1.
</event>
<event>
 5   0  0.4578107E-05  0.1698562E+04  0.7818609E-02  0.8762185E-01
        1   -1    0    0  501    0  0.00000000000E+00  0.00000000000E+00  0.80895476561E+03  0.80895476563E+03  0.50400001928E-02 0.  1.
       -1   -1    0    0    0  501  0.00000000000E+00  0.00000000000E+00 -0.89161729894E+03  0.89161729895E+03  0.50400001928E-02 0. -1.
    10030    2    1    2    0    0  0.00000000000E+00  0.00000000000E+00 -0.82662533324E+02  0.17005720646E+04  0.16985618188E+04 0.  0.
        2    1    3    3  502    0 -0.29154550497E+03  0.79653183508E+03  0.13374466872E+01  0.84821196321E+03  0.25500000920E-02 0. -1.
       -2    1    3    3    0  502  0.29154550497E+03 -0.79653183508E+03 -0.83999980011E+02  0.85236010137E+03  0.25500000920E-02 0.  1.
</event>
<event>
 5   0  0.8802655E-05  0.1801246E+04  0.7818609E-02  0.8705637E-01
       -2   -1    0    0    0  501  0.00000000000E+00  0.00000000000E+00  0.42714748288E+03  0.42714748289E+03  0.25500000920E-02 0. -1.
        2   -1    0    0  501    0  0.00000000000E+00  0.00000000000E+00 -0.18989277539E+04  0.18989277539E+04  0.25500000920E-02 0.  1.
    10030    2    1    2    0    0  0.00000000000E+00  0.00000000000E+00 -0.14717802710E+04  0.23260752368E+04  0.18012464687E+04 0.  0.
        2    1    3    3  502    0 -0.72942078533E+03 -0.40429605384E+03 -0.29680119074E+03  0.88521236326E+03  0.25500000920E-02 0. -1.
       -2    1    3    3    0  502  0.72942078533E+03  0.40429605384E+03 -0.11749790803E+04  0.14408628735E+04  0.25500000920E-02 0.  1.
</event>
<event>
 5   0  0.4623665E-05  0.1802970E+04  0.7818609E-02  0.8704721E-01
        1   -1    0    0  501    0  0.00000000000E+00  0.00000000000E+00  0.17760674755E+04  0.17760674755E+04  0.50400001928E-02 0. -1.
       -1   -1    0    0    0  501  0.00000000000E+00  0.00000000000E+00 -0.45757019849E+03  0.45757019852E+03  0.50400001928E-02 0.  1.
    10030    2    1    2    0    0  0.00000000000E+00  0.00000000000E+00  0.13184972770E+04  0.22336376740E+04  0.18029703795E+04 0.  0.
        5    1    3    3  502    0  0.49920623887E+03  0.64597738700E+03  0.18561983052E+03  0.83723978938E+03  0.46999998093E+01 0.  1.
       -5    1    3    3    0  502 -0.49920623887E+03 -0.64597738700E+03  0.11328774464E+04  0.13963978846E+04  0.46999998093E+01 0. -1.
</event>
<event>
 5   0  0.4335117E-05  0.1782019E+04  0.7818609E-02  0.8715920E-01
       -1   -1    0    0    0  501  0.00000000000E+00  0.00000000000E+00  0.49029164025E+03  0.49029164027E+03  0.50400001928E-02 0.  1.
        1   -1    0    0  501    0  0.00000000000E+00  0.00000000000E+00 -0.16192369202E+04  0.16192369202E+04  0.50400001928E-02 0. -1.
    10030    2    1    2    0    0  0.00000000000E+00  0.00000000000E+00 -0.11289452799E+04  0.21095285605E+04  0.17820194450E+04 0.  0.
        3    1    3    3  502    0 -0.28158192186E+03 -0.60446656483E+03  0.13509354776E+03  0.68038113111E+03  0.10100000352E+00 0.  1.
       -3    1    3    3    0  502  0.28158192186E+03  0.60446656483E+03 -0.12640388277E+04  0.14291474294E+04  0.10100000352E+00 0. -1.
</event>
<event>
 5   0  0.8802655E-05  0.1807864E+04  0.7818609E-02  0.8702128E-01
        2   -1    0    0  501    0  0.00000000000E+00  0.00000000000E+00  0.24032581529E+04  0.24032581529E+04  0.25500000920E-02 0.  1.
       -2   -1    0    0    0  501  0.00000000000E+00  0.00000000000E+00 -0.33999400300E+03  0.33999400301E+03  0.25500000920E-02 0. -1.
    10030    2    1    2    0    0  0.00000000000E+00  0.00000000000E+00  0.20632641499E+04  0.27432521559E+04  0.18078643308E+04 0.  0.
        2    1    3    3  502    0  0.10080295509E+03 -0.31114212810E+03  0.23103259673E+04  0.23333616811E+04  0.25500000920E-02 0.  1.
       -2    1    3    3    0  502 -0.10080295509E+03  0.31114212810E+03 -0.24706181747E+03  0.40989047475E+03  0.25500000920E-02 0. -1.
</event>
<event>
 5   0  0.4578107E-05  0.1804183E+04  0.7818609E-02  0.8704078E-01
       -1   -1    0    0    0  501  0.00000000000E+00  0.00000000000E+00  0.83085630207E+03  0.83085630209E+03  0.50400001928E-02 0. -1.
        1   -1    0    0  501    0  0.00000000000E+00  0.00000000000E+00 -0.97943368864E+03  0.97943368865E+03  0.50400001928E-02 0.  1.
    10030    2    1    2    0    0  0.00000000000E+00  0.00000000000E+00 -0.14857738656E+03  0.18102899907E+04  0.18041825326E+04 0.  0.
        2    1    3    3  502    0  0.43849341999E+03  0.64105944191E+03 -0.53468283925E+03  0.94293129444E+03  0.25500000920E-02 0.  1.
       -2    1    3    3    0  502 -0.43849341999E+03 -0.64105944191E+03  0.38610545269E+03  0.86735869630E+03  0.25500000920E-02 0. -1.
</event>
<event>
 5   0  0.4623665E-05  0.1797294E+04  0.7818609E-02  0.8707740E-01
        1   -1    0    0  501    0  0.00000000000E+00  0.00000000000E+00  0.13776314031E+04  0.13776314031E+04  0.50400001928E-02 0.  1.
       -1   -1    0    0    0  501  0.00000000000E+00  0.00000000000E+00 -0.58619901795E+03  0.58619901797E+03  0.50400001928E-02 0. -1.
    10030    2    1    2    0    0  0.00000000000E+00  0.00000000000E+00  0.79143238511E+03  0.19638304210E+04  0.17972937162E+04 0.  0.
        5    1    3    3  502    0 -0.82944873804E+02  0.80646704493E+03  0.81928941450E+03  0.11526171009E+04  0.46999998093E+01 0.  1.
       -5    1    3    3    0  502  0.82944873804E+02 -0.80646704493E+03 -0.27857029391E+02  0.81121332011E+03  0.46999998093E+01 0. -1.
</event>
<event>
 5   0  0.8893075E-05  0.1806512E+04  0.7818609E-02  0.8702844E-01
        2   -1    0    0  501    0  0.00000000000E+00  0.00000000000E+00  0.12636860427E+04  0.12636860427E+04  0.25500000920E-02 0. -1.
       -2   -1    0    0    0  501  0.00000000000E+00  0.00000000000E+00 -0.64562798182E+03  0.64562798183E+03  0.25500000920E-02 0.  1.
    10030    2    1    2    0    0  0.00000000000E+00  0.00000000000E+00  0.61805806087E+03  0.19093140245E+04  0.18065116323E+04 0.  0.
        1    1    3    3  502    0 -0.27698681301E+03 -0.45391218912E+03 -0.46266701939E+03  0.70485370175E+03  0.50400001928E-02 0.  1.
       -1    1    3    3    0  502  0.27698681301E+03  0.45391218912E+03  0.10807250803E+04  0.12044603228E+04  0.50400001928E-02 0. -1.
</event>
<event>
 5   0  0.8802655E-05  0.1802410E+04  0.7818609E-02  0.8705019E-01
        2   -1    0    0  501    0  0.00000000000E+00  0.00000000000E+00  0.12751132938E+04  0.12751132938E+04  0.25500000920E-02 0.  1.
       -2   -1    0    0    0  501  0.00000000000E+00  0.00000000000E+00 -0.63693983956E+03  0.63693983956E+03  0.25500000920E-02 0. -1.
    10030    2    1    2    0    0  0.00000000000E+00  0.00000000000E+00  0.63817345424E+03  0.19120531334E+04  0.18024100053E+04 0.  0.
        2    1    3    3  502    0 -0.45204913037E+03  0.75433132211E+03  0.52806323545E+03  0.10257752875E+04  0.25500000920E-02 0.  1.
       -2    1    3    3    0  502  0.45204913037E+03 -0.75433132211E+03  0.11011021879E+03  0.88627784587E+03  0.25500000920E-02 0. -1.
</event>
<event>
 5   0  0.8892280E-05  0.1801452E+04  0.7818609E-02  0.8705528E-01
        2   -1    0    0  501    0  0.00000000000E+00  0.00000000000E+00  0.14584722064E+04  0.14584722064E+04  0.25500000920E-02 0.  1.
       -2   -1    0    0    0  501  0.00000000000E+00  0.00000000000E+00 -0.55627186627E+03  0.55627186628E+03  0.25500000920E-02 0. -1.
    10030    2    1    2    0    0  0.00000000000E+00  0.00000000000E+00  0.90220034010E+03  0.20147440727E+04  0.18014516992E+04 0.  0.
        4    1    3    3  502    0  0.44035310062E+03 -0.57389223829E+03  0.10513408026E+04  0.12761591792E+04  0.12699999809E+01 0.  1.
       -4    1    3    3    0  502 -0.44035310062E+03  0.57389223829E+03 -0.14914046255E+03  0.73858489347E+03  0.12699999809E+01 0. -1.
</event>
<event>
 5   0  0.9184414E-05  0.1776476E+04  0.7818609E-02  0.8718910E-01
       -2   -1    0    0    0  501  0.00000000000E+00  0.00000000000E+00  0.46309224792E+03  0.46309224793E+03  0.25500000920E-02 0. -1.
        2   -1    0    0  501    0  0.00000000000E+00  0.00000000000E+00 -0.17036926623E+04  0.17036926623E+04  0.25500000920E-02 0.  1.
    10030    2    1    2    0    0  0.00000000000E+00  0.00000000000E+00 -0.12406004144E+04  0.21667849102E+04  0.17764761352E+04 0.  0.
        5    1    3    3  502    0 -0.62375367109E+03 -0.28713174864E+03  0.66897069314E+02  0.68993520794E+03  0.46999998093E+01 0. -1.
       -5    1    3    3    0  502  0.62375367109E+03  0.28713174864E+03 -0.13074974837E+04  0.14768497023E+04  0.46999998093E+01 0.  1.
</event>
<event>
 5   0  0.8892280E-05  0.1791630E+04  0.7818609E-02  0.8710763E-01
       -2   -1    0    0    0  501  0.00000000000E+00  0.00000000000E+00  0.86888822436E+03  0.86888822436E+03  0.25500000920E-02 0. -1.
        2   -1    0    0  501    0  0.00000000000E+00  0.00000000000E+00 -0.92357611469E+03  0.92357611469E+03  0.25500000920E-02 0.  1.
    10030    2    1    2    0    0  0.00000000000E+00  0.00000000000E+00 -0.54687890330E+02  0.17924643391E+04  0.17916298840E+04 0.  0.
        4    1    3    3  502    0 -0.12392311639E+03 -0.22502218665E+03  0.83124622365E+03  0.87003667767E+03  0.12699999809E+01 0. -1.
       -4    1    3    3    0  502  0.12392311639E+03  0.22502218665E+03 -0.88593411398E+03  0.92242766138E+03  0.12699999809E+01 0.  1.
</event>
<event>
 5   0  0.8893075E-05  0.1801706E+04  0.7818609E-02  0.8705393E-01
        2   -1    0    0  501    0  0.00000000000E+00  0.00000000000E+00  0.20512119738E+04  0.20512119738E+04  0.25500000920E-02 0.  1.
       -2   -1    0    0    0  501  0.00000000000E+00  0.00000000000E+00 -0.39563737513E+03  0.39563737514E+03  0.25500000920E-02 0. -1.
    10030    2    1    2    0    0  0.00000000000E+00  0.00000000000E+00  0.16555745987E+04  0.24468493489E+04  0.18017059928E+04 0.  0.
        1    1    3    3  502    0  0.27815888043E+03 -0.17762449475E+03 -0.31057758444E+03  0.45319009243E+03  0.50400001928E-02 0. -1.
       -1    1    3    3    0  502 -0.27815888043E+03  0.17762449475E+03  0.19661521831E+04  0.19936592565E+04  0.50400001928E-02 0.  1.
</event>
<event>
 5   0  0.4578107E-05  0.1796883E+04  0.7818609E-02  0.8707959E-01
        1   -1    0    0  501    0  0.00000000000E+00  0.00000000000E+00  0.73049083901E+03  0.73049083902E+03  0.50400001928E-02 0. -1.
       -1   -1    0    0    0  501  0.00000000000E+00  0.00000000000E+00 -0.11050063575E+04  0.11050063575E+04  0.50400001928E-02 0.  1.
    10030    2    1    2    0    0  0.00000000000E+00  0.00000000000E+00 -0.37451551850E+03  0.18354971965E+04  0.17968828801E+04 0.  0.
        2    1    3    3  502    0  0.82887788507E+03 -0.32991421449E+03 -0.78599474611E+02  0.89557792218E+03  0.25500000920E-02 0. -1.
       -2    1    3    3    0  502 -0.82887788507E+03  0.32991421449E+03 -0.29591604389E+03  0.93991927436E+03  0.25500000920E-02 0.  1.
</event>
<event>
 5   0  0.8802655E-05  0.1798438E+04  0.7818609E-02  0.8707131E-01
        2   -1    0    0  501    0  0.00000000000E+00  0.00000000000E+00  0.79025579102E+03  0.79025579103E+03  0.25500000920E-02 0. -1.
       -2   -1    0    0    0  501  0.00000000000E+00  0.00000000000E+00 -0.10232062221E+04  0.10232062221E+04  0.25500000920E-02 0.  1.
    10030    2    1    2    0    0  0.00000000000E+00  0.00000000000E+00 -0.23295043108E+03  0.18134620131E+04  0.17984378137E+04 0.  0.
        2    1    3    3  502    0  0.24575058359E+03  0.48097194484E+03  0.60846561009E+03  0.81360786607E+03  0.25500000920E-02 0. -1.
       -2    1    3    3    0  502 -0.24575058359E+03 -0.48097194484E+03 -0.84141604117E+03  0.99985414706E+03  0.25500000920E-02 0.  1.
</event>
<event>
 5   0  0.9147432E-05  0.1798216E+04  0.7818609E-02  0.8707249E-01
       -2   -1    0    0    0  501  0.00000000000E+00  0.00000000000E+00  0.45122206473E+03  0.45122206474E+03  0.25500000920E-02 0.  1.
        2   -1    0    0  501    0  0.00000000000E+00  0.00000000000E+00 -0.17915687844E+04  0.17915687844E+04  0.25500000920E-02 0. -1.
    10030    2    1    2    0    0  0.00000000000E+00  0.00000000000E+00 -0.13403467196E+04  0.22427908491E+04  0.17982161894E+04 0.  0.
        3    1    3    3  502    0  0.22140985054E+03  0.63754152304E+03  0.70763528920E+02  0.67859340016E+03  0.10100000352E+00 0.  1.
       -3    1    3    3    0  502 -0.22140985054E+03 -0.63754152304E+03 -0.14111102486E+04  0.15641974489E+04  0.10100000352E+00 0. -1.
</event>
<event>
 5   0  0.9184414E-05  0.1803164E+04  0.7818609E-02  0.8704619E-01
        2   -1    0    0  501    0  0.00000000000E+00  0.00000000000E+00  0.99237613534E+03  0.99237613535E+03  0.25500000920E-02 0.  1.
       -2   -1    0    0    0  501  0.00000000000E+00  0.00000000000E+00 -0.81909440639E+03  0.81909440639E+03  0.25500000920E-02 0. -1.
    10030    2    1    2    0    0  0.00000000000E+00  0.00000000000E+00  0.17328172896E+03  0.18114705417E+04  0.18031635993E+04 0.  0.
        5    1    3    3  502    0 -0.85477459739E+03  0.21961015979E+03 -0.98488903308E+02  0.88802611938E+03  0.46999998093E+01 0. -1.
       -5    1    3    3    0  502  0.85477459739E+03 -0.21961015979E+03  0.27177063226E+03  0.92344442236E+03  0.46999998093E+01 0.  1.
</event>
<event>
 5   0  0.8893075E-05  0.1802287E+04  0.7818609E-02  0.8705084E-01
       -2   -1    0    0    0  501  0.00000000000E+00  0.00000000000E+00  0.93243544891E+03  0.93243544892E+03  0.25500000920E-02 0.  1.
        2   -1    0    0  501    0  0.00000000000E+00  0.00000000000E+00 -0.87090159444E+03  0.87090159445E+03  0.25500000920E-02 0. -1.
    10030    2    1    2    0    0  0.00000000000E+00  0.00000000000E+00  0.61533854469E+02  0.18033370434E+04  0.18022869019E+04 0.  0.
        1    1    3    3  502    0  0.16892143580E+03  0.18622906600E+03  0.89662876205E+03  0.93121364545E+03  0.50400001928E-02 0.  1.
       -1    1    3    3    0  502 -0.16892143580E+03 -0.18622906600E+03 -0.83509490758E+03  0.87212339792E+03  0.50400001928E-02 0. -1.
</event>
<event>
 5   0  0.4535100E-05  0.1813246E+04  0.7818609E-02  0.8699287E-01
        1   -1    0    0  501    0  0.00000000000E+00  0.00000000000E+00  0.11447110608E+04  0.11447110608E+04  0.50400001928E-02 0.  1.
       -1   -1    0    0    0  501  0.00000000000E+00  0.00000000000E+00 -0.71805440270E+03  0.71805440272E+03  0.50400001928E-02 0. -1.
    10030    2    1    2    0    0  0.00000000000E+00  0.00000000000E+00  0.42665665810E+03  0.18627654635E+04  0.18132455069E+04 0.  0.
        1    1    3    3  502    0 -0.30531612905E+03 -0.49873458752E+02 -0.66215420328E+03  0.73085805016E+03  0.50400001928E-02 0. -1.
       -1    1    3    3    0  502  0.30531612905E+03  0.49873458752E+02  0.10888108614E+04  0.11319074134E+04  0.50400001928E-02 0.  1.
</event>
<event>
 5   0  0.8802655E-05  0.1803680E+04  0.7818609E-02  0.8704345E-01
        2   -1    0    0  501    0  0.00000000000E+00  0.00000000000E+00  0.12179286343E+04  0.12179286343E+04  0.25500000920E-02 0. -1.
       -2   -1    0    0    0  501  0.00000000000E+00  0.00000000000E+00 -0.66778598095E+03  0.66778598095E+03  0.25500000920E-02 0.  1.
    10030    2    1    2    0    0  0.00000000000E+00  0.00000000000E+00  0.55014265339E+03  0.18857146153E+04  0.18036803129E+04 0.  0.
        2    1    3    3  502    0 -0.45478713769E+03 -0.55329054706E+03 -0.29790019680E+03  0.77569729748E+03  0.25500000920E-02 0.  1.
       -2    1    3    3    0  502  0.45478713769E+03  0.55329054706E+03  0.84804285019E+03  0.11100173178E+04  0.25500000920E-02 0. -1.
</event>
<event>
 5   0  0.4335117E-05  0.1784756E+04  0.7818609E-02  0.8714448E-01
        1   -1    0    0  501    0  0.00000000000E+00  0.00000000000E+00  0.12766624410E+04  0.12766624411E+04  0.50400001928E-02 0.  1.
       -1   -1    0    0    0  501  0.00000000000E+00  0.00000000000E+00 -0.62376606537E+03  0.62376606539E+03  0.50400001928E-02 0. -1.
    10030    2    1    2    0    0  0.00000000000E+00  0.00000000000E+00  0.65289637567E+03  0.19004285064E+04  0.17847562385E+04 0.  0.
        3    1    3    3  502    0 -0.37189369326E+03 -0.62830823778E+03  0.87279342123E+03  0.11379123548E+04  0.10100000352E+00 0.  1.
       -3    1    3    3    0  502  0.37189369326E+03  0.62830823778E+03 -0.21989704556E+03  0.76251615170E+03  0.10100000352E+00 0. -1.
</event>
<event>
 5   0  0.9184414E-05  0.1808004E+04  0.7818609E-02  0.8702055E-01
       -2   -1    0    0    0  501  0.00000000000E+00  0.00000000000E+00  0.72367742694E+03  0.72367742694E+03  0.25500000920E-02 0. -1.
        2   -1    0    0  501    0  0.00000000000E+00  0.00000000000E+00 -0.11292590710E+04  0.11292590710E+04  0.25500000920E-02 0.  1.
    10030    2    1    2    0    0  0.00000000000E+00  0.00000000000E+00 -0.40558164402E+03  0.18529364979E+04  0.18080036491E+04 0.  0.
        5    1    3    3  502    0 -0.49293013600E+02 -0.85820428845E+03  0.83898287349E+02  0.86371604971E+03  0.46999998093E+01 0. -1.
       -5    1    3    3    0  502  0.49293013600E+02  0.85820428845E+03 -0.48947993137E+03  0.98922044819E+03  0.46999998093E+01 0.  1.
</event>
<event>
 5   0  0.4494757E-05  0.1799205E+04  0.7818609E-02  0.8706723E-01
       -1   -1    0    0    0  501  0.00000000000E+00  0.00000000000E+00  0.45229880204E+03  0.45229880206E+03  0.50400001928E-02 0. -1.
        1   -1    0    0  501    0  0.00000000000E+00  0.00000000000E+00 -0.17892693558E+04  0.17892693558E+04  0.50400001928E-02 0.  1.
    10030    2    1    2    0    0  0.00000000000E+00  0.00000000000E+00 -0.13369705538E+04  0.22415681579E+04  0.17992046978E+04 0.  0.
        4    1    3    3  502    0 -0.38446935697E+03  0.51862236605E+03  0.11204454953E+03  0.65524151196E+03  0.12699999809E+01 0. -1.
       -4    1    3    3    0  502  0.38446935697E+03 -0.51862236605E+03 -0.14490151033E+04  0.15863266459E+04  0.12699999809E+01 0.  1.
</event>
<event>
 5   0  0.8892280E-05  0.1798363E+04  0.7818609E-02  0.8707170E-01
        2   -1    0    0  501    0  0.00000000000E+00  0.00000000000E+00  0.93887079109E+03  0.93887079109E+03  0.25500000920E-02 0. -1.
       -2   -1    0    0    0  501  0.00000000000E+00  0.00000000000E+00 -0.86117038618E+03  0.86117038619E+03  0.25500000920E-02 0.  1.
    10030    2    1    2    0    0  0.00000000000E+00  0.00000000000E+00  0.77700404905E+02  0.18000411773E+04  0.17983633912E+04 0.  0.
        4    1    3    3  502    0  0.10923225049E+03  0.89243045428E+03  0.51602126204E+02  0.90057103696E+03  0.12699999809E+01 0.  1.
       -4    1    3    3    0  502 -0.10923225049E+03 -0.89243045428E+03  0.26098278700E+02  0.89947014032E+03  0.12699999809E+01 0. -1.
</event>
<event>
 5   0  0.4535100E-05  0.1803542E+04  0.7818609E-02  0.8704418E-01
       -1   -1    0    0    0  501  0.00000000000E+00  0.00000000000E+00  0.54780898241E+03  0.54780898243E+03  0.50400001928E-02 0.  1.
        1   -1    0    0  501    0  0.00000000000E+00  0.00000000000E+00 -0.14844428762E+04  0.14844428762E+04  0.50400001928E-02 0. -1.
    10030    2    1    2    0    0  0.00000000000E+00  0.00000000000E+00 -0.93663389381E+03  0.20322518587E+04  0.18035422274E+04 0.  0.
        1    1    3    3  502    0  0.89932739077E+03  0.58645994128E+02 -0.50326686898E+03  0.10322338155E+04  0.50400001928E-02 0.  1.
       -1    1    3    3    0  502 -0.89932739077E+03 -0.58645994128E+02 -0.43336702483E+03  0.10000180432E+04  0.50400001928E-02 0. -1.
</event>
<event>
 5   0  0.8893075E-05  0.1804173E+04  0.7818609E-02  0.8704084E-01
        2   -1    0    0  501    0  0.00000000000E+00  0.00000000000E+00  0.19316386729E+04  0.19316386729E+04  0.25500000920E-02 0.  1.
       -2   -1    0    0    0  501  0.00000000000E+00  0.00000000000E+00 -0.42127946499E+03  0.42127946500E+03  0.25500000920E-02 0. -1.
    10030    2    1    2    0    0  0.00000000000E+00  0.00000000000E+00  0.15103592079E+04  0.23529181379E+04  0.18041726156E+04 0.  0.
        1    1    3    3  502    0 -0.33486680917E+03 -0.54280961182E+03 -0.76806640797E+02  0.64239965338E+03  0.50400001928E-02 0. -1.
       -1    1    3    3    0  502  0.33486680917E+03  0.54280961182E+03  0.15871658487E+04  0.17105184845E+04  0.50400001928E-02 0.  1.
</event>
<event>
 5   0  0.4494757E-05  0.1807409E+04  0.7818609E-02  0.8702369E-01
       -1   -1    0    0    0  501  0.00000000000E+00  0.00000000000E+00  0.10479532798E+04  0.10479532798E+04  0.50400001928E-02 0. -1.
        1   -1    0    0  501    0  0.00000000000E+00  0.00000000000E+00 -0.77931144074E+03  0.77931144076E+03  0.50400001928E-02 0.  1.
    10030    2    1    2    0    0  0.00000000000E+00  0.00000000000E+00  0.26864183907E+03  0.18272647206E+04  0.18074091738E+04 0.  0.
        4    1    3    3  502    0 -0.51360469934E+03 -0.44332588576E+03  0.73783170767E+03  0.10023596510E+04  0.12699999809E+01 0. -1.
       -4    1    3    3    0  502  0.51360469934E+03  0.44332588576E+03 -0.46918986860E+03  0.82490506961E+03  0.12699999809E+01 0.  1.
</event>
<event>
 5   0  0.9147432E-05  0.1784417E+04  0.7818609E-02  0.8714631E-01
        2   -1    0    0  501    0  0.00000000000E+00  0.00000000000E+00  0.99279432814E+03  0.99279432814E+03  0.25500000920E-02 0.  1.
       -2   -1    0    0    0  501  0.00000000000E+00  0.00000000000E+00 -0.80181339748E+03  0.80181339748E+03  0.25500000920E-02 0. -1.
    10030    2    1    2    0    0  0.00000000000E+00  0.00000000000E+00  0.19098093066E+03  0.17946077256E+04  0.17844167599E+04 0.  0.
        3    1    3    3  502    0  0.12670535834E+03  0.80266919441E+03 -0.27499321582E+03  0.85787724205E+03  0.10100000352E+00 0. -1.
       -3    1    3    3    0  502 -0.12670535834E+03 -0.80266919441E+03  0.46597414647E+03  0.93673048358E+03  0.10100000352E+00 0.  1.
</event>
<event>
 5   0  0.4335117E-05  0.1785065E+04  0.7818609E-02  0.8714282E-01
        1   -1    0    0  501    0  0.00000000000E+00  0.00000000000E+00  0.14070591424E+04  0.14070591424E+04  0.50400001928E-02 0.  1.
       -1   -1    0    0    0  501  0.00000000000E+00  0.00000000000E+00 -0.56615576949E+03  0.56615576951E+03  0.50400001928E-02 0. -1.
    10030    2    1    2    0    0  0.00000000000E+00  0.00000000000E+00  0.84090337288E+03  0.19732149119E+04  0.17850654347E+04 0.  0.
        3    1    3    3  502    0  0.41054193357E+03 -0.66214044672E+03 -0.60925175179E+02  0.78146435464E+03  0.10100000352E+00 0. -1.
       -3    1    3    3    0  502 -0.41054193357E+03  0.66214044672E+03  0.90182854806E+03  0.11917505573E+04  0.10100000352E+00 0.  1.
</event>
<event>
 5   0  0.8893075E-05  0.1799841E+04  0.7818609E-02  0.8706384E-01
        2   -1    0    0  501    0  0.00000000000E+00  0.00000000000E+00  0.11414630703E+04  0.11414630703E+04  0.25500000920E-02 0. -1.
       -2   -1    0    0    0  501  0.00000000000E+00  0.00000000000E+00 -0.70948986438E+03  0.70948986439E+03  0.25500000920E-02 0.  1.
    10030    2    1    2    0    0  0.00000000000E+00  0.00000000000E+00  0.43197320596E+03  0.18509529347E+04  0.17998405251E+04 0.  0.
        1    1    3    3  502    0 -0.53370317234E+03  0.55234937070E+03 -0.26629555215E+03  0.81292202861E+03  0.50400001928E-02 0.  1.
       -1    1    3    3    0  502  0.53370317234E+03 -0.55234937070E+03  0.69826875811E+03  0.10380309061E+04  0.50400001928E-02 0. -1.
</event>
<event>
 5   0  0.4494757E-05  0.1800812E+04  0.7818609E-02  0.8705868E-01
        1   -1    0    0  501    0  0.00000000000E+00  0.00000000000E+00  0.76987660490E+03  0.76987660492E+03  0.50400001928E-02 0. -1.
       -1   -1    0    0    0  501  0.00000000000E+00  0.00000000000E+00 -0.10530663355E+04  0.10530663355E+04  0.50400001928E-02 0.  1.
    10030    2    1    2    0    0  0.00000000000E+00  0.00000000000E+00 -0.28318973055E+03  0.18229429404E+04  0.18008121891E+04 0.  0.
        4    1    3    3  502    0  0.41759138812E+03  0.28343077488E+03  0.61323225861E+03  0.79421092128E+03  0.12699999809E+01 0. -1.
       -4    1    3    3    0  502 -0.41759138812E+03 -0.28343077488E+03 -0.89642198916E+03  0.10287320191E+04  0.12699999809E+01 0.  1.
</event>
<event>
 5   0  0.9147432E-05  0.1800634E+04  0.7818609E-02  0.8705963E-01
       -2   -1    0    0    0  501  0.00000000000E+00  0.00000000000E+00  0.35370278804E+03  0.35370278805E+03  0.25500000920E-02 0. -1.
        2   -1    0    0  501    0  0.00000000000E+00  0.00000000000E+00 -0.22916708975E+04  0.22916708975E+04  0.25500000920E-02 0.  1.
    10030    2    1    2    0    0  0.00000000000E+00  0.00000000000E+00 -0.19379681094E+04  0.26453736855E+04  0.18006336504E+04 0.  0.
        3    1    3    3  502    0 -0.19228195187E+03 -0.10373452416E+03 -0.22521345376E+04  0.22627070482E+04  0.10100000352E+00 0.  1.
       -3    1    3    3    0  502  0.19228195187E+03  0.10373452416E+03  0.31416642815E+03  0.38266663729E+03  0.10100000352E+00 0. -1.
</event>
<event>
 5   0  0.4494757E-05  0.1797650E+04  0.7818609E-02  0.8707550E-01
       -1   -1    0    0    0  501  0.00000000000E+00  0.00000000000E+00  0.11222521015E+04  0.11222521015E+04  0.50400001928E-02 0.  1.
        1   -1    0    0  501    0  0.00000000000E+00  0.00000000000E+00 -0.71987964022E+03  0.71987964024E+03  0.50400001928E-02 0. -1.
    10030    2    1    2    0    0  0.00000000000E+00  0.00000000000E+00  0.40237246131E+03  0.18421317418E+04  0.17976500651E+04 0.  0.
        4    1    3    3  502    0 -0.22938945948E+03 -0.34420244034E+02 -0.68867933260E+03  0.72669464933E+03  0.12699999809E+01 0. -1.
       -4    1    3    3    0  502  0.22938945948E+03  0.34420244034E+02  0.10910517939E+04  0.11154370925E+04  0.12699999809E+01 0.  1.
</event>
<event>
 5   0  0.3270375E-05  0.1808764E+04  0.7818609E-02  0.8701653E-01
        3   -1    0    0  501    0  0.00000000000E+00  0.00000000000E+00  0.11348441412E+04  0.11348441457E+04  0.10100000352E+00 0. -1.
       -3   -1    0    0    0  501  0.00000000000E+00  0.00000000000E+00 -0.72072152258E+03  0.72072152966E+03  0.10100000352E+00 0.  1.
    10030    2    1    2    0    0  0.00000000000E+00  0.00000000000E+00  0.41412261859E+03  0.18555656753E+04  0.18087637856E+04 0.  0.
        2    1    3    3  502    0  0.54727798529E+02  0.76177863441E+03  0.70395434745E+03  0.10386787487E+04  0.25500000920E-02 0.  1.
       -2    1    3    3    0  502 -0.54727798529E+02 -0.76177863441E+03 -0.28983172886E+03  0.81688692659E+03  0.25500000920E-02 0. -1.
</event>
<event>
 5   0  0.4494757E-05  0.1802288E+04  0.7818609E-02  0.8705084E-01
       -1   -1    0    0    0  501  0.00000000000E+00  0.00000000000E+00  0.60175675375E+03  0.60175675378E+03  0.50400001928E-02 0. -1.
        1   -1    0    0  501    0  0.00000000000E+00  0.00000000000E+00 -0.13494826701E+04  0.13494826701E+04  0.50400001928E-02 0.  1.
    10030    2    1    2    0    0  0.00000000000E+00  0.00000000000E+00 -0.74772591635E+03  0.19512394239E+04  0.18022877804E+04 0.  0.
        4    1    3    3  502    0  0.18804519506E+03 -0.79438050762E+03 -0.78705559051E+03  0.11339574515E+04  0.12699999809E+01 0.  1.
       -4    1    3    3    0  502 -0.18804519506E+03  0.79438050762E+03  0.39329674163E+02  0.81728197242E+03  0.12699999809E+01 0. -1.
</event>
<event>
 5   0  0.4623665E-05  0.1800417E+04  0.7818609E-02  0.8706078E-01
        1   -1    0    0  501    0  0.00000000000E+00  0.00000000000E+00  0.16777359410E+04  0.16777359410E+04  0.50400001928E-02 0.  1.
       -1   -1    0    0    0  501  0.00000000000E+00  0.00000000000E+00 -0.48301711145E+03  0.48301711148E+03  0.50400001928E-02 0. -1.
    10030    2    1    2    0    0  0.00000000000E+00  0.00000000000E+00  0.11947188295E+04  0.21607530524E+04  0.18004168051E+04 0.  0.
        5    1    3    3  502    0 -0.23456452499E+03  0.69200242062E+03 -0.33673950011E+02  0.73146694487E+03  0.46999998093E+01 0. -1.
       -5    1    3    3    0  502  0.23456452499E+03 -0.69200242062E+03  0.12283927795E+04  0.14292861076E+04  0.46999998093E+01 0.  1.
</event>
<event>
 5   0  0.8802655E-05  0.1791683E+04  0.7818609E-02  0.8710735E-01
        2   -1    0    0  501    0  0.00000000000E+00  0.00000000000E+00  0.17750888593E+04  0.17750888593E+04  0.25500000920E-02 0.  1.
       -2   -1    0    0    0  501  0.00000000000E+00  0.00000000000E+00 -0.45210801746E+03  0.45210801747E+03  0.25500000920E-02 0. -1.
    10030    2    1    2    0    0  0.00000000000E+00  0.00000000000E+00  0.13229808418E+04  0.22271968768E+04  0.17916829016E+04 0.  0.
        2    1    3    3  502    0  0.42639570355E+03  0.61657396870E+02  0.16378523117E+04  0.16935687543E+04  0.25500000920E-02 0.  1.
       -2    1    3    3    0  502 -0.42639570355E+03 -0.61657396870E+02 -0.31487146984E+03  0.53362812250E+03  0.25500000920E-02 0. -1.
</event>
<event>
 5   0  0.8892280E-05  0.1765033E+04  0.7818609E-02  0.8725119E-01
        2   -1    0    0  501    0  0.00000000000E+00  0.00000000000E+00  0.15610545148E+04  0.15610545148E+04  0.25500000920E-02 0. -1.
       -2   -1    0    0    0  501  0.00000000000E+00  0.00000000000E+00 -0.49891610628E+03  0.49891610629E+03  0.25500000920E-02 0.  1.
    10030    2    1    2    0    0  0.00000000000E+00  0.00000000000E+00  0.10621384085E+04  0.20599706211E+04  0.17650328498E+04 0.  0.
        4    1    3    3  502    0  0.64854827446E+03  0.41559807677E+03  0.10337319289E+04  0.12891624954E+04  0.12699999809E+01 0. -1.
       -4    1    3    3    0  502 -0.64854827446E+03 -0.41559807677E+03  0.28406479626E+02  0.77080812574E+03  0.12699999809E+01 0.  1.
</event>
<event>
 5   0  0.9184414E-05  0.1795865E+04  0.7818609E-02  0.8708502E-01
        2   -1    0    0  501    0  0.00000000000E+00  0.00000000000E+00  0.10342984809E+04  0.10342984809E+04  0.25500000920E-02 0. -1.
       -2   -1    0    0    0  501  0.00000000000E+00  0.00000000000E+00 -0.77954542197E+03  0.77954542197E+03  0.25500000920E-02 0.  1.
    10030    2    1    2    0    0  0.00000000000E+00  0.00000000000E+00  0.25475305895E+03  0.18138439029E+04  0.17958648566E+04 0.  0.
        5    1    3    3  502    0 -0.18198348972E+03  0.38776022208E+03 -0.66969111779E+03  0.79497437922E+03  0.46999998093E+01 0.  1.
       -5    1    3    3    0  502  0.18198348972E+03 -0.38776022208E+03  0.92444417674E+03  0.10188695237E+04  0.46999998093E+01 0. -1.
</event>
<event>
 5   0  0.9184414E-05  0.1799005E+04  0.7818609E-02  0.8706829E-01
        2   -1    0    0  501    0  0.00000000000E+00  0.00000000000E+00  0.22316976517E+04  0.22316976517E+04  0.25500000920E-02 0.  1.
       -2   -1    0    0    0  501  0.00000000000E+00  0.00000000000E+00 -0.36255130360E+03  0.36255130361E+03  0.25500000920E-02 0. -1.
    10030    2    1    2    0    0  0.00000000000E+00  0.00000000000E+00  0.18691463481E+04  0.25942489553E+04  0.17990051616E+04 0.  0.
        5    1    3    3  502    0  0.13758681860E+03 -0.55229804430E+03 -0.69819705588E+02  0.57346328886E+03  0.46999998093E+01 0. -1.
       -5    1    3    3    0  502 -0.13758681860E+03  0.55229804430E+03  0.19389660537E+04  0.20207856665E+04  0.46999998093E+01 0.  1.
</event>
<event>
 5   0  0.4494757E-05  0.1799974E+04  0.7818609E-02  0.8706313E-01
       -1   -1    0    0    0  501  0.00000000000E+00  0.00000000000E+00  0.87806093799E+03  0.87806093800E+03  0.50400001928E-02 0.  1.
        1   -1    0    0  501    0  0.00000000000E+00  0.00000000000E+00 -0.92246023974E+03  0.92246023976E+03  0.50400001928E-02 0. -1.
    10030    2    1    2    0    0  0.00000000000E+00  0.00000000000E+00 -0.44399301753E+02  0.18005211778E+04  0.17999736702E+04 0.  0.
        4    1    3    3  502    0 -0.78472620259E+03  0.17821485278E+03 -0.42533457419E+03  0.91020154894E+03  0.12699999809E+01 0. -1.
       -4    1    3    3    0  502  0.78472620259E+03 -0.17821485278E+03  0.38093527244E+03  0.89031962883E+03  0.12699999809E+01 0.  1.
</event>
<event>
 5   0  0.4535100E-05  0.1797064E+04  0.7818609E-02  0.8707862E-01
        1   -1    0    0  501    0  0.00000000000E+00  0.00000000000E+00  0.12899790441E+04  0.12899790441E+04  0.50400001928E-02 0.  1.
       -1   -1    0    0    0  501  0.00000000000E+00  0.00000000000E+00 -0.62587057944E+03  0.62587057946E+03  0.50400001928E-02 0. -1.
    10030    2    1    2    0    0  0.00000000000E+00  0.00000000000E+00  0.66410846468E+03  0.19158496236E+04  0.17970641968E+04 0.  0.
        1    1    3    3  502    0  0.71816829834E+03 -0.53276762627E+03  0.42592480223E+03  0.99046402536E+03  0.50400001928E-02 0. -1.
       -1    1    3    3    0  502 -0.71816829834E+03  0.53276762627E+03  0.23818366245E+03  0.92538559824E+03  0.50400001928E-02 0.  1.
</event>
<event>
 5   0  0.9147432E-05  0.1796671E+04  0.7818609E-02  0.8708072E-01
        2   -1    0    0  501    0  0.00000000000E+00  0.00000000000E+00  0.61666543782E+03  0.61666543783E+03  0.25500000920E-02 0. -1.
       -2   -1    0    0    0  501  0.00000000000E+00  0.00000000000E+00 -0.13086615075E+04  0.13086615075E+04  0.25500000920E-02 0.  1.
    10030    2    1    2    0    0  0.00000000000E+00  0.00000000000E+00 -0.69199606970E+03  0.19253269454E+04  0.17966706114E+04 0.  0.
        3    1    3    3  502    0 -0.53277460732E+03  0.54462841913E+03  0.16404402894E+03  0.77934546304E+03  0.10100000352E+00 0. -1.
       -3    1    3    3    0  502  0.53277460732E+03 -0.54462841913E+03 -0.85604009864E+03  0.11459814823E+04  0.10100000352E+00 0.  1.
</event>
<event>
 5   0  0.8893075E-05  0.1800147E+04  0.7818609E-02  0.8706221E-01
        2   -1    0    0  501    0  0.00000000000E+00  0.00000000000E+00  0.10912618535E+04  0.10912618535E+04  0.25500000920E-02 0.  1.
       -2   -1    0    0    0  501  0.00000000000E+00  0.00000000000E+00 -0.74238111500E+03  0.74238111500E+03  0.25500000920E-02 0. -1.
    10030    2    1    2    0    0  0.00000000000E+00  0.00000000000E+00  0.34888073849E+03  0.18336429685E+04  0.18001468735E+04 0.  0.
        1    1    3    3  502    0 -0.41161583041E+02  0.30392547231E+03 -0.68751292602E+03  0.75282069054E+03  0.50400001928E-02 0. -1.
       -1    1    3    3    0  502  0.41161583041E+02 -0.30392547231E+03  0.10363936645E+04  0.10808222779E+04  0.50400001928E-02 0.  1.
</event>
<event>
 5   0  0.3270375E-05  0.1783238E+04  0.7818609E-02  0.8715265E-01
       -3   -1    0    0    0  501  0.00000000000E+00  0.00000000000E+00  0.11715943738E+04  0.11715943782E+04  0.10100000352E+00 0. -1.
        3   -1    0    0  501    0  0.00000000000E+00  0.00000000000E+00 -0.67854905107E+03  0.67854905859E+03  0.10100000352E+00 0.  1.
    10030    2    1    2    0    0  0.00000000000E+00  0.00000000000E+00  0.49304532274E+03  0.18501434368E+04  0.17832377986E+04 0.  0.
        5    1    3    3  502    0  0.10984466449E+03 -0.28875339708E+02  0.11640454913E+04  0.11695826740E+04  0.46999998093E+01 0. -1.
       -5    1    3    3    0  502 -0.10984466449E+03  0.28875339708E+02 -0.67100016856E+03  0.68056076273E+03  0.46999998093E+01 0.  1.
</event>
<event>
 5   0  0.9184414E-05  0.1787780E+04  0.7818609E-02  0.8712825E-01
        2   -1    0    0  501    0  0.00000000000E+00  0.00000000000E+00  0.99925566782E+03  0.99925566783E+03  0.25500000920E-02 0.  1.
       -2   -1    0    0    0  501  0.00000000000E+00  0.00000000000E+00 -0.79963474591E+03  0.79963474591E+03  0.25500000920E-02 0. -1.
    10030    2    1    2    0    0  0.00000000000E+00  0.00000000000E+00  0.19962092191E+03  0.17988904137E+04  0.17877802461E+04 0.  0.
        5    1    3    3  502    0 -0.37136047170E+03  0.25795665992E+02  0.91753756037E+03  0.99018749790E+03  0.46999998093E+01 0.  1.
       -5    1    3    3    0  502  0.37136047170E+03 -0.25795665992E+02 -0.71791663845E+03  0.80870291584E+03  0.46999998093E+01 0. -1.
</event>
<event>
 5   0  0.4335117E-05  0.1800066E+04  0.7818609E-02  0.8706264E-01
       -1   -1    0    0    0  501  0.00000000000E+00  0.00000000000E+00  0.57057950682E+03  0.57057950684E+03  0.50400001928E-02 0. -1.
        1   -1    0    0  501    0  0.00000000000E+00  0.00000000000E+00 -0.14197133149E+04  0.14197133149E+04  0.50400001928E-02 0.  1.
    10030    2    1    2    0    0  0.00000000000E+00  0.00000000000E+00 -0.84913380807E+03  0.19902928217E+04  0.18000659133E+04 0.  0.
        3    1    3    3  502    0 -0.70590751090E+03  0.51108417014E+03 -0.67315235242E+03  0.11012023169E+04  0.10100000352E+00 0. -1.
       -3    1    3    3    0  502  0.70590751090E+03 -0.51108417014E+03 -0.17598145565E+03  0.88909050487E+03  0.10100000352E+00 0.  1.
</event>
<event>
 5   0  0.8802655E-05  0.1803519E+04  0.7818609E-02  0.8704430E-01
       -2   -1    0    0    0  501  0.00000000000E+00  0.00000000000E+00  0.78226179071E+03  0.78226179072E+03  0.25500000920E-02 0. -1.
        2   -1    0    0  501    0  0.00000000000E+00  0.00000000000E+00 -0.10395120127E+04  0.10395120127E+04  0.25500000920E-02 0.  1.
    10030    2    1    2    0    0  0.00000000000E+00  0.00000000000E+00 -0.25725022202E+03  0.18217738035E+04  0.18035193690E+04 0.  0.
        2    1    3    3  502    0 -0.57315325911E+03  0.34175934964E+03 -0.74128396353E+03  0.99739963209E+03  0.25500000920E-02 0.  1.
       -2    1    3    3    0  502  0.57315325911E+03 -0.34175934964E+03  0.48403374151E+03  0.82437417137E+03  0.25500000920E-02 0. -1.
</event>
<event>
 5   0  0.4535100E-05  0.1802261E+04  0.7818609E-02  0.8705098E-01
       -1   -1    0    0    0  501  0.00000000000E+00  0.00000000000E+00  0.29684669525E+03  0.29684669529E+03  0.50400001928E-02 0. -1.
        1   -1    0    0  501    0  0.00000000000E+00  0.00000000000E+00 -0.27355416316E+04  0.27355416316E+04  0.50400001928E-02 0.  1.
    10030    2    1    2    0    0  0.00000000000E+00  0.00000000000E+00 -0.24386949364E+04  0.30323883269E+04  0.18022613497E+04 0.  0.
        1    1    3    3  502    0  0.35947259320E+03  0.53121775723E+03 -0.15438246926E+03  0.65973236824E+03  0.50400001928E-02 0. -1.
       -1    1    3    3    0  502 -0.35947259320E+03 -0.53121775723E+03 -0.22843124671E+04  0.23726559587E+04  0.50400001928E-02 0.  1.
</event>
<event>
 5   0  0.9147432E-05  0.1801395E+04  0.7818609E-02  0.8705558E-01
       -2   -1    0    0    0  501  0.00000000000E+00  0.00000000000E+00  0.76680992322E+03  0.76680992323E+03  0.25500000920E-02 0. -1.
        2   -1    0    0  501    0  0.00000000000E+00  0.00000000000E+00 -0.10579617882E+04  0.10579617882E+04  0.25500000920E-02 0.  1.
    10030    2    1    2    0    0  0.00000000000E+00  0.00000000000E+00 -0.29115186494E+03  0.18247717114E+04  0.18013945682E+04 0.  0.
        3    1    3    3  502    0  0.38198092593E+03  0.65120234447E+03  0.35200284918E+03  0.83299456016E+03  0.10100000352E+00 0. -1.
       -3    1    3    3    0  502 -0.38198092593E+03 -0.65120234447E+03 -0.64315471412E+03  0.99177715123E+03  0.10100000352E+00 0.  1.
</event>
<event>
 5   0  0.8802655E-05  0.1815205E+04  0.7818609E-02  0.8698255E-01
       -2   -1    0    0    0  501  0.00000000000E+00  0.00000000000E+00  0.62631662272E+03  0.62631662273E+03  0.25500000920E-02 0.  1.
        2   -1    0    0  501    0  0.00000000000E+00  0.00000000000E+00 -0.13152177555E+04  0.13152177555E+04  0.25500000920E-02 0. -1.
    10030    2    1    2    0    0  0.00000000000E+00  0.00000000000E+00 -0.68890113273E+03  0.19415343782E+04  0.18152054900E+04 0.  0.
        2    1    3    3  502    0  0.50839194535E+03 -0.45409601208E+03  0.29648326188E+03  0.74334909892E+03  0.25500000920E-02 0.  1.
       -2    1    3    3    0  502 -0.50839194535E+03  0.45409601208E+03 -0.98538439461E+03  0.11981852793E+04  0.25500000920E-02 0. -1.
</event>
<event>
 5   0  0.4535100E-05  0.1800206E+04  0.7818609E-02  0.8706190E-01
        1   -1    0    0  501    0  0.00000000000E+00  0.00000000000E+00  0.14815199155E+04  0.14815199155E+04  0.50400001928E-02 0.  1.
       -1   -1    0    0    0  501  0.00000000000E+00  0.00000000000E+00 -0.54686069627E+03  0.54686069629E+03  0.50400001928E-02 0. -1.
    10030    2    1    2    0    0  0.00000000000E+00  0.00000000000E+00  0.93465921924E+03  0.20283806118E+04  0.18002055578E+04 0.  0.
        1    1    3    3  502    0 -0.68620866126E+03 -0.98220556087E+02  0.11142598538E+04  0.13122898408E+04  0.50400001928E-02 0.  1.
       -1    1    3    3    0  502  0.68620866126E+03  0.98220556087E+02 -0.17960063453E+03  0.71609077104E+03  0.50400001928E-02 0. -1.
</event>
<event>
 5   0  0.9184414E-05  0.1808272E+04  0.7818609E-02  0.8701913E-01
        2   -1    0    0  501    0  0.00000000000E+00  0.00000000000E+00  0.16432450512E+04  0.16432450512E+04  0.25500000920E-02 0. -1.
       -2   -1    0    0    0  501  0.00000000000E+00  0.00000000000E+00 -0.49746809716E+03  0.49746809717E+03  0.25500000920E-02 0.  1.
    10030    2    1    2    0    0  0.00000000000E+00  0.00000000000E+00  0.11457769541E+04  0.21407131484E+04  0.18082720910E+04 0.  0.
        5    1    3    3  502    0  0.58512456746E+03  0.42832265000E+03  0.12121742579E+04  0.14125224152E+04  0.46999998093E+01 0. -1.
       -5    1    3    3    0  502 -0.58512456746E+03 -0.42832265000E+03 -0.66397303830E+02  0.72819073319E+03  0.46999998093E+01 0.  1.
</event>
<event>
 5   0  0.8802655E-05  0.1796056E+04  0.7818609E-02  0.8708400E-01
        2   -1    0    0  501    0  0.00000000000E+00  0.00000000000E+00  0.15363203864E+04  0.15363203864E+04  0.25500000920E-02 0. -1.
       -2   -1    0    0    0  501  0.00000000000E+00  0.00000000000E+00 -0.52492569987E+03  0.52492569988E+03  0.25500000920E-02 0.  1.
    10030    2    1    2    0    0  0.00000000000E+00  0.00000000000E+00  0.10113946865E+04  0.20612460862E+04  0.17960557386E+04 0.  0.
        2    1    3    3  502    0 -0.45338734032E+03  0.23823071411E+03  0.13522722665E+04  0.14460132213E+04  0.25500000920E-02 0. -1.
       -2    1    3    3    0  502  0.45338734032E+03 -0.23823071411E+03 -0.34087758001E+03  0.61523286491E+03  0.25500000920E-02 0.  1.
</event>
<event>
 5   0  0.9184414E-05  0.1800729E+04  0.7818609E-02  0.8705912E-01
       -2   -1    0    0    0  501  0.00000000000E+00  0.00000000000E+00  0.11781752389E+04  0.11781752389E+04  0.25500000920E-02 0. -1.
        2   -1    0    0  501    0  0.00000000000E+00  0.00000000000E+00 -0.68806062642E+03  0.68806062643E+03  0.25500000920E-02 0.  1.
    10030    2    1    2    0    0  0.00000000000E+00  0.00000000000E+00  0.49011461247E+03  0.18662358653E+04  0.18007287335E+04 0.  0.
        5    1    3    3  502    0 -0.21523389638E+03 -0.85163188116E+03  0.40306619597E+02  0.87934589596E+03  0.46999998093E+01 0.  1.
       -5    1    3    3    0  502  0.21523389638E+03  0.85163188116E+03  0.44980799287E+03  0.98688996936E+03  0.46999998093E+01 0. -1.
</event>
<event>
 5   0  0.4535100E-05  0.1806763E+04  0.7818609E-02  0.8702711E-01
        1   -1    0    0  501    0  0.00000000000E+00  0.00000000000E+00  0.11307732485E+04  0.11307732485E+04  0.50400001928E-02 0. -1.
       -1   -1    0    0    0  501  0.00000000000E+00  0.00000000000E+00 -0.72171714800E+03  0.72171714802E+03  0.50400001928E-02 0.  1.
    10030    2    1    2    0    0  0.00000000000E+00  0.00000000000E+00  0.40905610053E+03  0.18524903966E+04  0.18067633425E+04 0.  0.
        1    1    3    3  502    0  0.22656350944E+03 -0.46164104762E+03  0.96606058032E+03  0.10944023600E+04  0.50400001928E-02 0. -1.
       -1    1    3    3    0  502 -0.22656350944E+03  0.46164104762E+03 -0.55700447979E+03  0.75808803657E+03  0.50400001928E-02 0.  1.
</event>
<event>
 5   0  0.8892280E-05  0.1802763E+04  0.7818609E-02  0.8704832E-01
        2   -1    0    0  501    0  0.00000000000E+00  0.00000000000E+00  0.79681226230E+03  0.79681226230E+03  0.25500000920E-02 0.  1.
       -2   -1    0    0    0  501  0.00000000000E+00  0.00000000000E+00 -0.10196733410E+04  0.10196733410E+04  0.25500000920E-02 0. -1.
    10030    2    1    2    0    0  0.00000000000E+00  0.00000000000E+00 -0.22286107872E+03  0.18164856033E+04  0.18027625708E+04 0.  0.
        4    1    3    3  502    0 -0.13347948246E+03  0.51895297287E+02  0.78527454862E+03  0.79822780191E+03  0.12699999809E+01 0.  1.
       -4    1    3    3    0  502  0.13347948246E+03 -0.51895297287E+02 -0.10081356273E+04  0.10182578014E+04  0.12699999809E+01 0. -1.
</event>
<event>
 5   0  0.9147432E-05  0.1792917E+04  0.7818609E-02  0.8710075E-01
       -2   -1    0    0    0  501  0.00000000000E+00  0.00000000000E+00  0.40917181743E+03  0.40917181744E+03  0.25500000920E-02 0.  1.
        2   -1    0    0  501    0  0.00000000000E+00  0.00000000000E+00 -0.19640603040E+04  0.19640603040E+04  0.25500000920E-02 0. -1.
    10030    2    1    2    0    0  0.00000000000E+00  0.00000000000E+00 -0.15548884866E+04  0.23732321215E+04  0.17929173145E+04 0.  0.
        3    1    3    3  502    0  0.13318973295E+02  0.16078303347E+03  0.38979732431E+03  0.42186555103E+03  0.10100000352E+00 0.  1.
       -3    1    3    3    0  502 -0.13318973295E+02 -0.16078303347E+03 -0.19446858109E+04  0.19513665704E+04  0.10100000352E+00 0. -1.
</event>
<event>
 5   0  0.9184414E-05  0.1793964E+04  0.7818609E-02  0.8709516E-01
        2   -1    0    0  501    0  0.00000000000E+00  0.00000000000E+00  0.13422908545E+04  0.13422908545E+04  0.25500000920E-02 0.  1.
       -2   -1    0    0    0  501  0.00000000000E+00  0.00000000000E+00 -0.59940578952E+03  0.59940578953E+03  0.25500000920E-02 0. -1.
    10030    2    1    2    0    0  0.00000000000E+00  0.00000000000E+00  0.74288506500E+03  0.19416966441E+04  0.17939642242E+04 0.  0.
        5    1    3    3  502    0 -0.69255486000E+02  0.45407797134E+03  0.12053237520E+04  0.12898878104E+04  0.46999998093E+01 0.  1.
       -5    1    3    3    0  502  0.69255486000E+02 -0.45407797134E+03 -0.46243868698E+03  0.65180883364E+03  0.46999998093E+01 0. -1.
</event>
<event>
 5   0  0.9147432E-05  0.1797591E+04  0.7818609E-02  0.8707581E-01
       -2   -1    0    0    0  501  0.00000000000E+00  0.00000000000E+00  0.85303801998E+03  0.85303801999E+03  0.25500000920E-02 0. -1.
        2   -1    0    0  501    0  0.00000000000E+00  0.00000000000E+00 -0.94700777510E+03  0.94700777510E+03  0.25500000920E-02 0.  1.
    10030    2    1    2    0    0  0.00000000000E+00  0.00000000000E+00 -0.93969755116E+02  0.18000457951E+04  0.17975913188E+04 0.  0.
        3    1    3    3  502    0  0.33568517584E+03 -0.32250245684E+03 -0.81689180410E+03  0.94021518907E+03  0.10100000352E+00 0.  1.
       -3    1    3    3    0  502 -0.33568517584E+03  0.32250245684E+03  0.72292204898E+03  0.85983060602E+03  0.10100000352E+00 0. -1.
</event>
<event>
 5   0  0.4335117E-05  0.1790846E+04  0.7818609E-02  0.8711183E-01
       -1   -1    0    0    0  501  0.00000000000E+00  0.00000000000E+00  0.88750913460E+03  0.88750913461E+03  0.50400001928E-02 0. -1.
        1   -1    0    0  501    0  0.00000000000E+00  0.00000000000E+00 -0.90340731117E+03  0.90340731118E+03  0.50400001928E-02 0.  1.
    10030    2    1    2    0    0  0.00000000000E+00  0.00000000000E+00 -0.15898176574E+02  0.17909164458E+04  0.17908458794E+04 0.  0.
        3    1    3    3  502    0 -0.80369301132E+03 -0.37755847058E+03  0.10742172478E+03  0.89443406258E+03  0.10100000352E+00 0. -1.
       -3    1    3    3    0  502  0.80369301132E+03  0.37755847058E+03 -0.12331990135E+03  0.89648238322E+03  0.10100000352E+00 0.  1.
</event>
<event>
 5   0  0.4335117E-05  0.1916744E+04  0.7818609E-02  0.8646566E-01
       -1   -1    0    0    0  501  0.00000000000E+00  0.00000000000E+00  0.47108708889E+03  0.47108708891E+03  0.50400001928E-02 0. -1.
        1   -1    0    0  501    0  0.00000000000E+00  0.00000000000E+00 -0.19496963821E+04  0.19496963821E+04  0.50400001928E-02 0.  1.
    10030    2    1    2    0    0  0.00000000000E+00  0.00000000000E+00 -0.14786092932E+04  0.24207834710E+04  0.19167438983E+04 0.  0.
        3    1    3    3  502    0 -0.22588956903E+03 -0.74400442205E+03 -0.31696016948E+02  0.77818591938E+03  0.10100000352E+00 0. -1.
       -3    1    3    3    0  502  0.22588956903E+03  0.74400442205E+03 -0.14469132763E+04  0.16425975517E+04  0.10100000352E+00 0.  1.
</event>
<event>
 5   0  0.8892280E-05  0.1798200E+04  0.7818609E-02  0.8707257E-01
        2   -1    0    0  501    0  0.00000000000E+00  0.00000000000E+00  0.15607788773E+04  0.15607788773E+04  0.25500000920E-02 0. -1.
       -2   -1    0    0    0  501  0.00000000000E+00  0.00000000000E+00 -0.51793433115E+03  0.51793433115E+03  0.25500000920E-02 0.  1.
    10030    2    1    2    0    0  0.00000000000E+00  0.00000000000E+00  0.10428445462E+04  0.20787132085E+04  0.17982001712E+04 0.  0.
        4    1    3    3  502    0 -0.45598948179E+02 -0.89659064943E+03  0.46449259066E+03  0.10107962388E+04  0.12699999809E+01 0. -1.
       -4    1    3    3    0  502  0.45598948179E+02  0.89659064943E+03  0.57835195550E+03  0.10679169696E+04  0.12699999809E+01 0.  1.
</event>
<event>
 5   0  0.4623665E-05  0.1802462E+04  0.7818609E-02  0.8704991E-01
        1   -1    0    0  501    0  0.00000000000E+00  0.00000000000E+00  0.12813732631E+04  0.12813732631E+04  0.50400001928E-02 0.  1.
       -1   -1    0    0    0  501  0.00000000000E+00  0.00000000000E+00 -0.63386458143E+03  0.63386458145E+03  0.50400001928E-02 0. -1.
    10030    2    1    2    0    0  0.00000000000E+00  0.00000000000E+00  0.64750868171E+03  0.19152378446E+04  0.18024617911E+04 0.  0.
        5    1    3    3  502    0 -0.39500940695E+03 -0.69727145424E+03 -0.11432152861E+03  0.80951307240E+03  0.46999998093E+01 0. -1.
       -5    1    3    3    0  502  0.39500940695E+03  0.69727145424E+03  0.76183021032E+03  0.11057247722E+04  0.46999998093E+01 0.  1.
</event>
<event>
 5   0  0.3270375E-05  0.1796066E+04  0.7818609E-02  0.8708394E-01
        3   -1    0    0  501    0  0.00000000000E+00  0.00000000000E+00  0.13719485472E+04  0.13719485509E+04  0.10100000352E+00 0. -1.
       -3   -1    0    0    0  501  0.00000000000E+00  0.00000000000E+00 -0.58782357836E+03  0.58782358704E+03  0.10100000352E+00 0.  1.
    10030    2    1    2    0    0  0.00000000000E+00  0.00000000000E+00  0.78412496881E+03  0.19597721379E+04  0.17960664982E+04 0.  0.
        3    1    3    3  502    0  0.43306571415E+03  0.47563943253E+03 -0.29170001871E+03  0.70630566589E+03  0.10100000352E+00 0.  1.
       -3    1    3    3    0  502 -0.43306571415E+03 -0.47563943253E+03  0.10758249875E+04  0.12534664720E+04  0.10100000352E+00 0. -1.
</event>
<event>
 5   0  0.4335117E-05  0.1801182E+04  0.7818609E-02  0.8705671E-01
       -1   -1    0    0    0  501  0.00000000000E+00  0.00000000000E+00  0.37540298129E+03  0.37540298132E+03  0.50400001928E-02 0.  1.
        1   -1    0    0  501    0  0.00000000000E+00  0.00000000000E+00 -0.21605151197E+04  0.21605151197E+04  0.50400001928E-02 0. -1.
    10030    2    1    2    0    0  0.00000000000E+00  0.00000000000E+00 -0.17851121384E+04  0.25359181010E+04  0.18011816312E+04 0.  0.
        3    1    3    3  502    0  0.80206166844E+03 -0.16071718155E+03 -0.14229715044E+04  0.16413350800E+04  0.10100000352E+00 0. -1.
       -3    1    3    3    0  502 -0.80206166844E+03  0.16071718155E+03 -0.36214063399E+03  0.89458302097E+03  0.10100000352E+00 0.  1.
</event>
<event>
 5   0  0.3270375E-05  0.1795055E+04  0.7818609E-02  0.8708934E-01
        3   -1    0    0  501    0  0.00000000000E+00  0.00000000000E+00  0.12658695038E+04  0.12658695078E+04  0.10100000352E+00 0. -1.
       -3   -1    0    0    0  501  0.00000000000E+00  0.00000000000E+00 -0.63636553673E+03  0.63636554474E+03  0.10100000352E+00 0.  1.
    10030    2    1    2    0    0  0.00000000000E+00  0.00000000000E+00  0.62950396705E+03  0.19022350525E+04  0.17950551386E+04 0.  0.
        4    1    3    3  502    0 -0.30008904970E+03  0.32447359299E+03 -0.51305434552E+03  0.67717274359E+03  0.12699999809E+01 0.  1.
       -4    1    3    3    0  502  0.30008904970E+03 -0.32447359299E+03  0.11425583126E+04  0.12250623090E+04  0.12699999809E+01 0. -1.
</event>
<event>
 5   0  0.4335117E-05  0.1812100E+04  0.7818609E-02  0.8699891E-01
       -1   -1    0    0    0  501  0.00000000000E+00  0.00000000000E+00  0.22808467343E+04  0.22808467343E+04  0.50400001928E-02 0.  1.
        1   -1    0    0  501    0  0.00000000000E+00  0.00000000000E+00 -0.35992197481E+03  0.35992197485E+03  0.50400001928E-02 0. -1.
    10030    2    1    2    0    0  0.00000000000E+00  0.00000000000E+00  0.19209247595E+04  0.26407687091E+04  0.18121002852E+04 0.  0.
        3    1    3    3  502    0  0.71006316602E+03 -0.14213010612E+03  0.16688919603E+03  0.74313032555E+03  0.10100000352E+00 0. -1.
       -3    1    3    3    0  502 -0.71006316602E+03  0.14213010612E+03  0.17540355634E+04  0.18976383836E+04  0.10100000352E+00 0.  1.
</event>
<event>
 5   0  0.8893075E-05  0.1800084E+04  0.7818609E-02  0.8706255E-01
       -2   -1    0    0    0  501  0.00000000000E+00  0.00000000000E+00  0.73966050408E+03  0.73966050408E+03  0.25500000920E-02 0.  1.
        2   -1    0    0  501    0  0.00000000000E+00  0.00000000000E+00 -0.10951990822E+04  0.10951990822E+04  0.25500000920E-02 0. -1.
    10030    2    1    2    0    0  0.00000000000E+00  0.00000000000E+00 -0.35553857811E+03  0.18348595863E+04  0.18000838927E+04 0.  0.
        1    1    3    3  502    0  0.69439724688E+03  0.78527618007E+02 -0.75593196547E+03  0.10294596931E+04  0.50400001928E-02 0. -1.
       -1    1    3    3    0  502 -0.69439724688E+03 -0.78527618007E+02  0.40039338736E+03  0.80539989318E+03  0.50400001928E-02 0.  1.
</event>
<event>
 5   0  0.4578107E-05  0.1800157E+04  0.7818609E-02  0.8706216E-01
        1   -1    0    0  501    0  0.00000000000E+00  0.00000000000E+00  0.74935845896E+03  0.74935845897E+03  0.50400001928E-02 0.  1.
       -1   -1    0    0    0  501  0.00000000000E+00  0.00000000000E+00 -0.10811137297E+04  0.10811137297E+04  0.50400001928E-02 0. -1.
    10030    2    1    2    0    0  0.00000000000E+00  0.00000000000E+00 -0.33175527070E+03  0.18304721886E+04  0.18001574580E+04 0.  0.
        2    1    3    3  502    0  0.74441583673E+03 -0.50594500500E+03 -0.16329871291E+03  0.91476868973E+03  0.25500000920E-02 0. -1.
       -2    1    3    3    0  502 -0.74441583673E+03  0.50594500500E+03 -0.16845655779E+03  0.91570349891E+03  0.25500000920E-02 0.  1.
</event>
<event>
 5   0  0.4335117E-05  0.1806782E+04  0.7818609E-02  0.8702701E-01
       -1   -1    0    0    0  501  0.00000000000E+00  0.00000000000E+00  0.45134854346E+03  0.45134854349E+03  0.50400001928E-02 0. -1.
        1   -1    0    0  501    0  0.00000000000E+00  0.00000000000E+00 -0.18081717876E+04  0.18081717876E+04  0.50400001928E-02 0.  1.
    10030    2    1    2    0    0  0.00000000000E+00  0.00000000000E+00 -0.13568232441E+04  0.22595203311E+04  0.18067824470E+04 0.  0.
        3    1    3    3  502    0  0.26862394604E+03  0.68102025209E+03 -0.16469716150E+02  0.73226953364E+03  0.10100000352E+00 0. -1.
       -3    1    3    3    0  502 -0.26862394604E+03 -0.68102025209E+03 -0.13403535280E+04  0.15272507975E+04  0.10100000352E+00 0.  1.
</event>
<event>
 5   0  0.4578107E-05  0.1803878E+04  0.7818609E-02  0.8704240E-01
        1   -1    0    0  501    0  0.00000000000E+00  0.00000000000E+00  0.91579125322E+03  0.91579125323E+03  0.50400001928E-02 0. -1.
       -1   -1    0    0    0  501  0.00000000000E+00  0.00000000000E+00 -0.88829652311E+03  0.88829652312E+03  0.50400001928E-02 0.  1.
    10030    2    1    2    0    0  0.00000000000E+00  0.00000000000E+00  0.27494730112E+02  0.18040877764E+04  0.18038782510E+04 0.  0.
        2    1    3    3  502    0  0.63446357747E+03 -0.54666647618E+03  0.34860847528E+03  0.90714725175E+03  0.25500000920E-02 0. -1.
       -2    1    3    3    0  502 -0.63446357747E+03  0.54666647618E+03 -0.32111374517E+03  0.89694052460E+03  0.25500000920E-02 0.  1.
</event>
<event>
 5   0  0.4335117E-05  0.1797375E+04  0.7818609E-02  0.8707697E-01
        1   -1    0    0  501    0  0.00000000000E+00  0.00000000000E+00  0.14134468440E+04  0.14134468440E+04  0.50400001928E-02 0.  1.
       -1   -1    0    0    0  501  0.00000000000E+00  0.00000000000E+00 -0.57139697749E+03  0.57139697751E+03  0.50400001928E-02 0. -1.
    10030    2    1    2    0    0  0.00000000000E+00  0.00000000000E+00  0.84204986652E+03  0.19848438215E+04  0.17973750355E+04 0.  0.
        3    1    3    3  502    0  0.70355871509E+03 -0.25634512347E+03 -0.12772683333E+03  0.75961953770E+03  0.10100000352E+00 0.  1.
       -3    1    3    3    0  502 -0.70355871509E+03  0.25634512347E+03  0.96977669986E+03  0.12252242838E+04  0.10100000352E+00 0. -1.
</event>
<event>
 5   0  0.9184414E-05  0.1790700E+04  0.7818609E-02  0.8711261E-01
       -2   -1    0    0    0  501  0.00000000000E+00  0.00000000000E+00  0.46204166122E+03  0.46204166122E+03  0.25500000920E-02 0.  1.
        2   -1    0    0  501    0  0.00000000000E+00  0.00000000000E+00 -0.17350197669E+04  0.17350197669E+04  0.25500000920E-02 0. -1.
    10030    2    1    2    0    0  0.00000000000E+00  0.00000000000E+00 -0.12729781056E+04  0.21970614281E+04  0.17906997686E+04 0.  0.
        5    1    3    3  502    0  0.13947278562E+03 -0.83665408896E+03 -0.28475052886E+03  0.89473329892E+03  0.46999998093E+01 0.  1.
       -5    1    3    3    0  502 -0.13947278562E+03  0.83665408896E+03 -0.98822757678E+03  0.13023281292E+04  0.46999998093E+01 0. -1.
</event>
<event>
 5   0  0.8893075E-05  0.1801286E+04  0.7818609E-02  0.8705616E-01
        2   -1    0    0  501    0  0.00000000000E+00  0.00000000000E+00  0.76414893393E+03  0.76414893393E+03  0.25500000920E-02 0. -1.
       -2   -1    0    0    0  501  0.00000000000E+00  0.00000000000E+00 -0.10615175350E+04  0.10615175350E+04  0.25500000920E-02 0.  1.
    10030    2    1    2    0    0  0.00000000000E+00  0.00000000000E+00 -0.29736860109E+03  0.18256664689E+04  0.18012856439E+04 0.  0.
        1    1    3    3  502    0 -0.17157349586E+03  0.74373798115E+03  0.33588078328E+03  0.83390619957E+03  0.50400001928E-02 0. -1.
       -1    1    3    3    0  502  0.17157349586E+03 -0.74373798115E+03 -0.63324938437E+03  0.99176026938E+03  0.50400001928E-02 0.  1.
</event>
<event>
 5   0  0.4535100E-05  0.1795192E+04  0.7818609E-02  0.8708860E-01
       -1   -1    0    0    0  501  0.00000000000E+00  0.00000000000E+00  0.46150715954E+03  0.46150715956E+03  0.50400001928E-02 0. -1.
        1   -1    0    0  501    0  0.00000000000E+00  0.00000000000E+00 -0.17457560402E+04  0.17457560402E+04  0.50400001928E-02 0.  1.
    10030    2    1    2    0    0  0.00000000000E+00  0.00000000000E+00 -0.12842488807E+04  0.22072631998E+04  0.17951923701E+04 0.  0.
        1    1    3    3  502    0 -0.24040709159E+03  0.85039397677E+03 -0.44883434230E+03  0.99116989072E+03  0.50400001928E-02 0. -1.
       -1    1    3    3    0  502  0.24040709159E+03 -0.85039397677E+03 -0.83541453839E+03  0.12160933091E+04  0.50400001928E-02 0.  1.
</event>
<event>
 5   0  0.8802655E-05  0.1799200E+04  0.7818609E-02  0.8706725E-01
       -2   -1    0    0    0  501  0.00000000000E+00  0.00000000000E+00  0.75446696156E+03  0.75446696156E+03  0.25500000920E-02 0.  1.
        2   -1    0    0  501    0  0.00000000000E+00  0.00000000000E+00 -0.10726510896E+04  0.10726510896E+04  0.25500000920E-02 0. -1.
    10030    2    1    2    0    0  0.00000000000E+00  0.00000000000E+00 -0.31818412802E+03  0.18271180511E+04  0.17991996091E+04 0.  0.
        2    1    3    3  502    0 -0.18402426608E+03  0.18519551471E+03 -0.10333323072E+04  0.10658039061E+04  0.25500000920E-02 0. -1.
       -2    1    3    3    0  502  0.18402426608E+03 -0.18519551471E+03  0.71514817920E+03  0.76131414501E+03  0.25500000920E-02 0.  1.
</event>
<event>
 5   0  0.9184414E-05  0.1803697E+04  0.7818609E-02  0.8704336E-01
       -2   -1    0    0    0  501  0.00000000000E+00  0.00000000000E+00  0.43132937856E+03  0.43132937856E+03  0.25500000920E-02 0.  1.
        2   -1    0    0  501    0  0.00000000000E+00  0.00000000000E+00 -0.18856379174E+04  0.18856379174E+04  0.25500000920E-02 0. -1.
    10030    2    1    2    0    0  0.00000000000E+00  0.00000000000E+00 -0.14543085388E+04  0.23169672960E+04  0.18036973483E+04 0.  0.
        5    1    3    3  502    0 -0.35210634978E+03  0.38105283364E+03 -0.16747150838E+04  0.17532463733E+04  0.46999998093E+01 0. -1.
       -5    1    3    3    0  502  0.35210634978E+03 -0.38105283364E+03  0.22040654497E+03  0.56372092266E+03  0.46999998093E+01 0.  1.
</event>
<event>
 5   0  0.4578107E-05  0.1808271E+04  0.7818609E-02  0.8701914E-01
        1   -1    0    0  501    0  0.00000000000E+00  0.00000000000E+00  0.81608646260E+03  0.81608646262E+03  0.50400001928E-02 0.  1.
       -1   -1    0    0    0  501  0.00000000000E+00  0.00000000000E+00 -0.10016837764E+04  0.10016837764E+04  0.50400001928E-02 0. -1.
    10030    2    1    2    0    0  0.00000000000E+00  0.00000000000E+00 -0.18559731383E+03  0.18177702391E+04  0.18082705215E+04 0.  0.
        2    1    3    3  502    0  0.59954457684E+03 -0.51234902511E+03  0.35168408764E+03  0.86350270449E+03  0.25500000920E-02 0.  1.
       -2    1    3    3    0  502 -0.59954457684E+03  0.51234902511E+03 -0.53728140147E+03  0.95426753457E+03  0.25500000920E-02 0. -1.
</event>
<event>
 5   0  0.8802655E-05  0.1795609E+04  0.7818609E-02  0.8708638E-01
       -2   -1    0    0    0  501  0.00000000000E+00  0.00000000000E+00  0.45373438024E+03  0.45373438024E+03  0.25500000920E-02 0. -1.
        2   -1    0    0  501    0  0.00000000000E+00  0.00000000000E+00 -0.17764872496E+04  0.17764872496E+04  0.25500000920E-02 0.  1.
    10030    2    1    2    0    0  0.00000000000E+00  0.00000000000E+00 -0.13227528693E+04  0.22302216298E+04  0.17956094689E+04 0.  0.
        2    1    3    3  502    0 -0.67414562498E+03  0.55816004508E+03 -0.41284896756E+03  0.96770823579E+03  0.25500000920E-02 0.  1.
       -2    1    3    3    0  502  0.67414562498E+03 -0.55816004508E+03 -0.90990390175E+03  0.12625133940E+04  0.25500000920E-02 0. -1.
</event>
<event>
 5   0  0.9147432E-05  0.1796362E+04  0.7818609E-02  0.8708237E-01
        2   -1    0    0  501    0  0.00000000000E+00  0.00000000000E+00  0.80258685234E+03  0.80258685234E+03  0.25500000920E-02 0. -1.
       -2   -1    0    0    0  501  0.00000000000E+00  0.00000000000E+00 -0.10051606926E+04  0.10051606926E+04  0.25500000920E-02 0.  1.
    10030    2    1    2    0    0  0.00000000000E+00  0.00000000000E+00 -0.20257384029E+03  0.18077475450E+04  0.17963616077E+04 0.  0.
        3    1    3    3  502    0 -0.61963108438E+02 -0.88598166140E+03 -0.23602286476E+03  0.91897210732E+03  0.10100000352E+00 0.  1.
       -3    1    3    3    0  502  0.61963108438E+02  0.88598166140E+03  0.33449024472E+02  0.88877543765E+03  0.10100000352E+00 0. -1.
</event>
<event>
 5   0  0.3270375E-05  0.1800315E+04  0.7818609E-02  0.8706132E-01
       -3   -1    0    0    0  501  0.00000000000E+00  0.00000000000E+00  0.76447813328E+03  0.76447813995E+03  0.10100000352E+00 0.  1.
        3   -1    0    0  501    0  0.00000000000E+00  0.00000000000E+00 -0.10599176308E+04  0.10599176356E+04  0.10100000352E+00 0. -1.
    10030    2    1    2    0    0  0.00000000000E+00  0.00000000000E+00 -0.29543949753E+03  0.18243957756E+04  0.18003153749E+04 0.  0.
        2    1    3    3  502    0  0.55609831233E+03  0.56070967829E+03  0.29008103744E+03  0.84130118542E+03  0.25500000920E-02 0.  1.
       -2    1    3    3    0  502 -0.55609831233E+03 -0.56070967829E+03 -0.58552053496E+03  0.98309459015E+03  0.25500000920E-02 0. -1.
</event>
<event>
 5   0  0.4623665E-05  0.1806606E+04  0.7818609E-02  0.8702794E-01
       -1   -1    0    0    0  501  0.00000000000E+00  0.00000000000E+00  0.47421575670E+03  0.47421575673E+03  0.50400001928E-02 0. -1.
        1   -1    0    0  501    0  0.00000000000E+00  0.00000000000E+00 -0.17206444935E+04  0.17206444935E+04  0.50400001928E-02 0.  1.
    10030    2    1    2    0    0  0.00000000000E+00  0.00000000000E+00 -0.12464287368E+04  0.21948602502E+04  0.18066064658E+04 0.  0.
        5    1    3    3  502    0  0.39734958583E+02  0.20177698776E+03 -0.16918097240E+04  0.17042696536E+04  0.46999998093E+01 0.  1.
       -5    1    3    3    0  502 -0.39734958583E+02 -0.20177698776E+03  0.44538098725E+03  0.49059059665E+03  0.46999998093E+01 0. -1.
</event>
<event>
 5   0  0.8893075E-05  0.1799794E+04  0.7818609E-02  0.8706409E-01
       -2   -1    0    0    0  501  0.00000000000E+00  0.00000000000E+00  0.42685474057E+03  0.42685474058E+03  0.25500000920E-02 0. -1.
        2   -1    0    0  501    0  0.00000000000E+00  0.00000000000E+00 -0.18971658760E+04  0.18971658760E+04  0.25500000920E-02 0.  1.
    10030    2    1    2    0    0  0.00000000000E+00  0.00000000000E+00 -0.14703111355E+04  0.23240206166E+04  0.17997935969E+04 0.  0.
        1    1    3    3  502    0 -0.13644520741E+03 -0.74670896213E+03 -0.13592851591E+04  0.15568711291E+04  0.50400001928E-02 0.  1.
       -1    1    3    3    0  502  0.13644520741E+03  0.74670896213E+03 -0.11102597632E+03  0.76714948751E+03  0.50400001928E-02 0. -1.
</event>
<event>
 5   0  0.4494757E-05  0.1836007E+04  0.7818609E-02  0.8687383E-01
       -1   -1    0    0    0  501  0.00000000000E+00  0.00000000000E+00  0.72708304643E+03  0.72708304645E+03  0.50400001928E-02 0. -1.
        1   -1    0    0  501    0  0.00000000000E+00  0.00000000000E+00 -0.11590560629E+04  0.11590560629E+04  0.50400001928E-02 0.  1.
    10030    2    1    2    0    0  0.00000000000E+00  0.00000000000E+00 -0.43197301651E+03  0.18861391094E+04  0.18360065504E+04 0.  0.
        4    1    3    3  502    0  0.29746921266E+03 -0.68608303026E+03 -0.76300173957E+03  0.10683497201E+04  0.12699999809E+01 0.  1.
       -4    1    3    3    0  502 -0.29746921266E+03  0.68608303026E+03  0.33102872306E+03  0.81778938932E+03  0.12699999809E+01 0. -1.
</event>
<event>
 5   0  0.4578107E-05  0.1793533E+04  0.7818609E-02  0.8709746E-01
       -1   -1    0    0    0  501  0.00000000000E+00  0.00000000000E+00  0.50842323071E+03  0.50842323073E+03  0.50400001928E-02 0. -1.
        1   -1    0    0  501    0  0.00000000000E+00  0.00000000000E+00 -0.15817340720E+04  0.15817340720E+04  0.50400001928E-02 0.  1.
    10030    2    1    2    0    0  0.00000000000E+00  0.00000000000E+00 -0.10733108412E+04  0.20901573027E+04  0.17935332135E+04 0.  0.
        2    1    3    3  502    0 -0.76930602171E+03 -0.45083212944E+03 -0.64788095345E+03  0.11021937642E+04  0.25500000920E-02 0.  1.
       -2    1    3    3    0  502  0.76930602171E+03  0.45083212944E+03 -0.42542988780E+03  0.98796353850E+03  0.25500000920E-02 0. -1.
</event>
<event>
 5   0  0.8892280E-05  0.1806983E+04  0.7818609E-02  0.8702595E-01
       -2   -1    0    0    0  501  0.00000000000E+00  0.00000000000E+00  0.68411161886E+03  0.68411161886E+03  0.25500000920E-02 0.  1.
        2   -1    0    0  501    0  0.00000000000E+00  0.00000000000E+00 -0.11932214482E+04  0.11932214482E+04  0.25500000920E-02 0. -1.
    10030    2    1    2    0    0  0.00000000000E+00  0.00000000000E+00 -0.50910982931E+03  0.18773330670E+04  0.18069827410E+04 0.  0.
        4    1    3    3  502    0 -0.66053593258E+03  0.13532667628E+03  0.37025221936E+03  0.76922645975E+03  0.12699999809E+01 0.  1.
       -4    1    3    3    0  502  0.66053593258E+03 -0.13532667628E+03 -0.87936204867E+03  0.11081066073E+04  0.12699999809E+01 0. -1.
</event>
<event>
 5   0  0.8802655E-05  0.1801609E+04  0.7818609E-02  0.8705444E-01
       -2   -1    0    0    0  501  0.00000000000E+00  0.00000000000E+00  0.11169463863E+04  0.11169463863E+04  0.25500000920E-02 0. -1.
        2   -1    0    0  501    0  0.00000000000E+00  0.00000000000E+00 -0.72648865646E+03  0.72648865647E+03  0.25500000920E-02 0.  1.
    10030    2    1    2    0    0  0.00000000000E+00  0.00000000000E+00  0.39045772980E+03  0.18434350427E+04  0.18016091468E+04 0.  0.
        2    1    3    3  502    0 -0.89400438998E+03  0.47707217819E+02  0.93270903368E+02  0.90012181917E+03  0.25500000920E-02 0.  1.
       -2    1    3    3    0  502  0.89400438998E+03 -0.47707217819E+02  0.29718682643E+03  0.94331322356E+03  0.25500000920E-02 0. -1.
</event>
<event>
 5   0  0.9147432E-05  0.1804083E+04  0.7818609E-02  0.8704131E-01
        2   -1    0    0  501    0  0.00000000000E+00  0.00000000000E+00  0.22319977653E+04  0.22319977653E+04  0.25500000920E-02 0.  1.
       -2   -1    0    0    0  501  0.00000000000E+00  0.00000000000E+00 -0.36455191326E+03  0.36455191327E+03  0.25500000920E-02 0. -1.
    10030    2    1    2    0    0  0.00000000000E+00  0.00000000000E+00  0.18674458521E+04  0.25965496786E+04  0.18040832085E+04 0.  0.
        3    1    3    3  502    0 -0.23044456511E+02 -0.81911018818E+03  0.14764728770E+04  0.16886221348E+04  0.10100000352E+00 0.  1.
       -3    1    3    3    0  502  0.23044456511E+02  0.81911018818E+03  0.39097297502E+03  0.90792754378E+03  0.10100000352E+00 0. -1.
</event>
<event>
 5   0  0.3270375E-05  0.1803162E+04  0.7818609E-02  0.8704620E-01
       -4   -1    0    0    0  501  0.00000000000E+00  0.00000000000E+00  0.65866546343E+03  0.65866668780E+03  0.12699999809E+01 0. -1.
        4   -1    0    0  501    0  0.00000000000E+00  0.00000000000E+00 -0.12340805285E+04  0.12340811820E+04  0.12699999809E+01 0.  1.
    10030    2    1    2    0    0  0.00000000000E+00  0.00000000000E+00 -0.57541506509E+03  0.18927478698E+04  0.18031616682E+04 0.  0.
        5    1    3    3  502    0  0.73591552502E+03 -0.46822123292E+03 -0.48289791925E+02  0.87358844826E+03  0.46999998093E+01 0.  1.
       -5    1    3    3    0  502 -0.73591552502E+03  0.46822123292E+03 -0.52712527317E+03  0.10191594216E+04  0.46999998093E+01 0. -1.
</event>
<event>
 5   0  0.8892280E-05  0.1802991E+04  0.7818609E-02  0.8704711E-01
        2   -1    0    0  501    0  0.00000000000E+00  0.00000000000E+00  0.78105575305E+03  0.78105575305E+03  0.25500000920E-02 0. -1.
       -2   -1    0    0    0  501  0.00000000000E+00  0.00000000000E+00 -0.10405068858E+04  0.10405068858E+04  0.25500000920E-02 0.  1.
    10030    2    1    2    0    0  0.00000000000E+00  0.00000000000E+00 -0.25945113273E+03  0.18215626388E+04  0.18029907257E+04 0.  0.
        4    1    3    3  502    0 -0.41976469545E+02 -0.84022936257E+03 -0.45701442798E+03  0.95739814393E+03  0.12699999809E+01 0.  1.
       -4    1    3    3    0  502  0.41976469545E+02  0.84022936257E+03  0.19756329525E+03  0.86416449490E+03  0.12699999809E+01 0. -1.
</event>
<event>
 5   0  0.9147432E-05  0.1802189E+04  0.7818609E-02  0.8705136E-01
        2   -1    0    0  501    0  0.00000000000E+00  0.00000000000E+00  0.10179422263E+04  0.10179422264E+04  0.25500000920E-02 0. -1.
       -2   -1    0    0    0  501  0.00000000000E+00  0.00000000000E+00 -0.79765941689E+03  0.79765941690E+03  0.25500000920E-02 0.  1.
    10030    2    1    2    0    0  0.00000000000E+00  0.00000000000E+00  0.22028280946E+03  0.18156016432E+04  0.18021888943E+04 0.  0.
        3    1    3    3  502    0  0.33318128311E+03 -0.76372887807E+03 -0.23545633828E+03  0.86587023511E+03  0.10100000352E+00 0. -1.
       -3    1    3    3    0  502 -0.33318128311E+03  0.76372887807E+03  0.45573914773E+03  0.94973140813E+03  0.10100000352E+00 0.  1.
</event>
<event>
 5   0  0.4335117E-05  0.1799431E+04  0.7818609E-02  0.8706602E-01
       -1   -1    0    0    0  501  0.00000000000E+00  0.00000000000E+00  0.11519514352E+04  0.11519514352E+04  0.50400001928E-02 0.  1.
        1   -1    0    0  501    0  0.00000000000E+00  0.00000000000E+00 -0.70270989615E+03  0.70270989617E+03  0.50400001928E-02 0. -1.
    10030    2    1    2    0    0  0.00000000000E+00  0.00000000000E+00  0.44924153906E+03  0.18546613314E+04  0.17994306582E+04 0.  0.
        3    1    3    3  502    0 -0.76171142512E+03  0.19257529462E+03 -0.22723941340E+03  0.81787975917E+03  0.10100000352E+00 0. -1.
       -3    1    3    3    0  502  0.76171142512E+03 -0.19257529462E+03  0.67648095246E+03  0.10367815722E+04  0.10100000352E+00 0.  1.
</event>
<event>
 5   0  0.9147432E-05  0.1824843E+04  0.7818609E-02  0.8693199E-01
       -2   -1    0    0    0  501  0.00000000000E+00  0.00000000000E+00  0.56857025563E+03  0.56857025563E+03  0.25500000920E-02 0. -1.
        2   -1    0    0  501    0  0.00000000000E+00  0.00000000000E+00 -0.14642215038E+04  0.14642215039E+04  0.25500000920E-02 0.  1.
    10030    2    1    2    0    0  0.00000000000E+00  0.00000000000E+00 -0.89565124822E+03  0.20327917595E+04  0.18248427820E+04 0.  0.
        3    1    3    3  502    0 -0.30767991149E+03  0.54380121408E+03  0.29287125064E+03  0.69004367109E+03  0.10100000352E+00 0. -1.
       -3    1    3    3    0  502  0.30767991149E+03 -0.54380121408E+03 -0.11885224989E+04  0.13427480884E+04  0.10100000352E+00 0.  1.
</event>
<event>
 5   0  0.4578107E-05  0.1796620E+04  0.7818609E-02  0.8708099E-01
        1   -1    0    0  501    0  0.00000000000E+00  0.00000000000E+00  0.16145044203E+04  0.16145044203E+04  0.50400001928E-02 0.  1.
       -1   -1    0    0    0  501  0.00000000000E+00  0.00000000000E+00 -0.49981971405E+03  0.49981971408E+03  0.50400001928E-02 0. -1.
    10030    2    1    2    0    0  0.00000000000E+00  0.00000000000E+00  0.11146847062E+04  0.21143241344E+04  0.17966203135E+04 0.  0.
        2    1    3    3  502    0 -0.74962941348E+03  0.34999761962E+02 -0.23722884775E+02  0.75082089486E+03  0.25500000920E-02 0. -1.
       -2    1    3    3    0  502  0.74962941348E+03 -0.34999761962E+02  0.11384075910E+04  0.13635032395E+04  0.25500000920E-02 0.  1.
</event>
<event>
 5   0  0.4535100E-05  0.1842053E+04  0.7818609E-02  0.8684250E-01
       -1   -1    0    0    0  501  0.00000000000E+00  0.00000000000E+00  0.52035658562E+03  0.52035658564E+03  0.50400001928E-02 0. -1.
        1   -1    0    0  501    0  0.00000000000E+00  0.00000000000E+00 -0.16302087088E+04  0.16302087088E+04  0.50400001928E-02 0.  1.
    10030    2    1    2    0    0  0.00000000000E+00  0.00000000000E+00 -0.11098521232E+04  0.21505652945E+04  0.18420530260E+04 0.  0.
        1    1    3    3  502    0 -0.10983263839E+03 -0.91186009460E+03 -0.47456628339E+03  0.10338110069E+04  0.50400001928E-02 0. -1.
       -1    1    3    3    0  502  0.10983263839E+03  0.91186009460E+03 -0.63528583982E+03  0.11167542876E+04  0.50400001928E-02 0.  1.
</event>
<event>
 5   0  0.8892280E-05  0.1781371E+04  0.7818609E-02  0.8716269E-01
       -2   -1    0    0    0  501  0.00000000000E+00  0.00000000000E+00  0.87734611191E+03  0.87734611192E+03  0.25500000920E-02 0.  1.
        2   -1    0    0  501    0  0.00000000000E+00  0.00000000000E+00 -0.90422760095E+03  0.90422760095E+03  0.25500000920E-02 0. -1.
    10030    2    1    2    0    0  0.00000000000E+00  0.00000000000E+00 -0.26881489038E+02  0.17815737129E+04  0.17813708990E+04 0.  0.
        4    1    3    3  502    0  0.21956301089E+03 -0.27798036468E+03  0.80386583022E+03  0.87845482798E+03  0.12699999809E+01 0.  1.
       -4    1    3    3    0  502 -0.21956301089E+03  0.27798036468E+03 -0.83074731926E+03  0.90311888489E+03  0.12699999809E+01 0. -1.
</event>
<event>
 5   0  0.8892280E-05  0.1805092E+04  0.7818609E-02  0.8703596E-01
        2   -1    0    0  501    0  0.00000000000E+00  0.00000000000E+00  0.79085625596E+03  0.79085625597E+03  0.25500000920E-02 0.  1.
       -2   -1    0    0    0  501  0.00000000000E+00  0.00000000000E+00 -0.10300095208E+04  0.10300095209E+04  0.25500000920E-02 0. -1.
    10030    2    1    2    0    0  0.00000000000E+00  0.00000000000E+00 -0.23915326488E+03  0.18208657768E+04  0.18050922118E+04 0.  0.
        4    1    3    3  502    0  0.24334581543E+03  0.15972792395E+03  0.74220578201E+03  0.79724602936E+03  0.12699999809E+01 0.  1.
       -4    1    3    3    0  502 -0.24334581543E+03 -0.15972792395E+03 -0.98135904689E+03  0.10236197475E+04  0.12699999809E+01 0. -1.
</event>
<event>
 5   0  0.8892280E-05  0.1802721E+04  0.7818609E-02  0.8704854E-01
        2   -1    0    0  501    0  0.00000000000E+00  0.00000000000E+00  0.28040464012E+04  0.28040464012E+04  0.25500000920E-02 0.  1.
       -2   -1    0    0    0  501  0.00000000000E+00  0.00000000000E+00 -0.28974220758E+03  0.28974220759E+03  0.25500000920E-02 0. -1.
    10030    2    1    2    0    0  0.00000000000E+00  0.00000000000E+00  0.25143041936E+04  0.30937886088E+04  0.18027208264E+04 0.  0.
        4    1    3    3  502    0  0.40639822454E+03 -0.90082122402E+02  0.26292084211E+04  0.26619565812E+04  0.12699999809E+01 0.  1.
       -4    1    3    3    0  502 -0.40639822454E+03  0.90082122402E+02 -0.11490422747E+03  0.43183202762E+03  0.12699999809E+01 0. -1.
</event>
<event>
 5   0  0.3270375E-05  0.1809109E+04  0.7818609E-02  0.8701470E-01
       -3   -1    0    0    0  501  0.00000000000E+00  0.00000000000E+00  0.11994882174E+04  0.11994882216E+04  0.10100000352E+00 0. -1.
        3   -1    0    0  501    0  0.00000000000E+00  0.00000000000E+00 -0.68213997261E+03  0.68213998009E+03  0.10100000352E+00 0.  1.
    10030    2    1    2    0    0  0.00000000000E+00  0.00000000000E+00  0.51734824476E+03  0.18816282017E+04  0.18091090302E+04 0.  0.
        5    1    3    3  502    0 -0.62646189851E+03  0.29052293551E+03  0.86633577963E+03  0.11078889202E+04  0.46999998093E+01 0. -1.
       -5    1    3    3    0  502  0.62646189851E+03 -0.29052293551E+03 -0.34898753487E+03  0.77373928156E+03  0.46999998093E+01 0.  1.
</event>
<event>
 5   0  0.4535100E-05  0.1792554E+04  0.7818609E-02  0.8710269E-01
       -1   -1    0    0    0  501  0.00000000000E+00  0.00000000000E+00  0.49566738722E+03  0.49566738724E+03  0.50400001928E-02 0.  1.
        1   -1    0    0  501    0  0.00000000000E+00  0.00000000000E+00 -0.16206682361E+04  0.16206682361E+04  0.50400001928E-02 0. -1.
    10030    2    1    2    0    0  0.00000000000E+00  0.00000000000E+00 -0.11250008489E+04  0.21163356234E+04  0.17925539213E+04 0.  0.
        1    1    3    3  502    0  0.80243395744E+03 -0.22512007933E+03 -0.17319256911E+03  0.85121969679E+03  0.50400001928E-02 0.  1.
       -1    1    3    3    0  502 -0.80243395744E+03  0.22512007933E+03 -0.95180827978E+03  0.12651159266E+04  0.50400001928E-02 0. -1.
</event>
<event>
 5   0  0.9147432E-05  0.1802942E+04  0.7818609E-02  0.8704737E-01
        2   -1    0    0  501    0  0.00000000000E+00  0.00000000000E+00  0.21551138999E+04  0.21551138999E+04  0.25500000920E-02 0. -1.
       -2   -1    0    0    0  501  0.00000000000E+00  0.00000000000E+00 -0.37707973728E+03  0.37707973729E+03  0.25500000920E-02 0.  1.
    10030    2    1    2    0    0  0.00000000000E+00  0.00000000000E+00  0.17780341626E+04  0.25321936371E+04  0.18029417996E+04 0.  0.
        3    1    3    3  502    0 -0.32469077697E+03  0.42406693707E+02  0.20686349722E+04  0.20943908630E+04  0.10100000352E+00 0. -1.
       -3    1    3    3    0  502  0.32469077697E+03 -0.42406693707E+02 -0.29060080965E+03  0.43780277419E+03  0.10100000352E+00 0.  1.
</event>
<event>
 5   0  0.8893075E-05  0.1790478E+04  0.7818609E-02  0.8711379E-01
       -2   -1    0    0    0  501  0.00000000000E+00  0.00000000000E+00  0.81958588435E+03  0.81958588435E+03  0.25500000920E-02 0. -1.
        2   -1    0    0  501    0  0.00000000000E+00  0.00000000000E+00 -0.97787560925E+03  0.97787560925E+03  0.25500000920E-02 0.  1.
    10030    2    1    2    0    0  0.00000000000E+00  0.00000000000E+00 -0.15828972490E+03  0.17974614936E+04  0.17904781998E+04 0.  0.
        1    1    3    3  502    0  0.43560100898E+03  0.55004996638E+03  0.47903616645E+03  0.84957569017E+03  0.50400001928E-02 0. -1.
       -1    1    3    3    0  502 -0.43560100898E+03 -0.55004996638E+03 -0.63732589135E+03  0.94788580343E+03  0.50400001928E-02 0.  1.
</event>
<event>
 5   0  0.4578107E-05  0.1795577E+04  0.7818609E-02  0.8708655E-01
       -1   -1    0    0    0  501  0.00000000000E+00  0.00000000000E+00  0.92944476372E+03  0.92944476374E+03  0.50400001928E-02 0.  1.
        1   -1    0    0  501    0  0.00000000000E+00  0.00000000000E+00 -0.86721042991E+03  0.86721042992E+03  0.50400001928E-02 0. -1.
    10030    2    1    2    0    0  0.00000000000E+00  0.00000000000E+00  0.62234333814E+02  0.17966551937E+04  0.17955770027E+04 0.  0.
        2    1    3    3  502    0  0.34169372738E+03  0.26753810463E+03 -0.75528920887E+03  0.87108726876E+03  0.25500000920E-02 0. -1.
       -2    1    3    3    0  502 -0.34169372738E+03 -0.26753810463E+03  0.81752354268E+03  0.92556792490E+03  0.25500000920E-02 0.  1.
</event>
<event>
 5   0  0.4535100E-05  0.1794304E+04  0.7818609E-02  0.8709334E-01
        1   -1    0    0  501    0  0.00000000000E+00  0.00000000000E+00  0.88386345394E+03  0.88386345396E+03  0.50400001928E-02 0. -1.
       -1   -1    0    0    0  501  0.00000000000E+00  0.00000000000E+00 -0.91064031972E+03  0.91064031974E+03  0.50400001928E-02 0.  1.
    10030    2    1    2    0    0  0.00000000000E+00  0.00000000000E+00 -0.26776865779E+02  0.17945037737E+04  0.17943039857E+04 0.  0.
        1    1    3    3  502    0  0.46769518092E+03 -0.65018948339E+03  0.39087996896E+03  0.89121955585E+03  0.50400001928E-02 0. -1.
       -1    1    3    3    0  502 -0.46769518092E+03  0.65018948339E+03 -0.41765683474E+03  0.90328421784E+03  0.50400001928E-02 0.  1.
</event>
<event>
 5   0  0.4578107E-05  0.1797005E+04  0.7818609E-02  0.8707894E-01
       -1   -1    0    0    0  501  0.00000000000E+00  0.00000000000E+00  0.42990366241E+03  0.42990366244E+03  0.50400001928E-02 0.  1.
        1   -1    0    0  501    0  0.00000000000E+00  0.00000000000E+00 -0.18778790259E+04  0.18778790259E+04  0.50400001928E-02 0. -1.
    10030    2    1    2    0    0  0.00000000000E+00  0.00000000000E+00 -0.14479753635E+04  0.23077826884E+04  0.17970053654E+04 0.  0.
        2    1    3    3  502    0 -0.55216662175E+03  0.10261411752E+03  0.17671049784E+03  0.58876500860E+03  0.25500000920E-02 0.  1.
       -2    1    3    3    0  502  0.55216662175E+03 -0.10261411752E+03 -0.16246858613E+04  0.17190176798E+04  0.25500000920E-02 0. -1.
</event>
<event>
 5   0  0.9147432E-05  0.1793574E+04  0.7818609E-02  0.8709724E-01
        2   -1    0    0  501    0  0.00000000000E+00  0.00000000000E+00  0.14830184386E+04  0.14830184386E+04  0.25500000920E-02 0. -1.
       -2   -1    0    0    0  501  0.00000000000E+00  0.00000000000E+00 -0.54229085954E+03  0.54229085955E+03  0.25500000920E-02 0.  1.
    10030    2    1    2    0    0  0.00000000000E+00  0.00000000000E+00  0.94072757907E+03  0.20253092982E+04  0.17935744688E+04 0.  0.
        3    1    3    3  502    0 -0.35055591159E+03 -0.16557976666E+03  0.13834980993E+04  0.14367926459E+04  0.10100000352E+00 0. -1.
       -3    1    3    3    0  502  0.35055591159E+03  0.16557976666E+03 -0.44277052021E+03  0.58851665231E+03  0.10100000352E+00 0.  1.
</event>
<event>
 5   0  0.4578107E-05  0.1798443E+04  0.7818609E-02  0.8707128E-01
        1   -1    0    0  501    0  0.00000000000E+00  0.00000000000E+00  0.69794878444E+03  0.69794878445E+03  0.50400001928E-02 0.  1.
       -1   -1    0    0    0  501  0.00000000000E+00  0.00000000000E+00 -0.11585363886E+04  0.11585363886E+04  0.50400001928E-02 0. -1.
    10030    2    1    2    0    0  0.00000000000E+00  0.00000000000E+00 -0.46058760418E+03  0.18564851731E+04  0.17984427310E+04 0.  0.
        2    1    3    3  502    0  0.12367610769E+03 -0.69240837555E+03  0.34803189776E+03  0.78476196392E+03  0.25500000920E-02 0.  1.
       -2    1    3    3    0  502 -0.12367610769E+03  0.69240837555E+03 -0.80861950194E+03  0.10717232092E+04  0.25500000920E-02 0. -1.
</event>
<event>
 5   0  0.8802655E-05  0.1802319E+04  0.7818609E-02  0.8705067E-01
       -2   -1    0    0    0  501  0.00000000000E+00  0.00000000000E+00  0.42087709771E+03  0.42087709772E+03  0.25500000920E-02 0. -1.
        2   -1    0    0  501    0  0.00000000000E+00  0.00000000000E+00 -0.19295138122E+04  0.19295138122E+04  0.25500000920E-02 0.  1.
    10030    2    1    2    0    0  0.00000000000E+00  0.00000000000E+00 -0.15086367145E+04  0.23503909099E+04  0.18023186991E+04 0.  0.
        2    1    3    3  502    0  0.75151942473E+02  0.68479008191E+03  0.32943778809E+01  0.68890937261E+03  0.25500000920E-02 0. -1.
       -2    1    3    3    0  502 -0.75151942473E+02 -0.68479008191E+03 -0.15119310924E+04  0.16614815373E+04  0.25500000920E-02 0.  1.
</event>
<event>
 5   0  0.4335117E-05  0.1821435E+04  0.7818609E-02  0.8694983E-01
        1   -1    0    0  501    0  0.00000000000E+00  0.00000000000E+00  0.11111837511E+04  0.11111837511E+04  0.50400001928E-02 0. -1.
       -1   -1    0    0    0  501  0.00000000000E+00  0.00000000000E+00 -0.74641665996E+03  0.74641665998E+03  0.50400001928E-02 0.  1.
    10030    2    1    2    0    0  0.00000000000E+00  0.00000000000E+00  0.36476709111E+03  0.18576004111E+04  0.18214346698E+04 0.  0.
        3    1    3    3  502    0 -0.48192050797E+03  0.52236512793E+03 -0.39839119823E+03  0.81475656481E+03  0.10100000352E+00 0.  1.
       -3    1    3    3    0  502  0.48192050797E+03 -0.52236512793E+03  0.76315828934E+03  0.10428438463E+04  0.10100000352E+00 0. -1.
</event>
<event>
 5   0  0.4535100E-05  0.1803957E+04  0.7818609E-02  0.8704198E-01
       -1   -1    0    0    0  501  0.00000000000E+00  0.00000000000E+00  0.12371783954E+04  0.12371783954E+04  0.50400001928E-02 0. -1.
        1   -1    0    0  501    0  0.00000000000E+00  0.00000000000E+00 -0.65759722060E+03  0.65759722062E+03  0.50400001928E-02 0.  1.
    10030    2    1    2    0    0  0.00000000000E+00  0.00000000000E+00  0.57958117477E+03  0.18947756160E+04  0.18039568445E+04 0.  0.
        1    1    3    3  502    0 -0.56682685529E+02 -0.63974215679E+03  0.95498454300E+03  0.11508598661E+04  0.50400001928E-02 0. -1.
       -1    1    3    3    0  502  0.56682685529E+02  0.63974215679E+03 -0.37540336824E+03  0.74391574988E+03  0.50400001928E-02 0.  1.
</event>
<event>
 5   0  0.8892280E-05  0.1798344E+04  0.7818609E-02  0.8707180E-01
       -2   -1    0    0    0  501  0.00000000000E+00  0.00000000000E+00  0.12820761760E+04  0.12820761760E+04  0.25500000920E-02 0. -1.
        2   -1    0    0  501    0  0.00000000000E+00  0.00000000000E+00 -0.63062592617E+03  0.63062592618E+03  0.25500000920E-02 0.  1.
    10030    2    1    2    0    0  0.00000000000E+00  0.00000000000E+00  0.65145024980E+03  0.19127021021E+04  0.17983442117E+04 0.  0.
        4    1    3    3  502    0  0.59768234419E+03 -0.51784755677E+03 -0.12941039195E+03  0.80133572181E+03  0.12699999809E+01 0.  1.
       -4    1    3    3    0  502 -0.59768234419E+03  0.51784755677E+03  0.78086064175E+03  0.11113663803E+04  0.12699999809E+01 0. -1.
</event>
<event>
 5   0  0.9184414E-05  0.1802746E+04  0.7818609E-02  0.8704841E-01
        2   -1    0    0  501    0  0.00000000000E+00  0.00000000000E+00  0.98196596710E+03  0.98196596710E+03  0.25500000920E-02 0.  1.
       -2   -1    0    0    0  501  0.00000000000E+00  0.00000000000E+00 -0.82739436931E+03  0.82739436931E+03  0.25500000920E-02 0. -1.
    10030    2    1    2    0    0  0.00000000000E+00  0.00000000000E+00  0.15457159779E+03  0.18093603364E+04  0.18027458080E+04 0.  0.
        5    1    3    3  502    0  0.46730783253E+03  0.29895967387E+03 -0.63574150236E+03  0.84376705599E+03  0.46999998093E+01 0. -1.
       -5    1    3    3    0  502 -0.46730783253E+03 -0.29895967387E+03  0.79031310015E+03  0.96559328043E+03  0.46999998093E+01 0.  1.
</event>
<event>
 5   0  0.4578107E-05  0.1845222E+04  0.7818609E-02  0.8682614E-01
        1   -1    0    0  501    0  0.00000000000E+00  0.00000000000E+00  0.11518770128E+04  0.11518770128E+04  0.50400001928E-02 0. -1.
       -1   -1    0    0    0  501  0.00000000000E+00  0.00000000000E+00 -0.73897721118E+03  0.73897721119E+03  0.50400001928E-02 0.  1.
    10030    2    1    2    0    0  0.00000000000E+00  0.00000000000E+00  0.41289980161E+03  0.18908542240E+04  0.18452217889E+04 0.  0.
        2    1    3    3  502    0  0.72718708644E+02  0.90248528810E+03  0.38815727142E+03  0.98510597054E+03  0.25500000920E-02 0.  1.
       -2    1    3    3    0  502 -0.72718708644E+02 -0.90248528810E+03  0.24742530186E+02  0.90574825345E+03  0.25500000920E-02 0. -1.
</event>
<event>
 5   0  0.4578107E-05  0.1756868E+04  0.7818609E-02  0.8729579E-01
       -1   -1    0    0    0  501  0.00000000000E+00  0.00000000000E+00  0.11360242896E+04  0.11360242897E+04  0.50400001928E-02 0. -1.
        1   -1    0    0  501    0  0.00000000000E+00  0.00000000000E+00 -0.67925168692E+03  0.67925168694E+03  0.50400001928E-02 0.  1.
    10030    2    1    2    0    0  0.00000000000E+00  0.00000000000E+00  0.45677260273E+03  0.18152759766E+04  0.17568681398E+04 0.  0.
        2    1    3    3  502    0 -0.23466996755E+01 -0.76112002720E+03  0.68152917217E+03  0.10216610080E+04  0.25500000920E-02 0.  1.
       -2    1    3    3    0  502  0.23466996755E+01  0.76112002720E+03 -0.22475656944E+03  0.79361496856E+03  0.25500000920E-02 0. -1.
</event>
<event>
 5   0  0.4535100E-05  0.1807630E+04  0.7818609E-02  0.8702253E-01
        1   -1    0    0  501    0  0.00000000000E+00  0.00000000000E+00  0.91606872536E+03  0.91606872538E+03  0.50400001928E-02 0. -1.
       -1   -1    0    0    0  501  0.00000000000E+00  0.00000000000E+00 -0.89172490641E+03  0.89172490642E+03  0.50400001928E-02 0.  1.
    10030    2    1    2    0    0  0.00000000000E+00  0.00000000000E+00  0.24343818957E+02  0.18077936318E+04  0.18076297170E+04 0.  0.
        1    1    3    3  502    0 -0.85666300929E+03 -0.12455581721E+03 -0.24765087011E+03  0.90039803230E+03  0.50400001928E-02 0.  1.
       -1    1    3    3    0  502  0.85666300929E+03  0.12455581721E+03  0.27199468906E+03  0.90739559950E+03  0.50400001928E-02 0. -1.
</event>
<event>
 5   0  0.4623665E-05  0.1800886E+04  0.7818609E-02  0.8705828E-01
       -1   -1    0    0    0  501  0.00000000000E+00  0.00000000000E+00  0.72944266088E+03  0.72944266090E+03  0.50400001928E-02 0. -1.
        1   -1    0    0  501    0  0.00000000000E+00  0.00000000000E+00 -0.11115308306E+04  0.11115308306E+04  0.50400001928E-02 0.  1.
    10030    2    1    2    0    0  0.00000000000E+00  0.00000000000E+00 -0.38208816969E+03  0.18409734915E+04  0.18008864559E+04 0.  0.
        5    1    3    3  502    0  0.44790168366E+03 -0.16635985812E+03  0.58915125354E+03  0.75855969453E+03  0.46999998093E+01 0. -1.
       -5    1    3    3    0  502 -0.44790168366E+03  0.16635985812E+03 -0.97123942322E+03  0.10824137970E+04  0.46999998093E+01 0.  1.
</event>
<event>
 5   0  0.4335117E-05  0.1847377E+04  0.7818609E-02  0.8681503E-01
        1   -1    0    0  501    0  0.00000000000E+00  0.00000000000E+00  0.12434981564E+04  0.12434981564E+04  0.50400001928E-02 0.  1.
       -1   -1    0    0    0  501  0.00000000000E+00  0.00000000000E+00 -0.68612925581E+03  0.68612925583E+03  0.50400001928E-02 0. -1.
    10030    2    1    2    0    0  0.00000000000E+00  0.00000000000E+00  0.55736890056E+03  0.19296274122E+04  0.18473770213E+04 0.  0.
        3    1    3    3  502    0  0.66247007139E+03  0.45001616362E+03  0.75941386759E+03  0.11036714074E+04  0.10100000352E+00 0.  1.
       -3    1    3    3    0  502 -0.66247007139E+03 -0.45001616362E+03 -0.20204496703E+03  0.82595600482E+03  0.10100000352E+00 0. -1.
</event>
<event>
 5   0  0.8893075E-05  0.1798163E+04  0.7818609E-02  0.8707277E-01
        2   -1    0    0  501    0  0.00000000000E+00  0.00000000000E+00  0.75237449924E+03  0.75237449924E+03  0.25500000920E-02 0. -1.
       -2   -1    0    0    0  501  0.00000000000E+00  0.00000000000E+00 -0.10743951774E+04  0.10743951774E+04  0.25500000920E-02 0.  1.
    10030    2    1    2    0    0  0.00000000000E+00  0.00000000000E+00 -0.32202067818E+03  0.18267696767E+04  0.17981629888E+04 0.  0.
        1    1    3    3  502    0 -0.42703698429E+03  0.60131829270E+03 -0.68339226360E+03  0.10054696719E+04  0.50400001928E-02 0.  1.
       -1    1    3    3    0  502  0.42703698429E+03 -0.60131829270E+03  0.36137158542E+03  0.82130000479E+03  0.50400001928E-02 0. -1.
</event>
<event>
 5   0  0.4623665E-05  0.1803441E+04  0.7818609E-02  0.8704472E-01
        1   -1    0    0  501    0  0.00000000000E+00  0.00000000000E+00  0.15791567092E+04  0.15791567093E+04  0.50400001928E-02 0.  1.
       -1   -1    0    0    0  501  0.00000000000E+00  0.00000000000E+00 -0.51489495639E+03  0.51489495641E+03  0.50400001928E-02 0. -1.
    10030    2    1    2    0    0  0.00000000000E+00  0.00000000000E+00  0.10642617529E+04  0.20940516657E+04  0.18034409610E+04 0.  0.
        5    1    3    3  502    0  0.76018489361E+03 -0.44211653187E+03  0.30068856960E+03  0.92939970202E+03  0.46999998093E+01 0. -1.
       -5    1    3    3    0  502 -0.76018489361E+03  0.44211653187E+03  0.76357318327E+03  0.11646519636E+04  0.46999998093E+01 0.  1.
</event>
<event>
 5   0  0.4535100E-05  0.1802282E+04  0.7818609E-02  0.8705087E-01
       -1   -1    0    0    0  501  0.00000000000E+00  0.00000000000E+00  0.56061456924E+03  0.56061456926E+03  0.50400001928E-02 0. -1.
        1   -1    0    0  501    0  0.00000000000E+00  0.00000000000E+00 -0.14485091089E+04  0.14485091089E+04  0.50400001928E-02 0.  1.
    10030    2    1    2    0    0  0.00000000000E+00  0.00000000000E+00 -0.88789453966E+03  0.20091236782E+04  0.18022822311E+04 0.  0.
        1    1    3    3  502    0  0.52903337079E+03 -0.62510881992E+03 -0.86316164282E+03  0.11898257712E+04  0.50400001928E-02 0. -1.
       -1    1    3    3    0  502 -0.52903337079E+03  0.62510881992E+03 -0.24732896845E+02  0.81929790697E+03  0.50400001928E-02 0.  1.
</event>
<event>
 5   0  0.4535100E-05  0.1801403E+04  0.7818609E-02  0.8705554E-01
        1   -1    0    0  501    0  0.00000000000E+00  0.00000000000E+00  0.68978640106E+03  0.68978640108E+03  0.50400001928E-02 0. -1.
       -1   -1    0    0    0  501  0.00000000000E+00  0.00000000000E+00 -0.11761077801E+04  0.11761077801E+04  0.50400001928E-02 0.  1.
    10030    2    1    2    0    0  0.00000000000E+00  0.00000000000E+00 -0.48632137904E+03  0.18658941812E+04  0.18014029565E+04 0.  0.
        1    1    3    3  502    0  0.50662938277E+03 -0.67640833963E+02  0.52501971403E+03  0.73273072411E+03  0.50400001928E-02 0. -1.
       -1    1    3    3    0  502 -0.50662938277E+03  0.67640833963E+02 -0.10113410931E+04  0.11331634571E+04  0.50400001928E-02 0.  1.
</event>
<event>
 5   0  0.4494757E-05  0.1820613E+04  0.7818609E-02  0.8695414E-01
        1   -1    0    0  501    0  0.00000000000E+00  0.00000000000E+00  0.56787963390E+03  0.56787963392E+03  0.50400001928E-02 0. -1.
       -1   -1    0    0    0  501  0.00000000000E+00  0.00000000000E+00 -0.14592140673E+04  0.14592140673E+04  0.50400001928E-02 0.  1.
    10030    2    1    2    0    0  0.00000000000E+00  0.00000000000E+00 -0.89133443343E+03  0.20270937013E+04  0.18206130290E+04 0.  0.
        4    1    3    3  502    0  0.40250845247E+02  0.19338362308E+03  0.54372950618E+03  0.57849869923E+03  0.12699999809E+01 0. -1.
       -4    1    3    3    0  502 -0.40250845247E+02 -0.19338362308E+03 -0.14350639396E+04  0.14485950020E+04  0.12699999809E+01 0.  1.
</event>
<event>
 5   0  0.4335117E-05  0.1801195E+04  0.7818609E-02  0.8705664E-01
       -1   -1    0    0    0  501  0.00000000000E+00  0.00000000000E+00  0.75837567086E+03  0.75837567088E+03  0.50400001928E-02 0. -1.
        1   -1    0    0  501    0  0.00000000000E+00  0.00000000000E+00 -0.10694910575E+04  0.10694910575E+04  0.50400001928E-02 0.  1.
    10030    2    1    2    0    0  0.00000000000E+00  0.00000000000E+00 -0.31111538663E+03  0.18278667284E+04  0.18011951568E+04 0.  0.
        3    1    3    3  502    0  0.65240983160E+03  0.50663553160E+03 -0.51969954363E+03  0.97591279124E+03  0.10100000352E+00 0. -1.
       -3    1    3    3    0  502 -0.65240983160E+03 -0.50663553160E+03  0.20858415700E+03  0.85195393714E+03  0.10100000352E+00 0.  1.
</event>
<event>
 5   0  0.8893075E-05  0.1796020E+04  0.7818609E-02  0.8708419E-01
       -2   -1    0    0    0  501  0.00000000000E+00  0.00000000000E+00  0.80206961260E+03  0.80206961260E+03  0.25500000920E-02 0.  1.
        2   -1    0    0  501    0  0.00000000000E+00  0.00000000000E+00 -0.10054263079E+04  0.10054263079E+04  0.25500000920E-02 0. -1.
    10030    2    1    2    0    0  0.00000000000E+00  0.00000000000E+00 -0.20335669535E+03  0.18074959205E+04  0.17960199212E+04 0.  0.
        1    1    3    3  502    0 -0.51665531034E+02  0.13883996585E+03  0.78968754925E+03  0.80346268655E+03  0.50400001928E-02 0.  1.
       -1    1    3    3    0  502  0.51665531034E+02 -0.13883996585E+03 -0.99304424460E+03  0.10040332340E+04  0.50400001928E-02 0. -1.
</event>
<event>
 5   0  0.9147432E-05  0.1772514E+04  0.7818609E-02  0.8721054E-01
       -2   -1    0    0    0  501  0.00000000000E+00  0.00000000000E+00  0.60826284609E+03  0.60826284610E+03  0.25500000920E-02 0. -1.
        2   -1    0    0  501    0  0.00000000000E+00  0.00000000000E+00 -0.12913023384E+04  0.12913023384E+04  0.25500000920E-02 0.  1.
    10030    2    1    2    0    0  0.00000000000E+00  0.00000000000E+00 -0.68303949228E+03  0.18995651845E+04  0.17725137354E+04 0.  0.
        3    1    3    3  502    0 -0.27906680389E+03 -0.54520465909E+03  0.34496120050E+03  0.70293999842E+03  0.10100000352E+00 0. -1.
       -3    1    3    3    0  502  0.27906680389E+03  0.54520465909E+03 -0.10280006928E+04  0.11966251861E+04  0.10100000352E+00 0.  1.
</event>
<event>
 5   0  0.4335117E-05  0.1797737E+04  0.7818609E-02  0.8707504E-01
       -1   -1    0    0    0  501  0.00000000000E+00  0.00000000000E+00  0.80184837463E+03  0.80184837465E+03  0.50400001928E-02 0.  1.
        1   -1    0    0  501    0  0.00000000000E+00  0.00000000000E+00 -0.10076270829E+04  0.10076270829E+04  0.50400001928E-02 0. -1.
    10030    2    1    2    0    0  0.00000000000E+00  0.00000000000E+00 -0.20577870827E+03  0.18094754576E+04  0.17977365087E+04 0.  0.
        3    1    3    3  502    0 -0.13885734573E+03 -0.68033260272E+03 -0.67743217640E+03  0.97007637669E+03  0.10100000352E+00 0. -1.
       -3    1    3    3    0  502  0.13885734573E+03  0.68033260272E+03  0.47165346812E+03  0.83939908088E+03  0.10100000352E+00 0.  1.
</event>
<event>
 5   0  0.3270375E-05  0.1770823E+04  0.7818609E-02  0.8721971E-01
       -4   -1    0    0    0  501  0.00000000000E+00  0.00000000000E+00  0.70812962579E+03  0.70813076463E+03  0.12699999809E+01 0. -1.
        4   -1    0    0  501    0  0.00000000000E+00  0.00000000000E+00 -0.11070742528E+04  0.11070749813E+04  0.12699999809E+01 0.  1.
    10030    2    1    2    0    0  0.00000000000E+00  0.00000000000E+00 -0.39894462705E+03  0.18152057459E+04  0.17708232787E+04 0.  0.
        2    1    3    3  502    0 -0.12747011274E+03  0.42994880758E+03  0.58310764965E+03  0.73560800558E+03  0.25500000920E-02 0. -1.
       -2    1    3    3    0  502  0.12747011274E+03 -0.42994880758E+03 -0.98205227669E+03  0.10795977403E+04  0.25500000920E-02 0.  1.
</event>
<event>
 5   0  0.4494757E-05  0.1793615E+04  0.7818609E-02  0.8709702E-01
        1   -1    0    0  501    0  0.00000000000E+00  0.00000000000E+00  0.58420840538E+03  0.58420840540E+03  0.50400001928E-02 0. -1.
       -1   -1    0    0    0  501  0.00000000000E+00  0.00000000000E+00 -0.13766722660E+04  0.13766722660E+04  0.50400001928E-02 0.  1.
    10030    2    1    2    0    0  0.00000000000E+00  0.00000000000E+00 -0.79246386062E+03  0.19608806714E+04  0.17936147962E+04 0.  0.
        4    1    3    3  502    0 -0.20593415932E+03  0.83718980433E+03 -0.66617161038E+03  0.10895328695E+04  0.12699999809E+01 0.  1.
       -4    1    3    3    0  502  0.20593415932E+03 -0.83718980433E+03 -0.12629225025E+03  0.87134780187E+03  0.12699999809E+01 0. -1.
</event>
<event>
 5   0  0.4578107E-05  0.1807504E+04  0.7818609E-02  0.8702319E-01
        1   -1    0    0  501    0  0.00000000000E+00  0.00000000000E+00  0.97345736282E+03  0.97345736283E+03  0.50400001928E-02 0. -1.
       -1   -1    0    0    0  501  0.00000000000E+00  0.00000000000E+00 -0.83903824076E+03  0.83903824078E+03  0.50400001928E-02 0.  1.
    10030    2    1    2    0    0  0.00000000000E+00  0.00000000000E+00  0.13441912205E+03  0.18124956036E+04  0.18075043050E+04 0.  0.
        2    1    3    3  502    0 -0.26804739229E+02 -0.49970420332E+03  0.82184678068E+03  0.96221354999E+03  0.25500000920E-02 0. -1.
       -2    1    3    3    0  502  0.26804739229E+02  0.49970420332E+03 -0.68742765863E+03  0.85028205362E+03  0.25500000920E-02 0.  1.
</event>
<event>
 5   0  0.4535100E-05  0.1793997E+04  0.7818609E-02  0.8709499E-01
        1   -1    0    0  501    0  0.00000000000E+00  0.00000000000E+00  0.71086620609E+03  0.71086620611E+03  0.50400001928E-02 0. -1.
       -1   -1    0    0    0  501  0.00000000000E+00  0.00000000000E+00 -0.11318669564E+04  0.11318669564E+04  0.50400001928E-02 0.  1.
    10030    2    1    2    0    0  0.00000000000E+00  0.00000000000E+00 -0.42100075031E+03  0.18427331625E+04  0.17939966211E+04 0.  0.
        1    1    3    3  502    0 -0.85475407142E+03 -0.17582509579E+03  0.27127173902E+01  0.87265476896E+03  0.50400001928E-02 0. -1.
       -1    1    3    3    0  502  0.85475407142E+03  0.17582509579E+03 -0.42371346770E+03  0.97007839356E+03  0.50400001928E-02 0.  1.
</event>
<event>
 5   0  0.4623665E-05  0.1798159E+04  0.7818609E-02  0.8707279E-01
        1   -1    0    0  501    0  0.00000000000E+00  0.00000000000E+00  0.13847579441E+04  0.13847579441E+04  0.50400001928E-02 0. -1.
       -1   -1    0    0    0  501  0.00000000000E+00  0.00000000000E+00 -0.58374403067E+03  0.58374403069E+03  0.50400001928E-02 0.  1.
    10030    2    1    2    0    0  0.00000000000E+00  0.00000000000E+00  0.80101391342E+03  0.19685019748E+04  0.17981592630E+04 0.  0.
        5    1    3    3  502    0 -0.65987126638E+03 -0.47713144587E+03  0.81770975781E+03  0.11540172628E+04  0.46999998093E+01 0. -1.
       -5    1    3    3    0  502  0.65987126638E+03  0.47713144587E+03 -0.16695844388E+02  0.81448471198E+03  0.46999998093E+01 0.  1.
</event>
<event>
 5   0  0.9184414E-05  0.1796015E+04  0.7818609E-02  0.8708421E-01
       -2   -1    0    0    0  501  0.00000000000E+00  0.00000000000E+00  0.46984007749E+03  0.46984007749E+03  0.25500000920E-02 0. -1.
        2   -1    0    0  501    0  0.00000000000E+00  0.00000000000E+00 -0.17163660742E+04  0.17163660742E+04  0.25500000920E-02 0.  1.
    10030    2    1    2    0    0  0.00000000000E+00  0.00000000000E+00 -0.12465259967E+04  0.21862061517E+04  0.17960151105E+04 0.  0.
        5    1    3    3  502    0  0.46343948998E+03 -0.39052132867E+03  0.18335699317E+03  0.63318634378E+03  0.46999998093E+01 0. -1.
       -5    1    3    3    0  502 -0.46343948998E+03  0.39052132867E+03 -0.14298829899E+04  0.15530198079E+04  0.46999998093E+01 0.  1.
</event>
<event>
 5   0  0.8892280E-05  0.1797484E+04  0.7818609E-02  0.8707639E-01
       -2   -1    0    0    0  501  0.00000000000E+00  0.00000000000E+00  0.59803769938E+03  0.59803769938E+03  0.25500000920E-02 0. -1.
        2   -1    0    0  501    0  0.00000000000E+00  0.00000000000E+00 -0.13506461851E+04  0.13506461851E+04  0.25500000920E-02 0.  1.
    10030    2    1    2    0    0  0.00000000000E+00  0.00000000000E+00 -0.75260848568E+03  0.19486838844E+04  0.17974841720E+04 0.  0.
        4    1    3    3  502    0  0.31687743150E+02  0.56552574932E+03  0.38018309622E+03  0.68217613984E+03  0.12699999809E+01 0. -1.
       -4    1    3    3    0  502 -0.31687743150E+02 -0.56552574932E+03 -0.11327915819E+04  0.12665077446E+04  0.12699999809E+01 0.  1.
</event>
<event>
 5   0  0.4623665E-05  0.1789114E+04  0.7818609E-02  0.8712110E-01
       -1   -1    0    0    0  501  0.00000000000E+00  0.00000000000E+00  0.46456606925E+03  0.46456606928E+03  0.50400001928E-02 0. -1.
        1   -1    0    0  501    0  0.00000000000E+00  0.00000000000E+00 -0.17225363113E+04  0.17225363113E+04  0.50400001928E-02 0.  1.
    10030    2    1    2    0    0  0.00000000000E+00  0.00000000000E+00 -0.12579702420E+04  0.21871023806E+04  0.17891136614E+04 0.  0.
        5    1    3    3  502    0  0.20689174940E+02 -0.87635720775E+03 -0.41106014556E+03  0.96820583080E+03  0.46999998093E+01 0. -1.
       -5    1    3    3    0  502 -0.20689174940E+02  0.87635720775E+03 -0.84691009647E+03  0.12188965498E+04  0.46999998093E+01 0.  1.
</event>
<event>
 5   0  0.3270375E-05  0.1798614E+04  0.7818609E-02  0.8707037E-01
        3   -1    0    0  501    0  0.00000000000E+00  0.00000000000E+00  0.67782089282E+03  0.67782090035E+03  0.10100000352E+00 0.  1.
       -3   -1    0    0    0  501  0.00000000000E+00  0.00000000000E+00 -0.11931656976E+04  0.11931657018E+04  0.10100000352E+00 0. -1.
    10030    2    1    2    0    0  0.00000000000E+00  0.00000000000E+00 -0.51534480475E+03  0.18709866022E+04  0.17986135210E+04 0.  0.
        4    1    3    3  502    0  0.70332170252E+03 -0.31641835811E+03  0.22350840310E+03  0.80295679444E+03  0.12699999809E+01 0.  1.
       -4    1    3    3    0  502 -0.70332170252E+03  0.31641835811E+03 -0.73885320784E+03  0.10680298077E+04  0.12699999809E+01 0. -1.
</event>
<event>
 5   0  0.8893075E-05  0.1802602E+04  0.7818609E-02  0.8704917E-01
       -2   -1    0    0    0  501  0.00000000000E+00  0.00000000000E+00  0.60279284290E+03  0.60279284290E+03  0.25500000920E-02 0. -1.
        2   -1    0    0  501    0  0.00000000000E+00  0.00000000000E+00 -0.13476336284E+04  0.13476336284E+04  0.25500000920E-02 0.  1.
    10030    2    1    2    0    0  0.00000000000E+00  0.00000000000E+00 -0.74484078554E+03  0.19504264713E+04  0.18026024588E+04 0.  0.
        1    1    3    3  502    0  0.33195625066E+03 -0.61505131436E+03 -0.98817665700E+03  0.12103620025E+04  0.50400001928E-02 0.  1.
       -1    1    3    3    0  502 -0.33195625066E+03  0.61505131436E+03  0.24333587147E+03  0.74006446883E+03  0.50400001928E-02 0. -1.
</event>
<event>
 5   0  0.8892280E-05  0.1707438E+04  0.7818609E-02  0.8757134E-01
        2   -1    0    0  501    0  0.00000000000E+00  0.00000000000E+00  0.85795351775E+03  0.85795351775E+03  0.25500000920E-02 0.  1.
       -2   -1    0    0    0  501  0.00000000000E+00  0.00000000000E+00 -0.84950504388E+03  0.84950504389E+03  0.25500000920E-02 0. -1.
    10030    2    1    2    0    0  0.00000000000E+00  0.00000000000E+00  0.84484738676E+01  0.17074585616E+04  0.17074376601E+04 0.  0.
        4    1    3    3  502    0 -0.51136793898E+03  0.69863833240E+01  0.68781745659E+03  0.85711168762E+03  0.12699999809E+01 0.  1.
       -4    1    3    3    0  502  0.51136793898E+03 -0.69863833240E+01 -0.67936898272E+03  0.85034687402E+03  0.12699999809E+01 0. -1.
</event>
<event>
 5   0  0.8892280E-05  0.1795720E+04  0.7818609E-02  0.8708579E-01
        2   -1    0    0  501    0  0.00000000000E+00  0.00000000000E+00  0.85422415232E+03  0.85422415232E+03  0.25500000920E-02 0. -1.
       -2   -1    0    0    0  501  0.00000000000E+00  0.00000000000E+00 -0.94372521222E+03  0.94372521222E+03  0.25500000920E-02 0.  1.
    10030    2    1    2    0    0  0.00000000000E+00  0.00000000000E+00 -0.89501059900E+02  0.17979493645E+04  0.17957203228E+04 0.  0.
        4    1    3    3  502    0 -0.55312965086E+03  0.20441140247E+02 -0.75257998675E+03  0.93421009427E+03  0.12699999809E+01 0.  1.
       -4    1    3    3    0  502  0.55312965086E+03 -0.20441140247E+02  0.66307892685E+03  0.86373927027E+03  0.12699999809E+01 0. -1.
</event>
<event>
 5   0  0.4494757E-05  0.1800189E+04  0.7818609E-02  0.8706199E-01
       -1   -1    0    0    0  501  0.00000000000E+00  0.00000000000E+00  0.32913550848E+03  0.32913550852E+03  0.50400001928E-02 0.  1.
        1   -1    0    0  501    0  0.00000000000E+00  0.00000000000E+00 -0.24615102180E+04  0.24615102180E+04  0.50400001928E-02 0. -1.
    10030    2    1    2    0    0  0.00000000000E+00  0.00000000000E+00 -0.21323747095E+04  0.27906457265E+04  0.18001893426E+04 0.  0.
        4    1    3    3  502    0  0.13817007716E+03  0.42713672667E+03 -0.22755705489E+04  0.23194308978E+04  0.12699999809E+01 0. -1.
       -4    1    3    3    0  502 -0.13817007716E+03 -0.42713672667E+03  0.14319583942E+03  0.47121482873E+03  0.12699999809E+01 0.  1.
</event>
<event>
 5   0  0.4335117E-05  0.1793646E+04  0.7818609E-02  0.8709686E-01
       -1   -1    0    0    0  501  0.00000000000E+00  0.00000000000E+00  0.48901486962E+03  0.48901486965E+03  0.50400001928E-02 0. -1.
        1   -1    0    0  501    0  0.00000000000E+00  0.00000000000E+00 -0.16447178773E+04  0.16447178774E+04  0.50400001928E-02 0.  1.
    10030    2    1    2    0    0  0.00000000000E+00  0.00000000000E+00 -0.11557030077E+04  0.21337327470E+04  0.17936460056E+04 0.  0.
        3    1    3    3  502    0  0.32367045560E+03  0.83630159150E+03 -0.59134042377E+03  0.10741724362E+04  0.10100000352E+00 0.  1.
       -3    1    3    3    0  502 -0.32367045560E+03 -0.83630159150E+03 -0.56436258396E+03  0.10595603108E+04  0.10100000352E+00 0. -1.
</event>
<event>
 5   0  0.4335117E-05  0.1796275E+04  0.7818609E-02  0.8708283E-01
        1   -1    0    0  501    0  0.00000000000E+00  0.00000000000E+00  0.83966050003E+03  0.83966050005E+03  0.50400001928E-02 0. -1.
       -1   -1    0    0    0  501  0.00000000000E+00  0.00000000000E+00 -0.96068750063E+03  0.96068750065E+03  0.50400001928E-02 0.  1.
    10030    2    1    2    0    0  0.00000000000E+00  0.00000000000E+00 -0.12102700060E+03  0.18003480007E+04  0.17962754212E+04 0.  0.
        3    1    3    3  502    0  0.39969293423E+03 -0.80427305042E+03 -0.66990014393E+02  0.90060937899E+03  0.10100000352E+00 0. -1.
       -3    1    3    3    0  502 -0.39969293423E+03  0.80427305042E+03 -0.54036986207E+02  0.89973862170E+03  0.10100000352E+00 0.  1.
</event>
<event>
 5   0  0.8892280E-05  0.1796553E+04  0.7818609E-02  0.8708135E-01
       -2   -1    0    0    0  501  0.00000000000E+00  0.00000000000E+00  0.12537995985E+04  0.12537995985E+04  0.25500000920E-02 0. -1.
        2   -1    0    0  501    0  0.00000000000E+00  0.00000000000E+00 -0.64356410256E+03  0.64356410257E+03  0.25500000920E-02 0.  1.
    10030    2    1    2    0    0  0.00000000000E+00  0.00000000000E+00  0.61023549589E+03  0.18973637010E+04  0.17965527138E+04 0.  0.
        4    1    3    3  502    0  0.13787563753E+02  0.15920017539E+03 -0.62843169516E+03  0.64843103036E+03  0.12699999809E+01 0.  1.
       -4    1    3    3    0  502 -0.13787563753E+02 -0.15920017539E+03  0.12386671911E+04  0.12489326707E+04  0.12699999809E+01 0. -1.
</event>
<event>
 5   0  0.4494757E-05  0.1801562E+04  0.7818609E-02  0.8705469E-01
        1   -1    0    0  501    0  0.00000000000E+00  0.00000000000E+00  0.11278130248E+04  0.11278130248E+04  0.50400001928E-02 0.  1.
       -1   -1    0    0    0  501  0.00000000000E+00  0.00000000000E+00 -0.71945111078E+03  0.71945111080E+03  0.50400001928E-02 0. -1.
    10030    2    1    2    0    0  0.00000000000E+00  0.00000000000E+00  0.40836191402E+03  0.18472641356E+04  0.18015619151E+04 0.  0.
        4    1    3    3  502    0  0.27797343090E+03 -0.40936529329E+03 -0.56761243337E+03  0.75301703769E+03  0.12699999809E+01 0. -1.
       -4    1    3    3    0  502 -0.27797343090E+03  0.40936529329E+03  0.97597434740E+03  0.10942470979E+04  0.12699999809E+01 0.  1.
</event>
<event>
 5   0  0.8893075E-05  0.1787647E+04  0.7818609E-02  0.8712897E-01
       -2   -1    0    0    0  501  0.00000000000E+00  0.00000000000E+00  0.29327270758E+03  0.29327270759E+03  0.25500000920E-02 0.  1.
        2   -1    0    0  501    0  0.00000000000E+00  0.00000000000E+00 -0.27241540219E+04  0.27241540219E+04  0.25500000920E-02 0. -1.
    10030    2    1    2    0    0  0.00000000000E+00  0.00000000000E+00 -0.24308813143E+04  0.30174267295E+04  0.17876465265E+04 0.  0.
        1    1    3    3  502    0  0.28180007582E+03 -0.32633668681E+03  0.10612871464E+03  0.44403853434E+03  0.50400001928E-02 0.  1.
       -1    1    3    3    0  502 -0.28180007582E+03  0.32633668681E+03 -0.25370100290E+04  0.25733881952E+04  0.50400001928E-02 0. -1.
</event>
<event>
 5   0  0.4623665E-05  0.1794580E+04  0.7818609E-02  0.8709187E-01
        1   -1    0    0  501    0  0.00000000000E+00  0.00000000000E+00  0.24819253522E+04  0.24819253522E+04  0.50400001928E-02 0.  1.
       -1   -1    0    0    0  501  0.00000000000E+00  0.00000000000E+00 -0.32439692173E+03  0.32439692176E+03  0.50400001928E-02 0. -1.
    10030    2    1    2    0    0  0.00000000000E+00  0.00000000000E+00  0.21575284305E+04  0.28063222740E+04  0.17945795544E+04 0.  0.
        5    1    3    3  502    0  0.15044776912E+03  0.27237153142E+03 -0.23730635805E+03  0.39135301191E+03  0.46999998093E+01 0. -1.
       -5    1    3    3    0  502 -0.15044776912E+03 -0.27237153142E+03  0.23948347885E+04  0.24149692621E+04  0.46999998093E+01 0.  1.
</event>
<event>
 5   0  0.9147432E-05  0.1790154E+04  0.7818609E-02  0.8711553E-01
       -2   -1    0    0    0  501  0.00000000000E+00  0.00000000000E+00  0.76887570744E+03  0.76887570744E+03  0.25500000920E-02 0.  1.
        2   -1    0    0  501    0  0.00000000000E+00  0.00000000000E+00 -0.10419922392E+04  0.10419922392E+04  0.25500000920E-02 0. -1.
    10030    2    1    2    0    0  0.00000000000E+00  0.00000000000E+00 -0.27311653179E+03  0.18108679467E+04  0.17901536471E+04 0.  0.
        3    1    3    3  502    0  0.25552394429E+03 -0.55630741950E+03 -0.79710117980E+03  0.10050575765E+04  0.10100000352E+00 0. -1.
       -3    1    3    3    0  502 -0.25552394429E+03  0.55630741950E+03  0.52398464801E+03  0.80581037015E+03  0.10100000352E+00 0.  1.
</event>
<event>
 5   0  0.8893075E-05  0.1797966E+04  0.7818609E-02  0.8707382E-01
        2   -1    0    0  501    0  0.00000000000E+00  0.00000000000E+00  0.12916084097E+04  0.12916084097E+04  0.25500000920E-02 0. -1.
       -2   -1    0    0    0  501  0.00000000000E+00  0.00000000000E+00 -0.62570885674E+03  0.62570885675E+03  0.25500000920E-02 0.  1.
    10030    2    1    2    0    0  0.00000000000E+00  0.00000000000E+00  0.66589955294E+03  0.19173172664E+04  0.17979664306E+04 0.  0.
        1    1    3    3  502    0  0.10819904810E+03 -0.10516961439E+03 -0.61210878530E+03  0.63043226985E+03  0.50400001928E-02 0.  1.
       -1    1    3    3    0  502 -0.10819904810E+03  0.10516961439E+03  0.12780083382E+04  0.12868849966E+04  0.50400001928E-02 0. -1.
</event>
<event>
 5   0  0.4623665E-05  0.1802945E+04  0.7818609E-02  0.8704735E-01
       -1   -1    0    0    0  501  0.00000000000E+00  0.00000000000E+00  0.52678696551E+03  0.52678696553E+03  0.50400001928E-02 0. -1.
        1   -1    0    0  501    0  0.00000000000E+00  0.00000000000E+00 -0.15426588365E+04  0.15426588365E+04  0.50400001928E-02 0.  1.
    10030    2    1    2    0    0  0.00000000000E+00  0.00000000000E+00 -0.10158718710E+04  0.20694458021E+04  0.18029448881E+04 0.  0.
        5    1    3    3  502    0 -0.89603954761E+02 -0.69115940738E+03  0.14832907974E+03  0.71256845357E+03  0.46999998093E+01 0. -1.
       -5    1    3    3    0  502  0.89603954761E+02  0.69115940738E+03 -0.11642009507E+04  0.13568773485E+04  0.46999998093E+01 0.  1.
</event>
<event>
 5   0  0.4578107E-05  0.1810129E+04  0.7818609E-02  0.8700932E-01
        1   -1    0    0  501    0  0.00000000000E+00  0.00000000000E+00  0.11602539284E+04  0.11602539284E+04  0.50400001928E-02 0. -1.
       -1   -1    0    0    0  501  0.00000000000E+00  0.00000000000E+00 -0.70600186648E+03  0.70600186649E+03  0.50400001928E-02 0.  1.
    10030    2    1    2    0    0  0.00000000000E+00  0.00000000000E+00  0.45425206192E+03  0.18662557949E+04  0.18101286574E+04 0.  0.
        2    1    3    3  502    0 -0.38961193290E+03 -0.41021837520E+03  0.95547619665E+03  0.11104104358E+04  0.25500000920E-02 0. -1.
       -2    1    3    3    0  502  0.38961193290E+03  0.41021837520E+03 -0.50122413472E+03  0.75584535908E+03  0.25500000920E-02 0.  1.
</event>
<event>
 5   0  0.8802655E-05  0.1793284E+04  0.7818609E-02  0.8709879E-01
        2   -1    0    0  501    0  0.00000000000E+00  0.00000000000E+00  0.16109919370E+04  0.16109919370E+04  0.25500000920E-02 0.  1.
       -2   -1    0    0    0  501  0.00000000000E+00  0.00000000000E+00 -0.49905075534E+03  0.49905075535E+03  0.25500000920E-02 0. -1.
    10030    2    1    2    0    0  0.00000000000E+00  0.00000000000E+00  0.11119411817E+04  0.21100426924E+04  0.17932838515E+04 0.  0.
        2    1    3    3  502    0 -0.72590245753E+02  0.66746520688E+03  0.12552406392E+04  0.14235196551E+04  0.25500000920E-02 0.  1.
       -2    1    3    3    0  502  0.72590245753E+02 -0.66746520688E+03 -0.14329945751E+03  0.68652303727E+03  0.25500000920E-02 0. -1.
</event>
<event>
 5   0  0.8802655E-05  0.1798133E+04  0.7818609E-02  0.8707293E-01
        2   -1    0    0  501    0  0.00000000000E+00  0.00000000000E+00  0.11696218056E+04  0.11696218056E+04  0.25500000920E-02 0. -1.
       -2   -1    0    0    0  501  0.00000000000E+00  0.00000000000E+00 -0.69109600020E+03  0.69109600021E+03  0.25500000920E-02 0.  1.
    10030    2    1    2    0    0  0.00000000000E+00  0.00000000000E+00  0.47852580544E+03  0.18607178059E+04  0.17981334229E+04 0.  0.
        2    1    3    3  502    0 -0.37846226459E+03 -0.11132923155E+03 -0.59675023083E+03  0.71535915561E+03  0.25500000920E-02 0.  1.
       -2    1    3    3    0  502  0.37846226459E+03  0.11132923155E+03  0.10752760363E+04  0.11453586502E+04  0.25500000920E-02 0. -1.
</event>
<event>
 5   0  0.4335117E-05  0.1806484E+04  0.7818609E-02  0.8702859E-01
       -1   -1    0    0    0  501  0.00000000000E+00  0.00000000000E+00  0.11615299473E+04  0.11615299474E+04  0.50400001928E-02 0.  1.
        1   -1    0    0  501    0  0.00000000000E+00  0.00000000000E+00 -0.70238915298E+03  0.70238915300E+03  0.50400001928E-02 0. -1.
    10030    2    1    2    0    0  0.00000000000E+00  0.00000000000E+00  0.45914079437E+03  0.18639191004E+04  0.18064839173E+04 0.  0.
        3    1    3    3  502    0  0.50437355114E+03 -0.19015952174E+03 -0.51824369192E+03  0.74774986273E+03  0.10100000352E+00 0. -1.
       -3    1    3    3    0  502 -0.50437355114E+03  0.19015952174E+03  0.97738448629E+03  0.11161692376E+04  0.10100000352E+00 0.  1.
</event>
<event>
 5   0  0.4578107E-05  0.1802659E+04  0.7818609E-02  0.8704887E-01
       -1   -1    0    0    0  501  0.00000000000E+00  0.00000000000E+00  0.49592272971E+03  0.49592272974E+03  0.50400001928E-02 0. -1.
        1   -1    0    0  501    0  0.00000000000E+00  0.00000000000E+00 -0.16381482350E+04  0.16381482350E+04  0.50400001928E-02 0.  1.
    10030    2    1    2    0    0  0.00000000000E+00  0.00000000000E+00 -0.11422255053E+04  0.21340709648E+04  0.18026590853E+04 0.  0.
        2    1    3    3  502    0  0.47168697026E+03  0.19805440619E+03 -0.14496197442E+04  0.15372415387E+04  0.25500000920E-02 0.  1.
       -2    1    3    3    0  502 -0.47168697026E+03 -0.19805440619E+03  0.30739423884E+03  0.59682942605E+03  0.25500000920E-02 0. -1.
</event>
<event>
 5   0  0.8893075E-05  0.1800871E+04  0.7818609E-02  0.8705836E-01
       -2   -1    0    0    0  501  0.00000000000E+00  0.00000000000E+00  0.82059961522E+03  0.82059961523E+03  0.25500000920E-02 0. -1.
        2   -1    0    0  501    0  0.00000000000E+00  0.00000000000E+00 -0.98803898569E+03  0.98803898570E+03  0.25500000920E-02 0.  1.
    10030    2    1    2    0    0  0.00000000000E+00  0.00000000000E+00 -0.16743937047E+03  0.18086386009E+04  0.18008713574E+04 0.  0.
        1    1    3    3  502    0 -0.52096554770E+03 -0.38412637309E+03 -0.71237973506E+03  0.96251912155E+03  0.50400001928E-02 0. -1.
       -1    1    3    3    0  502  0.52096554770E+03  0.38412637309E+03  0.54494036459E+03  0.84611947938E+03  0.50400001928E-02 0.  1.
</event>
<event>
 5   0  0.4494757E-05  0.1801701E+04  0.7818609E-02  0.8705395E-01
        1   -1    0    0  501    0  0.00000000000E+00  0.00000000000E+00  0.18492494237E+04  0.18492494237E+04  0.50400001928E-02 0.  1.
       -1   -1    0    0    0  501  0.00000000000E+00  0.00000000000E+00 -0.43884391236E+03  0.43884391238E+03  0.50400001928E-02 0. -1.
    10030    2    1    2    0    0  0.00000000000E+00  0.00000000000E+00  0.14104055113E+04  0.22880933361E+04  0.18017012539E+04 0.  0.
        4    1    3    3  502    0 -0.15348223889E+03  0.46366568803E+03  0.16665129687E+04  0.17366086939E+04  0.12699999809E+01 0.  1.
       -4    1    3    3    0  502  0.15348223889E+03 -0.46366568803E+03 -0.25610745740E+03  0.55148464217E+03  0.12699999809E+01 0. -1.
</event>
<event>
 5   0  0.8893075E-05  0.1813300E+04  0.7818609E-02  0.8699258E-01
       -2   -1    0    0    0  501  0.00000000000E+00  0.00000000000E+00  0.43118421214E+03  0.43118421215E+03  0.25500000920E-02 0.  1.
        2   -1    0    0  501    0  0.00000000000E+00  0.00000000000E+00 -0.19064109207E+04  0.19064109207E+04  0.25500000920E-02 0. -1.
    10030    2    1    2    0    0  0.00000000000E+00  0.00000000000E+00 -0.14752267085E+04  0.23375951328E+04  0.18133000754E+04 0.  0.
        1    1    3    3  502    0 -0.44742533839E+03 -0.78624322597E+03 -0.65976766505E+03  0.11196701370E+04  0.50400001928E-02 0.  1.
       -1    1    3    3    0  502  0.44742533839E+03  0.78624322597E+03 -0.81545904347E+03  0.12179249958E+04  0.50400001928E-02 0. -1.
</event>
<event>
 5   0  0.4535100E-05  0.1806597E+04  0.7818609E-02  0.8702799E-01
        1   -1    0    0  501    0  0.00000000000E+00  0.00000000000E+00  0.13057461165E+04  0.13057461166E+04  0.50400001928E-02 0. -1.
       -1   -1    0    0    0  501  0.00000000000E+00  0.00000000000E+00 -0.62489067642E+03  0.62489067644E+03  0.50400001928E-02 0.  1.
    10030    2    1    2    0    0  0.00000000000E+00  0.00000000000E+00  0.68085544012E+03  0.19306367930E+04  0.18065974361E+04 0.  0.
        1    1    3    3  502    0  0.21591681285E+03  0.31178735600E+03  0.12165438519E+04  0.12742881814E+04  0.50400001928E-02 0. -1.
       -1    1    3    3    0  502 -0.21591681285E+03 -0.31178735600E+03 -0.53568841181E+03  0.65634861164E+03  0.50400001928E-02 0.  1.
</event>
<event>
 5   0  0.8892280E-05  0.1800398E+04  0.7818609E-02  0.8706088E-01
       -2   -1    0    0    0  501  0.00000000000E+00  0.00000000000E+00  0.59090832639E+03  0.59090832640E+03  0.25500000920E-02 0.  1.
        2   -1    0    0  501    0  0.00000000000E+00  0.00000000000E+00 -0.13713779040E+04  0.13713779040E+04  0.25500000920E-02 0. -1.
    10030    2    1    2    0    0  0.00000000000E+00  0.00000000000E+00 -0.78046957759E+03  0.19622862304E+04  0.18003984249E+04 0.  0.
        4    1    3    3  502    0 -0.19654417771E+03  0.10308392059E+03  0.56062155227E+03  0.60295443132E+03  0.12699999809E+01 0.  1.
       -4    1    3    3    0  502  0.19654417771E+03 -0.10308392059E+03 -0.13410911299E+04  0.13593317991E+04  0.12699999809E+01 0. -1.
</event>
<event>
 5   0  0.3270375E-05  0.1799292E+04  0.7818609E-02  0.8706676E-01
       -3   -1    0    0    0  501  0.00000000000E+00  0.00000000000E+00  0.39806762773E+03  0.39806764055E+03  0.10100000352E+00 0. -1.
        3   -1    0    0  501    0  0.00000000000E+00  0.00000000000E+00 -0.20332303735E+04  0.20332303760E+04  0.10100000352E+00 0.  1.
    10030    2    1    2    0    0  0.00000000000E+00  0.00000000000E+00 -0.16351627457E+04  0.24312980165E+04  0.17992923165E+04 0.  0.
        4    1    3    3  502    0  0.42109931523E+03 -0.31010406799E+03 -0.18067428116E+04  0.18809067937E+04  0.12699999809E+01 0.  1.
       -4    1    3    3    0  502 -0.42109931523E+03  0.31010406799E+03  0.17158006588E+03  0.55039122285E+03  0.12699999809E+01 0. -1.
</event>
<event>
 5   0  0.9147432E-05  0.1799368E+04  0.7818609E-02  0.8706635E-01
       -2   -1    0    0    0  501  0.00000000000E+00  0.00000000000E+00  0.10988063716E+04  0.10988063716E+04  0.25500000920E-02 0. -1.
        2   -1    0    0  501    0  0.00000000000E+00  0.00000000000E+00 -0.73664619284E+03  0.73664619285E+03  0.25500000920E-02 0.  1.
    10030    2    1    2    0    0  0.00000000000E+00  0.00000000000E+00  0.36216017878E+03  0.18354525645E+04  0.17993682562E+04 0.  0.
        3    1    3    3  502    0 -0.40528315837E+03  0.14729158352E+02 -0.63811916036E+03  0.75608693917E+03  0.10100000352E+00 0.  1.
       -3    1    3    3    0  502  0.40528315837E+03 -0.14729158352E+02  0.10002793391E+04  0.10793656253E+04  0.10100000352E+00 0. -1.
</event>
<event>
 5   0  0.8802655E-05  0.1819902E+04  0.7818609E-02  0.8695787E-01
        2   -1    0    0  501    0  0.00000000000E+00  0.00000000000E+00  0.84263956696E+03  0.84263956696E+03  0.25500000920E-02 0.  1.
       -2   -1    0    0    0  501  0.00000000000E+00  0.00000000000E+00 -0.98263947323E+03  0.98263947324E+03  0.25500000920E-02 0. -1.
    10030    2    1    2    0    0  0.00000000000E+00  0.00000000000E+00 -0.13999990628E+03  0.18252790402E+04  0.18199020855E+04 0.  0.
        2    1    3    3  502    0 -0.58993070966E+02 -0.59386298096E+02 -0.97876973332E+03  0.98234266206E+03  0.25500000920E-02 0. -1.
       -2    1    3    3    0  502  0.58993070966E+02  0.59386298096E+02  0.83876982704E+03  0.84293637814E+03  0.25500000920E-02 0.  1.
</event>
<event>
 5   0  0.8893075E-05  0.1796705E+04  0.7818609E-02  0.8708054E-01
        2   -1    0    0  501    0  0.00000000000E+00  0.00000000000E+00  0.11019059020E+04  0.11019059020E+04  0.25500000920E-02 0.  1.
       -2   -1    0    0    0  501  0.00000000000E+00  0.00000000000E+00 -0.73240135940E+03  0.73240135941E+03  0.25500000920E-02 0. -1.
    10030    2    1    2    0    0  0.00000000000E+00  0.00000000000E+00  0.36950454259E+03  0.18343072614E+04  0.17967051851E+04 0.  0.
        1    1    3    3  502    0 -0.66688933584E+01 -0.78216414013E+03  0.63582721374E+03  0.10080185822E+04  0.50400001928E-02 0.  1.
       -1    1    3    3    0  502  0.66688933584E+01  0.78216414013E+03 -0.26632267115E+03  0.82628867924E+03  0.50400001928E-02 0. -1.
</event>
<event>
 5   0  0.4578107E-05  0.1800735E+04  0.7818609E-02  0.8705909E-01
       -1   -1    0    0    0  501  0.00000000000E+00  0.00000000000E+00  0.63774067794E+03  0.63774067796E+03  0.50400001928E-02 0. -1.
        1   -1    0    0  501    0  0.00000000000E+00  0.00000000000E+00 -0.12711466146E+04  0.12711466146E+04  0.50400001928E-02 0.  1.
    10030    2    1    2    0    0  0.00000000000E+00  0.00000000000E+00 -0.63340593667E+03  0.19088872926E+04  0.18007352985E+04 0.  0.
        2    1    3    3  502    0  0.27673457432E+03  0.23287517145E+03 -0.11907537215E+04  0.12444706888E+04  0.25500000920E-02 0.  1.
       -2    1    3    3    0  502 -0.27673457432E+03 -0.23287517145E+03  0.55734778481E+03  0.66441660375E+03  0.25500000920E-02 0. -1.
</event>
<event>
 5   0  0.8802655E-05  0.1749385E+04  0.7818609E-02  0.8733689E-01
        2   -1    0    0  501    0  0.00000000000E+00  0.00000000000E+00  0.15840270651E+04  0.15840270651E+04  0.25500000920E-02 0. -1.
       -2   -1    0    0    0  501  0.00000000000E+00  0.00000000000E+00 -0.48300108303E+03  0.48300108304E+03  0.25500000920E-02 0.  1.
    10030    2    1    2    0    0  0.00000000000E+00  0.00000000000E+00  0.11010259820E+04  0.20670281481E+04  0.17493847924E+04 0.  0.
        2    1    3    3  502    0  0.29708342195E+03  0.66557008466E+03  0.11218926835E+04  0.13378659464E+04  0.25500000920E-02 0. -1.
       -2    1    3    3    0  502 -0.29708342195E+03 -0.66557008466E+03 -0.20866701467E+02  0.72916220173E+03  0.25500000920E-02 0.  1.
</event>
<event>
 5   0  0.4335117E-05  0.1790240E+04  0.7818609E-02  0.8711507E-01
        1   -1    0    0  501    0  0.00000000000E+00  0.00000000000E+00  0.89802994376E+03  0.89802994378E+03  0.50400001928E-02 0. -1.
       -1   -1    0    0    0  501  0.00000000000E+00  0.00000000000E+00 -0.89221976264E+03  0.89221976265E+03  0.50400001928E-02 0.  1.
    10030    2    1    2    0    0  0.00000000000E+00  0.00000000000E+00  0.58101811241E+01  0.17902497064E+04  0.17902402781E+04 0.  0.
        3    1    3    3  502    0 -0.79282600283E+03 -0.41551786782E+03  0.63524048121E+01  0.89513604133E+03  0.10100000352E+00 0. -1.
       -3    1    3    3    0  502  0.79282600283E+03  0.41551786782E+03 -0.54222368804E+00  0.89511366510E+03  0.10100000352E+00 0.  1.
</event>
<event>
 5   0  0.4494757E-05  0.1794640E+04  0.7818609E-02  0.8709155E-01
       -1   -1    0    0    0  501  0.00000000000E+00  0.00000000000E+00  0.69312385715E+03  0.69312385716E+03  0.50400001928E-02 0.  1.
        1   -1    0    0  501    0  0.00000000000E+00  0.00000000000E+00 -0.11616734459E+04  0.11616734459E+04  0.50400001928E-02 0. -1.
    10030    2    1    2    0    0  0.00000000000E+00  0.00000000000E+00 -0.46854958879E+03  0.18547973031E+04  0.17946404427E+04 0.  0.
        4    1    3    3  502    0  0.53833445684E+02 -0.84877315091E+03  0.61442189799E+02  0.85269611068E+03  0.12699999809E+01 0.  1.
       -4    1    3    3    0  502 -0.53833445684E+02  0.84877315091E+03 -0.52999177859E+03  0.10021011924E+04  0.12699999809E+01 0. -1.
</event>
<event>
 5   0  0.4578107E-05  0.1802566E+04  0.7818609E-02  0.8704936E-01
        1   -1    0    0  501    0  0.00000000000E+00  0.00000000000E+00  0.75714815188E+03  0.75714815190E+03  0.50400001928E-02 0.  1.
       -1   -1    0    0    0  501  0.00000000000E+00  0.00000000000E+00 -0.10728567132E+04  0.10728567133E+04  0.50400001928E-02 0. -1.
    10030    2    1    2    0    0  0.00000000000E+00  0.00000000000E+00 -0.31570856136E+03  0.18300048652E+04  0.18025664789E+04 0.  0.
        2    1    3    3  502    0 -0.58261653232E+03  0.23564637112E+03  0.49799807902E+03  0.80185617330E+03  0.25500000920E-02 0.  1.
       -2    1    3    3    0  502  0.58261653232E+03 -0.23564637112E+03 -0.81370664037E+03  0.10281486918E+04  0.25500000920E-02 0. -1.
</event>
<event>
 5   0  0.4623665E-05  0.1829125E+04  0.7818609E-02  0.8690963E-01
        1   -1    0    0  501    0  0.00000000000E+00  0.00000000000E+00  0.14260547521E+04  0.14260547521E+04  0.50400001928E-02 0.  1.
       -1   -1    0    0    0  501  0.00000000000E+00  0.00000000000E+00 -0.58653045239E+03  0.58653045242E+03  0.50400001928E-02 0. -1.
    10030    2    1    2    0    0  0.00000000000E+00  0.00000000000E+00  0.83952429973E+03  0.20125852045E+04  0.18291249700E+04 0.  0.
        5    1    3    3  502    0  0.27873252413E+03 -0.41713884214E+03 -0.42159347744E+03  0.65533181202E+03  0.46999998093E+01 0. -1.
       -5    1    3    3    0  502 -0.27873252413E+03  0.41713884214E+03  0.12611177772E+04  0.13572533925E+04  0.46999998093E+01 0.  1.
</event>
<event>
 5   0  0.8893075E-05  0.1797437E+04  0.7818609E-02  0.8707664E-01
       -2   -1    0    0    0  501  0.00000000000E+00  0.00000000000E+00  0.70894267813E+03  0.70894267813E+03  0.25500000920E-02 0. -1.
        2   -1    0    0  501    0  0.00000000000E+00  0.00000000000E+00 -0.11392950846E+04  0.11392950846E+04  0.25500000920E-02 0.  1.
    10030    2    1    2    0    0  0.00000000000E+00  0.00000000000E+00 -0.43035240647E+03  0.18482377627E+04  0.17974369624E+04 0.  0.
        1    1    3    3  502    0  0.26225635758E+03  0.95564320262E+02  0.66324200932E+03  0.71958383762E+03  0.50400001928E-02 0. -1.
       -1    1    3    3    0  502 -0.26225635758E+03 -0.95564320262E+02 -0.10935944158E+04  0.11286539251E+04  0.50400001928E-02 0.  1.
</event>
<event>
 5   0  0.8892280E-05  0.1907225E+04  0.7818609E-02  0.8651269E-01
       -2   -1    0    0    0  501  0.00000000000E+00  0.00000000000E+00  0.92614724673E+03  0.92614724673E+03  0.25500000920E-02 0. -1.
        2   -1    0    0  501    0  0.00000000000E+00  0.00000000000E+00 -0.98189188644E+03  0.98189188644E+03  0.25500000920E-02 0.  1.
    10030    2    1    2    0    0  0.00000000000E+00  0.00000000000E+00 -0.55744639714E+02  0.19080391332E+04  0.19072246509E+04 0.  0.
        4    1    3    3  502    0 -0.92376844204E+03  0.17441044957E+02 -0.26402932834E+03  0.96091905157E+03  0.12699999809E+01 0.  1.
       -4    1    3    3    0  502  0.92376844204E+03 -0.17441044957E+02  0.20828468863E+03  0.94712008160E+03  0.12699999809E+01 0. -1.
</event>
<event>
 5   0  0.9147432E-05  0.1821580E+04  0.7818609E-02  0.8694907E-01
        2   -1    0    0  501    0  0.00000000000E+00  0.00000000000E+00  0.88739537682E+03  0.88739537682E+03  0.25500000920E-02 0.  1.
       -2   -1    0    0    0  501  0.00000000000E+00  0.00000000000E+00 -0.93480135679E+03  0.93480135679E+03  0.25500000920E-02 0. -1.
    10030    2    1    2    0    0  0.00000000000E+00  0.00000000000E+00 -0.47405979969E+02  0.18221967336E+04  0.18215799760E+04 0.  0.
        3    1    3    3  502    0 -0.50504626590E+03 -0.65828008994E+03 -0.39950822160E+03  0.92087525585E+03  0.10100000352E+00 0. -1.
       -3    1    3    3    0  502  0.50504626590E+03  0.65828008994E+03  0.35210224163E+03  0.90132147776E+03  0.10100000352E+00 0.  1.
</event>
<event>
 5   0  0.4578107E-05  0.1802087E+04  0.7818609E-02  0.8705190E-01
       -1   -1    0    0    0  501  0.00000000000E+00  0.00000000000E+00  0.17098086915E+04  0.17098086915E+04  0.50400001928E-02 0.  1.
        1   -1    0    0  501    0  0.00000000000E+00  0.00000000000E+00 -0.47483636863E+03  0.47483636866E+03  0.50400001928E-02 0. -1.
    10030    2    1    2    0    0  0.00000000000E+00  0.00000000000E+00  0.12349723228E+04  0.21846450601E+04  0.18020869570E+04 0.  0.
        2    1    3    3  502    0  0.12045191405E+03  0.77643633756E+03  0.11521542453E+04  0.13945685551E+04  0.25500000920E-02 0.  1.
       -2    1    3    3    0  502 -0.12045191405E+03 -0.77643633756E+03  0.82818077570E+02  0.79007650507E+03  0.25500000920E-02 0. -1.
</event>
<event>
 5   0  0.3270375E-05  0.1816319E+04  0.7818609E-02  0.8697669E-01
       -4   -1    0    0    0  501  0.00000000000E+00  0.00000000000E+00  0.72396279650E+03  0.72396391044E+03  0.12699999809E+01 0. -1.
        4   -1    0    0  501    0  0.00000000000E+00  0.00000000000E+00 -0.11392188242E+04  0.11392195321E+04  0.12699999809E+01 0.  1.
    10030    2    1    2    0    0  0.00000000000E+00  0.00000000000E+00 -0.41525602774E+03  0.18631834426E+04  0.18163190722E+04 0.  0.
        5    1    3    3  502    0 -0.37709655480E+03  0.59301785098E+03  0.38241733166E+03  0.80008567590E+03  0.46999998093E+01 0. -1.
       -5    1    3    3    0  502  0.37709655480E+03 -0.59301785098E+03 -0.79767335940E+03  0.10630977667E+04  0.46999998093E+01 0.  1.
</event>
<event>
 5   0  0.3270375E-05  0.1802384E+04  0.7818609E-02  0.8705033E-01
       -3   -1    0    0    0  501  0.00000000000E+00  0.00000000000E+00  0.20121352222E+04  0.20121352247E+04  0.10100000352E+00 0. -1.
        3   -1    0    0  501    0  0.00000000000E+00  0.00000000000E+00 -0.40362449215E+03  0.40362450479E+03  0.10100000352E+00 0.  1.
    10030    2    1    2    0    0  0.00000000000E+00  0.00000000000E+00  0.16085107300E+04  0.24157597295E+04  0.18023840606E+04 0.  0.
        1    1    3    3  502    0 -0.12986600881E+03  0.88676406708E+03  0.67758769144E+03  0.11235393943E+04  0.50400001928E-02 0. -1.
       -1    1    3    3    0  502  0.12986600881E+03 -0.88676406708E+03  0.93092303857E+03  0.12922203352E+04  0.50400001928E-02 0.  1.
</event>
<event>
 5   0  0.3270375E-05  0.1794814E+04  0.7818609E-02  0.8709062E-01
        3   -1    0    0  501    0  0.00000000000E+00  0.00000000000E+00  0.19417401172E+04  0.19417401198E+04  0.10100000352E+00 0.  1.
       -3   -1    0    0    0  501  0.00000000000E+00  0.00000000000E+00 -0.41475142682E+03  0.41475143912E+03  0.10100000352E+00 0. -1.
    10030    2    1    2    0    0  0.00000000000E+00  0.00000000000E+00  0.15269886904E+04  0.23564915589E+04  0.17948141984E+04 0.  0.
        4    1    3    3  502    0  0.76220087341E+03  0.40536367577E+03  0.10852809830E+04  0.13867610847E+04  0.12699999809E+01 0.  1.
       -4    1    3    3    0  502 -0.76220087341E+03 -0.40536367577E+03  0.44170770741E+03  0.96973047428E+03  0.12699999809E+01 0. -1.
</event>
<event>
 5   0  0.4494757E-05  0.1803311E+04  0.7818609E-02  0.8704541E-01
       -1   -1    0    0    0  501  0.00000000000E+00  0.00000000000E+00  0.89247249270E+03  0.89247249271E+03  0.50400001928E-02 0. -1.
        1   -1    0    0  501    0  0.00000000000E+00  0.00000000000E+00 -0.91093250069E+03  0.91093250070E+03  0.50400001928E-02 0.  1.
    10030    2    1    2    0    0  0.00000000000E+00  0.00000000000E+00 -0.18460007988E+02  0.18034049934E+04  0.18033105108E+04 0.  0.
        4    1    3    3  502    0 -0.35174135186E+03  0.34049144153E+03 -0.76645141506E+03  0.90945356391E+03  0.12699999809E+01 0.  1.
       -4    1    3    3    0  502  0.35174135186E+03 -0.34049144153E+03  0.74799140707E+03  0.89395142950E+03  0.12699999809E+01 0. -1.
</event>
<event>
 5   0  0.4535100E-05  0.1837537E+04  0.7818609E-02  0.8686588E-01
       -1   -1    0    0    0  501  0.00000000000E+00  0.00000000000E+00  0.13053696302E+04  0.13053696302E+04  0.50400001928E-02 0. -1.
        1   -1    0    0  501    0  0.00000000000E+00  0.00000000000E+00 -0.64666413753E+03  0.64666413755E+03  0.50400001928E-02 0.  1.
    10030    2    1    2    0    0  0.00000000000E+00  0.00000000000E+00  0.65870549266E+03  0.19520337677E+04  0.18375371845E+04 0.  0.
        1    1    3    3  502    0 -0.44322516263E+03  0.22666933142E+03 -0.49097344706E+03  0.69920129887E+03  0.50400001928E-02 0.  1.
       -1    1    3    3    0  502  0.44322516263E+03 -0.22666933142E+03  0.11496789397E+04  0.12528324689E+04  0.50400001928E-02 0. -1.
</event>
<event>
 5   0  0.8892280E-05  0.1798303E+04  0.7818609E-02  0.8707202E-01
       -2   -1    0    0    0  501  0.00000000000E+00  0.00000000000E+00  0.57843355111E+03  0.57843355112E+03  0.25500000920E-02 0. -1.
        2   -1    0    0  501    0  0.00000000000E+00  0.00000000000E+00 -0.13976943933E+04  0.13976943933E+04  0.25500000920E-02 0.  1.
    10030    2    1    2    0    0  0.00000000000E+00  0.00000000000E+00 -0.81926084222E+03  0.19761279445E+04  0.17983029014E+04 0.  0.
        4    1    3    3  502    0 -0.85279560587E+03  0.26698736980E+03 -0.51912876157E+03  0.10334596678E+04  0.12699999809E+01 0.  1.
       -4    1    3    3    0  502  0.85279560587E+03 -0.26698736980E+03 -0.30013208065E+03  0.94266827663E+03  0.12699999809E+01 0. -1.
</event>
<event>
 5   0  0.9184414E-05  0.1821636E+04  0.7818609E-02  0.8694877E-01
       -2   -1    0    0    0  501  0.00000000000E+00  0.00000000000E+00  0.57338673983E+03  0.57338673983E+03  0.25500000920E-02 0.  1.
        2   -1    0    0  501    0  0.00000000000E+00  0.00000000000E+00 -0.14468239326E+04  0.14468239326E+04  0.25500000920E-02 0. -1.
    10030    2    1    2    0    0  0.00000000000E+00  0.00000000000E+00 -0.87343719280E+03  0.20202106725E+04  0.18216362511E+04 0.  0.
        5    1    3    3  502    0  0.67671721872E+03 -0.46181442628E+03 -0.87802720773E+03  0.12009049196E+04  0.46999998093E+01 0. -1.
       -5    1    3    3    0  502 -0.67671721872E+03  0.46181442628E+03  0.45900149308E+01  0.81930575286E+03  0.46999998093E+01 0.  1.
</event>
<event>
 5   0  0.4623665E-05  0.1797167E+04  0.7818609E-02  0.8707808E-01
       -1   -1    0    0    0  501  0.00000000000E+00  0.00000000000E+00  0.56187891860E+03  0.56187891862E+03  0.50400001928E-02 0.  1.
        1   -1    0    0  501    0  0.00000000000E+00  0.00000000000E+00 -0.14370569156E+04  0.14370569156E+04  0.50400001928E-02 0. -1.
    10030    2    1    2    0    0  0.00000000000E+00  0.00000000000E+00 -0.87517799696E+03  0.19989358342E+04  0.17971666430E+04 0.  0.
        5    1    3    3  502    0 -0.40136616102E+03 -0.65693292690E+03  0.77878859244E+02  0.77378477134E+03  0.46999998093E+01 0.  1.
       -5    1    3    3    0  502  0.40136616102E+03  0.65693292690E+03 -0.95305685620E+03  0.12251510628E+04  0.46999998093E+01 0. -1.
</event>
<event>
 5   0  0.8893075E-05  0.1807068E+04  0.7818609E-02  0.8702550E-01
        2   -1    0    0  501    0  0.00000000000E+00  0.00000000000E+00  0.15067008887E+04  0.15067008887E+04  0.25500000920E-02 0.  1.
       -2   -1    0    0    0  501  0.00000000000E+00  0.00000000000E+00 -0.54182854249E+03  0.54182854250E+03  0.25500000920E-02 0. -1.
    10030    2    1    2    0    0  0.00000000000E+00  0.00000000000E+00  0.96487234623E+03  0.20485294312E+04  0.18070678421E+04 0.  0.
        1    1    3    3  502    0 -0.27840255857E+03 -0.43730655235E+03 -0.35646497283E+03  0.62913613966E+03  0.50400001928E-02 0. -1.
       -1    1    3    3    0  502  0.27840255857E+03  0.43730655235E+03  0.13213373191E+04  0.14193932916E+04  0.50400001928E-02 0.  1.
</event>
<event>
 5   0  0.8802655E-05  0.1801027E+04  0.7818609E-02  0.8705754E-01
        2   -1    0    0  501    0  0.00000000000E+00  0.00000000000E+00  0.13435740867E+04  0.13435740867E+04  0.25500000920E-02 0. -1.
       -2   -1    0    0    0  501  0.00000000000E+00  0.00000000000E+00 -0.60355766443E+03  0.60355766444E+03  0.25500000920E-02 0.  1.
    10030    2    1    2    0    0  0.00000000000E+00  0.00000000000E+00  0.74001642230E+03  0.19471317512E+04  0.18010268602E+04 0.  0.
        2    1    3    3  502    0  0.56532078465E+03 -0.69515756311E+03  0.27275032210E+03  0.93660256530E+03  0.25500000920E-02 0. -1.
       -2    1    3    3    0  502 -0.56532078465E+03  0.69515756311E+03  0.46726610021E+03  0.10105291859E+04  0.25500000920E-02 0.  1.
</event>
<event>
 5   0  0.8802655E-05  0.1801651E+04  0.7818609E-02  0.8705422E-01
        2   -1    0    0  501    0  0.00000000000E+00  0.00000000000E+00  0.14804434457E+04  0.14804434457E+04  0.25500000920E-02 0.  1.
       -2   -1    0    0    0  501  0.00000000000E+00  0.00000000000E+00 -0.54813760662E+03  0.54813760663E+03  0.25500000920E-02 0. -1.
    10030    2    1    2    0    0  0.00000000000E+00  0.00000000000E+00  0.93230583912E+03  0.20285810524E+04  0.18016511617E+04 0.  0.
        2    1    3    3  502    0 -0.60198848470E+03 -0.64217934414E+03  0.68186188140E+03  0.11134271737E+04  0.25500000920E-02 0.  1.
       -2    1    3    3    0  502  0.60198848470E+03  0.64217934414E+03  0.25044395771E+03  0.91515387871E+03  0.25500000920E-02 0. -1.
</event>
<event>
 5   0  0.4494757E-05  0.1832374E+04  0.7818609E-02  0.8689270E-01
       -1   -1    0    0    0  501  0.00000000000E+00  0.00000000000E+00  0.72270043947E+03  0.72270043949E+03  0.50400001928E-02 0.  1.
        1   -1    0    0  501    0  0.00000000000E+00  0.00000000000E+00 -0.11614748972E+04  0.11614748972E+04  0.50400001928E-02 0. -1.
    10030    2    1    2    0    0  0.00000000000E+00  0.00000000000E+00 -0.43877445773E+03  0.18841753367E+04  0.18323737814E+04 0.  0.
        4    1    3    3  502    0 -0.24544534961E+03  0.68400649225E+03 -0.79309243023E+03  0.10756883921E+04  0.12699999809E+01 0. -1.
       -4    1    3    3    0  502  0.24544534961E+03 -0.68400649225E+03  0.35431797249E+03  0.80848694462E+03  0.12699999809E+01 0.  1.
</event>
<event>
 5   0  0.4535100E-05  0.1793944E+04  0.7818609E-02  0.8709527E-01
        1   -1    0    0  501    0  0.00000000000E+00  0.00000000000E+00  0.12812410672E+04  0.12812410673E+04  0.50400001928E-02 0. -1.
       -1   -1    0    0    0  501  0.00000000000E+00  0.00000000000E+00 -0.62795246142E+03  0.62795246144E+03  0.50400001928E-02 0.  1.
    10030    2    1    2    0    0  0.00000000000E+00  0.00000000000E+00  0.65328860583E+03  0.19091935287E+04  0.17939436801E+04 0.  0.
        1    1    3    3  502    0 -0.14035341581E+03 -0.67942902360E+03 -0.27841890272E+03  0.74755599446E+03  0.50400001928E-02 0.  1.
       -1    1    3    3    0  502  0.14035341581E+03  0.67942902360E+03  0.93170750854E+03  0.11616375342E+04  0.50400001928E-02 0. -1.
</event>
<event>
 5   0  0.9184414E-05  0.1801169E+04  0.7818609E-02  0.8705678E-01
       -2   -1    0    0    0  501  0.00000000000E+00  0.00000000000E+00  0.39035460629E+03  0.39035460630E+03  0.25500000920E-02 0. -1.
        2   -1    0    0  501    0  0.00000000000E+00  0.00000000000E+00 -0.20777327575E+04  0.20777327575E+04  0.25500000920E-02 0.  1.
    10030    2    1    2    0    0  0.00000000000E+00  0.00000000000E+00 -0.16873781512E+04  0.24680873638E+04  0.18011691232E+04 0.  0.
        5    1    3    3  502    0 -0.79091589347E+03  0.23051370907E+03 -0.13421846991E+04  0.15748543987E+04  0.46999998093E+01 0. -1.
       -5    1    3    3    0  502  0.79091589347E+03 -0.23051370907E+03 -0.34519345217E+03  0.89323296516E+03  0.46999998093E+01 0.  1.
</event>
<event>
 5   0  0.4623665E-05  0.1802366E+04  0.7818609E-02  0.8705042E-01
       -1   -1    0    0    0  501  0.00000000000E+00  0.00000000000E+00  0.11898904295E+04  0.11898904295E+04  0.50400001928E-02 0.  1.
        1   -1    0    0  501    0  0.00000000000E+00  0.00000000000E+00 -0.68252592592E+03  0.68252592594E+03  0.50400001928E-02 0. -1.
    10030    2    1    2    0    0  0.00000000000E+00  0.00000000000E+00  0.50736450361E+03  0.18724163555E+04  0.18023662971E+04 0.  0.
        5    1    3    3  502    0  0.89167895712E+03  0.93479589084E+02  0.15915586485E+03  0.91059457249E+03  0.46999998093E+01 0.  1.
       -5    1    3    3    0  502 -0.89167895712E+03 -0.93479589084E+02  0.34820863876E+03  0.96182178300E+03  0.46999998093E+01 0. -1.
</event>
<event>
 5   0  0.8802655E-05  0.1804038E+04  0.7818609E-02  0.8704155E-01
        2   -1    0    0  501    0  0.00000000000E+00  0.00000000000E+00  0.16673514477E+04  0.16673514477E+04  0.25500000920E-02 0.  1.
       -2   -1    0    0    0  501  0.00000000000E+00  0.00000000000E+00 -0.48798269943E+03  0.48798269944E+03  0.25500000920E-02 0. -1.
    10030    2    1    2    0    0  0.00000000000E+00  0.00000000000E+00  0.11793687483E+04  0.21553341472E+04  0.18040384257E+04 0.  0.
        2    1    3    3  502    0  0.38837991651E+03 -0.41957380119E+02  0.15610493918E+04  0.16091844471E+04  0.25500000920E-02 0.  1.
       -2    1    3    3    0  502 -0.38837991651E+03  0.41957380119E+02 -0.38168064345E+03  0.54614970007E+03  0.25500000920E-02 0. -1.
</event>
<event>
 5   0  0.8892280E-05  0.1819799E+04  0.7818609E-02  0.8695841E-01
       -2   -1    0    0    0  501  0.00000000000E+00  0.00000000000E+00  0.10602786652E+04  0.10602786652E+04  0.25500000920E-02 0. -1.
        2   -1    0    0  501    0  0.00000000000E+00  0.00000000000E+00 -0.78084816875E+03  0.78084816875E+03  0.25500000920E-02 0.  1.
    10030    2    1    2    0    0  0.00000000000E+00  0.00000000000E+00  0.27943049641E+03  0.18411268339E+04  0.18197985098E+04 0.  0.
        4    1    3    3  502    0 -0.80429490368E+02 -0.62723527503E+03 -0.52218641605E+03  0.82010563903E+03  0.12699999809E+01 0.  1.
       -4    1    3    3    0  502  0.80429490368E+02  0.62723527503E+03  0.80161691246E+03  0.10210211949E+04  0.12699999809E+01 0. -1.
</event>
<event>
 5   0  0.4494757E-05  0.1795648E+04  0.7818609E-02  0.8708617E-01
        1   -1    0    0  501    0  0.00000000000E+00  0.00000000000E+00  0.11755132487E+04  0.11755132487E+04  0.50400001928E-02 0.  1.
       -1   -1    0    0    0  501  0.00000000000E+00  0.00000000000E+00 -0.68573275002E+03  0.68573275003E+03  0.50400001928E-02 0. -1.
    10030    2    1    2    0    0  0.00000000000E+00  0.00000000000E+00  0.48978049864E+03  0.18612459987E+04  0.17956479975E+04 0.  0.
        4    1    3    3  502    0  0.66555144867E+03  0.57900609731E+02 -0.37683445995E+03  0.76701827524E+03  0.12699999809E+01 0.  1.
       -4    1    3    3    0  502 -0.66555144867E+03 -0.57900609731E+02  0.86661495859E+03  0.10942277235E+04  0.12699999809E+01 0. -1.
</event>
<event>
 5   0  0.9184414E-05  0.1817082E+04  0.7818609E-02  0.8697268E-01
       -2   -1    0    0    0  501  0.00000000000E+00  0.00000000000E+00  0.97937148780E+03  0.97937148780E+03  0.25500000920E-02 0.  1.
        2   -1    0    0  501    0  0.00000000000E+00  0.00000000000E+00 -0.84283320825E+03  0.84283320825E+03  0.25500000920E-02 0. -1.
    10030    2    1    2    0    0  0.00000000000E+00  0.00000000000E+00  0.13653827955E+03  0.18222046961E+04  0.18170820709E+04 0.  0.
        5    1    3    3  502    0 -0.14546390021E+03  0.49706343188E+03  0.81682706649E+03  0.96719199135E+03  0.46999998093E+01 0.  1.
       -5    1    3    3    0  502  0.14546390021E+03 -0.49706343188E+03 -0.68028878694E+03  0.85501270471E+03  0.46999998093E+01 0. -1.
</event>
<event>
 5   0  0.9147432E-05  0.1800328E+04  0.7818609E-02  0.8706125E-01
       -2   -1    0    0    0  501  0.00000000000E+00  0.00000000000E+00  0.85329546090E+03  0.85329546090E+03  0.25500000920E-02 0.  1.
        2   -1    0    0  501    0  0.00000000000E+00  0.00000000000E+00 -0.94960699503E+03  0.94960699504E+03  0.25500000920E-02 0. -1.
    10030    2    1    2    0    0  0.00000000000E+00  0.00000000000E+00 -0.96311534134E+02  0.18029024559E+04  0.18003281240E+04 0.  0.
        3    1    3    3  502    0  0.43764954578E+03 -0.77723675877E+03 -0.16941244952E+03  0.90792879256E+03  0.10100000352E+00 0.  1.
       -3    1    3    3    0  502 -0.43764954578E+03  0.77723675877E+03  0.73100915388E+02  0.89497366338E+03  0.10100000352E+00 0. -1.
</event>
<event>
 5   0  0.8892280E-05  0.1806328E+04  0.7818609E-02  0.8702942E-01
       -2   -1    0    0    0  501  0.00000000000E+00  0.00000000000E+00  0.64876159049E+03  0.64876159049E+03  0.25500000920E-02 0. -1.
        2   -1    0    0  501    0  0.00000000000E+00  0.00000000000E+00 -0.12573266185E+04  0.12573266185E+04  0.25500000920E-02 0.  1.
    10030    2    1    2    0    0  0.00000000000E+00  0.00000000000E+00 -0.60856502801E+03  0.19060882090E+04  0.18063280065E+04 0.  0.
        4    1    3    3  502    0  0.70744794730E+03  0.23241772418E+03 -0.84358877922E+03  0.11252307488E+04  0.12699999809E+01 0.  1.
       -4    1    3    3    0  502 -0.70744794730E+03 -0.23241772418E+03  0.23502375121E+03  0.78085746022E+03  0.12699999809E+01 0. -1.
</event>
<event>
 5   0  0.4578107E-05  0.1797948E+04  0.7818609E-02  0.8707391E-01
        1   -1    0    0  501    0  0.00000000000E+00  0.00000000000E+00  0.10384385981E+04  0.10384385981E+04  0.50400001928E-02 0.  1.
       -1   -1    0    0    0  501  0.00000000000E+00  0.00000000000E+00 -0.77823996333E+03  0.77823996334E+03  0.50400001928E-02 0. -1.
    10030    2    1    2    0    0  0.00000000000E+00  0.00000000000E+00  0.26019863472E+03  0.18166785614E+04  0.17979481822E+04 0.  0.
        2    1    3    3  502    0 -0.59420376023E+03 -0.22791576574E+03  0.77163949886E+03  0.10002255851E+04  0.25500000920E-02 0.  1.
       -2    1    3    3    0  502  0.59420376023E+03  0.22791576574E+03 -0.51144086414E+03  0.81645297627E+03  0.25500000920E-02 0. -1.
</event>
<event>
 5   0  0.9147432E-05  0.1796166E+04  0.7818609E-02  0.8708341E-01
       -2   -1    0    0    0  501  0.00000000000E+00  0.00000000000E+00  0.11796958594E+04  0.11796958594E+04  0.25500000920E-02 0.  1.
        2   -1    0    0  501    0  0.00000000000E+00  0.00000000000E+00 -0.68369602817E+03  0.68369602817E+03  0.25500000920E-02 0. -1.
    10030    2    1    2    0    0  0.00000000000E+00  0.00000000000E+00  0.49599983126E+03  0.18633918876E+04  0.17961663325E+04 0.  0.
        3    1    3    3  502    0  0.64957339107E+02  0.40684567027E+03  0.10758710864E+04  0.11520596600E+04  0.10100000352E+00 0.  1.
       -3    1    3    3    0  502 -0.64957339107E+02 -0.40684567027E+03 -0.57987125516E+03  0.71133222764E+03  0.10100000352E+00 0. -1.
</event>
<event>
 5   0  0.4335117E-05  0.1797718E+04  0.7818609E-02  0.8707514E-01
       -1   -1    0    0    0  501  0.00000000000E+00  0.00000000000E+00  0.12196441849E+04  0.12196441849E+04  0.50400001928E-02 0. -1.
        1   -1    0    0  501    0  0.00000000000E+00  0.00000000000E+00 -0.66244532609E+03  0.66244532611E+03  0.50400001928E-02 0.  1.
    10030    2    1    2    0    0  0.00000000000E+00  0.00000000000E+00  0.55719885876E+03  0.18820895110E+04  0.17977180978E+04 0.  0.
        3    1    3    3  502    0 -0.28358944402E+03  0.16727699971E+03  0.11542400401E+04  0.12002810703E+04  0.10100000352E+00 0. -1.
       -3    1    3    3    0  502  0.28358944402E+03 -0.16727699971E+03 -0.59704118131E+03  0.68180844068E+03  0.10100000352E+00 0.  1.
</event>
<event>
 5   0  0.8892280E-05  0.1803647E+04  0.7818609E-02  0.8704363E-01
        2   -1    0    0  501    0  0.00000000000E+00  0.00000000000E+00  0.10207444024E+04  0.10207444024E+04  0.25500000920E-02 0. -1.
       -2   -1    0    0    0  501  0.00000000000E+00  0.00000000000E+00 -0.79675722598E+03  0.79675722599E+03  0.25500000920E-02 0.  1.
    10030    2    1    2    0    0  0.00000000000E+00  0.00000000000E+00  0.22398717642E+03  0.18175016284E+04  0.18036468374E+04 0.  0.
        4    1    3    3  502    0  0.26963119078E+03  0.57471603017E+03  0.75744832304E+03  0.98829604337E+03  0.12699999809E+01 0. -1.
       -4    1    3    3    0  502 -0.26963119078E+03 -0.57471603017E+03 -0.53346114662E+03  0.82920558502E+03  0.12699999809E+01 0.  1.
</event>
<event>
 5   0  0.4535100E-05  0.1817145E+04  0.7818609E-02  0.8697235E-01
       -1   -1    0    0    0  501  0.00000000000E+00  0.00000000000E+00  0.82542325810E+03  0.82542325812E+03  0.50400001928E-02 0. -1.
        1   -1    0    0  501    0  0.00000000000E+00  0.00000000000E+00 -0.10000981409E+04  0.10000981409E+04  0.50400001928E-02 0.  1.
    10030    2    1    2    0    0  0.00000000000E+00  0.00000000000E+00 -0.17467488280E+03  0.18255213990E+04  0.18171453061E+04 0.  0.
        1    1    3    3  502    0  0.29417665513E+03  0.83022130570E+03 -0.31129314010E+03  0.93418988432E+03  0.50400001928E-02 0.  1.
       -1    1    3    3    0  502 -0.29417665513E+03 -0.83022130570E+03  0.13661825730E+03  0.89133151471E+03  0.50400001928E-02 0. -1.
</event>
<event>
 5   0  0.9184414E-05  0.1797619E+04  0.7818609E-02  0.8707567E-01
        2   -1    0    0  501    0  0.00000000000E+00  0.00000000000E+00  0.16022598173E+04  0.16022598173E+04  0.25500000920E-02 0. -1.
       -2   -1    0    0    0  501  0.00000000000E+00  0.00000000000E+00 -0.50419921962E+03  0.50419921963E+03  0.25500000920E-02 0.  1.
    10030    2    1    2    0    0  0.00000000000E+00  0.00000000000E+00  0.10980605977E+04  0.21064590369E+04  0.17976185908E+04 0.  0.
        5    1    3    3  502    0 -0.38530563703E+03 -0.81201374643E+03  0.54545654180E+03  0.10513665808E+04  0.46999998093E+01 0. -1.
       -5    1    3    3    0  502  0.38530563703E+03  0.81201374643E+03  0.55260405589E+03  0.10550924561E+04  0.46999998093E+01 0.  1.
</event>
<event>
 5   0  0.4623665E-05  0.1798282E+04  0.7818609E-02  0.8707214E-01
       -1   -1    0    0    0  501  0.00000000000E+00  0.00000000000E+00  0.58922325849E+03  0.58922325852E+03  0.50400001928E-02 0. -1.
        1   -1    0    0  501    0  0.00000000000E+00  0.00000000000E+00 -0.13720684159E+04  0.13720684159E+04  0.50400001928E-02 0.  1.
    10030    2    1    2    0    0  0.00000000000E+00  0.00000000000E+00 -0.78284515743E+03  0.19612916745E+04  0.17982820946E+04 0.  0.
        5    1    3    3  502    0  0.36839875001E+03  0.39026094704E+03 -0.11782105623E+04  0.12946904900E+04  0.46999998093E+01 0.  1.
       -5    1    3    3    0  502 -0.36839875001E+03 -0.39026094704E+03  0.39536540484E+03  0.66660118447E+03  0.46999998093E+01 0. -1.
</event>
<event>
 5   0  0.4623665E-05  0.1739132E+04  0.7818609E-02  0.8739356E-01
       -1   -1    0    0    0  501  0.00000000000E+00  0.00000000000E+00  0.10858695823E+04  0.10858695823E+04  0.50400001928E-02 0.  1.
        1   -1    0    0  501    0  0.00000000000E+00  0.00000000000E+00 -0.69634948204E+03  0.69634948206E+03  0.50400001928E-02 0. -1.
    10030    2    1    2    0    0  0.00000000000E+00  0.00000000000E+00  0.38952010021E+03  0.17822190643E+04  0.17391316468E+04 0.  0.
        5    1    3    3  502    0  0.68819276056E+03  0.54727976502E+02 -0.34703330676E+03  0.77269569243E+03  0.46999998093E+01 0. -1.
       -5    1    3    3    0  502 -0.68819276056E+03 -0.54727976502E+02  0.73655340697E+03  0.10095233719E+04  0.46999998093E+01 0.  1.
</event>
<event>
 5   0  0.9184414E-05  0.1800275E+04  0.7818609E-02  0.8706153E-01
       -2   -1    0    0    0  501  0.00000000000E+00  0.00000000000E+00  0.85886542810E+03  0.85886542811E+03  0.25500000920E-02 0.  1.
        2   -1    0    0  501    0  0.00000000000E+00  0.00000000000E+00 -0.94339290862E+03  0.94339290862E+03  0.25500000920E-02 0. -1.
    10030    2    1    2    0    0  0.00000000000E+00  0.00000000000E+00 -0.84527480512E+02  0.18022583367E+04  0.18002750394E+04 0.  0.
        5    1    3    3  502    0  0.52466470227E+03  0.46198628222E+03  0.52538923112E+03  0.87450575123E+03  0.46999998093E+01 0.  1.
       -5    1    3    3    0  502 -0.52466470227E+03 -0.46198628222E+03 -0.60991671163E+03  0.92775258549E+03  0.46999998093E+01 0. -1.
</event>
<event>
 5   0  0.4494757E-05  0.1789420E+04  0.7818609E-02  0.8711946E-01
       -1   -1    0    0    0  501  0.00000000000E+00  0.00000000000E+00  0.58723910366E+03  0.58723910368E+03  0.50400001928E-02 0.  1.
        1   -1    0    0  501    0  0.00000000000E+00  0.00000000000E+00 -0.13631691764E+04  0.13631691764E+04  0.50400001928E-02 0. -1.
    10030    2    1    2    0    0  0.00000000000E+00  0.00000000000E+00 -0.77593007272E+03  0.19504082801E+04  0.17894202919E+04 0.  0.
        4    1    3    3  502    0  0.10269854571E+03  0.84739743040E+03 -0.68018024543E+03  0.10914559888E+04  0.12699999809E+01 0.  1.
       -4    1    3    3    0  502 -0.10269854571E+03 -0.84739743040E+03 -0.95749827293E+02  0.85895229126E+03  0.12699999809E+01 0. -1.
</event>
<event>
 5   0  0.4494757E-05  0.1796099E+04  0.7818609E-02  0.8708377E-01
        1   -1    0    0  501    0  0.00000000000E+00  0.00000000000E+00  0.21078382585E+04  0.21078382585E+04  0.50400001928E-02 0. -1.
       -1   -1    0    0    0  501  0.00000000000E+00  0.00000000000E+00 -0.38261615723E+03  0.38261615726E+03  0.50400001928E-02 0.  1.
    10030    2    1    2    0    0  0.00000000000E+00  0.00000000000E+00  0.17252221012E+04  0.24904544157E+04  0.17960990781E+04 0.  0.
        4    1    3    3  502    0  0.49673478934E+03 -0.74778396723E+03  0.82965073303E+03  0.12223944798E+04  0.12699999809E+01 0.  1.
       -4    1    3    3    0  502 -0.49673478934E+03  0.74778396723E+03  0.89557136820E+03  0.12680599359E+04  0.12699999809E+01 0. -1.
</event>
<event>
 5   0  0.4623665E-05  0.1801919E+04  0.7818609E-02  0.8705280E-01
       -1   -1    0    0    0  501  0.00000000000E+00  0.00000000000E+00  0.48552504229E+03  0.48552504232E+03  0.50400001928E-02 0. -1.
        1   -1    0    0  501    0  0.00000000000E+00  0.00000000000E+00 -0.16718564816E+04  0.16718564817E+04  0.50400001928E-02 0.  1.
    10030    2    1    2    0    0  0.00000000000E+00  0.00000000000E+00 -0.11863314394E+04  0.21573815240E+04  0.18019191869E+04 0.  0.
        5    1    3    3  502    0  0.18344002299E+03  0.39466291223E+03 -0.15376408223E+04  0.15980520782E+04  0.46999998093E+01 0.  1.
       -5    1    3    3    0  502 -0.18344002299E+03 -0.39466291223E+03  0.35130938295E+03  0.55932944574E+03  0.46999998093E+01 0. -1.
</event>
<event>
 5   0  0.4494757E-05  0.1829705E+04  0.7818609E-02  0.8690660E-01
       -1   -1    0    0    0  501  0.00000000000E+00  0.00000000000E+00  0.10886974894E+04  0.10886974894E+04  0.50400001928E-02 0.  1.
        1   -1    0    0  501    0  0.00000000000E+00  0.00000000000E+00 -0.76876711765E+03  0.76876711766E+03  0.50400001928E-02 0. -1.
    10030    2    1    2    0    0  0.00000000000E+00  0.00000000000E+00  0.31993037170E+03  0.18574646070E+04  0.18297047094E+04 0.  0.
        4    1    3    3  502    0 -0.25797511707E+03 -0.24346569860E+03  0.10160424754E+04  0.10761833636E+04  0.12699999809E+01 0.  1.
       -4    1    3    3    0  502  0.25797511707E+03  0.24346569860E+03 -0.69611210372E+03  0.78128124339E+03  0.12699999809E+01 0. -1.
</event>
<event>
 5   0  0.4494757E-05  0.1806908E+04  0.7818609E-02  0.8702634E-01
        1   -1    0    0  501    0  0.00000000000E+00  0.00000000000E+00  0.11133542799E+04  0.11133542799E+04  0.50400001928E-02 0. -1.
       -1   -1    0    0    0  501  0.00000000000E+00  0.00000000000E+00 -0.73312651245E+03  0.73312651247E+03  0.50400001928E-02 0.  1.
    10030    2    1    2    0    0  0.00000000000E+00  0.00000000000E+00  0.38022776741E+03  0.18464807923E+04  0.18069084541E+04 0.  0.
        4    1    3    3  502    0 -0.44880665348E+02  0.38287568796E+03 -0.64486072410E+03  0.75130222476E+03  0.12699999809E+01 0.  1.
       -4    1    3    3    0  502  0.44880665348E+02 -0.38287568796E+03  0.10250884915E+04  0.10951785676E+04  0.12699999809E+01 0. -1.
</event>
<event>
 5   0  0.4494757E-05  0.1803410E+04  0.7818609E-02  0.8704488E-01
       -1   -1    0    0    0  501  0.00000000000E+00  0.00000000000E+00  0.97216569221E+03  0.97216569222E+03  0.50400001928E-02 0. -1.
        1   -1    0    0  501    0  0.00000000000E+00  0.00000000000E+00 -0.83635133559E+03  0.83635133560E+03  0.50400001928E-02 0.  1.
    10030    2    1    2    0    0  0.00000000000E+00  0.00000000000E+00  0.13581435662E+03  0.18085170278E+04  0.18034101864E+04 0.  0.
        4    1    3    3  502    0  0.75861167434E+01 -0.58400274737E+03 -0.62102708313E+03  0.85252155925E+03  0.12699999809E+01 0.  1.
       -4    1    3    3    0  502 -0.75861167434E+01  0.58400274737E+03  0.75684143975E+03  0.95599546857E+03  0.12699999809E+01 0. -1.
</event>
<event>
 5   0  0.4535100E-05  0.1820389E+04  0.7818609E-02  0.8695532E-01
        1   -1    0    0  501    0  0.00000000000E+00  0.00000000000E+00  0.87016768557E+03  0.87016768558E+03  0.50400001928E-02 0. -1.
       -1   -1    0    0    0  501  0.00000000000E+00  0.00000000000E+00 -0.95206223028E+03  0.95206223029E+03  0.50400001928E-02 0.  1.
    10030    2    1    2    0    0  0.00000000000E+00  0.00000000000E+00 -0.81894544711E+02  0.18222299159E+04  0.18203887359E+04 0.  0.
        1    1    3    3  502    0 -0.38384627462E+03  0.58165863643E+02 -0.86502505800E+03  0.94815061105E+03  0.50400001928E-02 0.  1.
       -1    1    3    3    0  502  0.38384627462E+03 -0.58165863643E+02  0.78313051329E+03  0.87407930482E+03  0.50400001928E-02 0. -1.
</event>
<event>
 5   0  0.8802655E-05  0.1801442E+04  0.7818609E-02  0.8705533E-01
        2   -1    0    0  501    0  0.00000000000E+00  0.00000000000E+00  0.96551874163E+03  0.96551874164E+03  0.25500000920E-02 0.  1.
       -2   -1    0    0    0  501  0.00000000000E+00  0.00000000000E+00 -0.84027190533E+03  0.84027190533E+03  0.25500000920E-02 0. -1.
    10030    2    1    2    0    0  0.00000000000E+00  0.00000000000E+00  0.12524683630E+03  0.18057906470E+04  0.18014419476E+04 0.  0.
        2    1    3    3  502    0 -0.13626982764E+03  0.19145011295E+03  0.93424857599E+03  0.96334989149E+03  0.25500000920E-02 0.  1.
       -2    1    3    3    0  502  0.13626982764E+03 -0.19145011295E+03 -0.80900173969E+03  0.84244075548E+03  0.25500000920E-02 0. -1.
</event>
<event>
 5   0  0.4535100E-05  0.1857609E+04  0.7818609E-02  0.8676249E-01
        1   -1    0    0  501    0  0.00000000000E+00  0.00000000000E+00  0.17225943257E+04  0.17225943257E+04  0.50400001928E-02 0.  1.
       -1   -1    0    0    0  501  0.00000000000E+00  0.00000000000E+00 -0.50080166497E+03  0.50080166499E+03  0.50400001928E-02 0. -1.
    10030    2    1    2    0    0  0.00000000000E+00  0.00000000000E+00  0.12217926607E+04  0.22233959907E+04  0.18576093307E+04 0.  0.
        1    1    3    3  502    0 -0.40183696276E+03  0.61323926228E+03 -0.71598685720E+02  0.73665576035E+03  0.50400001928E-02 0. -1.
       -1    1    3    3    0  502  0.40183696276E+03 -0.61323926228E+03  0.12933913465E+04  0.14867402304E+04  0.50400001928E-02 0.  1.
</event>
<event>
 5   0  0.4494757E-05  0.1797758E+04  0.7818609E-02  0.8707492E-01
       -1   -1    0    0    0  501  0.00000000000E+00  0.00000000000E+00  0.94156236185E+03  0.94156236187E+03  0.50400001928E-02 0. -1.
        1   -1    0    0  501    0  0.00000000000E+00  0.00000000000E+00 -0.85813095953E+03  0.85813095954E+03  0.50400001928E-02 0.  1.
    10030    2    1    2    0    0  0.00000000000E+00  0.00000000000E+00  0.83431402326E+02  0.17996933214E+04  0.17977583965E+04 0.  0.
        4    1    3    3  502    0 -0.63330114675E+03 -0.26634841120E+02 -0.59631039841E+03  0.87026861451E+03  0.12699999809E+01 0.  1.
       -4    1    3    3    0  502  0.63330114675E+03  0.26634841120E+02  0.67974180074E+03  0.92942470691E+03  0.12699999809E+01 0. -1.
</event>
<event>
 5   0  0.9184414E-05  0.1800218E+04  0.7818609E-02  0.8706184E-01
        2   -1    0    0  501    0  0.00000000000E+00  0.00000000000E+00  0.16388865642E+04  0.16388865642E+04  0.25500000920E-02 0. -1.
       -2   -1    0    0    0  501  0.00000000000E+00  0.00000000000E+00 -0.49435746969E+03  0.49435746970E+03  0.25500000920E-02 0.  1.
    10030    2    1    2    0    0  0.00000000000E+00  0.00000000000E+00  0.11445290945E+04  0.21332440339E+04  0.18002175591E+04 0.  0.
        5    1    3    3  502    0 -0.22601231534E+03 -0.55268621496E+03  0.13703813997E+04  0.14948280468E+04  0.46999998093E+01 0. -1.
       -5    1    3    3    0  502  0.22601231534E+03  0.55268621496E+03 -0.22585230514E+03  0.63841598713E+03  0.46999998093E+01 0.  1.
</event>
<event>
 5   0  0.3270375E-05  0.1792633E+04  0.7818609E-02  0.8710227E-01
        4   -1    0    0  501    0  0.00000000000E+00  0.00000000000E+00  0.13003500841E+04  0.13003507042E+04  0.12699999809E+01 0. -1.
       -4   -1    0    0    0  501  0.00000000000E+00  0.00000000000E+00 -0.61781915379E+03  0.61782045911E+03  0.12699999809E+01 0.  1.
    10030    2    1    2    0    0  0.00000000000E+00  0.00000000000E+00  0.68253093026E+03  0.19181711633E+04  0.17926327402E+04 0.  0.
        4    1    3    3  502    0  0.85894732247E+03  0.20564790909E+03  0.17793294529E+03  0.90096798568E+03  0.12699999809E+01 0.  1.
       -4    1    3    3    0  502 -0.85894732247E+03 -0.20564790909E+03  0.50459798498E+03  0.10172031777E+04  0.12699999809E+01 0. -1.
</event>
<event>
 5   0  0.4335117E-05  0.1795077E+04  0.7818609E-02  0.8708922E-01
        1   -1    0    0  501    0  0.00000000000E+00  0.00000000000E+00  0.15772149880E+04  0.15772149880E+04  0.50400001928E-02 0. -1.
       -1   -1    0    0    0  501  0.00000000000E+00  0.00000000000E+00 -0.51075837314E+03  0.51075837316E+03  0.50400001928E-02 0.  1.
    10030    2    1    2    0    0  0.00000000000E+00  0.00000000000E+00  0.10664566148E+04  0.20879733611E+04  0.17950774483E+04 0.  0.
        3    1    3    3  502    0  0.38651797641E+03 -0.57462938327E+03  0.11973347468E+04  0.13831867481E+04  0.10100000352E+00 0. -1.
       -3    1    3    3    0  502 -0.38651797641E+03  0.57462938327E+03 -0.13087813196E+03  0.70478661298E+03  0.10100000352E+00 0.  1.
</event>
<event>
 5   0  0.4494757E-05  0.1801409E+04  0.7818609E-02  0.8705551E-01
        1   -1    0    0  501    0  0.00000000000E+00  0.00000000000E+00  0.10027360530E+04  0.10027360530E+04  0.50400001928E-02 0.  1.
       -1   -1    0    0    0  501  0.00000000000E+00  0.00000000000E+00 -0.80905471958E+03  0.80905471960E+03  0.50400001928E-02 0. -1.
    10030    2    1    2    0    0  0.00000000000E+00  0.00000000000E+00  0.19368133345E+03  0.18117907726E+04  0.18014087112E+04 0.  0.
        4    1    3    3  502    0 -0.16574363408E+03  0.19896856286E+03 -0.77080568012E+03  0.81314356091E+03  0.12699999809E+01 0. -1.
       -4    1    3    3    0  502  0.16574363408E+03 -0.19896856286E+03  0.96448701357E+03  0.99864721173E+03  0.12699999809E+01 0.  1.
</event>
<event>
 5   0  0.4494757E-05  0.1801448E+04  0.7818609E-02  0.8705530E-01
        1   -1    0    0  501    0  0.00000000000E+00  0.00000000000E+00  0.70808048890E+03  0.70808048892E+03  0.50400001928E-02 0.  1.
       -1   -1    0    0    0  501  0.00000000000E+00  0.00000000000E+00 -0.11457785364E+04  0.11457785365E+04  0.50400001928E-02 0. -1.
    10030    2    1    2    0    0  0.00000000000E+00  0.00000000000E+00 -0.43769804754E+03  0.18538590254E+04  0.18014476693E+04 0.  0.
        4    1    3    3  502    0  0.84653347563E+03  0.23392581127E+03 -0.13129029010E+02  0.87835880757E+03  0.12699999809E+01 0.  1.
       -4    1    3    3    0  502 -0.84653347563E+03 -0.23392581127E+03 -0.42456901853E+03  0.97550021780E+03  0.12699999809E+01 0. -1.
</event>
<event>
 5   0  0.8892280E-05  0.1801267E+04  0.7818609E-02  0.8705626E-01
       -2   -1    0    0    0  501  0.00000000000E+00  0.00000000000E+00  0.10143331422E+04  0.10143331422E+04  0.25500000920E-02 0. -1.
        2   -1    0    0  501    0  0.00000000000E+00  0.00000000000E+00 -0.79967855161E+03  0.79967855161E+03  0.25500000920E-02 0.  1.
    10030    2    1    2    0    0  0.00000000000E+00  0.00000000000E+00  0.21465459064E+03  0.18140116939E+04  0.18012667299E+04 0.  0.
        4    1    3    3  502    0 -0.61717429127E+03 -0.31433019048E+03  0.68710137585E+03  0.97561134068E+03  0.12699999809E+01 0. -1.
       -4    1    3    3    0  502  0.61717429127E+03  0.31433019048E+03 -0.47244678522E+03  0.83840035318E+03  0.12699999809E+01 0.  1.
</event>
<event>
 5   0  0.3270375E-05  0.1810632E+04  0.7818609E-02  0.8700666E-01
       -3   -1    0    0    0  501  0.00000000000E+00  0.00000000000E+00  0.10003898009E+04  0.10003898060E+04  0.10100000352E+00 0. -1.
        3   -1    0    0  501    0  0.00000000000E+00  0.00000000000E+00 -0.81927747735E+03  0.81927748358E+03  0.10100000352E+00 0.  1.
    10030    2    1    2    0    0  0.00000000000E+00  0.00000000000E+00  0.18111232357E+03  0.18196672896E+04  0.18106317602E+04 0.  0.
        1    1    3    3  502    0 -0.11322878464E+03 -0.78967103496E+03 -0.33959345603E+03  0.86702065519E+03  0.50400001928E-02 0.  1.
       -1    1    3    3    0  502  0.11322878464E+03  0.78967103496E+03  0.52070577960E+03  0.95264663441E+03  0.50400001928E-02 0. -1.
</event>
<event>
 5   0  0.4335117E-05  0.1809080E+04  0.7818609E-02  0.8701486E-01
       -1   -1    0    0    0  501  0.00000000000E+00  0.00000000000E+00  0.57574698578E+03  0.57574698580E+03  0.50400001928E-02 0. -1.
        1   -1    0    0  501    0  0.00000000000E+00  0.00000000000E+00 -0.14210976054E+04  0.14210976054E+04  0.50400001928E-02 0.  1.
    10030    2    1    2    0    0  0.00000000000E+00  0.00000000000E+00 -0.84535061964E+03  0.19968445912E+04  0.18090800567E+04 0.  0.
        3    1    3    3  502    0  0.56513746889E+03 -0.62644367817E+03 -0.62662691839E+02  0.84601339458E+03  0.10100000352E+00 0. -1.
       -3    1    3    3    0  502 -0.56513746889E+03  0.62644367817E+03 -0.78268792780E+03  0.11508311966E+04  0.10100000352E+00 0.  1.
</event>
<event>
 5   0  0.8802655E-05  0.1750247E+04  0.7818609E-02  0.8733214E-01
        2   -1    0    0  501    0  0.00000000000E+00  0.00000000000E+00  0.13373069455E+04  0.13373069455E+04  0.25500000920E-02 0. -1.
       -2   -1    0    0    0  501  0.00000000000E+00  0.00000000000E+00 -0.57267418560E+03  0.57267418561E+03  0.25500000920E-02 0.  1.
    10030    2    1    2    0    0  0.00000000000E+00  0.00000000000E+00  0.76463275987E+03  0.19099811311E+04  0.17502470293E+04 0.  0.
        2    1    3    3  502    0  0.83190313005E+03  0.20131547960E+03  0.18332771731E+03  0.87532839097E+03  0.25500000920E-02 0. -1.
       -2    1    3    3    0  502 -0.83190313005E+03 -0.20131547960E+03  0.58130504256E+03  0.10346527401E+04  0.25500000920E-02 0.  1.
</event>
<event>
 5   0  0.9184414E-05  0.1794258E+04  0.7818609E-02  0.8709359E-01
        2   -1    0    0  501    0  0.00000000000E+00  0.00000000000E+00  0.56958793183E+03  0.56958793184E+03  0.25500000920E-02 0. -1.
       -2   -1    0    0    0  501  0.00000000000E+00  0.00000000000E+00 -0.14130222432E+04  0.14130222432E+04  0.25500000920E-02 0.  1.
    10030    2    1    2    0    0  0.00000000000E+00  0.00000000000E+00 -0.84343431138E+03  0.19826101751E+04  0.17942579716E+04 0.  0.
        5    1    3    3  502    0  0.17027187031E+03  0.33339259339E+03  0.47914259262E+03  0.60806483635E+03  0.46999998093E+01 0. -1.
       -5    1    3    3    0  502 -0.17027187031E+03 -0.33339259339E+03 -0.13225769040E+04  0.13745453387E+04  0.46999998093E+01 0.  1.
</event>
<event>
 5   0  0.9147432E-05  0.1797258E+04  0.7818609E-02  0.8707759E-01
       -2   -1    0    0    0  501  0.00000000000E+00  0.00000000000E+00  0.35585920046E+03  0.35585920047E+03  0.25500000920E-02 0.  1.
        2   -1    0    0  501    0  0.00000000000E+00  0.00000000000E+00 -0.22692510368E+04  0.22692510368E+04  0.25500000920E-02 0. -1.
    10030    2    1    2    0    0  0.00000000000E+00  0.00000000000E+00 -0.19133918364E+04  0.26251102373E+04  0.17972577551E+04 0.  0.
        3    1    3    3  502    0 -0.29308236906E+03  0.62168794053E+03 -0.11112360960E+03  0.69623389552E+03  0.10100000352E+00 0.  1.
       -3    1    3    3    0  502  0.29308236906E+03 -0.62168794053E+03 -0.18022682268E+04  0.19288763418E+04  0.10100000352E+00 0. -1.
</event>
<event>
 5   0  0.4578107E-05  0.1802324E+04  0.7818609E-02  0.8705065E-01
        1   -1    0    0  501    0  0.00000000000E+00  0.00000000000E+00  0.16418823547E+04  0.16418823547E+04  0.50400001928E-02 0.  1.
       -1   -1    0    0    0  501  0.00000000000E+00  0.00000000000E+00 -0.49461092937E+03  0.49461092939E+03  0.50400001928E-02 0. -1.
    10030    2    1    2    0    0  0.00000000000E+00  0.00000000000E+00  0.11472714253E+04  0.21364932841E+04  0.18023240080E+04 0.  0.
        2    1    3    3  502    0  0.35781542799E+03 -0.76103624258E+03  0.18972946647E+03  0.86209356423E+03  0.25500000920E-02 0. -1.
       -2    1    3    3    0  502 -0.35781542799E+03  0.76103624258E+03  0.95754195887E+03  0.12743997199E+04  0.25500000920E-02 0.  1.
</event>
<event>
 5   0  0.9147432E-05  0.1802501E+04  0.7818609E-02  0.8704971E-01
       -2   -1    0    0    0  501  0.00000000000E+00  0.00000000000E+00  0.10414822199E+04  0.10414822199E+04  0.25500000920E-02 0.  1.
        2   -1    0    0  501    0  0.00000000000E+00  0.00000000000E+00 -0.77990004746E+03  0.77990004747E+03  0.25500000920E-02 0. -1.
    10030    2    1    2    0    0  0.00000000000E+00  0.00000000000E+00  0.26158217246E+03  0.18213822674E+04  0.18025005218E+04 0.  0.
        3    1    3    3  502    0  0.51180878138E+03  0.15026670492E+03 -0.60326460294E+03  0.80526796948E+03  0.10100000352E+00 0. -1.
       -3    1    3    3    0  502 -0.51180878138E+03 -0.15026670492E+03  0.86484677541E+03  0.10161142979E+04  0.10100000352E+00 0.  1.
</event>
<event>
 5   0  0.4623665E-05  0.1785627E+04  0.7818609E-02  0.8713981E-01
       -1   -1    0    0    0  501  0.00000000000E+00  0.00000000000E+00  0.83112830032E+03  0.83112830034E+03  0.50400001928E-02 0.  1.
        1   -1    0    0  501    0  0.00000000000E+00  0.00000000000E+00 -0.95907639473E+03  0.95907639474E+03  0.50400001928E-02 0. -1.
    10030    2    1    2    0    0  0.00000000000E+00  0.00000000000E+00 -0.12794809440E+03  0.17902046951E+04  0.17856265386E+04 0.  0.
        5    1    3    3  502    0 -0.42551047647E+03  0.69346697535E+02  0.71983942874E+03  0.83908225057E+03  0.46999998093E+01 0.  1.
       -5    1    3    3    0  502  0.42551047647E+03 -0.69346697535E+02 -0.84778752315E+03  0.95112244451E+03  0.46999998093E+01 0. -1.
</event>
<event>
 5   0  0.4335117E-05  0.1769040E+04  0.7818609E-02  0.8722939E-01
       -1   -1    0    0    0  501  0.00000000000E+00  0.00000000000E+00  0.21361556277E+04  0.21361556277E+04  0.50400001928E-02 0. -1.
        1   -1    0    0  501    0  0.00000000000E+00  0.00000000000E+00 -0.36625422071E+03  0.36625422075E+03  0.50400001928E-02 0.  1.
    10030    2    1    2    0    0  0.00000000000E+00  0.00000000000E+00  0.17699014070E+04  0.25024098485E+04  0.17690404346E+04 0.  0.
        3    1    3    3  502    0 -0.59176151754E+03 -0.88182966700E+01 -0.44916928068E+02  0.59352927192E+03  0.10100000352E+00 0.  1.
       -3    1    3    3    0  502  0.59176151754E+03  0.88182966700E+01  0.18148183351E+04  0.19088805765E+04  0.10100000352E+00 0. -1.
</event>
<event>
 5   0  0.4494757E-05  0.1799349E+04  0.7818609E-02  0.8706646E-01
        1   -1    0    0  501    0  0.00000000000E+00  0.00000000000E+00  0.60070197261E+03  0.60070197263E+03  0.50400001928E-02 0.  1.
       -1   -1    0    0    0  501  0.00000000000E+00  0.00000000000E+00 -0.13474468448E+04  0.13474468448E+04  0.50400001928E-02 0. -1.
    10030    2    1    2    0    0  0.00000000000E+00  0.00000000000E+00 -0.74674487215E+03  0.19481488174E+04  0.17993487463E+04 0.  0.
        4    1    3    3  502    0 -0.44426998977E+03  0.74912787640E+03 -0.12923943359E+03  0.88049579391E+03  0.12699999809E+01 0. -1.
       -4    1    3    3    0  502  0.44426998977E+03 -0.74912787640E+03 -0.61750543856E+03  0.10676530235E+04  0.12699999809E+01 0.  1.
</event>
<event>
 5   0  0.8892280E-05  0.1767473E+04  0.7818609E-02  0.8723791E-01
       -2   -1    0    0    0  501  0.00000000000E+00  0.00000000000E+00  0.98195844145E+03  0.98195844145E+03  0.25500000920E-02 0. -1.
        2   -1    0    0  501    0  0.00000000000E+00  0.00000000000E+00 -0.79533939433E+03  0.79533939433E+03  0.25500000920E-02 0.  1.
    10030    2    1    2    0    0  0.00000000000E+00  0.00000000000E+00  0.18661904712E+03  0.17772978358E+04  0.17674730347E+04 0.  0.
        4    1    3    3  502    0 -0.42568212737E+03 -0.31385240621E+03  0.80525643383E+03  0.96340445482E+03  0.12699999809E+01 0. -1.
       -4    1    3    3    0  502  0.42568212737E+03  0.31385240621E+03 -0.61863738671E+03  0.81389338097E+03  0.12699999809E+01 0.  1.
</event>
<event>
 5   0  0.4494757E-05  0.1787594E+04  0.7818609E-02  0.8712925E-01
        1   -1    0    0  501    0  0.00000000000E+00  0.00000000000E+00  0.21032966120E+04  0.21032966120E+04  0.50400001928E-02 0. -1.
       -1   -1    0    0    0  501  0.00000000000E+00  0.00000000000E+00 -0.37981934742E+03  0.37981934746E+03  0.50400001928E-02 0.  1.
    10030    2    1    2    0    0  0.00000000000E+00  0.00000000000E+00  0.17234772646E+04  0.24831159594E+04  0.17875936302E+04 0.  0.
        4    1    3    3  502    0  0.65511246773E+03  0.60387676351E+03  0.76320531438E+03  0.11731681276E+04  0.12699999809E+01 0. -1.
       -4    1    3    3    0  502 -0.65511246773E+03 -0.60387676351E+03  0.96027195017E+03  0.13099478318E+04  0.12699999809E+01 0.  1.
</event>
<event>
 5   0  0.9184414E-05  0.1803291E+04  0.7818609E-02  0.8704551E-01
        2   -1    0    0  501    0  0.00000000000E+00  0.00000000000E+00  0.80580619893E+03  0.80580619894E+03  0.25500000920E-02 0. -1.
       -2   -1    0    0    0  501  0.00000000000E+00  0.00000000000E+00 -0.10088833774E+04  0.10088833775E+04  0.25500000920E-02 0.  1.
    10030    2    1    2    0    0  0.00000000000E+00  0.00000000000E+00 -0.20307717851E+03  0.18146895764E+04  0.18032908579E+04 0.  0.
        5    1    3    3  502    0 -0.82375038764E+03 -0.20780182674E+03 -0.40543437045E+03  0.94135297263E+03  0.46999998093E+01 0.  1.
       -5    1    3    3    0  502  0.82375038764E+03  0.20780182674E+03  0.20235719194E+03  0.87333660376E+03  0.46999998093E+01 0. -1.
</event>
<event>
 5   0  0.4335117E-05  0.1797733E+04  0.7818609E-02  0.8707506E-01
       -1   -1    0    0    0  501  0.00000000000E+00  0.00000000000E+00  0.54735322202E+03  0.54735322204E+03  0.50400001928E-02 0.  1.
        1   -1    0    0  501    0  0.00000000000E+00  0.00000000000E+00 -0.14761239087E+04  0.14761239088E+04  0.50400001928E-02 0. -1.
    10030    2    1    2    0    0  0.00000000000E+00  0.00000000000E+00 -0.92877068673E+03  0.20234771308E+04  0.17977332144E+04 0.  0.
        3    1    3    3  502    0  0.73566838474E+03 -0.51642774771E+03 -0.47277643584E+03  0.10155900548E+04  0.10100000352E+00 0.  1.
       -3    1    3    3    0  502 -0.73566838474E+03  0.51642774771E+03 -0.45599425090E+03  0.10078870760E+04  0.10100000352E+00 0. -1.
</event>
<event>
 5   0  0.8802655E-05  0.1799938E+04  0.7818609E-02  0.8706332E-01
        2   -1    0    0  501    0  0.00000000000E+00  0.00000000000E+00  0.12580787489E+04  0.12580787489E+04  0.25500000920E-02 0. -1.
       -2   -1    0    0    0  501  0.00000000000E+00  0.00000000000E+00 -0.64379466511E+03  0.64379466511E+03  0.25500000920E-02 0.  1.
    10030    2    1    2    0    0  0.00000000000E+00  0.00000000000E+00  0.61428408379E+03  0.19018734140E+04  0.17999382065E+04 0.  0.
        2    1    3    3  502    0 -0.20116302276E+03 -0.70390532196E+03 -0.24594747629E+03  0.77229490812E+03  0.25500000920E-02 0.  1.
       -2    1    3    3    0  502  0.20116302276E+03  0.70390532196E+03  0.86023156008E+03  0.11295785059E+04  0.25500000920E-02 0. -1.
</event>
<event>
 5   0  0.8892280E-05  0.1800775E+04  0.7818609E-02  0.8705887E-01
        2   -1    0    0  501    0  0.00000000000E+00  0.00000000000E+00  0.91867862231E+03  0.91867862231E+03  0.25500000920E-02 0.  1.
       -2   -1    0    0    0  501  0.00000000000E+00  0.00000000000E+00 -0.88246093514E+03  0.88246093515E+03  0.25500000920E-02 0. -1.
    10030    2    1    2    0    0  0.00000000000E+00  0.00000000000E+00  0.36217687165E+02  0.18011395575E+04  0.18007753843E+04 0.  0.
        4    1    3    3  502    0 -0.54858775262E+03  0.68390162146E+03  0.22315379701E+03  0.90469286511E+03  0.12699999809E+01 0.  1.
       -4    1    3    3    0  502  0.54858775262E+03 -0.68390162146E+03 -0.18693610985E+03  0.89644669235E+03  0.12699999809E+01 0. -1.
</event>
<event>
 5   0  0.8802655E-05  0.1798134E+04  0.7818609E-02  0.8707292E-01
        2   -1    0    0  501    0  0.00000000000E+00  0.00000000000E+00  0.14930480180E+04  0.14930480180E+04  0.25500000920E-02 0.  1.
       -2   -1    0    0    0  501  0.00000000000E+00  0.00000000000E+00 -0.54139042518E+03  0.54139042519E+03  0.25500000920E-02 0. -1.
    10030    2    1    2    0    0  0.00000000000E+00  0.00000000000E+00  0.95165759280E+03  0.20344384432E+04  0.17981344792E+04 0.  0.
        2    1    3    3  502    0 -0.36032906226E+03 -0.66769092837E+03 -0.69924070733E+02  0.76193017043E+03  0.25500000920E-02 0. -1.
       -2    1    3    3    0  502  0.36032906226E+03  0.66769092837E+03  0.10215816635E+04  0.12725082728E+04  0.25500000920E-02 0.  1.
</event>
<event>
 5   0  0.4494757E-05  0.1793168E+04  0.7818609E-02  0.8709941E-01
        1   -1    0    0  501    0  0.00000000000E+00  0.00000000000E+00  0.19658807014E+04  0.19658807014E+04  0.50400001928E-02 0.  1.
       -1   -1    0    0    0  501  0.00000000000E+00  0.00000000000E+00 -0.40890737703E+03  0.40890737706E+03  0.50400001928E-02 0. -1.
    10030    2    1    2    0    0  0.00000000000E+00  0.00000000000E+00  0.15569733244E+04  0.23747880785E+04  0.17931682813E+04 0.  0.
        4    1    3    3  502    0 -0.74274329830E+02  0.37962828220E+03  0.18496806092E+04  0.18896968745E+04  0.12699999809E+01 0.  1.
       -4    1    3    3    0  502  0.74274329830E+02 -0.37962828220E+03 -0.29270728477E+03  0.48509120398E+03  0.12699999809E+01 0. -1.
</event>
<event>
 5   0  0.9184414E-05  0.1801881E+04  0.7818609E-02  0.8705300E-01
        2   -1    0    0  501    0  0.00000000000E+00  0.00000000000E+00  0.13276228570E+04  0.13276228570E+04  0.25500000920E-02 0. -1.
       -2   -1    0    0    0  501  0.00000000000E+00  0.00000000000E+00 -0.61138910795E+03  0.61138910795E+03  0.25500000920E-02 0.  1.
    10030    2    1    2    0    0  0.00000000000E+00  0.00000000000E+00  0.71623374901E+03  0.19390119649E+04  0.18018814103E+04 0.  0.
        5    1    3    3  502    0 -0.18537791381E+03 -0.76105847278E+03  0.83707035860E+03  0.11464221933E+04  0.46999998093E+01 0. -1.
       -5    1    3    3    0  502  0.18537791381E+03  0.76105847278E+03 -0.12083660959E+03  0.79258977166E+03  0.46999998093E+01 0.  1.
</event>
<event>
 5   0  0.4578107E-05  0.1803734E+04  0.7818609E-02  0.8704316E-01
        1   -1    0    0  501    0  0.00000000000E+00  0.00000000000E+00  0.22483027047E+04  0.22483027047E+04  0.50400001928E-02 0.  1.
       -1   -1    0    0    0  501  0.00000000000E+00  0.00000000000E+00 -0.36176803968E+03  0.36176803971E+03  0.50400001928E-02 0. -1.
    10030    2    1    2    0    0  0.00000000000E+00  0.00000000000E+00  0.18865346651E+04  0.26100707445E+04  0.18037339739E+04 0.  0.
        2    1    3    3  502    0 -0.85357727410E+03  0.29094706947E+03  0.95909914327E+03  0.13164784566E+04  0.25500000920E-02 0. -1.
       -2    1    3    3    0  502  0.85357727410E+03 -0.29094706947E+03  0.92743552180E+03  0.12935922878E+04  0.25500000920E-02 0.  1.
</event>
<event>
 5   0  0.4535100E-05  0.1808513E+04  0.7818609E-02  0.8701786E-01
       -1   -1    0    0    0  501  0.00000000000E+00  0.00000000000E+00  0.60208564700E+03  0.60208564702E+03  0.50400001928E-02 0. -1.
        1   -1    0    0  501    0  0.00000000000E+00  0.00000000000E+00 -0.13580784053E+04  0.13580784053E+04  0.50400001928E-02 0.  1.
    10030    2    1    2    0    0  0.00000000000E+00  0.00000000000E+00 -0.75599275827E+03  0.19601640523E+04  0.18085126655E+04 0.  0.
        1    1    3    3  502    0 -0.27184771414E+03  0.70514333386E+03 -0.91617251823E+03  0.11876448897E+04  0.50400001928E-02 0. -1.
       -1    1    3    3    0  502  0.27184771414E+03 -0.70514333386E+03  0.16017975996E+03  0.77251916254E+03  0.50400001928E-02 0.  1.
</event>
<event>
 5   0  0.4623665E-05  0.1798055E+04  0.7818609E-02  0.8707335E-01
       -1   -1    0    0    0  501  0.00000000000E+00  0.00000000000E+00  0.73522252064E+03  0.73522252066E+03  0.50400001928E-02 0.  1.
        1   -1    0    0  501    0  0.00000000000E+00  0.00000000000E+00 -0.10993274947E+04  0.10993274948E+04  0.50400001928E-02 0. -1.
    10030    2    1    2    0    0  0.00000000000E+00  0.00000000000E+00 -0.36410497410E+03  0.18345500154E+04  0.17980548732E+04 0.  0.
        5    1    3    3  502    0 -0.87589716062E+03 -0.19323642660E+03 -0.24404834956E+03  0.92957938847E+03  0.46999998093E+01 0. -1.
       -5    1    3    3    0  502  0.87589716062E+03  0.19323642660E+03 -0.12005662453E+03  0.90497062695E+03  0.46999998093E+01 0.  1.
</event>
<event>
 5   0  0.4494757E-05  0.1793579E+04  0.7818609E-02  0.8709722E-01
       -1   -1    0    0    0  501  0.00000000000E+00  0.00000000000E+00  0.31655383995E+03  0.31655383999E+03  0.50400001928E-02 0.  1.
        1   -1    0    0  501    0  0.00000000000E+00  0.00000000000E+00 -0.25405824961E+04  0.25405824961E+04  0.50400001928E-02 0. -1.
    10030    2    1    2    0    0  0.00000000000E+00  0.00000000000E+00 -0.22240286562E+04  0.28571363361E+04  0.17935787074E+04 0.  0.
        4    1    3    3  502    0  0.25567071922E+03  0.32279677006E+03  0.15704681364E+03  0.44071599245E+03  0.12699999809E+01 0.  1.
       -4    1    3    3    0  502 -0.25567071922E+03 -0.32279677006E+03 -0.23810754698E+04  0.24164203437E+04  0.12699999809E+01 0. -1.
</event>
<event>
 5   0  0.8893075E-05  0.1796233E+04  0.7818609E-02  0.8708305E-01
        2   -1    0    0  501    0  0.00000000000E+00  0.00000000000E+00  0.55172063235E+03  0.55172063236E+03  0.25500000920E-02 0.  1.
       -2   -1    0    0    0  501  0.00000000000E+00  0.00000000000E+00 -0.14619951908E+04  0.14619951908E+04  0.25500000920E-02 0. -1.
    10030    2    1    2    0    0  0.00000000000E+00  0.00000000000E+00 -0.91027455845E+03  0.20137158232E+04  0.17962326254E+04 0.  0.
        1    1    3    3  502    0  0.20351288909E+03  0.28543039235E+03  0.47185539594E+03  0.58782269402E+03  0.50400001928E-02 0.  1.
       -1    1    3    3    0  502 -0.20351288909E+03 -0.28543039235E+03 -0.13821299544E+04  0.14258931291E+04  0.50400001928E-02 0. -1.
</event>
<event>
 5   0  0.4535100E-05  0.1803559E+04  0.7818609E-02  0.8704409E-01
        1   -1    0    0  501    0  0.00000000000E+00  0.00000000000E+00  0.20161702564E+04  0.20161702564E+04  0.50400001928E-02 0. -1.
       -1   -1    0    0    0  501  0.00000000000E+00  0.00000000000E+00 -0.40334208386E+03  0.40334208389E+03  0.50400001928E-02 0.  1.
    10030    2    1    2    0    0  0.00000000000E+00  0.00000000000E+00  0.16128281726E+04  0.24195123403E+04  0.18035590511E+04 0.  0.
        1    1    3    3  502    0 -0.43695715981E+03 -0.53621032376E+03  0.15825894806E+04  0.17271486719E+04  0.50400001928E-02 0. -1.
       -1    1    3    3    0  502  0.43695715981E+03  0.53621032376E+03  0.30238691985E+02  0.69236366841E+03  0.50400001928E-02 0.  1.
</event>
<event>
 5   0  0.9147432E-05  0.1802153E+04  0.7818609E-02  0.8705155E-01
        2   -1    0    0  501    0  0.00000000000E+00  0.00000000000E+00  0.11801456348E+04  0.11801456348E+04  0.25500000920E-02 0.  1.
       -2   -1    0    0    0  501  0.00000000000E+00  0.00000000000E+00 -0.68799895458E+03  0.68799895458E+03  0.25500000920E-02 0. -1.
    10030    2    1    2    0    0  0.00000000000E+00  0.00000000000E+00  0.49214668026E+03  0.18681445894E+04  0.18021531156E+04 0.  0.
        3    1    3    3  502    0  0.84817930373E+03  0.28713312037E+03  0.14196986994E+03  0.90664712776E+03  0.10100000352E+00 0. -1.
       -3    1    3    3    0  502 -0.84817930373E+03 -0.28713312037E+03  0.35017681032E+03  0.96149746166E+03  0.10100000352E+00 0.  1.
</event>
<event>
 5   0  0.8893075E-05  0.1786158E+04  0.7818609E-02  0.8713695E-01
        2   -1    0    0  501    0  0.00000000000E+00  0.00000000000E+00  0.77854665352E+03  0.77854665353E+03  0.25500000920E-02 0. -1.
       -2   -1    0    0    0  501  0.00000000000E+00  0.00000000000E+00 -0.10244601424E+04  0.10244601424E+04  0.25500000920E-02 0.  1.
    10030    2    1    2    0    0  0.00000000000E+00  0.00000000000E+00 -0.24591348886E+03  0.18030067959E+04  0.17861579051E+04 0.  0.
        1    1    3    3  502    0 -0.39785603837E+03 -0.11359659603E+03 -0.92187462417E+03  0.10104684244E+04  0.50400001928E-02 0.  1.
       -1    1    3    3    0  502  0.39785603837E+03  0.11359659603E+03  0.67596113532E+03  0.79253837155E+03  0.50400001928E-02 0. -1.
</event>
<event>
 5   0  0.8893075E-05  0.1783159E+04  0.7818609E-02  0.8715307E-01
        2   -1    0    0  501    0  0.00000000000E+00  0.00000000000E+00  0.16799230948E+04  0.16799230948E+04  0.25500000920E-02 0.  1.
       -2   -1    0    0    0  501  0.00000000000E+00  0.00000000000E+00 -0.47318459826E+03  0.47318459827E+03  0.25500000920E-02 0. -1.
    10030    2    1    2    0    0  0.00000000000E+00  0.00000000000E+00  0.12067384965E+04  0.21531076931E+04  0.17831586971E+04 0.  0.
        1    1    3    3  502    0 -0.40363490180E+02  0.50864284501E+03 -0.27946021946E+03  0.58176006171E+03  0.50400001928E-02 0. -1.
       -1    1    3    3    0  502  0.40363490180E+02 -0.50864284501E+03  0.14861987160E+04  0.15713476314E+04  0.50400001928E-02 0.  1.
</event>
<event>
 5   0  0.9184414E-05  0.1808340E+04  0.7818609E-02  0.8701877E-01
        2   -1    0    0  501    0  0.00000000000E+00  0.00000000000E+00  0.80821477320E+03  0.80821477320E+03  0.25500000920E-02 0. -1.
       -2   -1    0    0    0  501  0.00000000000E+00  0.00000000000E+00 -0.10115178093E+04  0.10115178093E+04  0.25500000920E-02 0.  1.
    10030    2    1    2    0    0  0.00000000000E+00  0.00000000000E+00 -0.20330303607E+03  0.18197325825E+04  0.18083402742E+04 0.  0.
        5    1    3    3  502    0 -0.71228200592E+03 -0.23324185937E+03  0.40725585245E+03  0.85301045731E+03  0.46999998093E+01 0. -1.
       -5    1    3    3    0  502  0.71228200592E+03  0.23324185937E+03 -0.61055888852E+03  0.96672212516E+03  0.46999998093E+01 0.  1.
</event>
<event>
 5   0  0.4623665E-05  0.1789858E+04  0.7818609E-02  0.8711711E-01
        1   -1    0    0  501    0  0.00000000000E+00  0.00000000000E+00  0.92145562945E+03  0.92145562947E+03  0.50400001928E-02 0. -1.
       -1   -1    0    0    0  501  0.00000000000E+00  0.00000000000E+00 -0.86916634073E+03  0.86916634074E+03  0.50400001928E-02 0.  1.
    10030    2    1    2    0    0  0.00000000000E+00  0.00000000000E+00  0.52289288729E+02  0.17906219702E+04  0.17898583381E+04 0.  0.
        5    1    3    3  502    0 -0.34198466576E+03  0.32939008464E+03 -0.73274658356E+03  0.87315003590E+03  0.46999998093E+01 0.  1.
       -5    1    3    3    0  502  0.34198466576E+03 -0.32939008464E+03  0.78503587229E+03  0.91747193431E+03  0.46999998093E+01 0. -1.
</event>
<event>
 5   0  0.9147432E-05  0.1804395E+04  0.7818609E-02  0.8703966E-01
        2   -1    0    0  501    0  0.00000000000E+00  0.00000000000E+00  0.11512760468E+04  0.11512760468E+04  0.25500000920E-02 0.  1.
       -2   -1    0    0    0  501  0.00000000000E+00  0.00000000000E+00 -0.70700742212E+03  0.70700742212E+03  0.25500000920E-02 0. -1.
    10030    2    1    2    0    0  0.00000000000E+00  0.00000000000E+00  0.44426862465E+03  0.18582834689E+04  0.18043954223E+04 0.  0.
        3    1    3    3  502    0  0.30253846827E+02 -0.51359117350E+03  0.98539517389E+03  0.11116181213E+04  0.10100000352E+00 0.  1.
       -3    1    3    3    0  502 -0.30253846827E+02  0.51359117350E+03 -0.54112654924E+03  0.74666534756E+03  0.10100000352E+00 0. -1.
</event>
<event>
 5   0  0.4578107E-05  0.1774800E+04  0.7818609E-02  0.8719816E-01
        1   -1    0    0  501    0  0.00000000000E+00  0.00000000000E+00  0.70322132841E+03  0.70322132843E+03  0.50400001928E-02 0.  1.
       -1   -1    0    0    0  501  0.00000000000E+00  0.00000000000E+00 -0.11198167443E+04  0.11198167443E+04  0.50400001928E-02 0. -1.
    10030    2    1    2    0    0  0.00000000000E+00  0.00000000000E+00 -0.41659541588E+03  0.18230380727E+04  0.17748002913E+04 0.  0.
        2    1    3    3  502    0 -0.81717050868E+02 -0.15566035604E+03  0.68515413435E+03  0.70734999164E+03  0.25500000920E-02 0.  1.
       -2    1    3    3    0  502  0.81717050868E+02  0.15566035604E+03 -0.11017495502E+04  0.11156880811E+04  0.25500000920E-02 0. -1.
</event>
<event>
 5   0  0.4535100E-05  0.1797607E+04  0.7818609E-02  0.8707573E-01
       -1   -1    0    0    0  501  0.00000000000E+00  0.00000000000E+00  0.76991657678E+03  0.76991657680E+03  0.50400001928E-02 0. -1.
        1   -1    0    0  501    0  0.00000000000E+00  0.00000000000E+00 -0.10492670689E+04  0.10492670689E+04  0.50400001928E-02 0.  1.
    10030    2    1    2    0    0  0.00000000000E+00  0.00000000000E+00 -0.27935049208E+03  0.18191836457E+04  0.17976074208E+04 0.  0.
        1    1    3    3  502    0  0.47336131029E+03  0.51134551142E+03 -0.71420672577E+03  0.99781581933E+03  0.50400001928E-02 0.  1.
       -1    1    3    3    0  502 -0.47336131029E+03 -0.51134551142E+03  0.43485623370E+03  0.82136782634E+03  0.50400001928E-02 0. -1.
</event>
<event>
 5   0  0.4335117E-05  0.1804412E+04  0.7818609E-02  0.8703957E-01
        1   -1    0    0  501    0  0.00000000000E+00  0.00000000000E+00  0.73935164792E+03  0.73935164794E+03  0.50400001928E-02 0. -1.
       -1   -1    0    0    0  501  0.00000000000E+00  0.00000000000E+00 -0.11009314063E+04  0.11009314063E+04  0.50400001928E-02 0.  1.
    10030    2    1    2    0    0  0.00000000000E+00  0.00000000000E+00 -0.36157975841E+03  0.18402830543E+04  0.18044117596E+04 0.  0.
        3    1    3    3  502    0 -0.86192114409E+02 -0.88384950436E+03 -0.34319244320E+03  0.95205046621E+03  0.10100000352E+00 0.  1.
       -3    1    3    3    0  502  0.86192114409E+02  0.88384950436E+03 -0.18387315211E+02  0.88823258807E+03  0.10100000352E+00 0. -1.
</event>
<event>
 5   0  0.4335117E-05  0.1800333E+04  0.7818609E-02  0.8706122E-01
        1   -1    0    0  501    0  0.00000000000E+00  0.00000000000E+00  0.12525531181E+04  0.12525531181E+04  0.50400001928E-02 0. -1.
       -1   -1    0    0    0  501  0.00000000000E+00  0.00000000000E+00 -0.64691850942E+03  0.64691850944E+03  0.50400001928E-02 0.  1.
    10030    2    1    2    0    0  0.00000000000E+00  0.00000000000E+00  0.60563460872E+03  0.18994716276E+04  0.18003330760E+04 0.  0.
        3    1    3    3  502    0 -0.32044543531E+03 -0.71707992689E+03  0.76681989910E+03  0.10976801294E+04  0.10100000352E+00 0. -1.
       -3    1    3    3    0  502  0.32044543531E+03  0.71707992689E+03 -0.16118529039E+03  0.80179149821E+03  0.10100000352E+00 0.  1.
</event>
<event>
 5   0  0.8802655E-05  0.1798452E+04  0.7818609E-02  0.8707123E-01
        2   -1    0    0  501    0  0.00000000000E+00  0.00000000000E+00  0.11664764750E+04  0.11664764750E+04  0.25500000920E-02 0. -1.
       -2   -1    0    0    0  501  0.00000000000E+00  0.00000000000E+00 -0.69320501488E+03  0.69320501489E+03  0.25500000920E-02 0.  1.
    10030    2    1    2    0    0  0.00000000000E+00  0.00000000000E+00  0.47327146010E+03  0.18596814899E+04  0.17984519368E+04 0.  0.
        2    1    3    3  502    0  0.72173833727E+03  0.49452093843E+03  0.21837391166E+02  0.87517658657E+03  0.25500000920E-02 0.  1.
       -2    1    3    3    0  502 -0.72173833727E+03 -0.49452093843E+03  0.45143406893E+03  0.98450490330E+03  0.25500000920E-02 0. -1.
</event>
<event>
 5   0  0.4623665E-05  0.1800450E+04  0.7818609E-02  0.8706060E-01
       -1   -1    0    0    0  501  0.00000000000E+00  0.00000000000E+00  0.15106801859E+04  0.15106801860E+04  0.50400001928E-02 0. -1.
        1   -1    0    0  501    0  0.00000000000E+00  0.00000000000E+00 -0.53645049591E+03  0.53645049594E+03  0.50400001928E-02 0.  1.
    10030    2    1    2    0    0  0.00000000000E+00  0.00000000000E+00  0.97422969003E+03  0.20471306819E+04  0.18004500937E+04 0.  0.
        5    1    3    3  502    0 -0.49681320522E+02  0.14004702021E+03 -0.52239531851E+03  0.54313935622E+03  0.46999998093E+01 0.  1.
       -5    1    3    3    0  502  0.49681320522E+02 -0.14004702021E+03  0.14966250085E+04  0.15039913257E+04  0.46999998093E+01 0. -1.
</event>
<event>
 5   0  0.9184414E-05  0.1757969E+04  0.7818609E-02  0.8728976E-01
        2   -1    0    0  501    0  0.00000000000E+00  0.00000000000E+00  0.14244618912E+04  0.14244618912E+04  0.25500000920E-02 0.  1.
       -2   -1    0    0    0  501  0.00000000000E+00  0.00000000000E+00 -0.54238997978E+03  0.54238997978E+03  0.25500000920E-02 0. -1.
    10030    2    1    2    0    0  0.00000000000E+00  0.00000000000E+00  0.88207191144E+03  0.19668518710E+04  0.17579691196E+04 0.  0.
        5    1    3    3  502    0  0.43592046188E+03 -0.23649374075E+03  0.12529603911E+04  0.13475488007E+04  0.46999998093E+01 0.  1.
       -5    1    3    3    0  502 -0.43592046188E+03  0.23649374075E+03 -0.37088847971E+03  0.61930307030E+03  0.46999998093E+01 0. -1.
</event>
<event>
 5   0  0.4578107E-05  0.1793273E+04  0.7818609E-02  0.8709885E-01
        1   -1    0    0  501    0  0.00000000000E+00  0.00000000000E+00  0.11176276789E+04  0.11176276789E+04  0.50400001928E-02 0.  1.
       -1   -1    0    0    0  501  0.00000000000E+00  0.00000000000E+00 -0.71934227164E+03  0.71934227166E+03  0.50400001928E-02 0. -1.
    10030    2    1    2    0    0  0.00000000000E+00  0.00000000000E+00  0.39828540722E+03  0.18369699505E+04  0.17932727995E+04 0.  0.
        2    1    3    3  502    0 -0.38194790278E+03  0.36994946739E+03 -0.54039798095E+03  0.75814034762E+03  0.25500000920E-02 0. -1.
       -2    1    3    3    0  502  0.38194790278E+03 -0.36994946739E+03  0.93868338818E+03  0.10788296029E+04  0.25500000920E-02 0.  1.
</event>
<event>
 5   0  0.3270375E-05  0.1771443E+04  0.7818609E-02  0.8721635E-01
       -4   -1    0    0    0  501  0.00000000000E+00  0.00000000000E+00  0.12559154000E+04  0.12559160422E+04  0.12699999809E+01 0.  1.
        4   -1    0    0  501    0  0.00000000000E+00  0.00000000000E+00 -0.62464443607E+03  0.62464572712E+03  0.12699999809E+01 0. -1.
    10030    2    1    2    0    0  0.00000000000E+00  0.00000000000E+00  0.63127096397E+03  0.18805617693E+04  0.17714427843E+04 0.  0.
        1    1    3    3  502    0  0.34641349756E+02  0.39170329532E+03 -0.52689620233E+03  0.65745806158E+03  0.50400001928E-02 0. -1.
       -1    1    3    3    0  502 -0.34641349756E+02 -0.39170329532E+03  0.11581671663E+04  0.12231037077E+04  0.50400001928E-02 0.  1.
</event>
<event>
 5   0  0.4535100E-05  0.1800190E+04  0.7818609E-02  0.8706198E-01
       -1   -1    0    0    0  501  0.00000000000E+00  0.00000000000E+00  0.12119460696E+04  0.12119460696E+04  0.50400001928E-02 0.  1.
        1   -1    0    0  501    0  0.00000000000E+00  0.00000000000E+00 -0.66848782899E+03  0.66848782901E+03  0.50400001928E-02 0. -1.
    10030    2    1    2    0    0  0.00000000000E+00  0.00000000000E+00  0.54345824064E+03  0.18804338986E+04  0.18001902088E+04 0.  0.
        1    1    3    3  502    0 -0.60413533399E+03 -0.37818716962E+03  0.84592832822E+03  0.11061644424E+04  0.50400001928E-02 0.  1.
       -1    1    3    3    0  502  0.60413533399E+03  0.37818716962E+03 -0.30247008757E+03  0.77426945629E+03  0.50400001928E-02 0. -1.
</event>
<event>
 5   0  0.4578107E-05  0.1803509E+04  0.7818609E-02  0.8704436E-01
       -1   -1    0    0    0  501  0.00000000000E+00  0.00000000000E+00  0.52290740554E+03  0.52290740556E+03  0.50400001928E-02 0.  1.
        1   -1    0    0  501    0  0.00000000000E+00  0.00000000000E+00 -0.15550761907E+04  0.15550761907E+04  0.50400001928E-02 0. -1.
    10030    2    1    2    0    0  0.00000000000E+00  0.00000000000E+00 -0.10321687852E+04  0.20779835963E+04  0.18035086430E+04 0.  0.
        2    1    3    3  502    0 -0.81551094759E+02 -0.28972688707E+03  0.46332312066E+03  0.55250390432E+03  0.25500000920E-02 0.  1.
       -2    1    3    3    0  502  0.81551094759E+02  0.28972688707E+03 -0.14954919058E+04  0.15254796920E+04  0.25500000920E-02 0. -1.
</event>
<event>
 5   0  0.8893075E-05  0.1804061E+04  0.7818609E-02  0.8704143E-01
       -2   -1    0    0    0  501  0.00000000000E+00  0.00000000000E+00  0.11296257018E+04  0.11296257018E+04  0.25500000920E-02 0. -1.
        2   -1    0    0  501    0  0.00000000000E+00  0.00000000000E+00 -0.72029091089E+03  0.72029091090E+03  0.25500000920E-02 0.  1.
    10030    2    1    2    0    0  0.00000000000E+00  0.00000000000E+00  0.40933479091E+03  0.18499166127E+04  0.18040611140E+04 0.  0.
        1    1    3    3  502    0  0.27681905195E+03  0.54472050739E+03  0.88509219743E+03  0.10755172787E+04  0.50400001928E-02 0. -1.
       -1    1    3    3    0  502 -0.27681905195E+03 -0.54472050739E+03 -0.47575740652E+03  0.77439933405E+03  0.50400001928E-02 0.  1.
</event>
<event>
 5   0  0.8893075E-05  0.1798085E+04  0.7818609E-02  0.8707318E-01
        2   -1    0    0  501    0  0.00000000000E+00  0.00000000000E+00  0.15252502220E+04  0.15252502220E+04  0.25500000920E-02 0.  1.
       -2   -1    0    0    0  501  0.00000000000E+00  0.00000000000E+00 -0.52993106641E+03  0.52993106641E+03  0.25500000920E-02 0. -1.
    10030    2    1    2    0    0  0.00000000000E+00  0.00000000000E+00  0.99531915557E+03  0.20551812884E+04  0.17980850666E+04 0.  0.
        1    1    3    3  502    0  0.55523397032E+03 -0.63660496725E+03  0.84944383979E+03  0.11979588821E+04  0.50400001928E-02 0.  1.
       -1    1    3    3    0  502 -0.55523397032E+03  0.63660496725E+03  0.14587531577E+03  0.85722240632E+03  0.50400001928E-02 0. -1.
</event>
<event>
 5   0  0.3270375E-05  0.1761032E+04  0.7818609E-02  0.8727301E-01
        3   -1    0    0  501    0  0.00000000000E+00  0.00000000000E+00  0.15688852349E+04  0.15688852381E+04  0.10100000352E+00 0. -1.
       -3   -1    0    0    0  501  0.00000000000E+00  0.00000000000E+00 -0.49417774805E+03  0.49417775837E+03  0.10100000352E+00 0.  1.
    10030    2    1    2    0    0  0.00000000000E+00  0.00000000000E+00  0.10747074868E+04  0.20630629965E+04  0.17610317275E+04 0.  0.
        1    1    3    3  502    0 -0.77018666828E+03 -0.38824385945E+03  0.74490381920E+03  0.11396501649E+04  0.50400001928E-02 0.  1.
       -1    1    3    3    0  502  0.77018666828E+03  0.38824385945E+03  0.32980366763E+03  0.92341283162E+03  0.50400001928E-02 0. -1.
</event>
<event>
 5   0  0.4494757E-05  0.1801098E+04  0.7818609E-02  0.8705716E-01
       -1   -1    0    0    0  501  0.00000000000E+00  0.00000000000E+00  0.88463665233E+03  0.88463665234E+03  0.50400001928E-02 0.  1.
        1   -1    0    0  501    0  0.00000000000E+00  0.00000000000E+00 -0.91674720370E+03  0.91674720372E+03  0.50400001928E-02 0. -1.
    10030    2    1    2    0    0  0.00000000000E+00  0.00000000000E+00 -0.32110551376E+02  0.18013838561E+04  0.18010976401E+04 0.  0.
        4    1    3    3  502    0  0.11392495956E+03 -0.86716698730E+03  0.19852271587E+03  0.89686697001E+03  0.12699999809E+01 0.  1.
       -4    1    3    3    0  502 -0.11392495956E+03  0.86716698730E+03 -0.23063326724E+03  0.90451688604E+03  0.12699999809E+01 0. -1.
</event>
<event>
 5   0  0.9184414E-05  0.1807061E+04  0.7818609E-02  0.8702553E-01
        2   -1    0    0  501    0  0.00000000000E+00  0.00000000000E+00  0.87527916147E+03  0.87527916147E+03  0.25500000920E-02 0.  1.
       -2   -1    0    0    0  501  0.00000000000E+00  0.00000000000E+00 -0.93269409807E+03  0.93269409807E+03  0.25500000920E-02 0. -1.
    10030    2    1    2    0    0  0.00000000000E+00  0.00000000000E+00 -0.57414936602E+02  0.18079732595E+04  0.18070613803E+04 0.  0.
        5    1    3    3  502    0 -0.19202657096E+03 -0.55231299281E+03  0.66042292449E+03  0.88210224758E+03  0.46999998093E+01 0.  1.
       -5    1    3    3    0  502  0.19202657096E+03  0.55231299281E+03 -0.71783786109E+03  0.92587101197E+03  0.46999998093E+01 0. -1.
</event>
<event>
 5   0  0.4623665E-05  0.1785670E+04  0.7818609E-02  0.8713957E-01
        1   -1    0    0  501    0  0.00000000000E+00  0.00000000000E+00  0.94958569177E+03  0.94958569178E+03  0.50400001928E-02 0.  1.
       -1   -1    0    0    0  501  0.00000000000E+00  0.00000000000E+00 -0.83947632118E+03  0.83947632120E+03  0.50400001928E-02 0. -1.
    10030    2    1    2    0    0  0.00000000000E+00  0.00000000000E+00  0.11010937059E+03  0.17890620130E+04  0.17856704099E+04 0.  0.
        5    1    3    3  502    0 -0.75394390633E+02  0.19215076022E+02  0.94617027655E+03  0.94937548710E+03  0.46999998093E+01 0.  1.
       -5    1    3    3    0  502  0.75394390633E+02 -0.19215076022E+02 -0.83606090596E+03  0.83968652588E+03  0.46999998093E+01 0. -1.
</event>
<event>
 5   0  0.4578107E-05  0.1791655E+04  0.7818609E-02  0.8710750E-01
        1   -1    0    0  501    0  0.00000000000E+00  0.00000000000E+00  0.12512834099E+04  0.12512834099E+04  0.50400001928E-02 0.  1.
       -1   -1    0    0    0  501  0.00000000000E+00  0.00000000000E+00 -0.64134685043E+03  0.64134685045E+03  0.50400001928E-02 0. -1.
    10030    2    1    2    0    0  0.00000000000E+00  0.00000000000E+00  0.60993655944E+03  0.18926302603E+04  0.17916547368E+04 0.  0.
        2    1    3    3  502    0  0.19237938221E+03  0.60109754536E+03  0.97654882804E+03  0.11627448986E+04  0.25500000920E-02 0.  1.
       -2    1    3    3    0  502 -0.19237938221E+03 -0.60109754536E+03 -0.36661226859E+03  0.72988536171E+03  0.25500000920E-02 0. -1.
</event>
<event>
 5   0  0.9184414E-05  0.1801297E+04  0.7818609E-02  0.8705610E-01
       -2   -1    0    0    0  501  0.00000000000E+00  0.00000000000E+00  0.51267505444E+03  0.51267505445E+03  0.25500000920E-02 0.  1.
        2   -1    0    0  501    0  0.00000000000E+00  0.00000000000E+00 -0.15822261787E+04  0.15822261787E+04  0.25500000920E-02 0. -1.
    10030    2    1    2    0    0  0.00000000000E+00  0.00000000000E+00 -0.10695511243E+04  0.20949012332E+04  0.18012971907E+04 0.  0.
        5    1    3    3  502    0  0.51760312088E+03 -0.53884700898E+03  0.50058419331E+02  0.74886382285E+03  0.46999998093E+01 0.  1.
       -5    1    3    3    0  502 -0.51760312088E+03  0.53884700898E+03 -0.11196095436E+04  0.13460374103E+04  0.46999998093E+01 0. -1.
</event>
<event>
 5   0  0.8893075E-05  0.1838553E+04  0.7818609E-02  0.8686062E-01
       -2   -1    0    0    0  501  0.00000000000E+00  0.00000000000E+00  0.39387903662E+03  0.39387903663E+03  0.25500000920E-02 0.  1.
        2   -1    0    0  501    0  0.00000000000E+00  0.00000000000E+00 -0.21455039238E+04  0.21455039238E+04  0.25500000920E-02 0. -1.
    10030    2    1    2    0    0  0.00000000000E+00  0.00000000000E+00 -0.17516248872E+04  0.25393829604E+04  0.18385527119E+04 0.  0.
        1    1    3    3  502    0  0.63969438083E+03  0.62578747060E+03 -0.11663548537E+04  0.14701028889E+04  0.50400001928E-02 0. -1.
       -1    1    3    3    0  502 -0.63969438083E+03 -0.62578747060E+03 -0.58527003347E+03  0.10692800715E+04  0.50400001928E-02 0.  1.
</event>
<event>
 5   0  0.4578107E-05  0.1796173E+04  0.7818609E-02  0.8708337E-01
       -1   -1    0    0    0  501  0.00000000000E+00  0.00000000000E+00  0.80028598872E+03  0.80028598874E+03  0.50400001928E-02 0. -1.
        1   -1    0    0  501    0  0.00000000000E+00  0.00000000000E+00 -0.10078392718E+04  0.10078392718E+04  0.50400001928E-02 0.  1.
    10030    2    1    2    0    0  0.00000000000E+00  0.00000000000E+00 -0.20755328307E+03  0.18081252605E+04  0.17961733192E+04 0.  0.
        2    1    3    3  502    0 -0.80871119323E+03 -0.34402131232E+03  0.82373250111E+02  0.88269462994E+03  0.25500000920E-02 0. -1.
       -2    1    3    3    0  502  0.80871119323E+03  0.34402131232E+03 -0.28992653318E+03  0.92543063059E+03  0.25500000920E-02 0.  1.
</event>
<event>
 5   0  0.4623665E-05  0.1792886E+04  0.7818609E-02  0.8710092E-01
        1   -1    0    0  501    0  0.00000000000E+00  0.00000000000E+00  0.75783455268E+03  0.75783455270E+03  0.50400001928E-02 0. -1.
       -1   -1    0    0    0  501  0.00000000000E+00  0.00000000000E+00 -0.10604027999E+04  0.10604027999E+04  0.50400001928E-02 0.  1.
    10030    2    1    2    0    0  0.00000000000E+00  0.00000000000E+00 -0.30256824724E+03  0.18182373526E+04  0.17928858096E+04 0.  0.
        5    1    3    3  502    0 -0.27860836222E+03  0.78314386872E+03 -0.49166502789E+03  0.96576059573E+03  0.46999998093E+01 0.  1.
       -5    1    3    3    0  502  0.27860836222E+03 -0.78314386872E+03  0.18909678065E+03  0.85247675691E+03  0.46999998093E+01 0. -1.
</event>
<event>
 5   0  0.4335117E-05  0.1799114E+04  0.7818609E-02  0.8706771E-01
        1   -1    0    0  501    0  0.00000000000E+00  0.00000000000E+00  0.93299850331E+03  0.93299850332E+03  0.50400001928E-02 0. -1.
       -1   -1    0    0    0  501  0.00000000000E+00  0.00000000000E+00 -0.86731432036E+03  0.86731432037E+03  0.50400001928E-02 0.  1.
    10030    2    1    2    0    0  0.00000000000E+00  0.00000000000E+00  0.65684182952E+02  0.18003128237E+04  0.17991141852E+04 0.  0.
        3    1    3    3  502    0 -0.70243818847E+03 -0.80025970061E+02  0.58943149682E+03  0.92046350506E+03  0.10100000352E+00 0. -1.
       -3    1    3    3    0  502  0.70243818847E+03  0.80025970061E+02 -0.52374731387E+03  0.87984931863E+03  0.10100000352E+00 0.  1.
</event>
<event>
 5   0  0.4335117E-05  0.1756052E+04  0.7818609E-02  0.8730026E-01
        1   -1    0    0  501    0  0.00000000000E+00  0.00000000000E+00  0.14157080941E+04  0.14157080941E+04  0.50400001928E-02 0.  1.
       -1   -1    0    0    0  501  0.00000000000E+00  0.00000000000E+00 -0.54455399571E+03  0.54455399573E+03  0.50400001928E-02 0. -1.
    10030    2    1    2    0    0  0.00000000000E+00  0.00000000000E+00  0.87115409843E+03  0.19602620899E+04  0.17560518209E+04 0.  0.
        3    1    3    3  502    0  0.59706447462E+03  0.64157810192E+03  0.37628703516E+03  0.95378215057E+03  0.10100000352E+00 0.  1.
       -3    1    3    3    0  502 -0.59706447462E+03 -0.64157810192E+03  0.49486706326E+03  0.10064799393E+04  0.10100000352E+00 0. -1.
</event>
<event>
 5   0  0.4623665E-05  0.1795219E+04  0.7818609E-02  0.8708846E-01
        1   -1    0    0  501    0  0.00000000000E+00  0.00000000000E+00  0.57200563305E+03  0.57200563307E+03  0.50400001928E-02 0.  1.
       -1   -1    0    0    0  501  0.00000000000E+00  0.00000000000E+00 -0.14085581975E+04  0.14085581975E+04  0.50400001928E-02 0. -1.
    10030    2    1    2    0    0  0.00000000000E+00  0.00000000000E+00 -0.83655256443E+03  0.19805638306E+04  0.17952194556E+04 0.  0.
        5    1    3    3  502    0  0.61314046584E+03  0.21816412220E+03 -0.11002772656E+04  0.12783461840E+04  0.46999998093E+01 0. -1.
       -5    1    3    3    0  502 -0.61314046584E+03 -0.21816412220E+03  0.26372470117E+03  0.70221764651E+03  0.46999998093E+01 0.  1.
</event>
<event>
 5   0  0.4494757E-05  0.1798506E+04  0.7818609E-02  0.8707094E-01
        1   -1    0    0  501    0  0.00000000000E+00  0.00000000000E+00  0.86787881877E+03  0.86787881878E+03  0.50400001928E-02 0. -1.
       -1   -1    0    0    0  501  0.00000000000E+00  0.00000000000E+00 -0.93176181178E+03  0.93176181179E+03  0.50400001928E-02 0.  1.
    10030    2    1    2    0    0  0.00000000000E+00  0.00000000000E+00 -0.63882993015E+02  0.17996406306E+04  0.17985064255E+04 0.  0.
        4    1    3    3  502    0  0.75100105155E+03  0.27398078429E+03 -0.44401022974E+03  0.91444778233E+03  0.12699999809E+01 0.  1.
       -4    1    3    3    0  502 -0.75100105155E+03 -0.27398078429E+03  0.38012723672E+03  0.88519284825E+03  0.12699999809E+01 0. -1.
</event>
<event>
 5   0  0.4623665E-05  0.1798932E+04  0.7818609E-02  0.8706868E-01
        1   -1    0    0  501    0  0.00000000000E+00  0.00000000000E+00  0.13642011770E+04  0.13642011770E+04  0.50400001928E-02 0.  1.
       -1   -1    0    0    0  501  0.00000000000E+00  0.00000000000E+00 -0.59304963796E+03  0.59304963798E+03  0.50400001928E-02 0. -1.
    10030    2    1    2    0    0  0.00000000000E+00  0.00000000000E+00  0.77115153906E+03  0.19572508150E+04  0.17989319211E+04 0.  0.
        5    1    3    3  502    0 -0.80787887771E+03 -0.26080235136E+03  0.62214665544E+02  0.85122200520E+03  0.46999998093E+01 0. -1.
       -5    1    3    3    0  502  0.80787887771E+03  0.26080235136E+03  0.70893687352E+03  0.11060288098E+04  0.46999998093E+01 0.  1.
</event>
<event>
 5   0  0.8892280E-05  0.1807085E+04  0.7818609E-02  0.8702541E-01
       -2   -1    0    0    0  501  0.00000000000E+00  0.00000000000E+00  0.75317636660E+03  0.75317636661E+03  0.25500000920E-02 0. -1.
        2   -1    0    0  501    0  0.00000000000E+00  0.00000000000E+00 -0.10839286846E+04  0.10839286846E+04  0.25500000920E-02 0.  1.
    10030    2    1    2    0    0  0.00000000000E+00  0.00000000000E+00 -0.33075231798E+03  0.18371050512E+04  0.18070854637E+04 0.  0.
        4    1    3    3  502    0 -0.46180492671E+03  0.60208996455E+03 -0.66404669128E+03  0.10083331477E+04  0.12699999809E+01 0.  1.
       -4    1    3    3    0  502  0.46180492671E+03 -0.60208996455E+03  0.33329437330E+03  0.82877190344E+03  0.12699999809E+01 0. -1.
</event>
<event>
 5   0  0.4623665E-05  0.1802741E+04  0.7818609E-02  0.8704843E-01
        1   -1    0    0  501    0  0.00000000000E+00  0.00000000000E+00  0.85319683181E+03  0.85319683182E+03  0.50400001928E-02 0. -1.
       -1   -1    0    0    0  501  0.00000000000E+00  0.00000000000E+00 -0.95226468145E+03  0.95226468146E+03  0.50400001928E-02 0.  1.
    10030    2    1    2    0    0  0.00000000000E+00  0.00000000000E+00 -0.99067849641E+02  0.18054615133E+04  0.18027414782E+04 0.  0.
        5    1    3    3  502    0  0.26282168179E+03 -0.70752197064E+03  0.44394124082E+03  0.87565317944E+03  0.46999998093E+01 0. -1.
       -5    1    3    3    0  502 -0.26282168179E+03  0.70752197064E+03 -0.54300909046E+03  0.92980833384E+03  0.46999998093E+01 0.  1.
</event>
<event>
 5   0  0.9147432E-05  0.1820054E+04  0.7818609E-02  0.8695707E-01
       -2   -1    0    0    0  501  0.00000000000E+00  0.00000000000E+00  0.48606603573E+03  0.48606603574E+03  0.25500000920E-02 0.  1.
        2   -1    0    0  501    0  0.00000000000E+00  0.00000000000E+00 -0.17037797772E+04  0.17037797772E+04  0.25500000920E-02 0. -1.
    10030    2    1    2    0    0  0.00000000000E+00  0.00000000000E+00 -0.12177137415E+04  0.21898458130E+04  0.18200543751E+04 0.  0.
        3    1    3    3  502    0  0.15710310892E+03 -0.79009551834E+03 -0.99503756255E+02  0.81168548259E+03  0.10100000352E+00 0.  1.
       -3    1    3    3    0  502 -0.15710310892E+03  0.79009551834E+03 -0.11182099852E+04  0.13781603304E+04  0.10100000352E+00 0. -1.
</event>
<event>
 5   0  0.9147432E-05  0.1786730E+04  0.7818609E-02  0.8713388E-01
        2   -1    0    0  501    0  0.00000000000E+00  0.00000000000E+00  0.79262996297E+03  0.79262996297E+03  0.25500000920E-02 0.  1.
       -2   -1    0    0    0  501  0.00000000000E+00  0.00000000000E+00 -0.10069023151E+04  0.10069023151E+04  0.25500000920E-02 0. -1.
    10030    2    1    2    0    0  0.00000000000E+00  0.00000000000E+00 -0.21427235217E+03  0.17995322781E+04  0.17867299122E+04 0.  0.
        3    1    3    3  502    0 -0.30110258466E+03 -0.35250609133E+01 -0.95424881675E+03  0.10006328033E+04  0.10100000352E+00 0. -1.
       -3    1    3    3    0  502  0.30110258466E+03  0.35250609133E+01  0.73997646458E+03  0.79889947483E+03  0.10100000352E+00 0.  1.
</event>
<event>
 5   0  0.3270375E-05  0.1783224E+04  0.7818609E-02  0.8715272E-01
       -4   -1    0    0    0  501  0.00000000000E+00  0.00000000000E+00  0.74864221632E+03  0.74864329354E+03  0.12699999809E+01 0. -1.
        4   -1    0    0  501    0  0.00000000000E+00  0.00000000000E+00 -0.10618828346E+04  0.10618835941E+04  0.12699999809E+01 0.  1.
    10030    2    1    2    0    0  0.00000000000E+00  0.00000000000E+00 -0.31324061830E+03  0.18105268876E+04  0.17832240257E+04 0.  0.
        3    1    3    3  502    0  0.18034595939E+03  0.85170038989E+03 -0.35206108025E+03  0.93907679859E+03  0.10100000352E+00 0.  1.
       -3    1    3    3    0  502 -0.18034595939E+03 -0.85170038989E+03  0.38820461942E+02  0.87145008904E+03  0.10100000352E+00 0. -1.
</event>
<event>
 5   0  0.9184414E-05  0.1802091E+04  0.7818609E-02  0.8705188E-01
        2   -1    0    0  501    0  0.00000000000E+00  0.00000000000E+00  0.10315569327E+04  0.10315569327E+04  0.25500000920E-02 0. -1.
       -2   -1    0    0    0  501  0.00000000000E+00  0.00000000000E+00 -0.78704644573E+03  0.78704644573E+03  0.25500000920E-02 0.  1.
    10030    2    1    2    0    0  0.00000000000E+00  0.00000000000E+00  0.24451048692E+03  0.18186033784E+04  0.18020912490E+04 0.  0.
        5    1    3    3  502    0  0.24299412696E+03 -0.84233705326E+03 -0.87697352898E+02  0.88107364773E+03  0.46999998093E+01 0.  1.
       -5    1    3    3    0  502 -0.24299412696E+03  0.84233705326E+03  0.33220783982E+03  0.93752973065E+03  0.46999998093E+01 0. -1.
</event>
<event>
 5   0  0.4623665E-05  0.1802203E+04  0.7818609E-02  0.8705129E-01
        1   -1    0    0  501    0  0.00000000000E+00  0.00000000000E+00  0.12798454358E+04  0.12798454358E+04  0.50400001928E-02 0.  1.
       -1   -1    0    0    0  501  0.00000000000E+00  0.00000000000E+00 -0.63443911015E+03  0.63443911017E+03  0.50400001928E-02 0. -1.
    10030    2    1    2    0    0  0.00000000000E+00  0.00000000000E+00  0.64540632561E+03  0.19142845459E+04  0.18022030956E+04 0.  0.
        5    1    3    3  502    0 -0.41341604580E+03 -0.67317889027E+03  0.78311044831E+03  0.11123698618E+04  0.46999998093E+01 0.  1.
       -5    1    3    3    0  502  0.41341604580E+03  0.67317889027E+03 -0.13770412270E+03  0.80191468413E+03  0.46999998093E+01 0. -1.
</event>
<event>
 5   0  0.4578107E-05  0.1801337E+04  0.7818609E-02  0.8705589E-01
        1   -1    0    0  501    0  0.00000000000E+00  0.00000000000E+00  0.19620635195E+04  0.19620635195E+04  0.50400001928E-02 0.  1.
       -1   -1    0    0    0  501  0.00000000000E+00  0.00000000000E+00 -0.41344402166E+03  0.41344402169E+03  0.50400001928E-02 0. -1.
    10030    2    1    2    0    0  0.00000000000E+00  0.00000000000E+00  0.15486194979E+04  0.23755075412E+04  0.18013366507E+04 0.  0.
        2    1    3    3  502    0  0.50324361860E+03 -0.30370946966E+02 -0.20992707976E+03  0.54611895490E+03  0.25500000920E-02 0. -1.
       -2    1    3    3    0  502 -0.50324361860E+03  0.30370946966E+02  0.17585465776E+04  0.18293885863E+04  0.25500000920E-02 0.  1.
</event>
<event>
 5   0  0.9184414E-05  0.1800346E+04  0.7818609E-02  0.8706115E-01
        2   -1    0    0  501    0  0.00000000000E+00  0.00000000000E+00  0.10706139809E+04  0.10706139809E+04  0.25500000920E-02 0.  1.
       -2   -1    0    0    0  501  0.00000000000E+00  0.00000000000E+00 -0.75686620938E+03  0.75686620938E+03  0.25500000920E-02 0. -1.
    10030    2    1    2    0    0  0.00000000000E+00  0.00000000000E+00  0.31374777155E+03  0.18274801903E+04  0.18003461283E+04 0.  0.
        5    1    3    3  502    0 -0.66555987832E+03 -0.60505213515E+03  0.12125344052E+03  0.90762466070E+03  0.46999998093E+01 0. -1.
       -5    1    3    3    0  502  0.66555987832E+03  0.60505213515E+03  0.19249433103E+03  0.91985552961E+03  0.46999998093E+01 0.  1.
</event>
<event>
 5   0  0.8893075E-05  0.1800183E+04  0.7818609E-02  0.8706202E-01
       -2   -1    0    0    0  501  0.00000000000E+00  0.00000000000E+00  0.93931305292E+03  0.93931305292E+03  0.25500000920E-02 0. -1.
        2   -1    0    0  501    0  0.00000000000E+00  0.00000000000E+00 -0.86250723679E+03  0.86250723679E+03  0.25500000920E-02 0.  1.
    10030    2    1    2    0    0  0.00000000000E+00  0.00000000000E+00  0.76805816132E+02  0.18018202897E+04  0.18001825527E+04 0.  0.
        1    1    3    3  502    0 -0.49474137386E+03  0.29827684018E+03  0.72926719881E+03  0.93035947229E+03  0.50400001928E-02 0.  1.
       -1    1    3    3    0  502  0.49474137386E+03 -0.29827684018E+03 -0.65246138268E+03  0.87146081743E+03  0.50400001928E-02 0. -1.
</event>
<event>
 5   0  0.4578107E-05  0.1795148E+04  0.7818609E-02  0.8708884E-01
        1   -1    0    0  501    0  0.00000000000E+00  0.00000000000E+00  0.13959704062E+04  0.13959704062E+04  0.50400001928E-02 0. -1.
       -1   -1    0    0    0  501  0.00000000000E+00  0.00000000000E+00 -0.57711771177E+03  0.57711771179E+03  0.50400001928E-02 0.  1.
    10030    2    1    2    0    0  0.00000000000E+00  0.00000000000E+00  0.81885269447E+03  0.19730881180E+04  0.17951481795E+04 0.  0.
        2    1    3    3  502    0 -0.54377608263E+03 -0.48322698542E+03 -0.16846400151E+03  0.74671337693E+03  0.25500000920E-02 0.  1.
       -2    1    3    3    0  502  0.54377608263E+03  0.48322698542E+03  0.98731669598E+03  0.12263747411E+04  0.25500000920E-02 0. -1.
</event>
<event>
 5   0  0.8893075E-05  0.1800793E+04  0.7818609E-02  0.8705878E-01
       -2   -1    0    0    0  501  0.00000000000E+00  0.00000000000E+00  0.11639495684E+04  0.11639495684E+04  0.25500000920E-02 0.  1.
        2   -1    0    0  501    0  0.00000000000E+00  0.00000000000E+00 -0.69652004442E+03  0.69652004442E+03  0.25500000920E-02 0. -1.
    10030    2    1    2    0    0  0.00000000000E+00  0.00000000000E+00  0.46742952399E+03  0.18604696128E+04  0.18007933864E+04 0.  0.
        1    1    3    3  502    0 -0.44169495606E+03 -0.76175038886E+03  0.42797815449E+03  0.97904207768E+03  0.50400001928E-02 0.  1.
       -1    1    3    3    0  502  0.44169495606E+03  0.76175038886E+03  0.39451369496E+02  0.88142753514E+03  0.50400001928E-02 0. -1.
</event>
<event>
 5   0  0.4494757E-05  0.1805422E+04  0.7818609E-02  0.8703422E-01
        1   -1    0    0  501    0  0.00000000000E+00  0.00000000000E+00  0.20536942864E+04  0.20536942864E+04  0.50400001928E-02 0. -1.
       -1   -1    0    0    0  501  0.00000000000E+00  0.00000000000E+00 -0.39679071765E+03  0.39679071768E+03  0.50400001928E-02 0.  1.
    10030    2    1    2    0    0  0.00000000000E+00  0.00000000000E+00  0.16569035687E+04  0.24504850040E+04  0.18054216458E+04 0.  0.
        4    1    3    3  502    0  0.69097652194E+03  0.32049971406E+03  0.17087676953E+03  0.78062097324E+03  0.12699999809E+01 0.  1.
       -4    1    3    3    0  502 -0.69097652194E+03 -0.32049971406E+03  0.14860267992E+04  0.16698640308E+04  0.12699999809E+01 0. -1.
</event>
<event>
 5   0  0.9147432E-05  0.1800892E+04  0.7818609E-02  0.8705825E-01
       -2   -1    0    0    0  501  0.00000000000E+00  0.00000000000E+00  0.40558718156E+03  0.40558718157E+03  0.25500000920E-02 0. -1.
        2   -1    0    0  501    0  0.00000000000E+00  0.00000000000E+00 -0.19990850100E+04  0.19990850100E+04  0.25500000920E-02 0.  1.
    10030    2    1    2    0    0  0.00000000000E+00  0.00000000000E+00 -0.15934978284E+04  0.24046721916E+04  0.18008922843E+04 0.  0.
        3    1    3    3  502    0  0.79533227110E+03 -0.29233553402E+02 -0.23435695392E+03  0.82965728717E+03  0.10100000352E+00 0. -1.
       -3    1    3    3    0  502 -0.79533227110E+03  0.29233553402E+02 -0.13591408745E+04  0.15750149044E+04  0.10100000352E+00 0.  1.
</event>
<event>
 5   0  0.4494757E-05  0.1801056E+04  0.7818609E-02  0.8705738E-01
        1   -1    0    0  501    0  0.00000000000E+00  0.00000000000E+00  0.12916010081E+04  0.12916010081E+04  0.50400001928E-02 0.  1.
       -1   -1    0    0    0  501  0.00000000000E+00  0.00000000000E+00 -0.62786473646E+03  0.62786473648E+03  0.50400001928E-02 0. -1.
    10030    2    1    2    0    0  0.00000000000E+00  0.00000000000E+00  0.66373627167E+03  0.19194657446E+04  0.18010560531E+04 0.  0.
        4    1    3    3  502    0  0.86644755102E+02  0.63345718238E+03 -0.34399696712E+03  0.72602399532E+03  0.12699999809E+01 0. -1.
       -4    1    3    3    0  502 -0.86644755102E+02 -0.63345718238E+03  0.10077332388E+04  0.11934417493E+04  0.12699999809E+01 0.  1.
</event>
<event>
 5   0  0.9147432E-05  0.1817847E+04  0.7818609E-02  0.8696866E-01
        2   -1    0    0  501    0  0.00000000000E+00  0.00000000000E+00  0.14583822192E+04  0.14583822192E+04  0.25500000920E-02 0. -1.
       -2   -1    0    0    0  501  0.00000000000E+00  0.00000000000E+00 -0.56647829894E+03  0.56647829894E+03  0.25500000920E-02 0.  1.
    10030    2    1    2    0    0  0.00000000000E+00  0.00000000000E+00  0.89190392027E+03  0.20248605182E+04  0.18178469449E+04 0.  0.
        3    1    3    3  502    0 -0.67140517880E+03 -0.33776833846E+03 -0.12340175398E+03  0.76164320234E+03  0.10100000352E+00 0.  1.
       -3    1    3    3    0  502  0.67140517880E+03  0.33776833846E+03  0.10153056743E+04  0.12632173158E+04  0.10100000352E+00 0. -1.
</event>
<event>
 5   0  0.8892280E-05  0.1801281E+04  0.7818609E-02  0.8705619E-01
       -2   -1    0    0    0  501  0.00000000000E+00  0.00000000000E+00  0.43574809700E+03  0.43574809701E+03  0.25500000920E-02 0.  1.
        2   -1    0    0  501    0  0.00000000000E+00  0.00000000000E+00 -0.18615186071E+04  0.18615186071E+04  0.25500000920E-02 0. -1.
    10030    2    1    2    0    0  0.00000000000E+00  0.00000000000E+00 -0.14257705101E+04  0.22972667041E+04  0.18012808671E+04 0.  0.
        4    1    3    3  502    0 -0.23357537334E+03  0.28299945955E+03  0.33609092153E+03  0.49759910527E+03  0.12699999809E+01 0.  1.
       -4    1    3    3    0  502  0.23357537334E+03 -0.28299945955E+03 -0.17618614316E+04  0.17996675988E+04  0.12699999809E+01 0. -1.
</event>
<event>
 5   0  0.8802655E-05  0.1801657E+04  0.7818609E-02  0.8705419E-01
       -2   -1    0    0    0  501  0.00000000000E+00  0.00000000000E+00  0.40744234300E+03  0.40744234301E+03  0.25500000920E-02 0.  1.
        2   -1    0    0  501    0  0.00000000000E+00  0.00000000000E+00 -0.19916735776E+04  0.19916735776E+04  0.25500000920E-02 0. -1.
    10030    2    1    2    0    0  0.00000000000E+00  0.00000000000E+00 -0.15842312346E+04  0.23991159206E+04  0.18016571804E+04 0.  0.
        2    1    3    3  502    0  0.18978080256E+03 -0.43153742397E+01  0.38050593683E+03  0.42522951855E+03  0.25500000920E-02 0.  1.
       -2    1    3    3    0  502 -0.18978080256E+03  0.43153742397E+01 -0.19647371714E+04  0.19738864020E+04  0.25500000920E-02 0. -1.
</event>
<event>
 5   0  0.8802655E-05  0.1799406E+04  0.7818609E-02  0.8706615E-01
        2   -1    0    0  501    0  0.00000000000E+00  0.00000000000E+00  0.11563829946E+04  0.11563829946E+04  0.25500000920E-02 0. -1.
       -2   -1    0    0    0  501  0.00000000000E+00  0.00000000000E+00 -0.69999795793E+03  0.69999795793E+03  0.25500000920E-02 0.  1.
    10030    2    1    2    0    0  0.00000000000E+00  0.00000000000E+00  0.45638503666E+03  0.18563809525E+04  0.17994062741E+04 0.  0.
        2    1    3    3  502    0  0.59291636604E+03 -0.20035864381E+03 -0.43862608907E+03  0.76425535607E+03  0.25500000920E-02 0.  1.
       -2    1    3    3    0  502 -0.59291636604E+03  0.20035864381E+03  0.89501112573E+03  0.10921255965E+04  0.25500000920E-02 0. -1.
</event>
<event>
 5   0  0.4494757E-05  0.1788418E+04  0.7818609E-02  0.8712483E-01
       -1   -1    0    0    0  501  0.00000000000E+00  0.00000000000E+00  0.93201925425E+03  0.93201925426E+03  0.50400001928E-02 0.  1.
        1   -1    0    0  501    0  0.00000000000E+00  0.00000000000E+00 -0.85793217724E+03  0.85793217726E+03  0.50400001928E-02 0. -1.
    10030    2    1    2    0    0  0.00000000000E+00  0.00000000000E+00  0.74087077004E+02  0.17899514315E+04  0.17884175218E+04 0.  0.
        4    1    3    3  502    0  0.42461177143E+03 -0.37457882474E+03 -0.65565067163E+03  0.86630472034E+03  0.12699999809E+01 0. -1.
       -4    1    3    3    0  502 -0.42461177143E+03  0.37457882474E+03  0.72973774863E+03  0.92364671117E+03  0.12699999809E+01 0.  1.
</event>
<event>
 5   0  0.8802655E-05  0.1803155E+04  0.7818609E-02  0.8704623E-01
        2   -1    0    0  501    0  0.00000000000E+00  0.00000000000E+00  0.14508823081E+04  0.14508823081E+04  0.25500000920E-02 0.  1.
       -2   -1    0    0    0  501  0.00000000000E+00  0.00000000000E+00 -0.56023982940E+03  0.56023982940E+03  0.25500000920E-02 0. -1.
    10030    2    1    2    0    0  0.00000000000E+00  0.00000000000E+00  0.89064247871E+03  0.20111221375E+04  0.18031550757E+04 0.  0.
        2    1    3    3  502    0  0.78790609754E+03 -0.31339108735E+03  0.10367157060E+03  0.85425861817E+03  0.25500000920E-02 0.  1.
       -2    1    3    3    0  502 -0.78790609754E+03  0.31339108735E+03  0.78697090811E+03  0.11568635193E+04  0.25500000920E-02 0. -1.
</event>
<event>
 5   0  0.9184414E-05  0.1798565E+04  0.7818609E-02  0.8707063E-01
        2   -1    0    0  501    0  0.00000000000E+00  0.00000000000E+00  0.10245473599E+04  0.10245473599E+04  0.25500000920E-02 0.  1.
       -2   -1    0    0    0  501  0.00000000000E+00  0.00000000000E+00 -0.78933281478E+03  0.78933281478E+03  0.25500000920E-02 0. -1.
    10030    2    1    2    0    0  0.00000000000E+00  0.00000000000E+00  0.23521454514E+03  0.18138801747E+04  0.17985648184E+04 0.  0.
        5    1    3    3  502    0  0.71448093700E+03 -0.30320185058E+03 -0.34043235239E+03  0.84754389154E+03  0.46999998093E+01 0. -1.
       -5    1    3    3    0  502 -0.71448093700E+03  0.30320185058E+03  0.57564689753E+03  0.96633628317E+03  0.46999998093E+01 0.  1.
</event>
<event>
 5   0  0.9184414E-05  0.1797973E+04  0.7818609E-02  0.8707378E-01
       -2   -1    0    0    0  501  0.00000000000E+00  0.00000000000E+00  0.11276214429E+04  0.11276214429E+04  0.25500000920E-02 0.  1.
        2   -1    0    0  501    0  0.00000000000E+00  0.00000000000E+00 -0.71670888540E+03  0.71670888540E+03  0.25500000920E-02 0. -1.
    10030    2    1    2    0    0  0.00000000000E+00  0.00000000000E+00  0.41091255747E+03  0.18443303283E+04  0.17979725331E+04 0.  0.
        5    1    3    3  502    0 -0.68092869864E+02 -0.82476815918E+03  0.56561444796E+03  0.10024075763E+04  0.46999998093E+01 0.  1.
       -5    1    3    3    0  502  0.68092869864E+02  0.82476815918E+03 -0.15470189049E+03  0.84192275195E+03  0.46999998093E+01 0. -1.
</event>
<event>
 5   0  0.9147432E-05  0.1800343E+04  0.7818609E-02  0.8706117E-01
        2   -1    0    0  501    0  0.00000000000E+00  0.00000000000E+00  0.17076517321E+04  0.17076517321E+04  0.25500000920E-02 0. -1.
       -2   -1    0    0    0  501  0.00000000000E+00  0.00000000000E+00 -0.47451636745E+03  0.47451636746E+03  0.25500000920E-02 0.  1.
    10030    2    1    2    0    0  0.00000000000E+00  0.00000000000E+00  0.12331353646E+04  0.21821680995E+04  0.18003429637E+04 0.  0.
        3    1    3    3  502    0 -0.35727050108E+03 -0.44019710610E+03  0.14640679794E+04  0.15700034273E+04  0.10100000352E+00 0. -1.
       -3    1    3    3    0  502  0.35727050108E+03  0.44019710610E+03 -0.23093261479E+03  0.61216467224E+03  0.10100000352E+00 0.  1.
</event>
<event>
 5   0  0.4623665E-05  0.1795482E+04  0.7818609E-02  0.8708706E-01
        1   -1    0    0  501    0  0.00000000000E+00  0.00000000000E+00  0.14151593758E+04  0.14151593758E+04  0.50400001928E-02 0. -1.
       -1   -1    0    0    0  501  0.00000000000E+00  0.00000000000E+00 -0.56950395293E+03  0.56950395295E+03  0.50400001928E-02 0.  1.
    10030    2    1    2    0    0  0.00000000000E+00  0.00000000000E+00  0.84565542285E+03  0.19846633287E+04  0.17954819504E+04 0.  0.
        5    1    3    3  502    0 -0.50550918941E+03  0.28436523898E+03 -0.33458032320E+03  0.66960377269E+03  0.46999998093E+01 0.  1.
       -5    1    3    3    0  502  0.50550918941E+03 -0.28436523898E+03  0.11802357460E+04  0.13150595561E+04  0.46999998093E+01 0. -1.
</event>
<event>
 5   0  0.4535100E-05  0.1811801E+04  0.7818609E-02  0.8700049E-01
        1   -1    0    0  501    0  0.00000000000E+00  0.00000000000E+00  0.13515025052E+04  0.13515025052E+04  0.50400001928E-02 0. -1.
       -1   -1    0    0    0  501  0.00000000000E+00  0.00000000000E+00 -0.60721701555E+03  0.60721701557E+03  0.50400001928E-02 0.  1.
    10030    2    1    2    0    0  0.00000000000E+00  0.00000000000E+00  0.74428548964E+03  0.19587195208E+04  0.18118005605E+04 0.  0.
        1    1    3    3  502    0  0.18135227917E+03 -0.61985053729E+03 -0.31462770965E+03  0.71839677995E+03  0.50400001928E-02 0.  1.
       -1    1    3    3    0  502 -0.18135227917E+03  0.61985053729E+03  0.10589131993E+04  0.12403227408E+04  0.50400001928E-02 0. -1.
</event>
<event>
 5   0  0.9147432E-05  0.1799432E+04  0.7818609E-02  0.8706602E-01
       -2   -1    0    0    0  501  0.00000000000E+00  0.00000000000E+00  0.11352798541E+04  0.11352798541E+04  0.25500000920E-02 0.  1.
        2   -1    0    0  501    0  0.00000000000E+00  0.00000000000E+00 -0.71303006996E+03  0.71303006997E+03  0.25500000920E-02 0. -1.
    10030    2    1    2    0    0  0.00000000000E+00  0.00000000000E+00  0.42224978418E+03  0.18483099241E+04  0.17994317701E+04 0.  0.
        3    1    3    3  502    0  0.38126399056E+03 -0.71701670914E+02 -0.62270464646E+03  0.73366507824E+03  0.10100000352E+00 0. -1.
       -3    1    3    3    0  502 -0.38126399056E+03  0.71701670914E+02  0.10449544306E+04  0.11146448459E+04  0.10100000352E+00 0.  1.
</event>
<event>
 5   0  0.4578107E-05  0.1789912E+04  0.7818609E-02  0.8711682E-01
        1   -1    0    0  501    0  0.00000000000E+00  0.00000000000E+00  0.69653470025E+03  0.69653470026E+03  0.50400001928E-02 0. -1.
       -1   -1    0    0    0  501  0.00000000000E+00  0.00000000000E+00 -0.11499018644E+04  0.11499018644E+04  0.50400001928E-02 0.  1.
    10030    2    1    2    0    0  0.00000000000E+00  0.00000000000E+00 -0.45336716413E+03  0.18464365646E+04  0.17899123447E+04 0.  0.
        2    1    3    3  502    0 -0.69569585892E+03 -0.22293555283E+03  0.30660757128E+03  0.79227595672E+03  0.25500000920E-02 0. -1.
       -2    1    3    3    0  502  0.69569585892E+03  0.22293555283E+03 -0.75997473541E+03  0.10541606079E+04  0.25500000920E-02 0.  1.
</event>
<event>
 5   0  0.8892280E-05  0.1797274E+04  0.7818609E-02  0.8707751E-01
        2   -1    0    0  501    0  0.00000000000E+00  0.00000000000E+00  0.11201999592E+04  0.11201999592E+04  0.25500000920E-02 0.  1.
       -2   -1    0    0    0  501  0.00000000000E+00  0.00000000000E+00 -0.72089649168E+03  0.72089649169E+03  0.25500000920E-02 0. -1.
    10030    2    1    2    0    0  0.00000000000E+00  0.00000000000E+00  0.39930346756E+03  0.18410964509E+04  0.17972737361E+04 0.  0.
        4    1    3    3  502    0  0.60552485557E+03 -0.14332982241E+03 -0.46449513452E+03  0.77650571898E+03  0.12699999809E+01 0. -1.
       -4    1    3    3    0  502 -0.60552485557E+03  0.14332982241E+03  0.86379860208E+03  0.10645907320E+04  0.12699999809E+01 0.  1.
</event>
<event>
 5   0  0.4494757E-05  0.1804276E+04  0.7818609E-02  0.8704029E-01
        1   -1    0    0  501    0  0.00000000000E+00  0.00000000000E+00  0.21907941513E+04  0.21907941514E+04  0.50400001928E-02 0.  1.
       -1   -1    0    0    0  501  0.00000000000E+00  0.00000000000E+00 -0.37148765609E+03  0.37148765612E+03  0.50400001928E-02 0. -1.
    10030    2    1    2    0    0  0.00000000000E+00  0.00000000000E+00  0.18193064953E+04  0.25622818075E+04  0.18042760147E+04 0.  0.
        4    1    3    3  502    0 -0.24907345846E+03  0.59823045608E+03  0.18009774683E+04  0.19140111600E+04  0.12699999809E+01 0.  1.
       -4    1    3    3    0  502  0.24907345846E+03 -0.59823045608E+03  0.18329026964E+02  0.64827064751E+03  0.12699999809E+01 0. -1.
</event>
<event>
 5   0  0.8892280E-05  0.1806522E+04  0.7818609E-02  0.8702839E-01
        2   -1    0    0  501    0  0.00000000000E+00  0.00000000000E+00  0.90936653465E+03  0.90936653466E+03  0.25500000920E-02 0. -1.
       -2   -1    0    0    0  501  0.00000000000E+00  0.00000000000E+00 -0.89719693747E+03  0.89719693748E+03  0.25500000920E-02 0.  1.
    10030    2    1    2    0    0  0.00000000000E+00  0.00000000000E+00  0.12169597178E+02  0.18065634721E+04  0.18065224825E+04 0.  0.
        4    1    3    3  502    0  0.77507648594E+03  0.20927492935E+03  0.42002619220E+03  0.90607017948E+03  0.12699999809E+01 0. -1.
       -4    1    3    3    0  502 -0.77507648594E+03 -0.20927492935E+03 -0.40785659502E+03  0.90049329265E+03  0.12699999809E+01 0.  1.
</event>
<event>
 5   0  0.8893075E-05  0.1781914E+04  0.7818609E-02  0.8715977E-01
        2   -1    0    0  501    0  0.00000000000E+00  0.00000000000E+00  0.11994574067E+04  0.11994574067E+04  0.25500000920E-02 0. -1.
       -2   -1    0    0    0  501  0.00000000000E+00  0.00000000000E+00 -0.66180296583E+03  0.66180296584E+03  0.25500000920E-02 0.  1.
    10030    2    1    2    0    0  0.00000000000E+00  0.00000000000E+00  0.53765444085E+03  0.18612603725E+04  0.17819141047E+04 0.  0.
        1    1    3    3  502    0 -0.57686152647E+03  0.51274431752E+03 -0.19610950854E+03  0.79632587251E+03  0.50400001928E-02 0.  1.
       -1    1    3    3    0  502  0.57686152647E+03 -0.51274431752E+03  0.73376394939E+03  0.10649345000E+04  0.50400001928E-02 0. -1.
</event>
<event>
 5   0  0.8802655E-05  0.1800104E+04  0.7818609E-02  0.8706244E-01
       -2   -1    0    0    0  501  0.00000000000E+00  0.00000000000E+00  0.33288029871E+03  0.33288029872E+03  0.25500000920E-02 0. -1.
        2   -1    0    0  501    0  0.00000000000E+00  0.00000000000E+00 -0.24335871643E+04  0.24335871643E+04  0.25500000920E-02 0.  1.
    10030    2    1    2    0    0  0.00000000000E+00  0.00000000000E+00 -0.21007068656E+04  0.27664674630E+04  0.18001035773E+04 0.  0.
        2    1    3    3  502    0  0.29247106316E+03 -0.67422185967E+03 -0.18488864720E+04  0.19895968500E+04  0.25500000920E-02 0.  1.
       -2    1    3    3    0  502 -0.29247106316E+03  0.67422185967E+03 -0.25182039355E+03  0.77687061308E+03  0.25500000920E-02 0. -1.
</event>
<event>
 5   0  0.4335117E-05  0.1750883E+04  0.7818609E-02  0.8732864E-01
       -1   -1    0    0    0  501  0.00000000000E+00  0.00000000000E+00  0.82948312330E+03  0.82948312332E+03  0.50400001928E-02 0.  1.
        1   -1    0    0  501    0  0.00000000000E+00  0.00000000000E+00 -0.92394626578E+03  0.92394626580E+03  0.50400001928E-02 0. -1.
    10030    2    1    2    0    0  0.00000000000E+00  0.00000000000E+00 -0.94463142483E+02  0.17534293891E+04  0.17508830165E+04 0.  0.
        3    1    3    3  502    0  0.55829611933E+03  0.61563835251E+03 -0.32275473091E+03  0.89155805446E+03  0.10100000352E+00 0. -1.
       -3    1    3    3    0  502 -0.55829611933E+03 -0.61563835251E+03  0.22829158843E+03  0.86187133465E+03  0.10100000352E+00 0.  1.
</event>
<event>
 5   0  0.4535100E-05  0.1780378E+04  0.7818609E-02  0.8716804E-01
        1   -1    0    0  501    0  0.00000000000E+00  0.00000000000E+00  0.60794336985E+03  0.60794336987E+03  0.50400001928E-02 0.  1.
       -1   -1    0    0    0  501  0.00000000000E+00  0.00000000000E+00 -0.13034711965E+04  0.13034711965E+04  0.50400001928E-02 0. -1.
    10030    2    1    2    0    0  0.00000000000E+00  0.00000000000E+00 -0.69552782661E+03  0.19114145663E+04  0.17803782426E+04 0.  0.
        1    1    3    3  502    0 -0.51092939646E+03 -0.45602902662E+03  0.26279790450E+03  0.73353531607E+03  0.50400001928E-02 0.  1.
       -1    1    3    3    0  502  0.51092939646E+03  0.45602902662E+03 -0.95832573111E+03  0.11778792503E+04  0.50400001928E-02 0. -1.
</event>
<event>
 5   0  0.4578107E-05  0.1798297E+04  0.7818609E-02  0.8707206E-01
       -1   -1    0    0    0  501  0.00000000000E+00  0.00000000000E+00  0.75381563257E+03  0.75381563259E+03  0.50400001928E-02 0. -1.
        1   -1    0    0  501    0  0.00000000000E+00  0.00000000000E+00 -0.10725011611E+04  0.10725011611E+04  0.50400001928E-02 0.  1.
    10030    2    1    2    0    0  0.00000000000E+00  0.00000000000E+00 -0.31868552854E+03  0.18263167937E+04  0.17982971292E+04 0.  0.
        2    1    3    3  502    0 -0.64157689422E+02 -0.85847309780E+03  0.10427025946E+03  0.86715889880E+03  0.25500000920E-02 0.  1.
       -2    1    3    3    0  502  0.64157689422E+02  0.85847309780E+03 -0.42295578800E+03  0.95915789491E+03  0.25500000920E-02 0. -1.
</event>
<event>
 5   0  0.8802655E-05  0.1786715E+04  0.7818609E-02  0.8713397E-01
        2   -1    0    0  501    0  0.00000000000E+00  0.00000000000E+00  0.95194386935E+03  0.95194386935E+03  0.25500000920E-02 0.  1.
       -2   -1    0    0    0  501  0.00000000000E+00  0.00000000000E+00 -0.83837629925E+03  0.83837629926E+03  0.25500000920E-02 0. -1.
    10030    2    1    2    0    0  0.00000000000E+00  0.00000000000E+00  0.11356757010E+03  0.17903201686E+04  0.17867145024E+04 0.  0.
        2    1    3    3  502    0 -0.81628913524E+03 -0.56313800196E+02 -0.30253153278E+03  0.87236719605E+03  0.25500000920E-02 0. -1.
       -2    1    3    3    0  502  0.81628913524E+03  0.56313800196E+02  0.41609910288E+03  0.91795297256E+03  0.25500000920E-02 0.  1.
</event>
<event>
 5   0  0.9184414E-05  0.1841013E+04  0.7818609E-02  0.8684788E-01
       -2   -1    0    0    0  501  0.00000000000E+00  0.00000000000E+00  0.31444470444E+03  0.31444470445E+03  0.25500000920E-02 0. -1.
        2   -1    0    0  501    0  0.00000000000E+00  0.00000000000E+00 -0.26946931534E+04  0.26946931534E+04  0.25500000920E-02 0.  1.
    10030    2    1    2    0    0  0.00000000000E+00  0.00000000000E+00 -0.23802484490E+04  0.30091378579E+04  0.18410127563E+04 0.  0.
        5    1    3    3  502    0  0.30468531612E+03 -0.83294452176E+03 -0.78749181377E+03  0.11860839620E+04  0.46999998093E+01 0. -1.
       -5    1    3    3    0  502 -0.30468531612E+03  0.83294452176E+03 -0.15927566352E+04  0.18230538959E+04  0.46999998093E+01 0.  1.
</event>
<event>
 5   0  0.4535100E-05  0.1799120E+04  0.7818609E-02  0.8706767E-01
       -1   -1    0    0    0  501  0.00000000000E+00  0.00000000000E+00  0.44628924923E+03  0.44628924926E+03  0.50400001928E-02 0. -1.
        1   -1    0    0  501    0  0.00000000000E+00  0.00000000000E+00 -0.18131930599E+04  0.18131930599E+04  0.50400001928E-02 0.  1.
    10030    2    1    2    0    0  0.00000000000E+00  0.00000000000E+00 -0.13669038107E+04  0.22594823092E+04  0.17991204178E+04 0.  0.
        1    1    3    3  502    0  0.81400809297E+03  0.21672453998E+03 -0.10798608907E+04  0.13695540314E+04  0.50400001928E-02 0.  1.
       -1    1    3    3    0  502 -0.81400809297E+03 -0.21672453998E+03 -0.28704291997E+03  0.88992827777E+03  0.50400001928E-02 0. -1.
</event>
<event>
 5   0  0.8893075E-05  0.1804175E+04  0.7818609E-02  0.8704083E-01
       -2   -1    0    0    0  501  0.00000000000E+00  0.00000000000E+00  0.56953498696E+03  0.56953498697E+03  0.25500000920E-02 0.  1.
        2   -1    0    0  501    0  0.00000000000E+00  0.00000000000E+00 -0.14288176262E+04  0.14288176262E+04  0.25500000920E-02 0. -1.
    10030    2    1    2    0    0  0.00000000000E+00  0.00000000000E+00 -0.85928263928E+03  0.19983526132E+04  0.18041747456E+04 0.  0.
        1    1    3    3  502    0 -0.43318234730E+03 -0.76234694285E+03 -0.66445254524E+03  0.11001440779E+04  0.50400001928E-02 0. -1.
       -1    1    3    3    0  502  0.43318234730E+03  0.76234694285E+03 -0.19483009403E+03  0.89820853528E+03  0.50400001928E-02 0.  1.
</event>
<event>
 5   0  0.4535100E-05  0.1797095E+04  0.7818609E-02  0.8707846E-01
       -1   -1    0    0    0  501  0.00000000000E+00  0.00000000000E+00  0.88116113631E+03  0.88116113632E+03  0.50400001928E-02 0.  1.
        1   -1    0    0  501    0  0.00000000000E+00  0.00000000000E+00 -0.91627648701E+03  0.91627648702E+03  0.50400001928E-02 0. -1.
    10030    2    1    2    0    0  0.00000000000E+00  0.00000000000E+00 -0.35115350698E+02  0.17974376233E+04  0.17970945779E+04 0.  0.
        1    1    3    3  502    0  0.31855274572E+03 -0.36303624561E+02 -0.85711854231E+03  0.91512075736E+03  0.50400001928E-02 0. -1.
       -1    1    3    3    0  502 -0.31855274572E+03  0.36303624561E+02  0.82200319161E+03  0.88231686599E+03  0.50400001928E-02 0.  1.
</event>
<event>
 5   0  0.9184414E-05  0.1798850E+04  0.7818609E-02  0.8706911E-01
        2   -1    0    0  501    0  0.00000000000E+00  0.00000000000E+00  0.13354017888E+04  0.13354017888E+04  0.25500000920E-02 0. -1.
       -2   -1    0    0    0  501  0.00000000000E+00  0.00000000000E+00 -0.60578417504E+03  0.60578417504E+03  0.25500000920E-02 0.  1.
    10030    2    1    2    0    0  0.00000000000E+00  0.00000000000E+00  0.72961761376E+03  0.19411859638E+04  0.17988499337E+04 0.  0.
        5    1    3    3  502    0  0.37211897174E+03 -0.12015386959E+03  0.12388568049E+04  0.12991142192E+04  0.46999998093E+01 0. -1.
       -5    1    3    3    0  502 -0.37211897174E+03  0.12015386959E+03 -0.50923919112E+03  0.64207174465E+03  0.46999998093E+01 0.  1.
</event>
<event>
 5   0  0.8892280E-05  0.1795659E+04  0.7818609E-02  0.8708611E-01
        2   -1    0    0  501    0  0.00000000000E+00  0.00000000000E+00  0.51333824166E+03  0.51333824167E+03  0.25500000920E-02 0. -1.
       -2   -1    0    0    0  501  0.00000000000E+00  0.00000000000E+00 -0.15703062142E+04  0.15703062142E+04  0.25500000920E-02 0.  1.
    10030    2    1    2    0    0  0.00000000000E+00  0.00000000000E+00 -0.10569679725E+04  0.20836444558E+04  0.17956594676E+04 0.  0.
        4    1    3    3  502    0  0.13641612198E+02 -0.89410179984E+03 -0.62198266578E+03  0.10892511976E+04  0.12699999809E+01 0.  1.
       -4    1    3    3    0  502 -0.13641612198E+02  0.89410179984E+03 -0.43498530673E+03  0.99439325824E+03  0.12699999809E+01 0. -1.
</event>
<event>
 5   0  0.9184414E-05  0.1799327E+04  0.7818609E-02  0.8706658E-01
        2   -1    0    0  501    0  0.00000000000E+00  0.00000000000E+00  0.18147185461E+04  0.18147185461E+04  0.25500000920E-02 0. -1.
       -2   -1    0    0    0  501  0.00000000000E+00  0.00000000000E+00 -0.44601626279E+03  0.44601626279E+03  0.25500000920E-02 0.  1.
    10030    2    1    2    0    0  0.00000000000E+00  0.00000000000E+00  0.13687022833E+04  0.22607348089E+04  0.17993265228E+04 0.  0.
        5    1    3    3  502    0  0.44437150546E+03  0.77316424968E+03  0.83366551416E+03  0.12207658544E+04  0.46999998093E+01 0.  1.
       -5    1    3    3    0  502 -0.44437150546E+03 -0.77316424968E+03  0.53503676911E+03  0.10399689544E+04  0.46999998093E+01 0. -1.
</event>
<event>
 5   0  0.9184414E-05  0.1806212E+04  0.7818609E-02  0.8703003E-01
        2   -1    0    0  501    0  0.00000000000E+00  0.00000000000E+00  0.10214631761E+04  0.10214631761E+04  0.25500000920E-02 0.  1.
       -2   -1    0    0    0  501  0.00000000000E+00  0.00000000000E+00 -0.79846268830E+03  0.79846268830E+03  0.25500000920E-02 0. -1.
    10030    2    1    2    0    0  0.00000000000E+00  0.00000000000E+00  0.22300048777E+03  0.18199258644E+04  0.18062117634E+04 0.  0.
        5    1    3    3  502    0  0.40657403446E+02 -0.20207876632E+03  0.99743116426E+03  0.10185184680E+04  0.46999998093E+01 0.  1.
       -5    1    3    3    0  502 -0.40657403446E+02  0.20207876632E+03 -0.77443067649E+03  0.80140739636E+03  0.46999998093E+01 0. -1.
</event>
<event>
 5   0  0.3270375E-05  0.1796359E+04  0.7818609E-02  0.8708238E-01
        4   -1    0    0  501    0  0.00000000000E+00  0.00000000000E+00  0.11301145585E+04  0.11301152721E+04  0.12699999809E+01 0. -1.
       -4   -1    0    0    0  501  0.00000000000E+00  0.00000000000E+00 -0.71384317443E+03  0.71384430416E+03  0.12699999809E+01 0.  1.
    10030    2    1    2    0    0  0.00000000000E+00  0.00000000000E+00  0.41627138407E+03  0.18439595763E+04  0.17963588321E+04 0.  0.
        3    1    3    3  502    0 -0.85066521981E+03 -0.24984573778E+03  0.60548042449E+02  0.88866207555E+03  0.10100000352E+00 0.  1.
       -3    1    3    3    0  502  0.85066521981E+03  0.24984573778E+03  0.35572334162E+03  0.95529750071E+03  0.10100000352E+00 0. -1.
</event>
<event>
 5   0  0.8893075E-05  0.1788051E+04  0.7818609E-02  0.8712680E-01
       -2   -1    0    0    0  501  0.00000000000E+00  0.00000000000E+00  0.77179262029E+03  0.77179262029E+03  0.25500000920E-02 0. -1.
        2   -1    0    0  501    0  0.00000000000E+00  0.00000000000E+00 -0.10356165070E+04  0.10356165070E+04  0.25500000920E-02 0.  1.
    10030    2    1    2    0    0  0.00000000000E+00  0.00000000000E+00 -0.26382388671E+03  0.18074091273E+04  0.17880505335E+04 0.  0.
        1    1    3    3  502    0  0.63910980384E+03 -0.18647427731E+03 -0.73506906188E+03  0.99174619899E+03  0.50400001928E-02 0.  1.
       -1    1    3    3    0  502 -0.63910980384E+03  0.18647427731E+03  0.47124517517E+03  0.81566292830E+03  0.50400001928E-02 0. -1.
</event>
<event>
 5   0  0.4578107E-05  0.1801448E+04  0.7818609E-02  0.8705530E-01
       -1   -1    0    0    0  501  0.00000000000E+00  0.00000000000E+00  0.10932783221E+04  0.10932783221E+04  0.50400001928E-02 0.  1.
        1   -1    0    0  501    0  0.00000000000E+00  0.00000000000E+00 -0.74208314425E+03  0.74208314427E+03  0.50400001928E-02 0. -1.
    10030    2    1    2    0    0  0.00000000000E+00  0.00000000000E+00  0.35119517782E+03  0.18353614664E+04  0.18014476565E+04 0.  0.
        2    1    3    3  502    0  0.65470611367E+03  0.54543064846E+03  0.47292848545E+03  0.97457479955E+03  0.25500000920E-02 0.  1.
       -2    1    3    3    0  502 -0.65470611367E+03 -0.54543064846E+03 -0.12173330763E+03  0.86078666681E+03  0.25500000920E-02 0. -1.
</event>
<event>
 5   0  0.8892280E-05  0.1814194E+04  0.7818609E-02  0.8698787E-01
        2   -1    0    0  501    0  0.00000000000E+00  0.00000000000E+00  0.15158594086E+04  0.15158594086E+04  0.25500000920E-02 0. -1.
       -2   -1    0    0    0  501  0.00000000000E+00  0.00000000000E+00 -0.54281112469E+03  0.54281112469E+03  0.25500000920E-02 0.  1.
    10030    2    1    2    0    0  0.00000000000E+00  0.00000000000E+00  0.97304828389E+03  0.20586705333E+04  0.18141944223E+04 0.  0.
        4    1    3    3  502    0 -0.51477340889E+03 -0.42559087320E+03 -0.20994746401E+03  0.70014198874E+03  0.12699999809E+01 0.  1.
       -4    1    3    3    0  502  0.51477340889E+03  0.42559087320E+03  0.11829957479E+04  0.13585285445E+04  0.12699999809E+01 0. -1.
</event>
<event>
 5   0  0.4335117E-05  0.1806624E+04  0.7818609E-02  0.8702785E-01
       -1   -1    0    0    0  501  0.00000000000E+00  0.00000000000E+00  0.73308837095E+03  0.73308837097E+03  0.50400001928E-02 0. -1.
        1   -1    0    0  501    0  0.00000000000E+00  0.00000000000E+00 -0.11130614183E+04  0.11130614183E+04  0.50400001928E-02 0.  1.
    10030    2    1    2    0    0  0.00000000000E+00  0.00000000000E+00 -0.37997304730E+03  0.18461497892E+04  0.18066237925E+04 0.  0.
        3    1    3    3  502    0  0.81509432417E+03 -0.26628570972E+03  0.10028006685E+03  0.86333246117E+03  0.10100000352E+00 0. -1.
       -3    1    3    3    0  502 -0.81509432417E+03  0.26628570972E+03 -0.48025311415E+03  0.98281732807E+03  0.10100000352E+00 0.  1.
</event>
<event>
 5   0  0.9147432E-05  0.1800917E+04  0.7818609E-02  0.8705812E-01
       -2   -1    0    0    0  501  0.00000000000E+00  0.00000000000E+00  0.73186579486E+03  0.73186579486E+03  0.25500000920E-02 0. -1.
        2   -1    0    0  501    0  0.00000000000E+00  0.00000000000E+00 -0.11078885355E+04  0.11078885355E+04  0.25500000920E-02 0.  1.
    10030    2    1    2    0    0  0.00000000000E+00  0.00000000000E+00 -0.37602274060E+03  0.18397543303E+04  0.18009172370E+04 0.  0.
        3    1    3    3  502    0 -0.35022295234E+03 -0.82901705058E+03 -0.21866389120E+03  0.92614215648E+03  0.10100000352E+00 0. -1.
       -3    1    3    3    0  502  0.35022295234E+03  0.82901705058E+03 -0.15735884939E+03  0.91361217383E+03  0.10100000352E+00 0.  1.
</event>
<event>
 5   0  0.4494757E-05  0.1787245E+04  0.7818609E-02  0.8713112E-01
        1   -1    0    0  501    0  0.00000000000E+00  0.00000000000E+00  0.13182780292E+04  0.13182780292E+04  0.50400001928E-02 0.  1.
       -1   -1    0    0    0  501  0.00000000000E+00  0.00000000000E+00 -0.60576058302E+03  0.60576058304E+03  0.50400001928E-02 0. -1.
    10030    2    1    2    0    0  0.00000000000E+00  0.00000000000E+00  0.71251744617E+03  0.19240386122E+04  0.17872446588E+04 0.  0.
        4    1    3    3  502    0 -0.55753625381E+03 -0.86616341901E+02 -0.38975267180E+03  0.68575347106E+03  0.12699999809E+01 0. -1.
       -4    1    3    3    0  502  0.55753625381E+03  0.86616341901E+02  0.11022701180E+04  0.12382851412E+04  0.12699999809E+01 0.  1.
</event>
<event>
 5   0  0.8893075E-05  0.1811933E+04  0.7818609E-02  0.8699979E-01
       -2   -1    0    0    0  501  0.00000000000E+00  0.00000000000E+00  0.36532443106E+03  0.36532443107E+03  0.25500000920E-02 0. -1.
        2   -1    0    0  501    0  0.00000000000E+00  0.00000000000E+00 -0.22467032814E+04  0.22467032814E+04  0.25500000920E-02 0.  1.
    10030    2    1    2    0    0  0.00000000000E+00  0.00000000000E+00 -0.18813788503E+04  0.26120277125E+04  0.18119333300E+04 0.  0.
        1    1    3    3  502    0 -0.77402600249E+02 -0.61093249988E+03  0.17217918358E+02  0.61605692811E+03  0.50400001928E-02 0. -1.
       -1    1    3    3    0  502  0.77402600249E+02  0.61093249988E+03 -0.18985967687E+04  0.19959707844E+04  0.50400001928E-02 0.  1.
</event>
<event>
 5   0  0.4623665E-05  0.1785286E+04  0.7818609E-02  0.8714163E-01
        1   -1    0    0  501    0  0.00000000000E+00  0.00000000000E+00  0.10442563457E+04  0.10442563457E+04  0.50400001928E-02 0. -1.
       -1   -1    0    0    0  501  0.00000000000E+00  0.00000000000E+00 -0.76304217765E+03  0.76304217766E+03  0.50400001928E-02 0.  1.
    10030    2    1    2    0    0  0.00000000000E+00  0.00000000000E+00  0.28121416803E+03  0.18072985234E+04  0.17852861239E+04 0.  0.
        5    1    3    3  502    0 -0.62984113015E+03 -0.59839707930E+03 -0.66885067242E+02  0.87136365311E+03  0.46999998093E+01 0.  1.
       -5    1    3    3    0  502  0.62984113015E+03  0.59839707930E+03  0.34809923527E+03  0.93593487024E+03  0.46999998093E+01 0. -1.
</event>
<event>
 5   0  0.4494757E-05  0.1798337E+04  0.7818609E-02  0.8707184E-01
        1   -1    0    0  501    0  0.00000000000E+00  0.00000000000E+00  0.89937457081E+03  0.89937457083E+03  0.50400001928E-02 0. -1.
       -1   -1    0    0    0  501  0.00000000000E+00  0.00000000000E+00 -0.89896250068E+03  0.89896250069E+03  0.50400001928E-02 0.  1.
    10030    2    1    2    0    0  0.00000000000E+00  0.00000000000E+00  0.41207013736E+00  0.17983370715E+04  0.17983370243E+04 0.  0.
        4    1    3    3  502    0  0.31865391414E+03 -0.83479477719E+03 -0.10019199214E+03  0.89914553060E+03  0.12699999809E+01 0.  1.
       -4    1    3    3    0  502 -0.31865391414E+03  0.83479477719E+03  0.10060406228E+03  0.89919154092E+03  0.12699999809E+01 0. -1.
</event>
<event>
 5   0  0.9147432E-05  0.1795435E+04  0.7818609E-02  0.8708731E-01
       -2   -1    0    0    0  501  0.00000000000E+00  0.00000000000E+00  0.72262279592E+03  0.72262279592E+03  0.25500000920E-02 0. -1.
        2   -1    0    0  501    0  0.00000000000E+00  0.00000000000E+00 -0.11152385519E+04  0.11152385519E+04  0.25500000920E-02 0.  1.
    10030    2    1    2    0    0  0.00000000000E+00  0.00000000000E+00 -0.39261575599E+03  0.18378613478E+04  0.17954351010E+04 0.  0.
        3    1    3    3  502    0 -0.29544970806E+03  0.82695788586E+03 -0.38711789079E+03  0.95969273549E+03  0.10100000352E+00 0.  1.
       -3    1    3    3    0  502  0.29544970806E+03 -0.82695788586E+03 -0.54978651989E+01  0.87816861234E+03  0.10100000352E+00 0. -1.
</event>
<event>
 5   0  0.4623665E-05  0.1809482E+04  0.7818609E-02  0.8701273E-01
       -1   -1    0    0    0  501  0.00000000000E+00  0.00000000000E+00  0.12735070466E+04  0.12735070466E+04  0.50400001928E-02 0. -1.
        1   -1    0    0  501    0  0.00000000000E+00  0.00000000000E+00 -0.64275745517E+03  0.64275745519E+03  0.50400001928E-02 0.  1.
    10030    2    1    2    0    0  0.00000000000E+00  0.00000000000E+00  0.63074959145E+03  0.19162645018E+04  0.18094818578E+04 0.  0.
        5    1    3    3  502    0 -0.67059723638E+03 -0.56839364207E+02  0.95570783927E+03  0.11689015916E+04  0.46999998093E+01 0. -1.
       -5    1    3    3    0  502  0.67059723638E+03  0.56839364207E+02 -0.32495824782E+03  0.74736291024E+03  0.46999998093E+01 0.  1.
</event>
<event>
 5   0  0.4335117E-05  0.1778476E+04  0.7818609E-02  0.8717830E-01
        1   -1    0    0  501    0  0.00000000000E+00  0.00000000000E+00  0.79381229131E+03  0.79381229132E+03  0.50400001928E-02 0. -1.
       -1   -1    0    0    0  501  0.00000000000E+00  0.00000000000E+00 -0.99613540136E+03  0.99613540137E+03  0.50400001928E-02 0.  1.
    10030    2    1    2    0    0  0.00000000000E+00  0.00000000000E+00 -0.20232311005E+03  0.17899476927E+04  0.17784763428E+04 0.  0.
        3    1    3    3  502    0 -0.10794211478E+02  0.55805720880E+03 -0.79786943219E+03  0.97372480934E+03  0.10100000352E+00 0.  1.
       -3    1    3    3    0  502  0.10794211478E+02 -0.55805720880E+03  0.59554632214E+03  0.81622288336E+03  0.10100000352E+00 0. -1.
</event>
<event>
 5   0  0.4578107E-05  0.1800306E+04  0.7818609E-02  0.8706137E-01
       -1   -1    0    0    0  501  0.00000000000E+00  0.00000000000E+00  0.57999882921E+03  0.57999882923E+03  0.50400001928E-02 0.  1.
        1   -1    0    0  501    0  0.00000000000E+00  0.00000000000E+00 -0.13970287898E+04  0.13970287898E+04  0.50400001928E-02 0. -1.
    10030    2    1    2    0    0  0.00000000000E+00  0.00000000000E+00 -0.81702996055E+03  0.19770276190E+04  0.18003055990E+04 0.  0.
        2    1    3    3  502    0  0.76423179156E+03  0.47271955044E+03 -0.46621875948E+03  0.10123605762E+04  0.25500000920E-02 0. -1.
       -2    1    3    3    0  502 -0.76423179156E+03 -0.47271955044E+03 -0.35081120108E+03  0.96466704277E+03  0.25500000920E-02 0.  1.
</event>
<event>
 5   0  0.8802655E-05  0.1803096E+04  0.7818609E-02  0.8704655E-01
       -2   -1    0    0    0  501  0.00000000000E+00  0.00000000000E+00  0.33368889075E+03  0.33368889076E+03  0.25500000920E-02 0.  1.
        2   -1    0    0  501    0  0.00000000000E+00  0.00000000000E+00 -0.24357684741E+04  0.24357684741E+04  0.25500000920E-02 0. -1.
    10030    2    1    2    0    0  0.00000000000E+00  0.00000000000E+00 -0.21020795833E+04  0.27694573648E+04  0.18030960931E+04 0.  0.
        2    1    3    3  502    0 -0.52320636063E+03  0.42495692925E+03 -0.19706282073E+04  0.20827166919E+04  0.25500000920E-02 0. -1.
       -2    1    3    3    0  502  0.52320636063E+03 -0.42495692925E+03 -0.13145137603E+03  0.68674067288E+03  0.25500000920E-02 0.  1.
</event>
<event>
 5   0  0.4578107E-05  0.1798064E+04  0.7818609E-02  0.8707330E-01
        1   -1    0    0  501    0  0.00000000000E+00  0.00000000000E+00  0.16103373325E+04  0.16103373325E+04  0.50400001928E-02 0. -1.
       -1   -1    0    0    0  501  0.00000000000E+00  0.00000000000E+00 -0.50191895649E+03  0.50191895652E+03  0.50400001928E-02 0.  1.
    10030    2    1    2    0    0  0.00000000000E+00  0.00000000000E+00  0.11084183760E+04  0.21122562890E+04  0.17980643298E+04 0.  0.
        2    1    3    3  502    0 -0.56843707870E+03 -0.60536715631E+03  0.95888712598E+03  0.12684851701E+04  0.25500000920E-02 0. -1.
       -2    1    3    3    0  502  0.56843707870E+03  0.60536715631E+03  0.14953125002E+03  0.84377111892E+03  0.25500000920E-02 0.  1.
</event>
<event>
 5   0  0.4578107E-05  0.1799735E+04  0.7818609E-02  0.8706441E-01
        1   -1    0    0  501    0  0.00000000000E+00  0.00000000000E+00  0.11971028254E+04  0.11971028254E+04  0.50400001928E-02 0. -1.
       -1   -1    0    0    0  501  0.00000000000E+00  0.00000000000E+00 -0.67643409705E+03  0.67643409707E+03  0.50400001928E-02 0.  1.
    10030    2    1    2    0    0  0.00000000000E+00  0.00000000000E+00  0.52066872838E+03  0.18735369225E+04  0.17997346125E+04 0.  0.
        2    1    3    3  502    0 -0.80727673953E+03 -0.75724968807E+02  0.66663562236E+03  0.10496823606E+04  0.25500000920E-02 0. -1.
       -2    1    3    3    0  502  0.80727673953E+03  0.75724968807E+02 -0.14596689398E+03  0.82385456194E+03  0.25500000920E-02 0.  1.
</event>
<event>
 5   0  0.4335117E-05  0.1797263E+04  0.7818609E-02  0.8707756E-01
       -1   -1    0    0    0  501  0.00000000000E+00  0.00000000000E+00  0.10968840158E+04  0.10968840158E+04  0.50400001928E-02 0.  1.
        1   -1    0    0  501    0  0.00000000000E+00  0.00000000000E+00 -0.73621160339E+03  0.73621160341E+03  0.50400001928E-02 0. -1.
    10030    2    1    2    0    0  0.00000000000E+00  0.00000000000E+00  0.36067241238E+03  0.18330956192E+04  0.17972631861E+04 0.  0.
        3    1    3    3  502    0 -0.43387725919E+03  0.49826235519E+02  0.98136466700E+03  0.10741549002E+04  0.10100000352E+00 0.  1.
       -3    1    3    3    0  502  0.43387725919E+03 -0.49826235519E+02 -0.62069225462E+03  0.75894071898E+03  0.10100000352E+00 0. -1.
</event>
<event>
 5   0  0.8893075E-05  0.1801959E+04  0.7818609E-02  0.8705258E-01
       -2   -1    0    0    0  501  0.00000000000E+00  0.00000000000E+00  0.10917259774E+04  0.10917259774E+04  0.25500000920E-02 0.  1.
        2   -1    0    0  501    0  0.00000000000E+00  0.00000000000E+00 -0.74356024672E+03  0.74356024672E+03  0.25500000920E-02 0. -1.
    10030    2    1    2    0    0  0.00000000000E+00  0.00000000000E+00  0.34816573068E+03  0.18352862241E+04  0.18019589752E+04 0.  0.
        1    1    3    3  502    0  0.12730900211E+03 -0.70027004534E+02 -0.73154917169E+03  0.74583882576E+03  0.50400001928E-02 0. -1.
       -1    1    3    3    0  502 -0.12730900211E+03  0.70027004534E+02  0.10797149024E+04  0.10894473984E+04  0.50400001928E-02 0.  1.
</event>
<event>
 5   0  0.8892280E-05  0.1788461E+04  0.7818609E-02  0.8712460E-01
        2   -1    0    0  501    0  0.00000000000E+00  0.00000000000E+00  0.80836354693E+03  0.80836354693E+03  0.25500000920E-02 0.  1.
       -2   -1    0    0    0  501  0.00000000000E+00  0.00000000000E+00 -0.98921829446E+03  0.98921829447E+03  0.25500000920E-02 0. -1.
    10030    2    1    2    0    0  0.00000000000E+00  0.00000000000E+00 -0.18085474754E+03  0.17975818414E+04  0.17884608010E+04 0.  0.
        4    1    3    3  502    0 -0.69885611929E+02 -0.37729715027E+03  0.72141049249E+03  0.81711189560E+03  0.12699999809E+01 0.  1.
       -4    1    3    3    0  502  0.69885611929E+02  0.37729715027E+03 -0.90226524002E+03  0.98046994580E+03  0.12699999809E+01 0. -1.
</event>
<event>
 5   0  0.4535100E-05  0.1801459E+04  0.7818609E-02  0.8705524E-01
        1   -1    0    0  501    0  0.00000000000E+00  0.00000000000E+00  0.67776186060E+03  0.67776186062E+03  0.50400001928E-02 0.  1.
       -1   -1    0    0    0  501  0.00000000000E+00  0.00000000000E+00 -0.11970478727E+04  0.11970478727E+04  0.50400001928E-02 0. -1.
    10030    2    1    2    0    0  0.00000000000E+00  0.00000000000E+00 -0.51928601206E+03  0.18748097333E+04  0.18014587350E+04 0.  0.
        1    1    3    3  502    0  0.47042806086E+03 -0.45779536591E+03 -0.90155084244E+03  0.11152009142E+04  0.50400001928E-02 0. -1.
       -1    1    3    3    0  502 -0.47042806086E+03  0.45779536591E+03  0.38226483038E+03  0.75960881910E+03  0.50400001928E-02 0.  1.
</event>
<event>
 5   0  0.8893075E-05  0.1800575E+04  0.7818609E-02  0.8705994E-01
       -2   -1    0    0    0  501  0.00000000000E+00  0.00000000000E+00  0.42464899932E+03  0.42464899933E+03  0.25500000920E-02 0. -1.
        2   -1    0    0  501    0  0.00000000000E+00  0.00000000000E+00 -0.19086768939E+04  0.19086768939E+04  0.25500000920E-02 0.  1.
    10030    2    1    2    0    0  0.00000000000E+00  0.00000000000E+00 -0.14840278946E+04  0.23333258932E+04  0.18005751670E+04 0.  0.
        1    1    3    3  502    0 -0.38724499236E+03 -0.49098015015E+03 -0.15813364251E+04  0.17004837786E+04  0.50400001928E-02 0.  1.
       -1    1    3    3    0  502  0.38724499236E+03  0.49098015015E+03  0.97308530493E+02  0.63284211465E+03  0.50400001928E-02 0. -1.
</event>
<event>
 5   0  0.8892280E-05  0.1795498E+04  0.7818609E-02  0.8708697E-01
        2   -1    0    0  501    0  0.00000000000E+00  0.00000000000E+00  0.94063187247E+03  0.94063187247E+03  0.25500000920E-02 0. -1.
       -2   -1    0    0    0  501  0.00000000000E+00  0.00000000000E+00 -0.85682078281E+03  0.85682078281E+03  0.25500000920E-02 0.  1.
    10030    2    1    2    0    0  0.00000000000E+00  0.00000000000E+00  0.83811089657E+02  0.17974526553E+04  0.17954976328E+04 0.  0.
        4    1    3    3  502    0  0.75652544593E+02  0.47886319107E+03  0.79831946792E+03  0.93399617185E+03  0.12699999809E+01 0. -1.
       -4    1    3    3    0  502 -0.75652544593E+02 -0.47886319107E+03 -0.71450837827E+03  0.86345648343E+03  0.12699999809E+01 0.  1.
</event>
<event>
 5   0  0.9184414E-05  0.1837615E+04  0.7818609E-02  0.8686548E-01
       -2   -1    0    0    0  501  0.00000000000E+00  0.00000000000E+00  0.55444525891E+03  0.55444525891E+03  0.25500000920E-02 0. -1.
        2   -1    0    0  501    0  0.00000000000E+00  0.00000000000E+00 -0.15226162143E+04  0.15226162143E+04  0.25500000920E-02 0.  1.
    10030    2    1    2    0    0  0.00000000000E+00  0.00000000000E+00 -0.96817095537E+03  0.20770614732E+04  0.18376151296E+04 0.  0.
        5    1    3    3  502    0 -0.32747255121E+03 -0.82788663211E+03 -0.74071823581E+03  0.11581537645E+04  0.46999998093E+01 0.  1.
       -5    1    3    3    0  502  0.32747255121E+03  0.82788663211E+03 -0.22745271956E+03  0.91890770867E+03  0.46999998093E+01 0. -1.
</event>
<event>
 5   0  0.8893075E-05  0.1797846E+04  0.7818609E-02  0.8707446E-01
       -2   -1    0    0    0  501  0.00000000000E+00  0.00000000000E+00  0.17716304432E+04  0.17716304432E+04  0.25500000920E-02 0. -1.
        2   -1    0    0  501    0  0.00000000000E+00  0.00000000000E+00 -0.45611232805E+03  0.45611232806E+03  0.25500000920E-02 0.  1.
    10030    2    1    2    0    0  0.00000000000E+00  0.00000000000E+00  0.13155181152E+04  0.22277427713E+04  0.17978459177E+04 0.  0.
        1    1    3    3  502    0 -0.27547838888E+03 -0.30046346692E+03  0.16505204012E+04  0.17001130058E+04  0.50400001928E-02 0. -1.
       -1    1    3    3    0  502  0.27547838888E+03  0.30046346692E+03 -0.33500228607E+03  0.52762976545E+03  0.50400001928E-02 0.  1.
</event>
<event>
 5   0  0.9184414E-05  0.1803801E+04  0.7818609E-02  0.8704281E-01
       -2   -1    0    0    0  501  0.00000000000E+00  0.00000000000E+00  0.78884238798E+03  0.78884238798E+03  0.25500000920E-02 0.  1.
        2   -1    0    0  501    0  0.00000000000E+00  0.00000000000E+00 -0.10311618849E+04  0.10311618849E+04  0.25500000920E-02 0. -1.
    10030    2    1    2    0    0  0.00000000000E+00  0.00000000000E+00 -0.24231949690E+03  0.18200042729E+04  0.18038006582E+04 0.  0.
        5    1    3    3  502    0 -0.16607085172E+03 -0.64823277849E+03 -0.73125404958E+03  0.99123147546E+03  0.46999998093E+01 0. -1.
       -5    1    3    3    0  502  0.16607085172E+03  0.64823277849E+03  0.48893455269E+03  0.82877279740E+03  0.46999998093E+01 0.  1.
</event>
<event>
 5   0  0.8893075E-05  0.1802314E+04  0.7818609E-02  0.8705070E-01
        2   -1    0    0  501    0  0.00000000000E+00  0.00000000000E+00  0.15450838380E+04  0.15450838380E+04  0.25500000920E-02 0. -1.
       -2   -1    0    0    0  501  0.00000000000E+00  0.00000000000E+00 -0.52559224819E+03  0.52559224820E+03  0.25500000920E-02 0.  1.
    10030    2    1    2    0    0  0.00000000000E+00  0.00000000000E+00  0.10194915898E+04  0.20706760862E+04  0.18023141658E+04 0.  0.
        1    1    3    3  502    0  0.18896196170E+03 -0.30353336375E+03 -0.44061273278E+03  0.56743167535E+03  0.50400001928E-02 0.  1.
       -1    1    3    3    0  502 -0.18896196170E+03  0.30353336375E+03  0.14601043226E+04  0.15032444108E+04  0.50400001928E-02 0. -1.
</event>
<event>
 5   0  0.4494757E-05  0.1806073E+04  0.7818609E-02  0.8703076E-01
       -1   -1    0    0    0  501  0.00000000000E+00  0.00000000000E+00  0.10124492921E+04  0.10124492921E+04  0.50400001928E-02 0. -1.
        1   -1    0    0  501    0  0.00000000000E+00  0.00000000000E+00 -0.80544805790E+03  0.80544805792E+03  0.50400001928E-02 0.  1.
    10030    2    1    2    0    0  0.00000000000E+00  0.00000000000E+00  0.20700123419E+03  0.18178973500E+04  0.18060734382E+04 0.  0.
        4    1    3    3  502    0 -0.46567433146E+03  0.61518128223E+03 -0.36879736461E+03  0.85516881493E+03  0.12699999809E+01 0.  1.
       -4    1    3    3    0  502  0.46567433146E+03 -0.61518128223E+03  0.57579859881E+03  0.96272853509E+03  0.12699999809E+01 0. -1.
</event>
<event>
 5   0  0.4335117E-05  0.1804983E+04  0.7818609E-02  0.8703654E-01
       -1   -1    0    0    0  501  0.00000000000E+00  0.00000000000E+00  0.81166172441E+03  0.81166172442E+03  0.50400001928E-02 0.  1.
        1   -1    0    0  501    0  0.00000000000E+00  0.00000000000E+00 -0.10034858141E+04  0.10034858141E+04  0.50400001928E-02 0. -1.
    10030    2    1    2    0    0  0.00000000000E+00  0.00000000000E+00 -0.19182408965E+03  0.18151475385E+04  0.18049831315E+04 0.  0.
        3    1    3    3  502    0 -0.53764958392E+03  0.38964142635E+03  0.51876111747E+03  0.84261534725E+03  0.10100000352E+00 0.  1.
       -3    1    3    3    0  502  0.53764958392E+03 -0.38964142635E+03 -0.71058520712E+03  0.97253219124E+03  0.10100000352E+00 0. -1.
</event>
<event>
 5   0  0.8893075E-05  0.1800148E+04  0.7818609E-02  0.8706221E-01
       -2   -1    0    0    0  501  0.00000000000E+00  0.00000000000E+00  0.70908314777E+03  0.70908314777E+03  0.25500000920E-02 0. -1.
        2   -1    0    0  501    0  0.00000000000E+00  0.00000000000E+00 -0.11425084859E+04  0.11425084859E+04  0.25500000920E-02 0.  1.
    10030    2    1    2    0    0  0.00000000000E+00  0.00000000000E+00 -0.43342533811E+03  0.18515916336E+04  0.18001483422E+04 0.  0.
        1    1    3    3  502    0  0.25644387076E+03  0.16623693151E+02  0.67054697960E+03  0.71810379326E+03  0.50400001928E-02 0. -1.
       -1    1    3    3    0  502 -0.25644387076E+03 -0.16623693151E+02 -0.11039723177E+04  0.11334878404E+04  0.50400001928E-02 0.  1.
</event>
<event>
 5   0  0.4578107E-05  0.1794074E+04  0.7818609E-02  0.8709457E-01
       -1   -1    0    0    0  501  0.00000000000E+00  0.00000000000E+00  0.67859995588E+03  0.67859995590E+03  0.50400001928E-02 0.  1.
        1   -1    0    0  501    0  0.00000000000E+00  0.00000000000E+00 -0.11857878870E+04  0.11857878870E+04  0.50400001928E-02 0. -1.
    10030    2    1    2    0    0  0.00000000000E+00  0.00000000000E+00 -0.50718793111E+03  0.18643878429E+04  0.17940742547E+04 0.  0.
        2    1    3    3  502    0  0.72400272082E+03  0.94814840940E+01 -0.80388105150E+03  0.10818939797E+04  0.25500000920E-02 0. -1.
       -2    1    3    3    0  502 -0.72400272082E+03 -0.94814840940E+01  0.29669312039E+03  0.78249386323E+03  0.25500000920E-02 0.  1.
</event>
<event>
 5   0  0.8802655E-05  0.1799118E+04  0.7818609E-02  0.8706769E-01
        2   -1    0    0  501    0  0.00000000000E+00  0.00000000000E+00  0.10770306765E+04  0.10770306765E+04  0.25500000920E-02 0. -1.
       -2   -1    0    0    0  501  0.00000000000E+00  0.00000000000E+00 -0.75133066335E+03  0.75133066335E+03  0.25500000920E-02 0.  1.
    10030    2    1    2    0    0  0.00000000000E+00  0.00000000000E+00  0.32570001318E+03  0.18283613399E+04  0.17991177534E+04 0.  0.
        2    1    3    3  502    0 -0.26883820113E+03  0.60357123789E+03  0.78320981558E+03  0.10246901155E+04  0.25500000920E-02 0. -1.
       -2    1    3    3    0  502  0.26883820113E+03 -0.60357123789E+03 -0.45750980240E+03  0.80367122438E+03  0.25500000920E-02 0.  1.
</event>
<event>
 5   0  0.4494757E-05  0.1807089E+04  0.7818609E-02  0.8702539E-01
        1   -1    0    0  501    0  0.00000000000E+00  0.00000000000E+00  0.25143113536E+04  0.25143113536E+04  0.50400001928E-02 0. -1.
       -1   -1    0    0    0  501  0.00000000000E+00  0.00000000000E+00 -0.32469834913E+03  0.32469834917E+03  0.50400001928E-02 0.  1.
    10030    2    1    2    0    0  0.00000000000E+00  0.00000000000E+00  0.21896130044E+04  0.28390097027E+04  0.18070890911E+04 0.  0.
        4    1    3    3  502    0  0.80795274146E+02 -0.61839729691E+02 -0.31566841855E+03  0.33166276828E+03  0.12699999809E+01 0.  1.
       -4    1    3    3    0  502 -0.80795274146E+02  0.61839729691E+02  0.25052814230E+04  0.25073469344E+04  0.12699999809E+01 0. -1.
</event>
<event>
 5   0  0.9184414E-05  0.1795916E+04  0.7818609E-02  0.8708474E-01
       -2   -1    0    0    0  501  0.00000000000E+00  0.00000000000E+00  0.51219484079E+03  0.51219484079E+03  0.25500000920E-02 0. -1.
        2   -1    0    0  501    0  0.00000000000E+00  0.00000000000E+00 -0.15742616888E+04  0.15742616888E+04  0.25500000920E-02 0.  1.
    10030    2    1    2    0    0  0.00000000000E+00  0.00000000000E+00 -0.10620668480E+04  0.20864565296E+04  0.17959161618E+04 0.  0.
        5    1    3    3  502    0  0.32632856813E+03  0.40125010540E+03 -0.13838251482E+04  0.14773239700E+04  0.46999998093E+01 0.  1.
       -5    1    3    3    0  502 -0.32632856813E+03 -0.40125010540E+03  0.32175830019E+03  0.60913255962E+03  0.46999998093E+01 0. -1.
</event>
<event>
 5   0  0.4494757E-05  0.1781065E+04  0.7818609E-02  0.8716434E-01
        1   -1    0    0  501    0  0.00000000000E+00  0.00000000000E+00  0.11730284995E+04  0.11730284995E+04  0.50400001928E-02 0. -1.
       -1   -1    0    0    0  501  0.00000000000E+00  0.00000000000E+00 -0.67606891813E+03  0.67606891815E+03  0.50400001928E-02 0.  1.
    10030    2    1    2    0    0  0.00000000000E+00  0.00000000000E+00  0.49695958140E+03  0.18490974177E+04  0.17810649720E+04 0.  0.
        4    1    3    3  502    0 -0.88063295462E+03  0.44898898273E+02  0.11915776793E+03  0.88979239061E+03  0.12699999809E+01 0.  1.
       -4    1    3    3    0  502  0.88063295462E+03 -0.44898898273E+02  0.37780181346E+03  0.95930502708E+03  0.12699999809E+01 0. -1.
</event>
<event>
 5   0  0.8893075E-05  0.1794201E+04  0.7818609E-02  0.8709390E-01
        2   -1    0    0  501    0  0.00000000000E+00  0.00000000000E+00  0.88799916172E+03  0.88799916172E+03  0.25500000920E-02 0.  1.
       -2   -1    0    0    0  501  0.00000000000E+00  0.00000000000E+00 -0.90629474218E+03  0.90629474218E+03  0.25500000920E-02 0. -1.
    10030    2    1    2    0    0  0.00000000000E+00  0.00000000000E+00 -0.18295580460E+02  0.17942939039E+04  0.17942006257E+04 0.  0.
        1    1    3    3  502    0 -0.88929871154E+03 -0.11183441337E+03  0.28667360300E+02  0.89676136845E+03  0.50400001928E-02 0.  1.
       -1    1    3    3    0  502  0.88929871154E+03  0.11183441337E+03 -0.46962940760E+02  0.89753253545E+03  0.50400001928E-02 0. -1.
</event>
<event>
 5   0  0.4578107E-05  0.1797208E+04  0.7818609E-02  0.8707786E-01
        1   -1    0    0  501    0  0.00000000000E+00  0.00000000000E+00  0.11579814169E+04  0.11579814169E+04  0.50400001928E-02 0.  1.
       -1   -1    0    0    0  501  0.00000000000E+00  0.00000000000E+00 -0.69732463773E+03  0.69732463774E+03  0.50400001928E-02 0. -1.
    10030    2    1    2    0    0  0.00000000000E+00  0.00000000000E+00  0.46065677915E+03  0.18553060546E+04  0.17972078033E+04 0.  0.
        2    1    3    3  502    0 -0.35759044387E+03 -0.82301807902E+03  0.27939692251E+03  0.93983632844E+03  0.25500000920E-02 0. -1.
       -2    1    3    3    0  502  0.35759044387E+03  0.82301807902E+03  0.18125985665E+03  0.91546972620E+03  0.25500000920E-02 0.  1.
</event>
<event>
 5   0  0.4578107E-05  0.1793480E+04  0.7818609E-02  0.8709775E-01
       -1   -1    0    0    0  501  0.00000000000E+00  0.00000000000E+00  0.47523888488E+03  0.47523888491E+03  0.50400001928E-02 0. -1.
        1   -1    0    0  501    0  0.00000000000E+00  0.00000000000E+00 -0.16920804372E+04  0.16920804372E+04  0.50400001928E-02 0.  1.
    10030    2    1    2    0    0  0.00000000000E+00  0.00000000000E+00 -0.12168415523E+04  0.21673193221E+04  0.17934797686E+04 0.  0.
        2    1    3    3  502    0 -0.56296187096E+03  0.69730598575E+03 -0.64626483007E+03  0.11049072072E+04  0.25500000920E-02 0. -1.
       -2    1    3    3    0  502  0.56296187096E+03 -0.69730598575E+03 -0.57057672222E+03  0.10624121149E+04  0.25500000920E-02 0.  1.
</event>
<event>
 5   0  0.4335117E-05  0.1801213E+04  0.7818609E-02  0.8705655E-01
        1   -1    0    0  501    0  0.00000000000E+00  0.00000000000E+00  0.51146983765E+03  0.51146983767E+03  0.50400001928E-02 0.  1.
       -1   -1    0    0    0  501  0.00000000000E+00  0.00000000000E+00 -0.15858055798E+04  0.15858055798E+04  0.50400001928E-02 0. -1.
    10030    2    1    2    0    0  0.00000000000E+00  0.00000000000E+00 -0.10743357422E+04  0.20972754175E+04  0.18012126165E+04 0.  0.
        3    1    3    3  502    0 -0.46598954208E+03 -0.66183146341E+03 -0.77390314622E+02  0.81311525031E+03  0.10100000352E+00 0.  1.
       -3    1    3    3    0  502  0.46598954208E+03  0.66183146341E+03 -0.99694542754E+03  0.12841601672E+04  0.10100000352E+00 0. -1.
</event>
<event>
 5   0  0.4623665E-05  0.1802203E+04  0.7818609E-02  0.8705129E-01
        1   -1    0    0  501    0  0.00000000000E+00  0.00000000000E+00  0.14617731925E+04  0.14617731925E+04  0.50400001928E-02 0.  1.
       -1   -1    0    0    0  501  0.00000000000E+00  0.00000000000E+00 -0.55547887337E+03  0.55547887339E+03  0.50400001928E-02 0. -1.
    10030    2    1    2    0    0  0.00000000000E+00  0.00000000000E+00  0.90629431910E+03  0.20172520659E+04  0.18022032362E+04 0.  0.
        5    1    3    3  502    0  0.80907067042E+03  0.38821407293E+03  0.54447012855E+03  0.10496548609E+04  0.46999998093E+01 0. -1.
       -5    1    3    3    0  502 -0.80907067042E+03 -0.38821407293E+03  0.36182419056E+03  0.96759720495E+03  0.46999998093E+01 0.  1.
</event>
<event>
 5   0  0.4494757E-05  0.1808686E+04  0.7818609E-02  0.8701694E-01
        1   -1    0    0  501    0  0.00000000000E+00  0.00000000000E+00  0.55310199078E+03  0.55310199081E+03  0.50400001928E-02 0.  1.
       -1   -1    0    0    0  501  0.00000000000E+00  0.00000000000E+00 -0.14786353072E+04  0.14786353072E+04  0.50400001928E-02 0. -1.
    10030    2    1    2    0    0  0.00000000000E+00  0.00000000000E+00 -0.92553331643E+03  0.20317372980E+04  0.18086858567E+04 0.  0.
        4    1    3    3  502    0 -0.78300306354E+03 -0.40873554113E+03 -0.24472640166E+03  0.91654305118E+03  0.12699999809E+01 0.  1.
       -4    1    3    3    0  502  0.78300306354E+03  0.40873554113E+03 -0.68080691477E+03  0.11151942468E+04  0.12699999809E+01 0. -1.
</event>
<event>
 5   0  0.8892280E-05  0.1800924E+04  0.7818609E-02  0.8705808E-01
       -2   -1    0    0    0  501  0.00000000000E+00  0.00000000000E+00  0.68580253051E+03  0.68580253051E+03  0.25500000920E-02 0.  1.
        2   -1    0    0  501    0  0.00000000000E+00  0.00000000000E+00 -0.11823114809E+04  0.11823114809E+04  0.25500000920E-02 0. -1.
    10030    2    1    2    0    0  0.00000000000E+00  0.00000000000E+00 -0.49650895041E+03  0.18681140114E+04  0.18009244354E+04 0.  0.
        4    1    3    3  502    0 -0.47957456327E+03 -0.54496945855E+03 -0.80090442281E+03  0.10809407846E+04  0.12699999809E+01 0. -1.
       -4    1    3    3    0  502  0.47957456327E+03  0.54496945855E+03  0.30439547240E+03  0.78717322681E+03  0.12699999809E+01 0.  1.
</event>
<event>
 5   0  0.8893075E-05  0.1870493E+04  0.7818609E-02  0.8669685E-01
       -2   -1    0    0    0  501  0.00000000000E+00  0.00000000000E+00  0.70326195379E+03  0.70326195380E+03  0.25500000920E-02 0.  1.
        2   -1    0    0  501    0  0.00000000000E+00  0.00000000000E+00 -0.12437555859E+04  0.12437555859E+04  0.25500000920E-02 0. -1.
    10030    2    1    2    0    0  0.00000000000E+00  0.00000000000E+00 -0.54049363214E+03  0.19470175397E+04  0.18704929654E+04 0.  0.
        1    1    3    3  502    0 -0.92049526538E+03  0.14053460921E+03 -0.36113736200E+03  0.99874005839E+03  0.50400001928E-02 0.  1.
       -1    1    3    3    0  502  0.92049526538E+03 -0.14053460921E+03 -0.17935627014E+03  0.94827748135E+03  0.50400001928E-02 0. -1.
</event>
<event>
 5   0  0.9184414E-05  0.1801998E+04  0.7818609E-02  0.8705238E-01
       -2   -1    0    0    0  501  0.00000000000E+00  0.00000000000E+00  0.91596880901E+03  0.91596880901E+03  0.25500000920E-02 0.  1.
        2   -1    0    0  501    0  0.00000000000E+00  0.00000000000E+00 -0.88627373344E+03  0.88627373345E+03  0.25500000920E-02 0. -1.
    10030    2    1    2    0    0  0.00000000000E+00  0.00000000000E+00  0.29695075567E+02  0.18022425425E+04  0.18019978869E+04 0.  0.
        5    1    3    3  502    0  0.86892025664E+03 -0.14687663521E+03  0.20244125193E+03  0.90421220344E+03  0.46999998093E+01 0.  1.
       -5    1    3    3    0  502 -0.86892025664E+03  0.14687663521E+03 -0.17274617636E+03  0.89803033902E+03  0.46999998093E+01 0. -1.
</event>
<event>
 5   0  0.8802655E-05  0.1875745E+04  0.7818609E-02  0.8667024E-01
       -2   -1    0    0    0  501  0.00000000000E+00  0.00000000000E+00  0.68050732233E+03  0.68050732234E+03  0.25500000920E-02 0. -1.
        2   -1    0    0  501    0  0.00000000000E+00  0.00000000000E+00 -0.12925728171E+04  0.12925728171E+04  0.25500000920E-02 0.  1.
    10030    2    1    2    0    0  0.00000000000E+00  0.00000000000E+00 -0.61206549476E+03  0.19730801394E+04  0.18757454696E+04 0.  0.
        2    1    3    3  502    0  0.71271806450E+03  0.36382243132E+03 -0.82056934909E+03  0.11461535053E+04  0.25500000920E-02 0.  1.
       -2    1    3    3    0  502 -0.71271806450E+03 -0.36382243132E+03  0.20850385433E+03  0.82692663416E+03  0.25500000920E-02 0. -1.
</event>
<event>
 5   0  0.4578107E-05  0.1802116E+04  0.7818609E-02  0.8705175E-01
       -1   -1    0    0    0  501  0.00000000000E+00  0.00000000000E+00  0.72964827251E+03  0.72964827252E+03  0.50400001928E-02 0. -1.
        1   -1    0    0  501    0  0.00000000000E+00  0.00000000000E+00 -0.11127359827E+04  0.11127359827E+04  0.50400001928E-02 0.  1.
    10030    2    1    2    0    0  0.00000000000E+00  0.00000000000E+00 -0.38308771015E+03  0.18423842552E+04  0.18021164086E+04 0.  0.
        2    1    3    3  502    0 -0.83551263069E+03 -0.32611217467E+03 -0.10315163560E+03  0.90281269732E+03  0.25500000920E-02 0. -1.
       -2    1    3    3    0  502  0.83551263069E+03  0.32611217467E+03 -0.27993607455E+03  0.93957155787E+03  0.25500000920E-02 0.  1.
</event>
<event>
 5   0  0.4535100E-05  0.1803198E+04  0.7818609E-02  0.8704601E-01
       -1   -1    0    0    0  501  0.00000000000E+00  0.00000000000E+00  0.88882128076E+03  0.88882128078E+03  0.50400001928E-02 0. -1.
        1   -1    0    0  501    0  0.00000000000E+00  0.00000000000E+00 -0.91456040507E+03  0.91456040508E+03  0.50400001928E-02 0.  1.
    10030    2    1    2    0    0  0.00000000000E+00  0.00000000000E+00 -0.25739124305E+02  0.18033816859E+04  0.18031979931E+04 0.  0.
        1    1    3    3  502    0  0.55949242693E+03  0.48609389839E+03  0.50056533908E+03  0.89436274104E+03  0.50400001928E-02 0. -1.
       -1    1    3    3    0  502 -0.55949242693E+03 -0.48609389839E+03 -0.52630446338E+03  0.90901894482E+03  0.50400001928E-02 0.  1.
</event>
<event>
 5   0  0.9184414E-05  0.1789714E+04  0.7818609E-02  0.8711789E-01
       -2   -1    0    0    0  501  0.00000000000E+00  0.00000000000E+00  0.11098741868E+04  0.11098741868E+04  0.25500000920E-02 0. -1.
        2   -1    0    0  501    0  0.00000000000E+00  0.00000000000E+00 -0.72149502784E+03  0.72149502784E+03  0.25500000920E-02 0.  1.
    10030    2    1    2    0    0  0.00000000000E+00  0.00000000000E+00  0.38837915897E+03  0.18313692146E+04  0.17897136165E+04 0.  0.
        5    1    3    3  502    0 -0.17237985861E+03  0.24615952461E+03  0.10566819094E+04  0.10985936805E+04  0.46999998093E+01 0. -1.
       -5    1    3    3    0  502  0.17237985861E+03 -0.24615952461E+03 -0.66830275042E+03  0.73277553414E+03  0.46999998093E+01 0.  1.
</event>
<event>
 5   0  0.8893075E-05  0.1796890E+04  0.7818609E-02  0.8707955E-01
       -2   -1    0    0    0  501  0.00000000000E+00  0.00000000000E+00  0.11908200920E+04  0.11908200920E+04  0.25500000920E-02 0. -1.
        2   -1    0    0  501    0  0.00000000000E+00  0.00000000000E+00 -0.67785500966E+03  0.67785500967E+03  0.25500000920E-02 0.  1.
    10030    2    1    2    0    0  0.00000000000E+00  0.00000000000E+00  0.51296508233E+03  0.18686751017E+04  0.17968899410E+04 0.  0.
        1    1    3    3  502    0 -0.83440892928E+02 -0.10031720593E+03 -0.66794874419E+03  0.68057435252E+03  0.50400001928E-02 0.  1.
       -1    1    3    3    0  502  0.83440892928E+02  0.10031720593E+03  0.11809138265E+04  0.11881007491E+04  0.50400001928E-02 0. -1.
</event>
<event>
 5   0  0.4623665E-05  0.1802293E+04  0.7818609E-02  0.8705081E-01
       -1   -1    0    0    0  501  0.00000000000E+00  0.00000000000E+00  0.11345419226E+04  0.11345419226E+04  0.50400001928E-02 0.  1.
        1   -1    0    0  501    0  0.00000000000E+00  0.00000000000E+00 -0.71576459250E+03  0.71576459251E+03  0.50400001928E-02 0. -1.
    10030    2    1    2    0    0  0.00000000000E+00  0.00000000000E+00  0.41877733012E+03  0.18503065151E+04  0.18022929140E+04 0.  0.
        5    1    3    3  502    0 -0.35960956195E+03 -0.82553831300E+03  0.17367244596E+03  0.91706965480E+03  0.46999998093E+01 0. -1.
       -5    1    3    3    0  502  0.35960956195E+03  0.82553831300E+03  0.24510488416E+03  0.93323686034E+03  0.46999998093E+01 0.  1.
</event>
<event>
 5   0  0.4335117E-05  0.1806372E+04  0.7818609E-02  0.8702918E-01
       -1   -1    0    0    0  501  0.00000000000E+00  0.00000000000E+00  0.59500814011E+03  0.59500814013E+03  0.50400001928E-02 0. -1.
        1   -1    0    0  501    0  0.00000000000E+00  0.00000000000E+00 -0.13709809852E+04  0.13709809852E+04  0.50400001928E-02 0.  1.
    10030    2    1    2    0    0  0.00000000000E+00  0.00000000000E+00 -0.77597284510E+03  0.19659891253E+04  0.18063718844E+04 0.  0.
        3    1    3    3  502    0 -0.52805672053E+03 -0.12184531292E+03  0.39839262368E+03  0.67261197817E+03  0.10100000352E+00 0. -1.
       -3    1    3    3    0  502  0.52805672053E+03  0.12184531292E+03 -0.11743654688E+04  0.12933771472E+04  0.10100000352E+00 0.  1.
</event>
<event>
 5   0  0.9184414E-05  0.1800691E+04  0.7818609E-02  0.8705932E-01
       -2   -1    0    0    0  501  0.00000000000E+00  0.00000000000E+00  0.55398318451E+03  0.55398318452E+03  0.25500000920E-02 0. -1.
        2   -1    0    0  501    0  0.00000000000E+00  0.00000000000E+00 -0.14632613411E+04  0.14632613411E+04  0.25500000920E-02 0.  1.
    10030    2    1    2    0    0  0.00000000000E+00  0.00000000000E+00 -0.90927815656E+03  0.20172445256E+04  0.18006911756E+04 0.  0.
        5    1    3    3  502    0  0.81838618339E+03 -0.32977106464E+03 -0.25394282435E+03  0.91815791032E+03  0.46999998093E+01 0. -1.
       -5    1    3    3    0  502 -0.81838618339E+03  0.32977106464E+03 -0.65533533221E+03  0.10990866153E+04  0.46999998093E+01 0.  1.
</event>
<event>
 5   0  0.4335117E-05  0.1797977E+04  0.7818609E-02  0.8707376E-01
       -1   -1    0    0    0  501  0.00000000000E+00  0.00000000000E+00  0.63904390887E+03  0.63904390889E+03  0.50400001928E-02 0.  1.
        1   -1    0    0  501    0  0.00000000000E+00  0.00000000000E+00 -0.12646717011E+04  0.12646717011E+04  0.50400001928E-02 0. -1.
    10030    2    1    2    0    0  0.00000000000E+00  0.00000000000E+00 -0.62562779219E+03  0.19037156100E+04  0.17979774718E+04 0.  0.
        3    1    3    3  502    0 -0.67724501271E+03  0.19800184703E+03 -0.90263369746E+03  0.11456933013E+04  0.10100000352E+00 0. -1.
       -3    1    3    3    0  502  0.67724501271E+03 -0.19800184703E+03  0.27700590527E+03  0.75802230866E+03  0.10100000352E+00 0.  1.
</event>
<event>
 5   0  0.9184414E-05  0.1783119E+04  0.7818609E-02  0.8715329E-01
       -2   -1    0    0    0  501  0.00000000000E+00  0.00000000000E+00  0.10160001020E+04  0.10160001020E+04  0.25500000920E-02 0.  1.
        2   -1    0    0  501    0  0.00000000000E+00  0.00000000000E+00 -0.78236015425E+03  0.78236015426E+03  0.25500000920E-02 0. -1.
    10030    2    1    2    0    0  0.00000000000E+00  0.00000000000E+00  0.23363994770E+03  0.17983602562E+04  0.17831186124E+04 0.  0.
        5    1    3    3  502    0 -0.80437158121E+03 -0.95834669892E+01 -0.27084880771E+03  0.84881485033E+03  0.46999998093E+01 0. -1.
       -5    1    3    3    0  502  0.80437158121E+03  0.95834669892E+01  0.50448875541E+03  0.94954540589E+03  0.46999998093E+01 0.  1.
</event>
<event>
 5   0  0.4578107E-05  0.1797694E+04  0.7818609E-02  0.8707527E-01
        1   -1    0    0  501    0  0.00000000000E+00  0.00000000000E+00  0.25040641137E+04  0.25040641137E+04  0.50400001928E-02 0.  1.
       -1   -1    0    0    0  501  0.00000000000E+00  0.00000000000E+00 -0.32264602052E+03  0.32264602056E+03  0.50400001928E-02 0. -1.
    10030    2    1    2    0    0  0.00000000000E+00  0.00000000000E+00  0.21814180932E+04  0.28267101343E+04  0.17976944362E+04 0.  0.
        2    1    3    3  502    0 -0.66756175252E+03 -0.38546124156E+03  0.36380842708E+03  0.85239406016E+03  0.25500000920E-02 0. -1.
       -2    1    3    3    0  502  0.66756175252E+03  0.38546124156E+03  0.18176096661E+04  0.19743160741E+04  0.25500000920E-02 0.  1.
</event>
<event>
 5   0  0.8893075E-05  0.1796194E+04  0.7818609E-02  0.8708326E-01
       -2   -1    0    0    0  501  0.00000000000E+00  0.00000000000E+00  0.26290674951E+03  0.26290674952E+03  0.25500000920E-02 0.  1.
        2   -1    0    0  501    0  0.00000000000E+00  0.00000000000E+00 -0.30679265250E+04  0.30679265250E+04  0.25500000920E-02 0. -1.
    10030    2    1    2    0    0  0.00000000000E+00  0.00000000000E+00 -0.28050197754E+04  0.33308332745E+04  0.17961944109E+04 0.  0.
        1    1    3    3  502    0 -0.39952998669E+03  0.76556827227E+03 -0.94503832477E+03  0.12801626557E+04  0.50400001928E-02 0. -1.
       -1    1    3    3    0  502  0.39952998669E+03 -0.76556827227E+03 -0.18599814507E+04  0.20506706188E+04  0.50400001928E-02 0.  1.
</event>
<event>
 5   0  0.4578107E-05  0.1812018E+04  0.7818609E-02  0.8699935E-01
       -1   -1    0    0    0  501  0.00000000000E+00  0.00000000000E+00  0.45665747117E+03  0.45665747120E+03  0.50400001928E-02 0. -1.
        1   -1    0    0  501    0  0.00000000000E+00  0.00000000000E+00 -0.17975222838E+04  0.17975222838E+04  0.50400001928E-02 0.  1.
    10030    2    1    2    0    0  0.00000000000E+00  0.00000000000E+00 -0.13408648126E+04  0.22541797550E+04  0.18120176385E+04 0.  0.
        2    1    3    3  502    0  0.89217822961E+03  0.64351451767E+02 -0.84954000852E+03  0.12336293320E+04  0.25500000920E-02 0.  1.
       -2    1    3    3    0  502 -0.89217822961E+03 -0.64351451767E+02 -0.49132480412E+03  0.10205504230E+04  0.25500000920E-02 0. -1.
</event>
<event>
 5   0  0.8892280E-05  0.1797091E+04  0.7818609E-02  0.8707848E-01
       -2   -1    0    0    0  501  0.00000000000E+00  0.00000000000E+00  0.31314879047E+03  0.31314879048E+03  0.25500000920E-02 0. -1.
        2   -1    0    0  501    0  0.00000000000E+00  0.00000000000E+00 -0.25782773968E+04  0.25782773968E+04  0.25500000920E-02 0.  1.
    10030    2    1    2    0    0  0.00000000000E+00  0.00000000000E+00 -0.22651286064E+04  0.28914261873E+04  0.17970914816E+04 0.  0.
        4    1    3    3  502    0  0.36826563237E+03 -0.15244530136E+03 -0.24282654610E+04  0.24607588074E+04  0.12699999809E+01 0.  1.
       -4    1    3    3    0  502 -0.36826563237E+03  0.15244530136E+03  0.16313685467E+03  0.43066737994E+03  0.12699999809E+01 0. -1.
</event>
<event>
 5   0  0.4494757E-05  0.1798330E+04  0.7818609E-02  0.8707188E-01
        1   -1    0    0  501    0  0.00000000000E+00  0.00000000000E+00  0.55095033595E+03  0.55095033597E+03  0.50400001928E-02 0. -1.
       -1   -1    0    0    0  501  0.00000000000E+00  0.00000000000E+00 -0.14674607775E+04  0.14674607775E+04  0.50400001928E-02 0.  1.
    10030    2    1    2    0    0  0.00000000000E+00  0.00000000000E+00 -0.91651044157E+03  0.20184111135E+04  0.17983303461E+04 0.  0.
        4    1    3    3  502    0 -0.42597333980E+03 -0.16834025660E+03 -0.13267085368E+04  0.14035486749E+04  0.12699999809E+01 0.  1.
       -4    1    3    3    0  502  0.42597333980E+03  0.16834025660E+03  0.41019809522E+03  0.61486243863E+03  0.12699999809E+01 0. -1.
</event>
<event>
 5   0  0.3270375E-05  0.1810327E+04  0.7818609E-02  0.8700827E-01
        4   -1    0    0  501    0  0.00000000000E+00  0.00000000000E+00  0.11395541786E+04  0.11395548862E+04  0.12699999809E+01 0.  1.
       -4   -1    0    0    0  501  0.00000000000E+00  0.00000000000E+00 -0.71898236152E+03  0.71898348317E+03  0.12699999809E+01 0. -1.
    10030    2    1    2    0    0  0.00000000000E+00  0.00000000000E+00  0.42057181704E+03  0.18585383694E+04  0.18103271023E+04 0.  0.
        5    1    3    3  502    0  0.76670306821E+03  0.13722362912E+03  0.68368988338E+03  0.10363965775E+04  0.46999998093E+01 0.  1.
       -5    1    3    3    0  502 -0.76670306821E+03 -0.13722362912E+03 -0.26311806634E+03  0.82214179193E+03  0.46999998093E+01 0. -1.
</event>
<event>
 5   0  0.4623665E-05  0.1802957E+04  0.7818609E-02  0.8704729E-01
        1   -1    0    0  501    0  0.00000000000E+00  0.00000000000E+00  0.17772687351E+04  0.17772687351E+04  0.50400001928E-02 0. -1.
       -1   -1    0    0    0  501  0.00000000000E+00  0.00000000000E+00 -0.45725413464E+03  0.45725413467E+03  0.50400001928E-02 0.  1.
    10030    2    1    2    0    0  0.00000000000E+00  0.00000000000E+00  0.13200146005E+04  0.22345228698E+04  0.18029569907E+04 0.  0.
        5    1    3    3  502    0 -0.12723350883E+03  0.83503524386E+03  0.26971699678E+03  0.88670264047E+03  0.46999998093E+01 0.  1.
       -5    1    3    3    0  502  0.12723350883E+03 -0.83503524386E+03  0.10502976037E+04  0.13478202293E+04  0.46999998093E+01 0. -1.
</event>
<event>
 5   0  0.4578107E-05  0.1799175E+04  0.7818609E-02  0.8706738E-01
        1   -1    0    0  501    0  0.00000000000E+00  0.00000000000E+00  0.22306595504E+04  0.22306595504E+04  0.50400001928E-02 0. -1.
       -1   -1    0    0    0  501  0.00000000000E+00  0.00000000000E+00 -0.36278859638E+03  0.36278859642E+03  0.50400001928E-02 0.  1.
    10030    2    1    2    0    0  0.00000000000E+00  0.00000000000E+00  0.18678709540E+04  0.25934481468E+04  0.17991751970E+04 0.  0.
        2    1    3    3  502    0  0.74150969768E+03 -0.16683646409E+01  0.16681188230E+04  0.18255026220E+04  0.25500000920E-02 0. -1.
       -2    1    3    3    0  502 -0.74150969768E+03  0.16683646409E+01  0.19975213095E+03  0.76794552478E+03  0.25500000920E-02 0.  1.
</event>
<event>
 5   0  0.4335117E-05  0.1805502E+04  0.7818609E-02  0.8703379E-01
       -1   -1    0    0    0  501  0.00000000000E+00  0.00000000000E+00  0.11675749165E+04  0.11675749166E+04  0.50400001928E-02 0.  1.
        1   -1    0    0  501    0  0.00000000000E+00  0.00000000000E+00 -0.69799349188E+03  0.69799349190E+03  0.50400001928E-02 0. -1.
    10030    2    1    2    0    0  0.00000000000E+00  0.00000000000E+00  0.46958142466E+03  0.18655684085E+04  0.18055023601E+04 0.  0.
        3    1    3    3  502    0  0.12987471266E+03  0.89330918804E+02 -0.68366349960E+03  0.70160048812E+03  0.10100000352E+00 0. -1.
       -3    1    3    3    0  502 -0.12987471266E+03 -0.89330918804E+02  0.11532449243E+04  0.11639679203E+04  0.10100000352E+00 0.  1.
</event>
<event>
 5   0  0.4623665E-05  0.1800224E+04  0.7818609E-02  0.8706180E-01
        1   -1    0    0  501    0  0.00000000000E+00  0.00000000000E+00  0.13601748926E+04  0.13601748926E+04  0.50400001928E-02 0. -1.
       -1   -1    0    0    0  501  0.00000000000E+00  0.00000000000E+00 -0.59566011512E+03  0.59566011514E+03  0.50400001928E-02 0.  1.
    10030    2    1    2    0    0  0.00000000000E+00  0.00000000000E+00  0.76451477752E+03  0.19558350078E+04  0.18002243562E+04 0.  0.
        5    1    3    3  502    0 -0.68871800321E+03  0.36283808948E+03  0.87319812047E+03  0.11698209328E+04  0.46999998093E+01 0. -1.
       -5    1    3    3    0  502  0.68871800321E+03 -0.36283808948E+03 -0.10868334295E+03  0.78601407504E+03  0.46999998093E+01 0.  1.
</event>
<event>
 5   0  0.4623665E-05  0.1789116E+04  0.7818609E-02  0.8712109E-01
        1   -1    0    0  501    0  0.00000000000E+00  0.00000000000E+00  0.11141964314E+04  0.11141964314E+04  0.50400001928E-02 0. -1.
       -1   -1    0    0    0  501  0.00000000000E+00  0.00000000000E+00 -0.71821614450E+03  0.71821614452E+03  0.50400001928E-02 0.  1.
    10030    2    1    2    0    0  0.00000000000E+00  0.00000000000E+00  0.39598028686E+03  0.18324125759E+04  0.17891158321E+04 0.  0.
        5    1    3    3  502    0  0.29373531323E+03 -0.84192618348E+03  0.27107270419E+03  0.93199926696E+03  0.46999998093E+01 0. -1.
       -5    1    3    3    0  502 -0.29373531323E+03  0.84192618348E+03  0.12490758267E+03  0.90041330892E+03  0.46999998093E+01 0.  1.
</event>
<event>
 5   0  0.4623665E-05  0.1790454E+04  0.7818609E-02  0.8711392E-01
        1   -1    0    0  501    0  0.00000000000E+00  0.00000000000E+00  0.66247843718E+03  0.66247843720E+03  0.50400001928E-02 0.  1.
       -1   -1    0    0    0  501  0.00000000000E+00  0.00000000000E+00 -0.12097470115E+04  0.12097470116E+04  0.50400001928E-02 0. -1.
    10030    2    1    2    0    0  0.00000000000E+00  0.00000000000E+00 -0.54726857437E+03  0.18722254488E+04  0.17904539197E+04 0.  0.
        5    1    3    3  502    0 -0.23379406923E+03  0.24540663449E+03  0.59277523682E+03  0.68285331839E+03  0.46999998093E+01 0.  1.
       -5    1    3    3    0  502  0.23379406923E+03 -0.24540663449E+03 -0.11400438112E+04  0.11893721304E+04  0.46999998093E+01 0. -1.
</event>
<event>
 5   0  0.8892280E-05  0.1803284E+04  0.7818609E-02  0.8704555E-01
       -2   -1    0    0    0  501  0.00000000000E+00  0.00000000000E+00  0.54862188454E+03  0.54862188455E+03  0.25500000920E-02 0.  1.
        2   -1    0    0  501    0  0.00000000000E+00  0.00000000000E+00 -0.14818183202E+04  0.14818183202E+04  0.25500000920E-02 0. -1.
    10030    2    1    2    0    0  0.00000000000E+00  0.00000000000E+00 -0.93319643561E+03  0.20304402047E+04  0.18032836265E+04 0.  0.
        4    1    3    3  502    0 -0.41755933877E+03 -0.64815490833E+02  0.43022652153E+03  0.60303675010E+03  0.12699999809E+01 0.  1.
       -4    1    3    3    0  502  0.41755933877E+03  0.64815490833E+02 -0.13634229571E+04  0.14274034546E+04  0.12699999809E+01 0. -1.
</event>
<event>
 5   0  0.4494757E-05  0.1799331E+04  0.7818609E-02  0.8706655E-01
        1   -1    0    0  501    0  0.00000000000E+00  0.00000000000E+00  0.16531809436E+04  0.16531809437E+04  0.50400001928E-02 0. -1.
       -1   -1    0    0    0  501  0.00000000000E+00  0.00000000000E+00 -0.48960045614E+03  0.48960045617E+03  0.50400001928E-02 0.  1.
    10030    2    1    2    0    0  0.00000000000E+00  0.00000000000E+00  0.11635804875E+04  0.21427813998E+04  0.17993311470E+04 0.  0.
        4    1    3    3  502    0 -0.62834761310E+03  0.32147895230E+03 -0.82572801637E+02  0.71062600581E+03  0.12699999809E+01 0.  1.
       -4    1    3    3    0  502  0.62834761310E+03 -0.32147895230E+03  0.12461532891E+04  0.14321553940E+04  0.12699999809E+01 0. -1.
</event>
<event>
 5   0  0.9147432E-05  0.1798245E+04  0.7818609E-02  0.8707234E-01
        2   -1    0    0  501    0  0.00000000000E+00  0.00000000000E+00  0.43400192979E+03  0.43400192980E+03  0.25500000920E-02 0. -1.
       -2   -1    0    0    0  501  0.00000000000E+00  0.00000000000E+00 -0.18627128067E+04  0.18627128067E+04  0.25500000920E-02 0.  1.
    10030    2    1    2    0    0  0.00000000000E+00  0.00000000000E+00 -0.14287108769E+04  0.22967147365E+04  0.17982446472E+04 0.  0.
        3    1    3    3  502    0  0.17810448044E+03 -0.87887783876E+03 -0.63086260916E+03  0.10964192188E+04  0.10100000352E+00 0. -1.
       -3    1    3    3    0  502 -0.17810448044E+03  0.87887783876E+03 -0.79784826779E+03  0.12002955178E+04  0.10100000352E+00 0.  1.
</event>
<event>
 5   0  0.8893075E-05  0.1799874E+04  0.7818609E-02  0.8706366E-01
       -2   -1    0    0    0  501  0.00000000000E+00  0.00000000000E+00  0.68767126576E+03  0.68767126576E+03  0.25500000920E-02 0. -1.
        2   -1    0    0  501    0  0.00000000000E+00  0.00000000000E+00 -0.11777234799E+04  0.11777234799E+04  0.25500000920E-02 0.  1.
    10030    2    1    2    0    0  0.00000000000E+00  0.00000000000E+00 -0.49005221414E+03  0.18653947457E+04  0.17998739913E+04 0.  0.
        1    1    3    3  502    0 -0.81889461154E+03  0.18818917239E+03 -0.57906803911E+03  0.10204525189E+04  0.50400001928E-02 0.  1.
       -1    1    3    3    0  502  0.81889461154E+03 -0.18818917239E+03  0.89015824968E+02  0.84494222674E+03  0.50400001928E-02 0. -1.
</event>
<event>
 5   0  0.4494757E-05  0.1803455E+04  0.7818609E-02  0.8704464E-01
        1   -1    0    0  501    0  0.00000000000E+00  0.00000000000E+00  0.94687473888E+03  0.94687473889E+03  0.50400001928E-02 0. -1.
       -1   -1    0    0    0  501  0.00000000000E+00  0.00000000000E+00 -0.85873254676E+03  0.85873254678E+03  0.50400001928E-02 0.  1.
    10030    2    1    2    0    0  0.00000000000E+00  0.00000000000E+00  0.88142192118E+02  0.18056072857E+04  0.18034546360E+04 0.  0.
        4    1    3    3  502    0  0.47924352296E+03  0.40629828684E+03 -0.60350686248E+03  0.87119159669E+03  0.12699999809E+01 0.  1.
       -4    1    3    3    0  502 -0.47924352296E+03 -0.40629828684E+03  0.69164905460E+03  0.93441568898E+03  0.12699999809E+01 0. -1.
</event>
<event>
 5   0  0.8893075E-05  0.1802960E+04  0.7818609E-02  0.8704727E-01
       -2   -1    0    0    0  501  0.00000000000E+00  0.00000000000E+00  0.61535537533E+03  0.61535537534E+03  0.25500000920E-02 0.  1.
        2   -1    0    0  501    0  0.00000000000E+00  0.00000000000E+00 -0.13206450496E+04  0.13206450496E+04  0.25500000920E-02 0. -1.
    10030    2    1    2    0    0  0.00000000000E+00  0.00000000000E+00 -0.70528967427E+03  0.19360004249E+04  0.18029598223E+04 0.  0.
        1    1    3    3  502    0  0.64285377826E+03  0.43770571130E+02  0.32434485929E+03  0.72137121574E+03  0.50400001928E-02 0.  1.
       -1    1    3    3    0  502 -0.64285377826E+03 -0.43770571130E+02 -0.10296345336E+04  0.12146292092E+04  0.50400001928E-02 0. -1.
</event>
<event>
 5   0  0.8893075E-05  0.1798425E+04  0.7818609E-02  0.8707137E-01
       -2   -1    0    0    0  501  0.00000000000E+00  0.00000000000E+00  0.30587978012E+03  0.30587978013E+03  0.25500000920E-02 0. -1.
        2   -1    0    0  501    0  0.00000000000E+00  0.00000000000E+00 -0.26434672067E+04  0.26434672067E+04  0.25500000920E-02 0.  1.
    10030    2    1    2    0    0  0.00000000000E+00  0.00000000000E+00 -0.23375874266E+04  0.29493469869E+04  0.17984250532E+04 0.  0.
        1    1    3    3  502    0 -0.32817213902E+03 -0.47081121117E+03 -0.33515349800E+02  0.57487688081E+03  0.50400001928E-02 0. -1.
       -1    1    3    3    0  502  0.32817213902E+03  0.47081121117E+03 -0.23040720768E+04  0.23744701061E+04  0.50400001928E-02 0.  1.
</event>
<event>
 5   0  0.4578107E-05  0.1800521E+04  0.7818609E-02  0.8706023E-01
       -1   -1    0    0    0  501  0.00000000000E+00  0.00000000000E+00  0.12804490211E+04  0.12804490211E+04  0.50400001928E-02 0.  1.
        1   -1    0    0  501    0  0.00000000000E+00  0.00000000000E+00 -0.63295657346E+03  0.63295657348E+03  0.50400001928E-02 0. -1.
    10030    2    1    2    0    0  0.00000000000E+00  0.00000000000E+00  0.64749244760E+03  0.19134055946E+04  0.18005206190E+04 0.  0.
        2    1    3    3  502    0  0.58338517080E+03  0.22901896368E+03 -0.36305511771E+03  0.72429066109E+03  0.25500000920E-02 0. -1.
       -2    1    3    3    0  502 -0.58338517080E+03 -0.22901896368E+03  0.10105475653E+04  0.11891149335E+04  0.25500000920E-02 0.  1.
</event>
<event>
 5   0  0.8893075E-05  0.1797484E+04  0.7818609E-02  0.8707639E-01
        2   -1    0    0  501    0  0.00000000000E+00  0.00000000000E+00  0.17991836128E+04  0.17991836128E+04  0.25500000920E-02 0.  1.
       -2   -1    0    0    0  501  0.00000000000E+00  0.00000000000E+00 -0.44894650624E+03  0.44894650625E+03  0.25500000920E-02 0. -1.
    10030    2    1    2    0    0  0.00000000000E+00  0.00000000000E+00  0.13502371066E+04  0.22481301191E+04  0.17974840161E+04 0.  0.
        1    1    3    3  502    0 -0.37221293854E+03 -0.48016879688E+03 -0.15321811272E+03  0.62656231550E+03  0.50400001928E-02 0. -1.
       -1    1    3    3    0  502  0.37221293854E+03  0.48016879688E+03  0.15034552193E+04  0.16215678036E+04  0.50400001928E-02 0.  1.
</event>
<event>
 5   0  0.4494757E-05  0.1797871E+04  0.7818609E-02  0.8707432E-01
        1   -1    0    0  501    0  0.00000000000E+00  0.00000000000E+00  0.10952399886E+04  0.10952399886E+04  0.50400001928E-02 0. -1.
       -1   -1    0    0    0  501  0.00000000000E+00  0.00000000000E+00 -0.73781565542E+03  0.73781565543E+03  0.50400001928E-02 0.  1.
    10030    2    1    2    0    0  0.00000000000E+00  0.00000000000E+00  0.35742433320E+03  0.18330556441E+04  0.17978711968E+04 0.  0.
        4    1    3    3  502    0 -0.22316444539E+03  0.85656992435E+03  0.18899016328E+02  0.88536613370E+03  0.12699999809E+01 0.  1.
       -4    1    3    3    0  502  0.22316444539E+03 -0.85656992435E+03  0.33852531687E+03  0.94768951036E+03  0.12699999809E+01 0. -1.
</event>
<event>
 5   0  0.4578107E-05  0.1799703E+04  0.7818609E-02  0.8706457E-01
       -1   -1    0    0    0  501  0.00000000000E+00  0.00000000000E+00  0.11839065816E+04  0.11839065816E+04  0.50400001928E-02 0. -1.
        1   -1    0    0  501    0  0.00000000000E+00  0.00000000000E+00 -0.68395021819E+03  0.68395021821E+03  0.50400001928E-02 0.  1.
    10030    2    1    2    0    0  0.00000000000E+00  0.00000000000E+00  0.49995636342E+03  0.18678567998E+04  0.17997034921E+04 0.  0.
        2    1    3    3  502    0  0.11553750905E+03 -0.14703411723E+03 -0.66356204531E+03  0.68940738001E+03  0.25500000920E-02 0.  1.
       -2    1    3    3    0  502 -0.11553750905E+03  0.14703411723E+03  0.11635184087E+04  0.11784494198E+04  0.25500000920E-02 0. -1.
</event>
<event>
 5   0  0.4535100E-05  0.1797468E+04  0.7818609E-02  0.8707647E-01
        1   -1    0    0  501    0  0.00000000000E+00  0.00000000000E+00  0.13653809328E+04  0.13653809328E+04  0.50400001928E-02 0.  1.
       -1   -1    0    0    0  501  0.00000000000E+00  0.00000000000E+00 -0.59157322857E+03  0.59157322859E+03  0.50400001928E-02 0. -1.
    10030    2    1    2    0    0  0.00000000000E+00  0.00000000000E+00  0.77380770422E+03  0.19569541614E+04  0.17974680043E+04 0.  0.
        1    1    3    3  502    0  0.65807849604E+03  0.61207973877E+03  0.39096191349E+03  0.98008169628E+03  0.50400001928E-02 0.  1.
       -1    1    3    3    0  502 -0.65807849604E+03 -0.61207973877E+03  0.38284579073E+03  0.97687246510E+03  0.50400001928E-02 0. -1.
</event>
<event>
 5   0  0.8893075E-05  0.1798626E+04  0.7818609E-02  0.8707031E-01
       -2   -1    0    0    0  501  0.00000000000E+00  0.00000000000E+00  0.37080608878E+03  0.37080608879E+03  0.25500000920E-02 0. -1.
        2   -1    0    0  501    0  0.00000000000E+00  0.00000000000E+00 -0.21810959892E+04  0.21810959892E+04  0.25500000920E-02 0.  1.
    10030    2    1    2    0    0  0.00000000000E+00  0.00000000000E+00 -0.18102899004E+04  0.25519020780E+04  0.17986257788E+04 0.  0.
        1    1    3    3  502    0  0.34078317279E+02  0.87821727176E+03 -0.11756007637E+04  0.14678092737E+04  0.50400001928E-02 0.  1.
       -1    1    3    3    0  502 -0.34078317279E+02 -0.87821727176E+03 -0.63468913663E+03  0.10840928043E+04  0.50400001928E-02 0. -1.
</event>
<event>
 5   0  0.4535100E-05  0.1796139E+04  0.7818609E-02  0.8708356E-01
        1   -1    0    0  501    0  0.00000000000E+00  0.00000000000E+00  0.11949376313E+04  0.11949376314E+04  0.50400001928E-02 0.  1.
       -1   -1    0    0    0  501  0.00000000000E+00  0.00000000000E+00 -0.67495439696E+03  0.67495439698E+03  0.50400001928E-02 0. -1.
    10030    2    1    2    0    0  0.00000000000E+00  0.00000000000E+00  0.51998323438E+03  0.18698920283E+04  0.17961385341E+04 0.  0.
        1    1    3    3  502    0  0.87863165667E+03 -0.11294425849E+03  0.10635673492E+03  0.89222292546E+03  0.50400001928E-02 0. -1.
       -1    1    3    3    0  502 -0.87863165667E+03  0.11294425849E+03  0.41362649946E+03  0.97766910287E+03  0.50400001928E-02 0.  1.
</event>
<event>
 5   0  0.4494757E-05  0.1806662E+04  0.7818609E-02  0.8702765E-01
       -1   -1    0    0    0  501  0.00000000000E+00  0.00000000000E+00  0.10133303938E+04  0.10133303938E+04  0.50400001928E-02 0.  1.
        1   -1    0    0  501    0  0.00000000000E+00  0.00000000000E+00 -0.80527260978E+03  0.80527260979E+03  0.50400001928E-02 0. -1.
    10030    2    1    2    0    0  0.00000000000E+00  0.00000000000E+00  0.20805778402E+03  0.18186030036E+04  0.18066623490E+04 0.  0.
        4    1    3    3  502    0  0.84980204788E+03 -0.29447719832E+03  0.18899802299E+03  0.91902241894E+03  0.12699999809E+01 0.  1.
       -4    1    3    3    0  502 -0.84980204788E+03  0.29447719832E+03  0.19059761036E+02  0.89958058467E+03  0.12699999809E+01 0. -1.
</event>
<event>
 5   0  0.8802655E-05  0.1785921E+04  0.7818609E-02  0.8713822E-01
       -2   -1    0    0    0  501  0.00000000000E+00  0.00000000000E+00  0.11447700640E+04  0.11447700640E+04  0.25500000920E-02 0.  1.
        2   -1    0    0  501    0  0.00000000000E+00  0.00000000000E+00 -0.69654060151E+03  0.69654060151E+03  0.25500000920E-02 0. -1.
    10030    2    1    2    0    0  0.00000000000E+00  0.00000000000E+00  0.44822946245E+03  0.18413106655E+04  0.17859214193E+04 0.  0.
        2    1    3    3  502    0 -0.33786129913E+03 -0.62602020965E+03  0.78060207462E+03  0.10561208071E+04  0.25500000920E-02 0.  1.
       -2    1    3    3    0  502  0.33786129913E+03  0.62602020965E+03 -0.33237261217E+03  0.78518985835E+03  0.25500000920E-02 0. -1.
</event>
<event>
 5   0  0.8802655E-05  0.1807934E+04  0.7818609E-02  0.8702092E-01
        2   -1    0    0  501    0  0.00000000000E+00  0.00000000000E+00  0.65964951005E+03  0.65964951005E+03  0.25500000920E-02 0. -1.
       -2   -1    0    0    0  501  0.00000000000E+00  0.00000000000E+00 -0.12387734025E+04  0.12387734025E+04  0.25500000920E-02 0.  1.
    10030    2    1    2    0    0  0.00000000000E+00  0.00000000000E+00 -0.57912389248E+03  0.18984229126E+04  0.18079339236E+04 0.  0.
        2    1    3    3  502    0  0.84749759790E+03 -0.15488471715E+03 -0.57696691081E+03  0.10368858521E+04  0.25500000920E-02 0.  1.
       -2    1    3    3    0  502 -0.84749759790E+03  0.15488471715E+03 -0.21569816716E+01  0.86153706051E+03  0.25500000920E-02 0. -1.
</event>
<event>
 5   0  0.9184414E-05  0.1797558E+04  0.7818609E-02  0.8707599E-01
        2   -1    0    0  501    0  0.00000000000E+00  0.00000000000E+00  0.76643683777E+03  0.76643683778E+03  0.25500000920E-02 0.  1.
       -2   -1    0    0    0  501  0.00000000000E+00  0.00000000000E+00 -0.10539725931E+04  0.10539725931E+04  0.25500000920E-02 0. -1.
    10030    2    1    2    0    0  0.00000000000E+00  0.00000000000E+00 -0.28753575533E+03  0.18204094309E+04  0.17975577002E+04 0.  0.
        5    1    3    3  502    0  0.57037849039E+01  0.69149060502E+03 -0.72516509392E+03  0.10020370719E+04  0.46999998093E+01 0. -1.
       -5    1    3    3    0  502 -0.57037849039E+01 -0.69149060502E+03  0.43762933859E+03  0.81837235900E+03  0.46999998093E+01 0.  1.
</event>
<event>
 5   0  0.8893075E-05  0.1711017E+04  0.7818609E-02  0.8755106E-01
       -2   -1    0    0    0  501  0.00000000000E+00  0.00000000000E+00  0.76295843938E+03  0.76295843939E+03  0.25500000920E-02 0. -1.
        2   -1    0    0  501    0  0.00000000000E+00  0.00000000000E+00 -0.95928492837E+03  0.95928492837E+03  0.25500000920E-02 0.  1.
    10030    2    1    2    0    0  0.00000000000E+00  0.00000000000E+00 -0.19632648899E+03  0.17222433678E+04  0.17110166941E+04 0.  0.
        1    1    3    3  502    0 -0.71879168321E+03 -0.30098321560E+03 -0.45352668286E+03  0.90163120621E+03  0.50400001928E-02 0.  1.
       -1    1    3    3    0  502  0.71879168321E+03  0.30098321560E+03  0.25720019388E+03  0.82061216155E+03  0.50400001928E-02 0. -1.
</event>
<event>
 5   0  0.4335117E-05  0.1794246E+04  0.7818609E-02  0.8709365E-01
       -1   -1    0    0    0  501  0.00000000000E+00  0.00000000000E+00  0.42032461826E+03  0.42032461829E+03  0.50400001928E-02 0. -1.
        1   -1    0    0  501    0  0.00000000000E+00  0.00000000000E+00 -0.19147816274E+04  0.19147816274E+04  0.50400001928E-02 0.  1.
    10030    2    1    2    0    0  0.00000000000E+00  0.00000000000E+00 -0.14944570092E+04  0.23351062457E+04  0.17942462001E+04 0.  0.
        3    1    3    3  502    0  0.10653104590E+03  0.36472913400E+03  0.31043076459E+03  0.49065616753E+03  0.10100000352E+00 0. -1.
       -3    1    3    3    0  502 -0.10653104590E+03 -0.36472913400E+03 -0.18048877737E+04  0.18444500782E+04  0.10100000352E+00 0.  1.
</event>
<event>
 5   0  0.8892280E-05  0.1802738E+04  0.7818609E-02  0.8704845E-01
       -2   -1    0    0    0  501  0.00000000000E+00  0.00000000000E+00  0.29772374269E+03  0.29772374270E+03  0.25500000920E-02 0.  1.
        2   -1    0    0  501    0  0.00000000000E+00  0.00000000000E+00 -0.27289266933E+04  0.27289266933E+04  0.25500000920E-02 0. -1.
    10030    2    1    2    0    0  0.00000000000E+00  0.00000000000E+00 -0.24312029507E+04  0.30266504360E+04  0.18027382158E+04 0.  0.
        4    1    3    3  502    0  0.35331409360E+03  0.67496396875E+03 -0.40682715117E+03  0.86366495337E+03  0.12699999809E+01 0.  1.
       -4    1    3    3    0  502 -0.35331409360E+03 -0.67496396875E+03 -0.20243757995E+04  0.21629854827E+04  0.12699999809E+01 0. -1.
</event>
<event>
 5   0  0.9184414E-05  0.1800653E+04  0.7818609E-02  0.8705952E-01
       -2   -1    0    0    0  501  0.00000000000E+00  0.00000000000E+00  0.91987010747E+03  0.91987010747E+03  0.25500000920E-02 0. -1.
        2   -1    0    0  501    0  0.00000000000E+00  0.00000000000E+00 -0.88119812559E+03  0.88119812560E+03  0.25500000920E-02 0.  1.
    10030    2    1    2    0    0  0.00000000000E+00  0.00000000000E+00  0.38671981874E+02  0.18010682331E+04  0.18006530088E+04 0.  0.
        5    1    3    3  502    0 -0.52420523421E+03 -0.46212417862E+03  0.58710747779E+03  0.91272513087E+03  0.46999998093E+01 0. -1.
       -5    1    3    3    0  502  0.52420523421E+03  0.46212417862E+03 -0.54843549592E+03  0.88834310220E+03  0.46999998093E+01 0.  1.
</event>
<event>
 5   0  0.8893075E-05  0.1790139E+04  0.7818609E-02  0.8711561E-01
       -2   -1    0    0    0  501  0.00000000000E+00  0.00000000000E+00  0.64161832061E+03  0.64161832062E+03  0.25500000920E-02 0.  1.
        2   -1    0    0  501    0  0.00000000000E+00  0.00000000000E+00 -0.12486389666E+04  0.12486389666E+04  0.25500000920E-02 0. -1.
    10030    2    1    2    0    0  0.00000000000E+00  0.00000000000E+00 -0.60702064602E+03  0.18902572872E+04  0.17901392536E+04 0.  0.
        1    1    3    3  502    0  0.39553099363E+03 -0.39616963897E+03 -0.10409639941E+04  0.11819480475E+04  0.50400001928E-02 0. -1.
       -1    1    3    3    0  502 -0.39553099363E+03  0.39616963897E+03  0.43394334812E+03  0.70830923979E+03  0.50400001928E-02 0.  1.
</event>
<event>
 5   0  0.4535100E-05  0.1798845E+04  0.7818609E-02  0.8706914E-01
       -1   -1    0    0    0  501  0.00000000000E+00  0.00000000000E+00  0.92610948353E+03  0.92610948354E+03  0.50400001928E-02 0. -1.
        1   -1    0    0  501    0  0.00000000000E+00  0.00000000000E+00 -0.87350416156E+03  0.87350416157E+03  0.50400001928E-02 0.  1.
    10030    2    1    2    0    0  0.00000000000E+00  0.00000000000E+00  0.52605321976E+02  0.17996136451E+04  0.17988446158E+04 0.  0.
        1    1    3    3  502    0 -0.84600648916E+03 -0.39080886490E+02  0.32926242803E+03  0.90866277680E+03  0.50400001928E-02 0. -1.
       -1    1    3    3    0  502  0.84600648916E+03  0.39080886490E+02 -0.27665710606E+03  0.89095086832E+03  0.50400001928E-02 0.  1.
</event>
<event>
 5   0  0.3270375E-05  0.1803022E+04  0.7818609E-02  0.8704694E-01
       -4   -1    0    0    0  501  0.00000000000E+00  0.00000000000E+00  0.10278550501E+04  0.10278558347E+04  0.12699999809E+01 0.  1.
        4   -1    0    0  501    0  0.00000000000E+00  0.00000000000E+00 -0.79069545189E+03  0.79069647181E+03  0.12699999809E+01 0. -1.
    10030    2    1    2    0    0  0.00000000000E+00  0.00000000000E+00  0.23715959819E+03  0.18185523065E+04  0.18030218569E+04 0.  0.
        5    1    3    3  502    0  0.49060418822E+03  0.73123483709E+03  0.31338328775E+03  0.93468071100E+03  0.46999998093E+01 0. -1.
       -5    1    3    3    0  502 -0.49060418822E+03 -0.73123483709E+03 -0.76223689558E+02  0.88387159549E+03  0.46999998093E+01 0.  1.
</event>
<event>
 5   0  0.4578107E-05  0.1801842E+04  0.7818609E-02  0.8705321E-01
       -1   -1    0    0    0  501  0.00000000000E+00  0.00000000000E+00  0.76021822335E+03  0.76021822337E+03  0.50400001928E-02 0.  1.
        1   -1    0    0  501    0  0.00000000000E+00  0.00000000000E+00 -0.10676651154E+04  0.10676651154E+04  0.50400001928E-02 0. -1.
    10030    2    1    2    0    0  0.00000000000E+00  0.00000000000E+00 -0.30744689204E+03  0.18278833388E+04  0.18018418101E+04 0.  0.
        2    1    3    3  502    0  0.82848350000E+02 -0.82828495344E+03 -0.50328840620E+03  0.97273790561E+03  0.25500000920E-02 0. -1.
       -2    1    3    3    0  502 -0.82848350000E+02  0.82828495344E+03  0.19584151416E+03  0.85514543317E+03  0.25500000920E-02 0.  1.
</event>
<event>
 5   0  0.8802655E-05  0.1799481E+04  0.7818609E-02  0.8706576E-01
        2   -1    0    0  501    0  0.00000000000E+00  0.00000000000E+00  0.13223051341E+04  0.13223051341E+04  0.25500000920E-02 0. -1.
       -2   -1    0    0    0  501  0.00000000000E+00  0.00000000000E+00 -0.61221340315E+03  0.61221340315E+03  0.25500000920E-02 0.  1.
    10030    2    1    2    0    0  0.00000000000E+00  0.00000000000E+00  0.71009173093E+03  0.19345185372E+04  0.17994809542E+04 0.  0.
        2    1    3    3  502    0  0.37475600938E+03 -0.43821902397E+03 -0.38747701872E+03  0.69470599506E+03  0.25500000920E-02 0.  1.
       -2    1    3    3    0  502 -0.37475600938E+03  0.43821902397E+03  0.10975687496E+04  0.12398125422E+04  0.25500000920E-02 0. -1.
</event>
<event>
 5   0  0.8892280E-05  0.1794848E+04  0.7818609E-02  0.8709044E-01
        2   -1    0    0  501    0  0.00000000000E+00  0.00000000000E+00  0.77441960664E+03  0.77441960665E+03  0.25500000920E-02 0. -1.
       -2   -1    0    0    0  501  0.00000000000E+00  0.00000000000E+00 -0.10399656345E+04  0.10399656345E+04  0.25500000920E-02 0.  1.
    10030    2    1    2    0    0  0.00000000000E+00  0.00000000000E+00 -0.26554602783E+03  0.18143852411E+04  0.17948479352E+04 0.  0.
        4    1    3    3  502    0  0.24129521737E+03  0.18418637157E+03  0.72094343851E+03  0.78224616063E+03  0.12699999809E+01 0. -1.
       -4    1    3    3    0  502 -0.24129521737E+03 -0.18418637157E+03 -0.98648946634E+03  0.10321390805E+04  0.12699999809E+01 0.  1.
</event>
<event>
 5   0  0.9184414E-05  0.1800774E+04  0.7818609E-02  0.8705888E-01
       -2   -1    0    0    0  501  0.00000000000E+00  0.00000000000E+00  0.30012365344E+03  0.30012365346E+03  0.25500000920E-02 0.  1.
        2   -1    0    0  501    0  0.00000000000E+00  0.00000000000E+00 -0.27012104476E+04  0.27012104476E+04  0.25500000920E-02 0. -1.
    10030    2    1    2    0    0  0.00000000000E+00  0.00000000000E+00 -0.24010867941E+04  0.30013341010E+04  0.18007744426E+04 0.  0.
        5    1    3    3  502    0  0.40299430531E+03 -0.62430355535E+03 -0.35312380209E+03  0.82272586500E+03  0.46999998093E+01 0.  1.
       -5    1    3    3    0  502 -0.40299430531E+03  0.62430355535E+03 -0.20479629920E+04  0.21786082360E+04  0.46999998093E+01 0. -1.
</event>
<event>
 5   0  0.4535100E-05  0.1799445E+04  0.7818609E-02  0.8706595E-01
        1   -1    0    0  501    0  0.00000000000E+00  0.00000000000E+00  0.14483881792E+04  0.14483881792E+04  0.50400001928E-02 0. -1.
       -1   -1    0    0    0  501  0.00000000000E+00  0.00000000000E+00 -0.55889766917E+03  0.55889766919E+03  0.50400001928E-02 0.  1.
    10030    2    1    2    0    0  0.00000000000E+00  0.00000000000E+00  0.88949051001E+03  0.20072858484E+04  0.17994452227E+04 0.  0.
        1    1    3    3  502    0  0.11962819828E+03 -0.86959258177E+03  0.66503545358E+03  0.11012603319E+04  0.50400001928E-02 0.  1.
       -1    1    3    3    0  502 -0.11962819828E+03  0.86959258177E+03  0.22445505643E+03  0.90602551646E+03  0.50400001928E-02 0. -1.
</event>
<event>
 5   0  0.4494757E-05  0.1806686E+04  0.7818609E-02  0.8702752E-01
        1   -1    0    0  501    0  0.00000000000E+00  0.00000000000E+00  0.81985531576E+03  0.81985531578E+03  0.50400001928E-02 0. -1.
       -1   -1    0    0    0  501  0.00000000000E+00  0.00000000000E+00 -0.99533250002E+03  0.99533250003E+03  0.50400001928E-02 0.  1.
    10030    2    1    2    0    0  0.00000000000E+00  0.00000000000E+00 -0.17547718425E+03  0.18151878158E+04  0.18066860725E+04 0.  0.
        4    1    3    3  502    0 -0.63235590473E+03 -0.64439200213E+03 -0.57397385299E+02  0.90466077366E+03  0.12699999809E+01 0.  1.
       -4    1    3    3    0  502  0.63235590473E+03  0.64439200213E+03 -0.11807979896E+03  0.91052704215E+03  0.12699999809E+01 0. -1.
</event>
<event>
 5   0  0.8802655E-05  0.1797429E+04  0.7818609E-02  0.8707668E-01
        2   -1    0    0  501    0  0.00000000000E+00  0.00000000000E+00  0.81451479653E+03  0.81451479653E+03  0.25500000920E-02 0. -1.
       -2   -1    0    0    0  501  0.00000000000E+00  0.00000000000E+00 -0.99161854931E+03  0.99161854931E+03  0.25500000920E-02 0.  1.
    10030    2    1    2    0    0  0.00000000000E+00  0.00000000000E+00 -0.17710375278E+03  0.18061333458E+04  0.17974292542E+04 0.  0.
        2    1    3    3  502    0 -0.10904983339E+03 -0.87238298742E+03  0.98748284692E+02  0.88470060848E+03  0.25500000920E-02 0. -1.
       -2    1    3    3    0  502  0.10904983339E+03  0.87238298742E+03 -0.27585203747E+03  0.92143273737E+03  0.25500000920E-02 0.  1.
</event>
<event>
 5   0  0.8893075E-05  0.1798057E+04  0.7818609E-02  0.8707333E-01
       -2   -1    0    0    0  501  0.00000000000E+00  0.00000000000E+00  0.10758875186E+04  0.10758875186E+04  0.25500000920E-02 0.  1.
        2   -1    0    0  501    0  0.00000000000E+00  0.00000000000E+00 -0.75124240982E+03  0.75124240983E+03  0.25500000920E-02 0. -1.
    10030    2    1    2    0    0  0.00000000000E+00  0.00000000000E+00  0.32464510878E+03  0.18271299284E+04  0.17980570983E+04 0.  0.
        1    1    3    3  502    0  0.51598996265E+03 -0.73391314422E+02 -0.58206575535E+03  0.78130177919E+03  0.50400001928E-02 0. -1.
       -1    1    3    3    0  502 -0.51598996265E+03  0.73391314422E+02  0.90671086414E+03  0.10458281492E+04  0.50400001928E-02 0.  1.
</event>
<event>
 5   0  0.8893075E-05  0.1804141E+04  0.7818609E-02  0.8704100E-01
       -2   -1    0    0    0  501  0.00000000000E+00  0.00000000000E+00  0.13816086039E+04  0.13816086039E+04  0.25500000920E-02 0. -1.
        2   -1    0    0  501    0  0.00000000000E+00  0.00000000000E+00 -0.58897386139E+03  0.58897386140E+03  0.25500000920E-02 0.  1.
    10030    2    1    2    0    0  0.00000000000E+00  0.00000000000E+00  0.79263474248E+03  0.19705824653E+04  0.18041411856E+04 0.  0.
        1    1    3    3  502    0 -0.59046568079E+03 -0.42594478717E+03 -0.18540736715E+03  0.75130191915E+03  0.50400001928E-02 0. -1.
       -1    1    3    3    0  502  0.59046568079E+03  0.42594478717E+03  0.97804210963E+03  0.12192805461E+04  0.50400001928E-02 0.  1.
</event>
<event>
 5   0  0.4578107E-05  0.1805262E+04  0.7818609E-02  0.8703506E-01
       -1   -1    0    0    0  501  0.00000000000E+00  0.00000000000E+00  0.11917178122E+04  0.11917178122E+04  0.50400001928E-02 0. -1.
        1   -1    0    0  501    0  0.00000000000E+00  0.00000000000E+00 -0.68367090885E+03  0.68367090887E+03  0.50400001928E-02 0.  1.
    10030    2    1    2    0    0  0.00000000000E+00  0.00000000000E+00  0.50804690333E+03  0.18753887211E+04  0.18052620860E+04 0.  0.
        2    1    3    3  502    0  0.69091287276E+03 -0.40913932805E+03 -0.17428748536E+03  0.82166399159E+03  0.25500000920E-02 0.  1.
       -2    1    3    3    0  502 -0.69091287276E+03  0.40913932805E+03  0.68233438870E+03  0.10537247295E+04  0.25500000920E-02 0. -1.
</event>
<event>
 5   0  0.9184414E-05  0.1803786E+04  0.7818609E-02  0.8704289E-01
       -2   -1    0    0    0  501  0.00000000000E+00  0.00000000000E+00  0.72791301735E+03  0.72791301735E+03  0.25500000920E-02 0.  1.
        2   -1    0    0  501    0  0.00000000000E+00  0.00000000000E+00 -0.11174561877E+04  0.11174561877E+04  0.25500000920E-02 0. -1.
    10030    2    1    2    0    0  0.00000000000E+00  0.00000000000E+00 -0.38954317036E+03  0.18453692051E+04  0.18037859134E+04 0.  0.
        5    1    3    3  502    0 -0.44869813632E+01  0.54945532127E+03 -0.92642821630E+03  0.10771316600E+04  0.46999998093E+01 0. -1.
       -5    1    3    3    0  502  0.44869813632E+01 -0.54945532127E+03  0.53688504594E+03  0.76823754505E+03  0.46999998093E+01 0.  1.
</event>
<event>
 5   0  0.4494757E-05  0.1805664E+04  0.7818609E-02  0.8703293E-01
        1   -1    0    0  501    0  0.00000000000E+00  0.00000000000E+00  0.17614086872E+04  0.17614086872E+04  0.50400001928E-02 0. -1.
       -1   -1    0    0    0  501  0.00000000000E+00  0.00000000000E+00 -0.46275770500E+03  0.46275770503E+03  0.50400001928E-02 0.  1.
    10030    2    1    2    0    0  0.00000000000E+00  0.00000000000E+00  0.12986509822E+04  0.22241663922E+04  0.18056638023E+04 0.  0.
        4    1    3    3  502    0  0.80143864487E+02  0.53407027349E+03  0.15405105022E+04  0.16324301872E+04  0.12699999809E+01 0. -1.
       -4    1    3    3    0  502 -0.80143864487E+02 -0.53407027349E+03 -0.24185951995E+03  0.59173620502E+03  0.12699999809E+01 0.  1.
</event>
<event>
 5   0  0.4535100E-05  0.1806868E+04  0.7818609E-02  0.8702656E-01
        1   -1    0    0  501    0  0.00000000000E+00  0.00000000000E+00  0.63241072815E+03  0.63241072817E+03  0.50400001928E-02 0.  1.
       -1   -1    0    0    0  501  0.00000000000E+00  0.00000000000E+00 -0.12906061611E+04  0.12906061611E+04  0.50400001928E-02 0. -1.
    10030    2    1    2    0    0  0.00000000000E+00  0.00000000000E+00 -0.65819543295E+03  0.19230168893E+04  0.18068682100E+04 0.  0.
        1    1    3    3  502    0 -0.14061290114E+03  0.38734352931E+03  0.52656508912E+03  0.66863875955E+03  0.50400001928E-02 0.  1.
       -1    1    3    3    0  502  0.14061290114E+03 -0.38734352931E+03 -0.11847605221E+04  0.12543781297E+04  0.50400001928E-02 0. -1.
</event>
<event>
 5   0  0.4535100E-05  0.1802563E+04  0.7818609E-02  0.8704938E-01
        1   -1    0    0  501    0  0.00000000000E+00  0.00000000000E+00  0.47273563952E+03  0.47273563954E+03  0.50400001928E-02 0. -1.
       -1   -1    0    0    0  501  0.00000000000E+00  0.00000000000E+00 -0.17183136635E+04  0.17183136635E+04  0.50400001928E-02 0.  1.
    10030    2    1    2    0    0  0.00000000000E+00  0.00000000000E+00 -0.12455780240E+04  0.21910493030E+04  0.18025627408E+04 0.  0.
        1    1    3    3  502    0 -0.97602855464E+02  0.64555053106E+03 -0.13780228831E+04  0.15248635585E+04  0.50400001928E-02 0.  1.
       -1    1    3    3    0  502  0.97602855464E+02 -0.64555053106E+03  0.13244485912E+03  0.66618574458E+03  0.50400001928E-02 0. -1.
</event>
<event>
 5   0  0.4578107E-05  0.1799824E+04  0.7818609E-02  0.8706393E-01
        1   -1    0    0  501    0  0.00000000000E+00  0.00000000000E+00  0.14714254416E+04  0.14714254416E+04  0.50400001928E-02 0. -1.
       -1   -1    0    0    0  501  0.00000000000E+00  0.00000000000E+00 -0.55037894459E+03  0.55037894462E+03  0.50400001928E-02 0.  1.
    10030    2    1    2    0    0  0.00000000000E+00  0.00000000000E+00  0.92104649705E+03  0.20218043863E+04  0.17998239710E+04 0.  0.
        2    1    3    3  502    0  0.45443654829E+03  0.65397408889E+03 -0.10269042388E+02  0.79642961936E+03  0.25500000920E-02 0.  1.
       -2    1    3    3    0  502 -0.45443654829E+03 -0.65397408889E+03  0.93131553944E+03  0.12253747669E+04  0.25500000920E-02 0. -1.
</event>
<event>
 5   0  0.4335117E-05  0.1801129E+04  0.7818609E-02  0.8705699E-01
       -1   -1    0    0    0  501  0.00000000000E+00  0.00000000000E+00  0.55079105638E+03  0.55079105640E+03  0.50400001928E-02 0.  1.
        1   -1    0    0  501    0  0.00000000000E+00  0.00000000000E+00 -0.14724582932E+04  0.14724582932E+04  0.50400001928E-02 0. -1.
    10030    2    1    2    0    0  0.00000000000E+00  0.00000000000E+00 -0.92166723680E+03  0.20232493496E+04  0.18011294887E+04 0.  0.
        3    1    3    3  502    0  0.47098490511E+03 -0.64481004844E+03  0.69463589330E+01  0.79853305600E+03  0.10100000352E+00 0.  1.
       -3    1    3    3    0  502 -0.47098490511E+03  0.64481004844E+03 -0.92861359573E+03  0.12247162936E+04  0.10100000352E+00 0. -1.
</event>
<event>
 5   0  0.9147432E-05  0.1779727E+04  0.7818609E-02  0.8717155E-01
        2   -1    0    0  501    0  0.00000000000E+00  0.00000000000E+00  0.75351939641E+03  0.75351939642E+03  0.25500000920E-02 0. -1.
       -2   -1    0    0    0  501  0.00000000000E+00  0.00000000000E+00 -0.10508783374E+04  0.10508783374E+04  0.25500000920E-02 0.  1.
    10030    2    1    2    0    0  0.00000000000E+00  0.00000000000E+00 -0.29735894094E+03  0.18043977338E+04  0.17797271819E+04 0.  0.
        3    1    3    3  502    0 -0.19598416441E+03  0.82343845340E+03  0.12971108208E+03  0.85632099954E+03  0.10100000352E+00 0. -1.
       -3    1    3    3    0  502  0.19598416441E+03 -0.82343845340E+03 -0.42707002302E+03  0.94807673423E+03  0.10100000352E+00 0.  1.
</event>
<event>
 5   0  0.4335117E-05  0.1794587E+04  0.7818609E-02  0.8709184E-01
       -1   -1    0    0    0  501  0.00000000000E+00  0.00000000000E+00  0.97272202990E+03  0.97272202991E+03  0.50400001928E-02 0.  1.
        1   -1    0    0  501    0  0.00000000000E+00  0.00000000000E+00 -0.82771362919E+03  0.82771362921E+03  0.50400001928E-02 0. -1.
    10030    2    1    2    0    0  0.00000000000E+00  0.00000000000E+00  0.14500840071E+03  0.18004356591E+04  0.17945866171E+04 0.  0.
        3    1    3    3  502    0  0.87968367731E+03 -0.61193023979E+02  0.23901898638E+03  0.91362905184E+03  0.10100000352E+00 0.  1.
       -3    1    3    3    0  502 -0.87968367731E+03  0.61193023979E+02 -0.94010585673E+02  0.88680660729E+03  0.10100000352E+00 0. -1.
</event>
<event>
 5   0  0.8892280E-05  0.1821954E+04  0.7818609E-02  0.8694711E-01
        2   -1    0    0  501    0  0.00000000000E+00  0.00000000000E+00  0.64471568123E+03  0.64471568124E+03  0.25500000920E-02 0.  1.
       -2   -1    0    0    0  501  0.00000000000E+00  0.00000000000E+00 -0.12872016119E+04  0.12872016119E+04  0.25500000920E-02 0. -1.
    10030    2    1    2    0    0  0.00000000000E+00  0.00000000000E+00 -0.64248593065E+03  0.19319172931E+04  0.18219539666E+04 0.  0.
        4    1    3    3  502    0  0.10449592997E+03  0.40053426925E+03 -0.11817194931E+04  0.12521220681E+04  0.12699999809E+01 0. -1.
       -4    1    3    3    0  502 -0.10449592997E+03 -0.40053426925E+03  0.53923356242E+03  0.67979522502E+03  0.12699999809E+01 0.  1.
</event>
<event>
 5   0  0.9147432E-05  0.1796137E+04  0.7818609E-02  0.8708356E-01
        2   -1    0    0  501    0  0.00000000000E+00  0.00000000000E+00  0.15894863746E+04  0.15894863746E+04  0.25500000920E-02 0. -1.
       -2   -1    0    0    0  501  0.00000000000E+00  0.00000000000E+00 -0.50741377801E+03  0.50741377802E+03  0.25500000920E-02 0.  1.
    10030    2    1    2    0    0  0.00000000000E+00  0.00000000000E+00  0.10820725966E+04  0.20969001526E+04  0.17961372848E+04 0.  0.
        3    1    3    3  502    0  0.48464094108E+03  0.69261628716E+03  0.89501261576E+03  0.12311140303E+04  0.10100000352E+00 0.  1.
       -3    1    3    3    0  502 -0.48464094108E+03 -0.69261628716E+03  0.18705998084E+03  0.86578612234E+03  0.10100000352E+00 0. -1.
</event>
<event>
 5   0  0.8802655E-05  0.1799021E+04  0.7818609E-02  0.8706820E-01
        2   -1    0    0  501    0  0.00000000000E+00  0.00000000000E+00  0.64944450162E+03  0.64944450162E+03  0.25500000920E-02 0. -1.
       -2   -1    0    0    0  501  0.00000000000E+00  0.00000000000E+00 -0.12458632553E+04  0.12458632553E+04  0.25500000920E-02 0.  1.
    10030    2    1    2    0    0  0.00000000000E+00  0.00000000000E+00 -0.59641875371E+03  0.18953077570E+04  0.17990208903E+04 0.  0.
        2    1    3    3  502    0  0.39272247370E+03 -0.19262802900E+03  0.52984975191E+03  0.68707878624E+03  0.25500000920E-02 0. -1.
       -2    1    3    3    0  502 -0.39272247370E+03  0.19262802900E+03 -0.11262685056E+04  0.12082289707E+04  0.25500000920E-02 0.  1.
</event>
<event>
 5   0  0.4623665E-05  0.1799108E+04  0.7818609E-02  0.8706774E-01
        1   -1    0    0  501    0  0.00000000000E+00  0.00000000000E+00  0.16091421623E+04  0.16091421623E+04  0.50400001928E-02 0.  1.
       -1   -1    0    0    0  501  0.00000000000E+00  0.00000000000E+00 -0.50287484617E+03  0.50287484620E+03  0.50400001928E-02 0. -1.
    10030    2    1    2    0    0  0.00000000000E+00  0.00000000000E+00  0.11062673162E+04  0.21120170085E+04  0.17991076870E+04 0.  0.
        5    1    3    3  502    0 -0.23086226896E+03 -0.11727094620E+03  0.15644309203E+04  0.15857225660E+04  0.46999998093E+01 0.  1.
       -5    1    3    3    0  502  0.23086226896E+03  0.11727094620E+03 -0.45816360414E+03  0.52629444250E+03  0.46999998093E+01 0. -1.
</event>
<event>
 5   0  0.4535100E-05  0.1805196E+04  0.7818609E-02  0.8703541E-01
        1   -1    0    0  501    0  0.00000000000E+00  0.00000000000E+00  0.89205052593E+03  0.89205052594E+03  0.50400001928E-02 0.  1.
       -1   -1    0    0    0  501  0.00000000000E+00  0.00000000000E+00 -0.91326991331E+03  0.91326991333E+03  0.50400001928E-02 0. -1.
    10030    2    1    2    0    0  0.00000000000E+00  0.00000000000E+00 -0.21219387384E+02  0.18053204393E+04  0.18051957307E+04 0.  0.
        1    1    3    3  502    0  0.19414338795E+03  0.73942084505E+03 -0.49048455126E+03  0.90830057593E+03  0.50400001928E-02 0. -1.
       -1    1    3    3    0  502 -0.19414338795E+03 -0.73942084505E+03  0.46926516388E+03  0.89701986334E+03  0.50400001928E-02 0.  1.
</event>
<event>
 5   0  0.8892280E-05  0.1783607E+04  0.7818609E-02  0.8715066E-01
       -2   -1    0    0    0  501  0.00000000000E+00  0.00000000000E+00  0.29329291987E+03  0.29329291988E+03  0.25500000920E-02 0.  1.
        2   -1    0    0  501    0  0.00000000000E+00  0.00000000000E+00 -0.27116689538E+04  0.27116689538E+04  0.25500000920E-02 0. -1.
    10030    2    1    2    0    0  0.00000000000E+00  0.00000000000E+00 -0.24183760339E+04  0.30049618737E+04  0.17836068011E+04 0.  0.
        4    1    3    3  502    0  0.43418657329E+03 -0.75094037878E+03 -0.86030592628E+03  0.12217026367E+04  0.12699999809E+01 0.  1.
       -4    1    3    3    0  502 -0.43418657329E+03  0.75094037878E+03 -0.15580701077E+04  0.17832592370E+04  0.12699999809E+01 0. -1.
</event>
<event>
 5   0  0.8892280E-05  0.1797528E+04  0.7818609E-02  0.8707615E-01
       -2   -1    0    0    0  501  0.00000000000E+00  0.00000000000E+00  0.68992174527E+03  0.68992174527E+03  0.25500000920E-02 0.  1.
        2   -1    0    0  501    0  0.00000000000E+00  0.00000000000E+00 -0.11708233726E+04  0.11708233726E+04  0.25500000920E-02 0. -1.
    10030    2    1    2    0    0  0.00000000000E+00  0.00000000000E+00 -0.48090162732E+03  0.18607451179E+04  0.17975277518E+04 0.  0.
        4    1    3    3  502    0  0.61675801428E+03  0.33651580207E+03 -0.82064581265E+03  0.10803214781E+04  0.12699999809E+01 0. -1.
       -4    1    3    3    0  502 -0.61675801428E+03 -0.33651580207E+03  0.33974418532E+03  0.78042363982E+03  0.12699999809E+01 0.  1.
</event>
<event>
 5   0  0.9184414E-05  0.1804856E+04  0.7818609E-02  0.8703721E-01
       -2   -1    0    0    0  501  0.00000000000E+00  0.00000000000E+00  0.64603703816E+03  0.64603703817E+03  0.25500000920E-02 0. -1.
        2   -1    0    0  501    0  0.00000000000E+00  0.00000000000E+00 -0.12605719511E+04  0.12605719511E+04  0.25500000920E-02 0.  1.
    10030    2    1    2    0    0  0.00000000000E+00  0.00000000000E+00 -0.61453491292E+03  0.19066089893E+04  0.18048558609E+04 0.  0.
        5    1    3    3  502    0 -0.29175916270E+03 -0.18211244746E+02 -0.12091558453E+04  0.12439996008E+04  0.46999998093E+01 0.  1.
       -5    1    3    3    0  502  0.29175916270E+03  0.18211244746E+02  0.59462093240E+03  0.66260938848E+03  0.46999998093E+01 0. -1.
</event>
<event>
 5   0  0.9147432E-05  0.1787848E+04  0.7818609E-02  0.8712788E-01
        2   -1    0    0  501    0  0.00000000000E+00  0.00000000000E+00  0.11636951444E+04  0.11636951444E+04  0.25500000920E-02 0. -1.
       -2   -1    0    0    0  501  0.00000000000E+00  0.00000000000E+00 -0.68669210541E+03  0.68669210541E+03  0.25500000920E-02 0.  1.
    10030    2    1    2    0    0  0.00000000000E+00  0.00000000000E+00  0.47700303896E+03  0.18503872498E+04  0.17878481689E+04 0.  0.
        3    1    3    3  502    0  0.24378739074E+03  0.76496978805E+03 -0.16829857145E+03  0.82032645201E+03  0.10100000352E+00 0. -1.
       -3    1    3    3    0  502 -0.24378739074E+03 -0.76496978805E+03  0.64530161041E+03  0.10300607978E+04  0.10100000352E+00 0.  1.
</event>
<event>
 5   0  0.8892280E-05  0.1804599E+04  0.7818609E-02  0.8703858E-01
       -2   -1    0    0    0  501  0.00000000000E+00  0.00000000000E+00  0.10597553598E+04  0.10597553598E+04  0.25500000920E-02 0. -1.
        2   -1    0    0  501    0  0.00000000000E+00  0.00000000000E+00 -0.76823790020E+03  0.76823790021E+03  0.25500000920E-02 0.  1.
    10030    2    1    2    0    0  0.00000000000E+00  0.00000000000E+00  0.29151745963E+03  0.18279932600E+04  0.18045988279E+04 0.  0.
        4    1    3    3  502    0 -0.78230393136E+03 -0.44849510786E+03  0.11380110017E+03  0.90890021790E+03  0.12699999809E+01 0. -1.
       -4    1    3    3    0  502  0.78230393136E+03  0.44849510786E+03  0.17771635946E+03  0.91909304215E+03  0.12699999809E+01 0.  1.
</event>
<event>
 5   0  0.4623665E-05  0.1782468E+04  0.7818609E-02  0.8715679E-01
        1   -1    0    0  501    0  0.00000000000E+00  0.00000000000E+00  0.65939930149E+03  0.65939930151E+03  0.50400001928E-02 0.  1.
       -1   -1    0    0    0  501  0.00000000000E+00  0.00000000000E+00 -0.12045778076E+04  0.12045778076E+04  0.50400001928E-02 0. -1.
    10030    2    1    2    0    0  0.00000000000E+00  0.00000000000E+00 -0.54517850611E+03  0.18639771091E+04  0.17824676883E+04 0.  0.
        5    1    3    3  502    0 -0.39386543961E+03  0.42965828466E+02 -0.11074052090E+04  0.11761566366E+04  0.46999998093E+01 0. -1.
       -5    1    3    3    0  502  0.39386543961E+03 -0.42965828466E+02  0.56222670290E+03  0.68782047250E+03  0.46999998093E+01 0.  1.
</event>
<event>
 5   0  0.4578107E-05  0.1796301E+04  0.7818609E-02  0.8708269E-01
       -1   -1    0    0    0  501  0.00000000000E+00  0.00000000000E+00  0.70744019159E+03  0.70744019161E+03  0.50400001928E-02 0. -1.
        1   -1    0    0  501    0  0.00000000000E+00  0.00000000000E+00 -0.11402725215E+04  0.11402725215E+04  0.50400001928E-02 0.  1.
    10030    2    1    2    0    0  0.00000000000E+00  0.00000000000E+00 -0.43283232993E+03  0.18477127131E+04  0.17963013234E+04 0.  0.
        2    1    3    3  502    0  0.72564304871E+03  0.51752621676E+03 -0.33041867455E+03  0.95056179161E+03  0.25500000920E-02 0.  1.
       -2    1    3    3    0  502 -0.72564304871E+03 -0.51752621676E+03 -0.10241365538E+03  0.89715092152E+03  0.25500000920E-02 0. -1.
</event>
<event>
 5   0  0.8892280E-05  0.1792252E+04  0.7818609E-02  0.8710430E-01
        2   -1    0    0  501    0  0.00000000000E+00  0.00000000000E+00  0.15306322247E+04  0.15306322247E+04  0.25500000920E-02 0.  1.
       -2   -1    0    0    0  501  0.00000000000E+00  0.00000000000E+00 -0.52464742140E+03  0.52464742140E+03  0.25500000920E-02 0. -1.
    10030    2    1    2    0    0  0.00000000000E+00  0.00000000000E+00  0.10059848033E+04  0.20552796461E+04  0.17922524931E+04 0.  0.
        4    1    3    3  502    0  0.11619152027E+03  0.80967717224E+02  0.15177172182E+04  0.15243107977E+04  0.12699999809E+01 0.  1.
       -4    1    3    3    0  502 -0.11619152027E+03 -0.80967717224E+02 -0.51173241491E+03  0.53096884841E+03  0.12699999809E+01 0. -1.
</event>
<event>
 5   0  0.9147432E-05  0.1800306E+04  0.7818609E-02  0.8706137E-01
        2   -1    0    0  501    0  0.00000000000E+00  0.00000000000E+00  0.13946741214E+04  0.13946741214E+04  0.25500000920E-02 0. -1.
       -2   -1    0    0    0  501  0.00000000000E+00  0.00000000000E+00 -0.58097863067E+03  0.58097863068E+03  0.25500000920E-02 0.  1.
    10030    2    1    2    0    0  0.00000000000E+00  0.00000000000E+00  0.81369549072E+03  0.19756527521E+04  0.18003064864E+04 0.  0.
        3    1    3    3  502    0  0.33584045380E+03 -0.26018650927E+03  0.12777352413E+04  0.13465114879E+04  0.10100000352E+00 0. -1.
       -3    1    3    3    0  502 -0.33584045380E+03  0.26018650927E+03 -0.46403975055E+03  0.62914126419E+03  0.10100000352E+00 0.  1.
</event>
<event>
 5   0  0.3270375E-05  0.1815467E+04  0.7818609E-02  0.8698118E-01
       -3   -1    0    0    0  501  0.00000000000E+00  0.00000000000E+00  0.22011436052E+04  0.22011436075E+04  0.10100000352E+00 0.  1.
        3   -1    0    0  501    0  0.00000000000E+00  0.00000000000E+00 -0.37434164245E+03  0.37434165608E+03  0.10100000352E+00 0. -1.
    10030    2    1    2    0    0  0.00000000000E+00  0.00000000000E+00  0.18268019627E+04  0.25754852636E+04  0.18154665879E+04 0.  0.
        4    1    3    3  502    0  0.60599870744E+03 -0.39617822376E+03  0.13665887960E+03  0.73679636310E+03  0.12699999809E+01 0. -1.
       -4    1    3    3    0  502 -0.60599870744E+03  0.39617822376E+03  0.16901430831E+04  0.18386889005E+04  0.12699999809E+01 0.  1.
</event>
<event>
 5   0  0.8802655E-05  0.1800656E+04  0.7818609E-02  0.8705951E-01
       -2   -1    0    0    0  501  0.00000000000E+00  0.00000000000E+00  0.91845737934E+03  0.91845737935E+03  0.25500000920E-02 0.  1.
        2   -1    0    0  501    0  0.00000000000E+00  0.00000000000E+00 -0.88255600030E+03  0.88255600030E+03  0.25500000920E-02 0. -1.
    10030    2    1    2    0    0  0.00000000000E+00  0.00000000000E+00  0.35901379045E+02  0.18010133796E+04  0.18006555153E+04 0.  0.
        2    1    3    3  502    0 -0.68508808557E+03 -0.36338770038E+03  0.47541863864E+03  0.90962585042E+03  0.25500000920E-02 0.  1.
       -2    1    3    3    0  502  0.68508808557E+03  0.36338770038E+03 -0.43951725959E+03  0.89138752923E+03  0.25500000920E-02 0. -1.
</event>
<event>
 5   0  0.8892280E-05  0.1808949E+04  0.7818609E-02  0.8701555E-01
       -2   -1    0    0    0  501  0.00000000000E+00  0.00000000000E+00  0.74326889358E+03  0.74326889358E+03  0.25500000920E-02 0.  1.
        2   -1    0    0  501    0  0.00000000000E+00  0.00000000000E+00 -0.11006430211E+04  0.11006430211E+04  0.25500000920E-02 0. -1.
    10030    2    1    2    0    0  0.00000000000E+00  0.00000000000E+00 -0.35737412747E+03  0.18439119146E+04  0.18089485570E+04 0.  0.
        4    1    3    3  502    0 -0.81027608551E+02 -0.32385679312E+03  0.67816917902E+03  0.75588606553E+03  0.12699999809E+01 0.  1.
       -4    1    3    3    0  502  0.81027608551E+02  0.32385679312E+03 -0.10355433065E+04  0.10880258491E+04  0.12699999809E+01 0. -1.
</event>
<event>
 5   0  0.4535100E-05  0.1801038E+04  0.7818609E-02  0.8705748E-01
       -1   -1    0    0    0  501  0.00000000000E+00  0.00000000000E+00  0.96511795400E+03  0.96511795401E+03  0.50400001928E-02 0.  1.
        1   -1    0    0  501    0  0.00000000000E+00  0.00000000000E+00 -0.84024364374E+03  0.84024364375E+03  0.50400001928E-02 0. -1.
    10030    2    1    2    0    0  0.00000000000E+00  0.00000000000E+00  0.12487431026E+03  0.18053615978E+04  0.18010377301E+04 0.  0.
        1    1    3    3  502    0  0.23899442749E+02  0.41910220920E+03 -0.73616640655E+03  0.84744251916E+03  0.50400001928E-02 0. -1.
       -1    1    3    3    0  502 -0.23899442749E+02 -0.41910220920E+03  0.86104071681E+03  0.95791907860E+03  0.50400001928E-02 0.  1.
</event>
<event>
 5   0  0.8802655E-05  0.1799558E+04  0.7818609E-02  0.8706534E-01
        2   -1    0    0  501    0  0.00000000000E+00  0.00000000000E+00  0.12922870845E+04  0.12922870845E+04  0.25500000920E-02 0.  1.
       -2   -1    0    0    0  501  0.00000000000E+00  0.00000000000E+00 -0.62648820811E+03  0.62648820811E+03  0.25500000920E-02 0. -1.
    10030    2    1    2    0    0  0.00000000000E+00  0.00000000000E+00  0.66579887640E+03  0.19187752926E+04  0.17995584124E+04 0.  0.
        2    1    3    3  502    0 -0.10240009221E+03  0.62581475457E+03 -0.34772485499E+03  0.72321674532E+03  0.25500000920E-02 0. -1.
       -2    1    3    3    0  502  0.10240009221E+03 -0.62581475457E+03  0.10135237314E+04  0.11955585473E+04  0.25500000920E-02 0.  1.
</event>
<event>
 5   0  0.4623665E-05  0.1884462E+04  0.7818609E-02  0.8662630E-01
        1   -1    0    0  501    0  0.00000000000E+00  0.00000000000E+00  0.13078214037E+04  0.13078214037E+04  0.50400001928E-02 0. -1.
       -1   -1    0    0    0  501  0.00000000000E+00  0.00000000000E+00 -0.67883819215E+03  0.67883819217E+03  0.50400001928E-02 0.  1.
    10030    2    1    2    0    0  0.00000000000E+00  0.00000000000E+00  0.62898321152E+03  0.19866595959E+04  0.18844618514E+04 0.  0.
        5    1    3    3  502    0  0.59788921127E+03  0.72422652509E+03  0.23419360836E+03  0.96790717777E+03  0.46999998093E+01 0. -1.
       -5    1    3    3    0  502 -0.59788921127E+03 -0.72422652509E+03  0.39478960317E+03  0.10187524181E+04  0.46999998093E+01 0.  1.
</event>
<event>
 5   0  0.4335117E-05  0.1798582E+04  0.7818609E-02  0.8707054E-01
        1   -1    0    0  501    0  0.00000000000E+00  0.00000000000E+00  0.68337078160E+03  0.68337078162E+03  0.50400001928E-02 0. -1.
       -1   -1    0    0    0  501  0.00000000000E+00  0.00000000000E+00 -0.11834347647E+04  0.11834347647E+04  0.50400001928E-02 0.  1.
    10030    2    1    2    0    0  0.00000000000E+00  0.00000000000E+00 -0.50006398312E+03  0.18668055464E+04  0.17985824865E+04 0.  0.
        3    1    3    3  502    0  0.22936057038E+02  0.28071870292E+02  0.68261212677E+03  0.68357400362E+03  0.10100000352E+00 0. -1.
       -3    1    3    3    0  502 -0.22936057038E+02 -0.28071870292E+02 -0.11826761099E+04  0.11832315427E+04  0.10100000352E+00 0.  1.
</event>
<event>
 5   0  0.9184414E-05  0.1788139E+04  0.7818609E-02  0.8712633E-01
        2   -1    0    0  501    0  0.00000000000E+00  0.00000000000E+00  0.11537677488E+04  0.11537677488E+04  0.25500000920E-02 0. -1.
       -2   -1    0    0    0  501  0.00000000000E+00  0.00000000000E+00 -0.69282562422E+03  0.69282562423E+03  0.25500000920E-02 0.  1.
    10030    2    1    2    0    0  0.00000000000E+00  0.00000000000E+00  0.46094212453E+03  0.18465933730E+04  0.17881385413E+04 0.  0.
        5    1    3    3  502    0 -0.51177338810E+03 -0.44899907200E+03  0.82891987600E+03  0.10726800167E+04  0.46999998093E+01 0. -1.
       -5    1    3    3    0  502  0.51177338810E+03  0.44899907200E+03 -0.36797775148E+03  0.77391335627E+03  0.46999998093E+01 0.  1.
</event>
<event>
 5   0  0.4623665E-05  0.1810957E+04  0.7818609E-02  0.8700494E-01
       -1   -1    0    0    0  501  0.00000000000E+00  0.00000000000E+00  0.55229744969E+03  0.55229744971E+03  0.50400001928E-02 0. -1.
        1   -1    0    0  501    0  0.00000000000E+00  0.00000000000E+00 -0.14845111414E+04  0.14845111414E+04  0.50400001928E-02 0.  1.
    10030    2    1    2    0    0  0.00000000000E+00  0.00000000000E+00 -0.93221369172E+03  0.20368085911E+04  0.18109574456E+04 0.  0.
        5    1    3    3  502    0 -0.10791910200E+03  0.55629481891E+03  0.32819837911E+03  0.65486389744E+03  0.46999998093E+01 0. -1.
       -5    1    3    3    0  502  0.10791910200E+03 -0.55629481891E+03 -0.12604120708E+04  0.13819446937E+04  0.46999998093E+01 0.  1.
</event>
<event>
 5   0  0.9147432E-05  0.1703316E+04  0.7818609E-02  0.8759475E-01
       -2   -1    0    0    0  501  0.00000000000E+00  0.00000000000E+00  0.96251897814E+03  0.96251897814E+03  0.25500000920E-02 0. -1.
        2   -1    0    0  501    0  0.00000000000E+00  0.00000000000E+00 -0.75356596513E+03  0.75356596513E+03  0.25500000920E-02 0.  1.
    10030    2    1    2    0    0  0.00000000000E+00  0.00000000000E+00  0.20895301301E+03  0.17160849433E+04  0.17033162275E+04 0.  0.
        3    1    3    3  502    0 -0.19381663037E+03  0.18469873081E+03  0.91901912532E+03  0.95722237243E+03  0.10100000352E+00 0. -1.
       -3    1    3    3    0  502  0.19381663037E+03 -0.18469873081E+03 -0.71006611231E+03  0.75886257084E+03  0.10100000352E+00 0.  1.
</event>
<event>
 5   0  0.4535100E-05  0.1799096E+04  0.7818609E-02  0.8706781E-01
       -1   -1    0    0    0  501  0.00000000000E+00  0.00000000000E+00  0.10009060657E+04  0.10009060657E+04  0.50400001928E-02 0.  1.
        1   -1    0    0  501    0  0.00000000000E+00  0.00000000000E+00 -0.80845383099E+03  0.80845383100E+03  0.50400001928E-02 0. -1.
    10030    2    1    2    0    0  0.00000000000E+00  0.00000000000E+00  0.19245223469E+03  0.18093598967E+04  0.17990957098E+04 0.  0.
        1    1    3    3  502    0 -0.66009414955E+03  0.58378894446E+03  0.27795714385E+03  0.92400973576E+03  0.50400001928E-02 0.  1.
       -1    1    3    3    0  502  0.66009414955E+03 -0.58378894446E+03 -0.85504909156E+02  0.88535016093E+03  0.50400001928E-02 0. -1.
</event>
<event>
 5   0  0.4623665E-05  0.1806303E+04  0.7818609E-02  0.8702955E-01
        1   -1    0    0  501    0  0.00000000000E+00  0.00000000000E+00  0.17853983920E+04  0.17853983921E+04  0.50400001928E-02 0.  1.
       -1   -1    0    0    0  501  0.00000000000E+00  0.00000000000E+00 -0.45686310811E+03  0.45686310814E+03  0.50400001928E-02 0. -1.
    10030    2    1    2    0    0  0.00000000000E+00  0.00000000000E+00  0.13285352839E+04  0.22422615002E+04  0.18063030296E+04 0.  0.
        5    1    3    3  502    0 -0.33431897828E+03  0.69803359957E+03  0.86483713125E+02  0.77879497174E+03  0.46999998093E+01 0. -1.
       -5    1    3    3    0  502  0.33431897828E+03 -0.69803359957E+03  0.12420515708E+04  0.14634665285E+04  0.46999998093E+01 0.  1.
</event>
<event>
 5   0  0.9147432E-05  0.1804441E+04  0.7818609E-02  0.8703941E-01
        2   -1    0    0  501    0  0.00000000000E+00  0.00000000000E+00  0.19380036669E+04  0.19380036669E+04  0.25500000920E-02 0.  1.
       -2   -1    0    0    0  501  0.00000000000E+00  0.00000000000E+00 -0.42002089935E+03  0.42002089936E+03  0.25500000920E-02 0. -1.
    10030    2    1    2    0    0  0.00000000000E+00  0.00000000000E+00  0.15179827676E+04  0.23580245663E+04  0.18044412355E+04 0.  0.
        3    1    3    3  502    0  0.16943856832E+03  0.84676499712E+03  0.41751744254E+03  0.95918778861E+03  0.10100000352E+00 0.  1.
       -3    1    3    3    0  502 -0.16943856832E+03 -0.84676499712E+03  0.11004653250E+04  0.13988367777E+04  0.10100000352E+00 0. -1.
</event>
<event>
 5   0  0.9184414E-05  0.1799744E+04  0.7818609E-02  0.8706435E-01
        2   -1    0    0  501    0  0.00000000000E+00  0.00000000000E+00  0.15248019775E+04  0.15248019775E+04  0.25500000920E-02 0. -1.
       -2   -1    0    0    0  501  0.00000000000E+00  0.00000000000E+00 -0.53106569711E+03  0.53106569711E+03  0.25500000920E-02 0.  1.
    10030    2    1    2    0    0  0.00000000000E+00  0.00000000000E+00  0.99373628040E+03  0.20558676746E+04  0.17997444542E+04 0.  0.
        5    1    3    3  502    0  0.30871988273E+03 -0.41606220571E+03  0.13373265913E+04  0.14341827731E+04  0.46999998093E+01 0. -1.
       -5    1    3    3    0  502 -0.30871988273E+03  0.41606220571E+03 -0.34359031088E+03  0.62168490149E+03  0.46999998093E+01 0.  1.
</event>
<event>
 5   0  0.9184414E-05  0.1808851E+04  0.7818609E-02  0.8701607E-01
       -2   -1    0    0    0  501  0.00000000000E+00  0.00000000000E+00  0.71337102722E+03  0.71337102723E+03  0.25500000920E-02 0. -1.
        2   -1    0    0  501    0  0.00000000000E+00  0.00000000000E+00 -0.11466480280E+04  0.11466480280E+04  0.25500000920E-02 0.  1.
    10030    2    1    2    0    0  0.00000000000E+00  0.00000000000E+00 -0.43327700077E+03  0.18600190552E+04  0.18088509962E+04 0.  0.
        5    1    3    3  502    0 -0.57995836359E+03  0.11669604159E+03  0.48681373430E+03  0.76614578999E+03  0.46999998093E+01 0. -1.
       -5    1    3    3    0  502  0.57995836359E+03 -0.11669604159E+03 -0.92009073507E+03  0.10938732652E+04  0.46999998093E+01 0.  1.
</event>
<event>
 5   0  0.4494757E-05  0.1802320E+04  0.7818609E-02  0.8705067E-01
       -1   -1    0    0    0  501  0.00000000000E+00  0.00000000000E+00  0.49662262893E+03  0.49662262896E+03  0.50400001928E-02 0. -1.
        1   -1    0    0  501    0  0.00000000000E+00  0.00000000000E+00 -0.16352236744E+04  0.16352236744E+04  0.50400001928E-02 0.  1.
    10030    2    1    2    0    0  0.00000000000E+00  0.00000000000E+00 -0.11386010455E+04  0.21318463034E+04  0.18023197054E+04 0.  0.
        4    1    3    3  502    0  0.41236844788E+03 -0.53505820634E+03  0.13620108421E+03  0.68912072180E+03  0.12699999809E+01 0. -1.
       -4    1    3    3    0  502 -0.41236844788E+03  0.53505820634E+03 -0.12748021297E+04  0.14427255816E+04  0.12699999809E+01 0.  1.
</event>
<event>
 5   0  0.4623665E-05  0.1800827E+04  0.7818609E-02  0.8705860E-01
       -1   -1    0    0    0  501  0.00000000000E+00  0.00000000000E+00  0.63170255452E+03  0.63170255454E+03  0.50400001928E-02 0.  1.
        1   -1    0    0  501    0  0.00000000000E+00  0.00000000000E+00 -0.12834276348E+04  0.12834276348E+04  0.50400001928E-02 0. -1.
    10030    2    1    2    0    0  0.00000000000E+00  0.00000000000E+00 -0.65172508029E+03  0.19151301894E+04  0.18008270494E+04 0.  0.
        5    1    3    3  502    0 -0.10109394503E+03  0.88971406359E+03 -0.22547092679E+03  0.92340149962E+03  0.46999998093E+01 0.  1.
       -5    1    3    3    0  502  0.10109394503E+03 -0.88971406359E+03 -0.42625415351E+03  0.99172868974E+03  0.46999998093E+01 0. -1.
</event>
<event>
 5   0  0.4494757E-05  0.1806273E+04  0.7818609E-02  0.8702971E-01
        1   -1    0    0  501    0  0.00000000000E+00  0.00000000000E+00  0.16358379461E+04  0.16358379461E+04  0.50400001928E-02 0. -1.
       -1   -1    0    0    0  501  0.00000000000E+00  0.00000000000E+00 -0.49861645232E+03  0.49861645234E+03  0.50400001928E-02 0.  1.
    10030    2    1    2    0    0  0.00000000000E+00  0.00000000000E+00  0.11372214938E+04  0.21344543984E+04  0.18062731945E+04 0.  0.
        4    1    3    3  502    0  0.21881616008E+03  0.57814894348E+03 -0.20943781493E+03  0.65268868842E+03  0.12699999809E+01 0.  1.
       -4    1    3    3    0  502 -0.21881616008E+03 -0.57814894348E+03  0.13466593087E+04  0.14817657100E+04  0.12699999809E+01 0. -1.
</event>
<event>
 5   0  0.4335117E-05  0.1806821E+04  0.7818609E-02  0.8702680E-01
        1   -1    0    0  501    0  0.00000000000E+00  0.00000000000E+00  0.87918844106E+03  0.87918844108E+03  0.50400001928E-02 0.  1.
       -1   -1    0    0    0  501  0.00000000000E+00  0.00000000000E+00 -0.92830006239E+03  0.92830006240E+03  0.50400001928E-02 0. -1.
    10030    2    1    2    0    0  0.00000000000E+00  0.00000000000E+00 -0.49111621326E+02  0.18074885035E+04  0.18068211696E+04 0.  0.
        3    1    3    3  502    0 -0.49904563560E+03  0.26400046554E+03 -0.73008779209E+03  0.92291439829E+03  0.10100000352E+00 0. -1.
       -3    1    3    3    0  502  0.49904563560E+03 -0.26400046554E+03  0.68097617076E+03  0.88457410519E+03  0.10100000352E+00 0.  1.
</event>
<event>
 5   0  0.4494757E-05  0.1900981E+04  0.7818609E-02  0.8654368E-01
        1   -1    0    0  501    0  0.00000000000E+00  0.00000000000E+00  0.10657126547E+04  0.10657126547E+04  0.50400001928E-02 0.  1.
       -1   -1    0    0    0  501  0.00000000000E+00  0.00000000000E+00 -0.84772629403E+03  0.84772629404E+03  0.50400001928E-02 0. -1.
    10030    2    1    2    0    0  0.00000000000E+00  0.00000000000E+00  0.21798636068E+03  0.19134389488E+04  0.19009814721E+04 0.  0.
        4    1    3    3  502    0  0.20772308532E+03 -0.78976554393E+02 -0.82120838288E+03  0.85074731697E+03  0.12699999809E+01 0. -1.
       -4    1    3    3    0  502 -0.20772308532E+03  0.78976554393E+02  0.10391947436E+04  0.10626916318E+04  0.12699999809E+01 0.  1.
</event>
<event>
 5   0  0.9147432E-05  0.1799230E+04  0.7818609E-02  0.8706709E-01
       -2   -1    0    0    0  501  0.00000000000E+00  0.00000000000E+00  0.10320769170E+04  0.10320769170E+04  0.25500000920E-02 0. -1.
        2   -1    0    0  501    0  0.00000000000E+00  0.00000000000E+00 -0.78415371055E+03  0.78415371055E+03  0.25500000920E-02 0.  1.
    10030    2    1    2    0    0  0.00000000000E+00  0.00000000000E+00  0.24792320643E+03  0.18162306275E+04  0.17992297730E+04 0.  0.
        3    1    3    3  502    0 -0.13612473941E+03 -0.88900670288E+03  0.10268948386E+03  0.90521157899E+03  0.10100000352E+00 0.  1.
       -3    1    3    3    0  502  0.13612473941E+03  0.88900670288E+03  0.14523372257E+03  0.91101904855E+03  0.10100000352E+00 0. -1.
</event>
<event>
 5   0  0.9184414E-05  0.1804008E+04  0.7818609E-02  0.8704171E-01
        2   -1    0    0  501    0  0.00000000000E+00  0.00000000000E+00  0.12453165135E+04  0.12453165135E+04  0.25500000920E-02 0.  1.
       -2   -1    0    0    0  501  0.00000000000E+00  0.00000000000E+00 -0.65333715733E+03  0.65333715733E+03  0.25500000920E-02 0. -1.
    10030    2    1    2    0    0  0.00000000000E+00  0.00000000000E+00  0.59197935619E+03  0.18986536709E+04  0.18040083713E+04 0.  0.
        5    1    3    3  502    0  0.24721195428E+03  0.74350384516E+03  0.76628648937E+03  0.10959602146E+04  0.46999998093E+01 0.  1.
       -5    1    3    3    0  502 -0.24721195428E+03 -0.74350384516E+03 -0.17430713318E+03  0.80269345630E+03  0.46999998093E+01 0. -1.
</event>
<event>
 5   0  0.9184414E-05  0.1795776E+04  0.7818609E-02  0.8708549E-01
       -2   -1    0    0    0  501  0.00000000000E+00  0.00000000000E+00  0.44613617172E+03  0.44613617173E+03  0.25500000920E-02 0.  1.
        2   -1    0    0  501    0  0.00000000000E+00  0.00000000000E+00 -0.18070772357E+04  0.18070772357E+04  0.25500000920E-02 0. -1.
    10030    2    1    2    0    0  0.00000000000E+00  0.00000000000E+00 -0.13609410640E+04  0.22532134075E+04  0.17957756207E+04 0.  0.
        5    1    3    3  502    0 -0.64552627430E+03 -0.62183567181E+03 -0.74682494497E+03  0.11666847740E+04  0.46999998093E+01 0. -1.
       -5    1    3    3    0  502  0.64552627430E+03  0.62183567181E+03 -0.61411611904E+03  0.10865286334E+04  0.46999998093E+01 0.  1.
</event>
<event>
 5   0  0.4535100E-05  0.1800120E+04  0.7818609E-02  0.8706236E-01
        1   -1    0    0  501    0  0.00000000000E+00  0.00000000000E+00  0.19749422056E+04  0.19749422056E+04  0.50400001928E-02 0.  1.
       -1   -1    0    0    0  501  0.00000000000E+00  0.00000000000E+00 -0.41019313272E+03  0.41019313275E+03  0.50400001928E-02 0. -1.
    10030    2    1    2    0    0  0.00000000000E+00  0.00000000000E+00  0.15647490729E+04  0.23851353384E+04  0.18001196964E+04 0.  0.
        1    1    3    3  502    0  0.40517611860E+03 -0.29363861133E+03  0.17736529816E+04  0.18428880108E+04  0.50400001928E-02 0.  1.
       -1    1    3    3    0  502 -0.40517611860E+03  0.29363861133E+03 -0.20890390872E+03  0.54224732757E+03  0.50400001928E-02 0. -1.
</event>
<event>
 5   0  0.8893075E-05  0.1800118E+04  0.7818609E-02  0.8706237E-01
       -2   -1    0    0    0  501  0.00000000000E+00  0.00000000000E+00  0.60092458722E+03  0.60092458722E+03  0.25500000920E-02 0. -1.
        2   -1    0    0  501    0  0.00000000000E+00  0.00000000000E+00 -0.13480994766E+04  0.13480994766E+04  0.25500000920E-02 0.  1.
    10030    2    1    2    0    0  0.00000000000E+00  0.00000000000E+00 -0.74717488940E+03  0.19490240638E+04  0.18001179089E+04 0.  0.
        1    1    3    3  502    0  0.75856124675E+03  0.25259198112E+03  0.73994281181E+02  0.80292778484E+03  0.50400001928E-02 0. -1.
       -1    1    3    3    0  502 -0.75856124675E+03 -0.25259198112E+03 -0.82116917058E+03  0.11460962790E+04  0.50400001928E-02 0.  1.
</event>
<event>
 5   0  0.8893075E-05  0.1799629E+04  0.7818609E-02  0.8706497E-01
        2   -1    0    0  501    0  0.00000000000E+00  0.00000000000E+00  0.21917356191E+04  0.21917356191E+04  0.25500000920E-02 0.  1.
       -2   -1    0    0    0  501  0.00000000000E+00  0.00000000000E+00 -0.36941775622E+03  0.36941775622E+03  0.25500000920E-02 0. -1.
    10030    2    1    2    0    0  0.00000000000E+00  0.00000000000E+00  0.18223178629E+04  0.25611533753E+04  0.17996289113E+04 0.  0.
        1    1    3    3  502    0 -0.60070396626E+03  0.42984706364E+02 -0.40307183327E+02  0.60358728376E+03  0.50400001928E-02 0. -1.
       -1    1    3    3    0  502  0.60070396626E+03 -0.42984706364E+02  0.18626250462E+04  0.19575660915E+04  0.50400001928E-02 0.  1.
</event>
<event>
 5   0  0.4335117E-05  0.1796510E+04  0.7818609E-02  0.8708158E-01
       -1   -1    0    0    0  501  0.00000000000E+00  0.00000000000E+00  0.91573621117E+03  0.91573621119E+03  0.50400001928E-02 0. -1.
        1   -1    0    0  501    0  0.00000000000E+00  0.00000000000E+00 -0.88110718471E+03  0.88110718472E+03  0.50400001928E-02 0.  1.
    10030    2    1    2    0    0  0.00000000000E+00  0.00000000000E+00  0.34629026464E+02  0.17968433959E+04  0.17965096771E+04 0.  0.
        3    1    3    3  502    0  0.40005916900E+03 -0.56026106162E+03 -0.55978655873E+03  0.88729972242E+03  0.10100000352E+00 0.  1.
       -3    1    3    3    0  502 -0.40005916900E+03  0.56026106162E+03  0.59441558520E+03  0.90954367349E+03  0.10100000352E+00 0. -1.
</event>
<event>
 5   0  0.8892280E-05  0.1791340E+04  0.7818609E-02  0.8710918E-01
       -2   -1    0    0    0  501  0.00000000000E+00  0.00000000000E+00  0.10567215488E+04  0.10567215488E+04  0.25500000920E-02 0. -1.
        2   -1    0    0  501    0  0.00000000000E+00  0.00000000000E+00 -0.75916378142E+03  0.75916378142E+03  0.25500000920E-02 0.  1.
    10030    2    1    2    0    0  0.00000000000E+00  0.00000000000E+00  0.29755776742E+03  0.18158853303E+04  0.17913399755E+04 0.  0.
        4    1    3    3  502    0  0.16045383288E+03 -0.73628558439E+03 -0.34196317140E+03  0.82752783504E+03  0.12699999809E+01 0. -1.
       -4    1    3    3    0  502 -0.16045383288E+03  0.73628558439E+03  0.63952093882E+03  0.98835749522E+03  0.12699999809E+01 0.  1.
</event>
<event>
 5   0  0.4578107E-05  0.1802347E+04  0.7818609E-02  0.8705052E-01
        1   -1    0    0  501    0  0.00000000000E+00  0.00000000000E+00  0.54982925235E+03  0.54982925237E+03  0.50400001928E-02 0. -1.
       -1   -1    0    0    0  501  0.00000000000E+00  0.00000000000E+00 -0.14770287077E+04  0.14770287077E+04  0.50400001928E-02 0.  1.
    10030    2    1    2    0    0  0.00000000000E+00  0.00000000000E+00 -0.92719945537E+03  0.20268579601E+04  0.18023469034E+04 0.  0.
        2    1    3    3  502    0 -0.26345646820E+02 -0.89750414711E+03 -0.37717770941E+03  0.97389466148E+03  0.25500000920E-02 0. -1.
       -2    1    3    3    0  502  0.26345646820E+02  0.89750414711E+03 -0.55002174597E+03  0.10529632986E+04  0.25500000920E-02 0.  1.
</event>
<event>
 5   0  0.8802655E-05  0.1879163E+04  0.7818609E-02  0.8665299E-01
        2   -1    0    0  501    0  0.00000000000E+00  0.00000000000E+00  0.84427288026E+03  0.84427288027E+03  0.25500000920E-02 0.  1.
       -2   -1    0    0    0  501  0.00000000000E+00  0.00000000000E+00 -0.10456488150E+04  0.10456488150E+04  0.25500000920E-02 0. -1.
    10030    2    1    2    0    0  0.00000000000E+00  0.00000000000E+00 -0.20137593478E+03  0.18899216953E+04  0.18791625122E+04 0.  0.
        2    1    3    3  502    0  0.65495569256E+03 -0.60431187319E+03 -0.40013948998E+03  0.97686816447E+03  0.25500000920E-02 0. -1.
       -2    1    3    3    0  502 -0.65495569256E+03  0.60431187319E+03  0.19876355521E+03  0.91305353084E+03  0.25500000920E-02 0.  1.
</event>
<event>
 5   0  0.4535100E-05  0.1783494E+04  0.7818609E-02  0.8715127E-01
        1   -1    0    0  501    0  0.00000000000E+00  0.00000000000E+00  0.65242570548E+03  0.65242570550E+03  0.50400001928E-02 0.  1.
       -1   -1    0    0    0  501  0.00000000000E+00  0.00000000000E+00 -0.12188552241E+04  0.12188552241E+04  0.50400001928E-02 0. -1.
    10030    2    1    2    0    0  0.00000000000E+00  0.00000000000E+00 -0.56642951857E+03  0.18712809296E+04  0.17834937392E+04 0.  0.
        1    1    3    3  502    0  0.37256544026E+02  0.62856260324E+03 -0.94574965243E+03  0.11361872211E+04  0.50400001928E-02 0. -1.
       -1    1    3    3    0  502 -0.37256544026E+02 -0.62856260324E+03  0.37932013385E+03  0.73509370847E+03  0.50400001928E-02 0.  1.
</event>
<event>
 5   0  0.8802655E-05  0.1798623E+04  0.7818609E-02  0.8707032E-01
       -2   -1    0    0    0  501  0.00000000000E+00  0.00000000000E+00  0.50618814755E+03  0.50618814755E+03  0.25500000920E-02 0.  1.
        2   -1    0    0  501    0  0.00000000000E+00  0.00000000000E+00 -0.15977473302E+04  0.15977473302E+04  0.25500000920E-02 0. -1.
    10030    2    1    2    0    0  0.00000000000E+00  0.00000000000E+00 -0.10915591827E+04  0.21039354778E+04  0.17986225411E+04 0.  0.
        2    1    3    3  502    0 -0.26286868981E+03 -0.14275192187E+03 -0.15378493089E+04  0.15666711704E+04  0.25500000920E-02 0. -1.
       -2    1    3    3    0  502  0.26286868981E+03  0.14275192187E+03  0.44629012619E+03  0.53726430741E+03  0.25500000920E-02 0.  1.
</event>
<event>
 5   0  0.9184414E-05  0.1796064E+04  0.7818609E-02  0.8708396E-01
       -2   -1    0    0    0  501  0.00000000000E+00  0.00000000000E+00  0.35710193213E+03  0.35710193214E+03  0.25500000920E-02 0.  1.
        2   -1    0    0  501    0  0.00000000000E+00  0.00000000000E+00 -0.22583502767E+04  0.22583502767E+04  0.25500000920E-02 0. -1.
    10030    2    1    2    0    0  0.00000000000E+00  0.00000000000E+00 -0.19012483445E+04  0.26154522088E+04  0.17960637486E+04 0.  0.
        5    1    3    3  502    0 -0.60336168637E+02 -0.43367059398E+03  0.19111452953E+03  0.47776300686E+03  0.46999998093E+01 0.  1.
       -5    1    3    3    0  502  0.60336168637E+02  0.43367059398E+03 -0.20923628740E+04  0.21376892019E+04  0.46999998093E+01 0. -1.
</event>
<event>
 5   0  0.9184414E-05  0.1802646E+04  0.7818609E-02  0.8704894E-01
        2   -1    0    0  501    0  0.00000000000E+00  0.00000000000E+00  0.67148510434E+03  0.67148510435E+03  0.25500000920E-02 0. -1.
       -2   -1    0    0    0  501  0.00000000000E+00  0.00000000000E+00 -0.12098305636E+04  0.12098305636E+04  0.25500000920E-02 0.  1.
    10030    2    1    2    0    0  0.00000000000E+00  0.00000000000E+00 -0.53834545926E+03  0.18813156680E+04  0.18026460576E+04 0.  0.
        5    1    3    3  502    0  0.62974271335E+03  0.55954459392E+03  0.65273278567E+02  0.84495486772E+03  0.46999998093E+01 0. -1.
       -5    1    3    3    0  502 -0.62974271335E+03 -0.55954459392E+03 -0.60361873783E+03  0.10363608002E+04  0.46999998093E+01 0.  1.
</event>
<event>
 5   0  0.9184414E-05  0.1786981E+04  0.7818609E-02  0.8713254E-01
        2   -1    0    0  501    0  0.00000000000E+00  0.00000000000E+00  0.22721428346E+04  0.22721428346E+04  0.25500000920E-02 0.  1.
       -2   -1    0    0    0  501  0.00000000000E+00  0.00000000000E+00 -0.35135331186E+03  0.35135331187E+03  0.25500000920E-02 0. -1.
    10030    2    1    2    0    0  0.00000000000E+00  0.00000000000E+00  0.19207895227E+04  0.26234961465E+04  0.17869805930E+04 0.  0.
        5    1    3    3  502    0  0.17689845917E+03 -0.11891159693E+03  0.22342513252E+04  0.22444006119E+04  0.46999998093E+01 0.  1.
       -5    1    3    3    0  502 -0.17689845917E+03  0.11891159693E+03 -0.31346180243E+03  0.37909553456E+03  0.46999998093E+01 0. -1.
</event>
<event>
 5   0  0.4535100E-05  0.1766699E+04  0.7818609E-02  0.8724212E-01
       -1   -1    0    0    0  501  0.00000000000E+00  0.00000000000E+00  0.19688606491E+04  0.19688606491E+04  0.50400001928E-02 0. -1.
        1   -1    0    0  501    0  0.00000000000E+00  0.00000000000E+00 -0.39632367168E+03  0.39632367171E+03  0.50400001928E-02 0.  1.
    10030    2    1    2    0    0  0.00000000000E+00  0.00000000000E+00  0.15725369774E+04  0.23651843208E+04  0.17666987083E+04 0.  0.
        1    1    3    3  502    0 -0.45098895461E+03  0.76035321820E+02 -0.22547724863E+03  0.50991410749E+03  0.50400001928E-02 0.  1.
       -1    1    3    3    0  502  0.45098895461E+03 -0.76035321820E+02  0.17980142260E+04  0.18552702133E+04  0.50400001928E-02 0. -1.
</event>
<event>
 5   0  0.4335117E-05  0.1791170E+04  0.7818609E-02  0.8711009E-01
        1   -1    0    0  501    0  0.00000000000E+00  0.00000000000E+00  0.24887103559E+04  0.24887103559E+04  0.50400001928E-02 0.  1.
       -1   -1    0    0    0  501  0.00000000000E+00  0.00000000000E+00 -0.32228437752E+03  0.32228437756E+03  0.50400001928E-02 0. -1.
    10030    2    1    2    0    0  0.00000000000E+00  0.00000000000E+00  0.21664259784E+04  0.28109947335E+04  0.17911699729E+04 0.  0.
        3    1    3    3  502    0 -0.48911240726E+03 -0.38910725178E+03  0.76571248828E+02  0.62968132152E+03  0.10100000352E+00 0. -1.
       -3    1    3    3    0  502  0.48911240726E+03  0.38910725178E+03  0.20898547296E+04  0.21813134120E+04  0.10100000352E+00 0.  1.
</event>
<event>
 5   0  0.4335117E-05  0.1809698E+04  0.7818609E-02  0.8701159E-01
       -1   -1    0    0    0  501  0.00000000000E+00  0.00000000000E+00  0.76843250066E+03  0.76843250068E+03  0.50400001928E-02 0.  1.
        1   -1    0    0  501    0  0.00000000000E+00  0.00000000000E+00 -0.10654829899E+04  0.10654829900E+04  0.50400001928E-02 0. -1.
    10030    2    1    2    0    0  0.00000000000E+00  0.00000000000E+00 -0.29705048928E+03  0.18339154906E+04  0.18096980504E+04 0.  0.
        3    1    3    3  502    0  0.43691664347E+03  0.54298094593E+02  0.65256418908E+03  0.78720039855E+03  0.10100000352E+00 0.  1.
       -3    1    3    3    0  502 -0.43691664347E+03 -0.54298094593E+02 -0.94961467836E+03  0.10467150921E+04  0.10100000352E+00 0. -1.
</event>
<event>
 5   0  0.8893075E-05  0.1801508E+04  0.7818609E-02  0.8705498E-01
       -2   -1    0    0    0  501  0.00000000000E+00  0.00000000000E+00  0.51752791342E+03  0.51752791343E+03  0.25500000920E-02 0. -1.
        2   -1    0    0  501    0  0.00000000000E+00  0.00000000000E+00 -0.15677564721E+04  0.15677564721E+04  0.25500000920E-02 0.  1.
    10030    2    1    2    0    0  0.00000000000E+00  0.00000000000E+00 -0.10502285586E+04  0.20852843855E+04  0.18015079636E+04 0.  0.
        1    1    3    3  502    0  0.18671314072E+03  0.34150308093E+03  0.41516922789E+03  0.56907964206E+03  0.50400001928E-02 0. -1.
       -1    1    3    3    0  502 -0.18671314072E+03 -0.34150308093E+03 -0.14653977865E+04  0.15162047434E+04  0.50400001928E-02 0.  1.
</event>
<event>
 5   0  0.4623665E-05  0.1791730E+04  0.7818609E-02  0.8710710E-01
       -1   -1    0    0    0  501  0.00000000000E+00  0.00000000000E+00  0.72443864468E+03  0.72443864469E+03  0.50400001928E-02 0.  1.
        1   -1    0    0  501    0  0.00000000000E+00  0.00000000000E+00 -0.11078561164E+04  0.11078561164E+04  0.50400001928E-02 0. -1.
    10030    2    1    2    0    0  0.00000000000E+00  0.00000000000E+00 -0.38341747168E+03  0.18322947611E+04  0.17917296486E+04 0.  0.
        5    1    3    3  502    0 -0.50947964003E+03  0.44606407128E+03 -0.79151056186E+03  0.10416591183E+04  0.46999998093E+01 0. -1.
       -5    1    3    3    0  502  0.50947964003E+03 -0.44606407128E+03  0.40809309018E+03  0.79063564272E+03  0.46999998093E+01 0.  1.
</event>
<event>
 5   0  0.8893075E-05  0.1823298E+04  0.7818609E-02  0.8694007E-01
        2   -1    0    0  501    0  0.00000000000E+00  0.00000000000E+00  0.13536629297E+04  0.13536629297E+04  0.25500000920E-02 0. -1.
       -2   -1    0    0    0  501  0.00000000000E+00  0.00000000000E+00 -0.61396660969E+03  0.61396660969E+03  0.25500000920E-02 0.  1.
    10030    2    1    2    0    0  0.00000000000E+00  0.00000000000E+00  0.73969632005E+03  0.19676295394E+04  0.18232979347E+04 0.  0.
        1    1    3    3  502    0  0.99956839605E+02 -0.76913780029E+03  0.88687658799E+03  0.11781826717E+04  0.50400001928E-02 0. -1.
       -1    1    3    3    0  502 -0.99956839605E+02  0.76913780029E+03 -0.14718026794E+03  0.78944686770E+03  0.50400001928E-02 0.  1.
</event>
<event>
 5   0  0.9147432E-05  0.1798978E+04  0.7818609E-02  0.8706843E-01
        2   -1    0    0  501    0  0.00000000000E+00  0.00000000000E+00  0.14853095776E+04  0.14853095776E+04  0.25500000920E-02 0.  1.
       -2   -1    0    0    0  501  0.00000000000E+00  0.00000000000E+00 -0.54472199391E+03  0.54472199392E+03  0.25500000920E-02 0. -1.
    10030    2    1    2    0    0  0.00000000000E+00  0.00000000000E+00  0.94058758371E+03  0.20300315715E+04  0.17989783709E+04 0.  0.
        3    1    3    3  502    0 -0.23850587416E+03 -0.62704802209E+03 -0.20583279325E+03  0.70174170675E+03  0.10100000352E+00 0. -1.
       -3    1    3    3    0  502  0.23850587416E+03  0.62704802209E+03  0.11464203770E+04  0.13282898648E+04  0.10100000352E+00 0.  1.
</event>
<event>
 5   0  0.8802655E-05  0.1835240E+04  0.7818609E-02  0.8687780E-01
        2   -1    0    0  501    0  0.00000000000E+00  0.00000000000E+00  0.75701948287E+03  0.75701948287E+03  0.25500000920E-02 0. -1.
       -2   -1    0    0    0  501  0.00000000000E+00  0.00000000000E+00 -0.11122922195E+04  0.11122922195E+04  0.25500000920E-02 0.  1.
    10030    2    1    2    0    0  0.00000000000E+00  0.00000000000E+00 -0.35527273658E+03  0.18693117023E+04  0.18352404538E+04 0.  0.
        2    1    3    3  502    0  0.12494193276E+03 -0.70944438653E+03  0.40133972098E+03  0.82461833340E+03  0.25500000920E-02 0. -1.
       -2    1    3    3    0  502 -0.12494193276E+03  0.70944438653E+03 -0.75661245757E+03  0.10446933689E+04  0.25500000920E-02 0.  1.
</event>
<event>
 5   0  0.4578107E-05  0.1804249E+04  0.7818609E-02  0.8704043E-01
        1   -1    0    0  501    0  0.00000000000E+00  0.00000000000E+00  0.74833431288E+03  0.74833431290E+03  0.50400001928E-02 0. -1.
       -1   -1    0    0    0  501  0.00000000000E+00  0.00000000000E+00 -0.10875205448E+04  0.10875205448E+04  0.50400001928E-02 0.  1.
    10030    2    1    2    0    0  0.00000000000E+00  0.00000000000E+00 -0.33918623195E+03  0.18358548577E+04  0.18042493616E+04 0.  0.
        2    1    3    3  502    0 -0.18190706425E+03  0.31902037320E+03  0.66883416296E+03  0.76302248728E+03  0.25500000920E-02 0. -1.
       -2    1    3    3    0  502  0.18190706425E+03 -0.31902037320E+03 -0.10080203949E+04  0.10728323705E+04  0.25500000920E-02 0.  1.
</event>
<event>
 5   0  0.9184414E-05  0.1790065E+04  0.7818609E-02  0.8711601E-01
       -2   -1    0    0    0  501  0.00000000000E+00  0.00000000000E+00  0.57004302642E+03  0.57004302643E+03  0.25500000920E-02 0.  1.
        2   -1    0    0  501    0  0.00000000000E+00  0.00000000000E+00 -0.14053028843E+04  0.14053028843E+04  0.25500000920E-02 0. -1.
    10030    2    1    2    0    0  0.00000000000E+00  0.00000000000E+00 -0.83525985791E+03  0.19753459108E+04  0.17900649253E+04 0.  0.
        5    1    3    3  502    0  0.58724172516E+03  0.24653334317E+02  0.32721594703E+03  0.67272059330E+03  0.46999998093E+01 0.  1.
       -5    1    3    3    0  502 -0.58724172516E+03 -0.24653334317E+02 -0.11624758049E+04  0.13026253175E+04  0.46999998093E+01 0. -1.
</event>
<event>
 5   0  0.3270375E-05  0.1802195E+04  0.7818609E-02  0.8705133E-01
       -3   -1    0    0    0  501  0.00000000000E+00  0.00000000000E+00  0.92143770843E+03  0.92143771396E+03  0.10100000352E+00 0.  1.
        3   -1    0    0  501    0  0.00000000000E+00  0.00000000000E+00 -0.88120623461E+03  0.88120624040E+03  0.10100000352E+00 0. -1.
    10030    2    1    2    0    0  0.00000000000E+00  0.00000000000E+00  0.40231473816E+02  0.18026439544E+04  0.18021949547E+04 0.  0.
        1    1    3    3  502    0  0.30214513596E+03 -0.56117627937E+03 -0.61704073890E+03  0.88710189561E+03  0.50400001928E-02 0. -1.
       -1    1    3    3    0  502 -0.30214513596E+03  0.56117627937E+03  0.65727221272E+03  0.91554205875E+03  0.50400001928E-02 0.  1.
</event>
<event>
 5   0  0.9184414E-05  0.1801465E+04  0.7818609E-02  0.8705521E-01
        2   -1    0    0  501    0  0.00000000000E+00  0.00000000000E+00  0.23642141913E+04  0.23642141913E+04  0.25500000920E-02 0.  1.
       -2   -1    0    0    0  501  0.00000000000E+00  0.00000000000E+00 -0.34316663438E+03  0.34316663439E+03  0.25500000920E-02 0. -1.
    10030    2    1    2    0    0  0.00000000000E+00  0.00000000000E+00  0.20210475569E+04  0.27073808256E+04  0.18014654335E+04 0.  0.
        5    1    3    3  502    0  0.35290491577E+03 -0.42127212630E+03 -0.61992681228E+02  0.55306172033E+03  0.46999998093E+01 0. -1.
       -5    1    3    3    0  502 -0.35290491577E+03  0.42127212630E+03  0.20830402381E+04  0.21543191053E+04  0.46999998093E+01 0.  1.
</event>
<event>
 5   0  0.8893075E-05  0.1788769E+04  0.7818609E-02  0.8712295E-01
       -2   -1    0    0    0  501  0.00000000000E+00  0.00000000000E+00  0.52340709892E+03  0.52340709893E+03  0.25500000920E-02 0. -1.
        2   -1    0    0  501    0  0.00000000000E+00  0.00000000000E+00 -0.15283010284E+04  0.15283010284E+04  0.25500000920E-02 0.  1.
    10030    2    1    2    0    0  0.00000000000E+00  0.00000000000E+00 -0.10048939295E+04  0.20517081274E+04  0.17887689706E+04 0.  0.
        1    1    3    3  502    0 -0.60636517777E+03 -0.45414986260E+03 -0.10477132049E+04  0.12929167747E+04  0.50400001928E-02 0.  1.
       -1    1    3    3    0  502  0.60636517777E+03  0.45414986260E+03  0.42819275405E+02  0.75879135266E+03  0.50400001928E-02 0. -1.
</event>
<event>
 5   0  0.8892280E-05  0.1795217E+04  0.7818609E-02  0.8708847E-01
        2   -1    0    0  501    0  0.00000000000E+00  0.00000000000E+00  0.11238109429E+04  0.11238109429E+04  0.25500000920E-02 0.  1.
       -2   -1    0    0    0  501  0.00000000000E+00  0.00000000000E+00 -0.71693624772E+03  0.71693624773E+03  0.25500000920E-02 0. -1.
    10030    2    1    2    0    0  0.00000000000E+00  0.00000000000E+00  0.40687469515E+03  0.18407471906E+04  0.17952167563E+04 0.  0.
        4    1    3    3  502    0 -0.72639869244E+03  0.30711097974E+03  0.64294223959E+03  0.10175207863E+04  0.12699999809E+01 0.  1.
       -4    1    3    3    0  502  0.72639869244E+03 -0.30711097974E+03 -0.23606754444E+03  0.82322640428E+03  0.12699999809E+01 0. -1.
</event>
<event>
 5   0  0.4578107E-05  0.1800227E+04  0.7818609E-02  0.8706179E-01
        1   -1    0    0  501    0  0.00000000000E+00  0.00000000000E+00  0.17130789617E+04  0.17130789618E+04  0.50400001928E-02 0. -1.
       -1   -1    0    0    0  501  0.00000000000E+00  0.00000000000E+00 -0.47295211420E+03  0.47295211422E+03  0.50400001928E-02 0.  1.
    10030    2    1    2    0    0  0.00000000000E+00  0.00000000000E+00  0.12401268476E+04  0.21860310760E+04  0.18002270043E+04 0.  0.
        2    1    3    3  502    0  0.58616025202E+03  0.62715794792E+03  0.29131669006E+03  0.90651880654E+03  0.25500000920E-02 0.  1.
       -2    1    3    3    0  502 -0.58616025202E+03 -0.62715794792E+03  0.94881015749E+03  0.12795122694E+04  0.25500000920E-02 0. -1.
</event>
<event>
 5   0  0.4578107E-05  0.1792730E+04  0.7818609E-02  0.8710175E-01
        1   -1    0    0  501    0  0.00000000000E+00  0.00000000000E+00  0.73514664700E+03  0.73514664701E+03  0.50400001928E-02 0.  1.
       -1   -1    0    0    0  501  0.00000000000E+00  0.00000000000E+00 -0.10929382368E+04  0.10929382368E+04  0.50400001928E-02 0. -1.
    10030    2    1    2    0    0  0.00000000000E+00  0.00000000000E+00 -0.35779158982E+03  0.18280848838E+04  0.17927296285E+04 0.  0.
        2    1    3    3  502    0  0.21695582611E+03 -0.55959057149E+03  0.50001086534E+03  0.78116726996E+03  0.25500000920E-02 0.  1.
       -2    1    3    3    0  502 -0.21695582611E+03  0.55959057149E+03 -0.85780245516E+03  0.10469176139E+04  0.25500000920E-02 0. -1.
</event>
<event>
 5   0  0.9184414E-05  0.1804136E+04  0.7818609E-02  0.8704103E-01
        2   -1    0    0  501    0  0.00000000000E+00  0.00000000000E+00  0.14401929720E+04  0.14401929720E+04  0.25500000920E-02 0. -1.
       -2   -1    0    0    0  501  0.00000000000E+00  0.00000000000E+00 -0.56501220678E+03  0.56501220679E+03  0.25500000920E-02 0.  1.
    10030    2    1    2    0    0  0.00000000000E+00  0.00000000000E+00  0.87518076523E+03  0.20052051788E+04  0.18041359254E+04 0.  0.
        5    1    3    3  502    0  0.16035725789E+03  0.80983143826E+03  0.33531471562E+02  0.82624927119E+03  0.46999998093E+01 0.  1.
       -5    1    3    3    0  502 -0.16035725789E+03 -0.80983143826E+03  0.84164929367E+03  0.11789559076E+04  0.46999998093E+01 0. -1.
</event>
<event>
 5   0  0.9147432E-05  0.1791658E+04  0.7818609E-02  0.8710748E-01
       -2   -1    0    0    0  501  0.00000000000E+00  0.00000000000E+00  0.65185179383E+03  0.65185179383E+03  0.25500000920E-02 0. -1.
        2   -1    0    0  501    0  0.00000000000E+00  0.00000000000E+00 -0.12311226546E+04  0.12311226546E+04  0.25500000920E-02 0.  1.
    10030    2    1    2    0    0  0.00000000000E+00  0.00000000000E+00 -0.57927086077E+03  0.18829744484E+04  0.17916579035E+04 0.  0.
        3    1    3    3  502    0  0.44429605248E+02  0.14787711451E+03  0.63776109506E+03  0.65618660104E+03  0.10100000352E+00 0. -1.
       -3    1    3    3    0  502 -0.44429605248E+02 -0.14787711451E+03 -0.12170319558E+04  0.12267878474E+04  0.10100000352E+00 0.  1.
</event>
<event>
 5   0  0.4578107E-05  0.1803491E+04  0.7818609E-02  0.8704445E-01
        1   -1    0    0  501    0  0.00000000000E+00  0.00000000000E+00  0.59612712951E+03  0.59612712953E+03  0.50400001928E-02 0. -1.
       -1   -1    0    0    0  501  0.00000000000E+00  0.00000000000E+00 -0.13640469396E+04  0.13640469396E+04  0.50400001928E-02 0.  1.
    10030    2    1    2    0    0  0.00000000000E+00  0.00000000000E+00 -0.76791981012E+03  0.19601740692E+04  0.18034914878E+04 0.  0.
        2    1    3    3  502    0  0.55304162978E+03  0.57996610216E+03 -0.83331457625E+03  0.11561266829E+04  0.25500000920E-02 0.  1.
       -2    1    3    3    0  502 -0.55304162978E+03 -0.57996610216E+03  0.65394766128E+02  0.80404738627E+03  0.25500000920E-02 0. -1.
</event>
<event>
 5   0  0.8892280E-05  0.1794439E+04  0.7818609E-02  0.8709262E-01
       -2   -1    0    0    0  501  0.00000000000E+00  0.00000000000E+00  0.69833246568E+03  0.69833246569E+03  0.25500000920E-02 0. -1.
        2   -1    0    0  501    0  0.00000000000E+00  0.00000000000E+00 -0.11527502713E+04  0.11527502713E+04  0.25500000920E-02 0.  1.
    10030    2    1    2    0    0  0.00000000000E+00  0.00000000000E+00 -0.45441780562E+03  0.18510827370E+04  0.17944391205E+04 0.  0.
        4    1    3    3  502    0 -0.20757614338E+03 -0.66768295754E+03 -0.80719587497E+03  0.10679209618E+04  0.12699999809E+01 0.  1.
       -4    1    3    3    0  502  0.20757614338E+03  0.66768295754E+03  0.35277806934E+03  0.78316177524E+03  0.12699999809E+01 0. -1.
</event>
<event>
 5   0  0.4494757E-05  0.1800358E+04  0.7818609E-02  0.8706109E-01
       -1   -1    0    0    0  501  0.00000000000E+00  0.00000000000E+00  0.43134683940E+03  0.43134683942E+03  0.50400001928E-02 0. -1.
        1   -1    0    0  501    0  0.00000000000E+00  0.00000000000E+00 -0.18785855300E+04  0.18785855300E+04  0.50400001928E-02 0.  1.
    10030    2    1    2    0    0  0.00000000000E+00  0.00000000000E+00 -0.14472386906E+04  0.23099323695E+04  0.18003576655E+04 0.  0.
        4    1    3    3  502    0 -0.81912799284E+03  0.27182305164E+01 -0.24467847551E+03  0.85489603269E+03  0.12699999809E+01 0. -1.
       -4    1    3    3    0  502  0.81912799284E+03 -0.27182305164E+01 -0.12025602151E+04  0.14550363368E+04  0.12699999809E+01 0.  1.
</event>
<event>
 5   0  0.4335117E-05  0.1814827E+04  0.7818609E-02  0.8698454E-01
        1   -1    0    0  501    0  0.00000000000E+00  0.00000000000E+00  0.65486489748E+03  0.65486489750E+03  0.50400001928E-02 0.  1.
       -1   -1    0    0    0  501  0.00000000000E+00  0.00000000000E+00 -0.12573568264E+04  0.12573568264E+04  0.50400001928E-02 0. -1.
    10030    2    1    2    0    0  0.00000000000E+00  0.00000000000E+00 -0.60249192893E+03  0.19122217239E+04  0.18148265474E+04 0.  0.
        3    1    3    3  502    0 -0.72348937420E+03  0.54310009807E+03 -0.22670885725E+03  0.93262613477E+03  0.10100000352E+00 0. -1.
       -3    1    3    3    0  502  0.72348937420E+03 -0.54310009807E+03 -0.37578307167E+03  0.97959558914E+03  0.10100000352E+00 0.  1.
</event>
<event>
 5   0  0.8893075E-05  0.1807708E+04  0.7818609E-02  0.8702211E-01
       -2   -1    0    0    0  501  0.00000000000E+00  0.00000000000E+00  0.12611405637E+04  0.12611405637E+04  0.25500000920E-02 0.  1.
        2   -1    0    0  501    0  0.00000000000E+00  0.00000000000E+00 -0.64778828417E+03  0.64778828418E+03  0.25500000920E-02 0. -1.
    10030    2    1    2    0    0  0.00000000000E+00  0.00000000000E+00  0.61335227955E+03  0.19089288479E+04  0.18077080316E+04 0.  0.
        1    1    3    3  502    0  0.58141551520E+03 -0.16955589060E+03 -0.40183121777E+03  0.72681602139E+03  0.50400001928E-02 0. -1.
       -1    1    3    3    0  502 -0.58141551520E+03  0.16955589060E+03  0.10151834973E+04  0.11821128265E+04  0.50400001928E-02 0.  1.
</event>
<event>
 5   0  0.4578107E-05  0.1798146E+04  0.7818609E-02  0.8707286E-01
       -1   -1    0    0    0  501  0.00000000000E+00  0.00000000000E+00  0.50755855970E+03  0.50755855973E+03  0.50400001928E-02 0.  1.
        1   -1    0    0  501    0  0.00000000000E+00  0.00000000000E+00 -0.15925887631E+04  0.15925887631E+04  0.50400001928E-02 0. -1.
    10030    2    1    2    0    0  0.00000000000E+00  0.00000000000E+00 -0.10850302034E+04  0.21001473228E+04  0.17981457770E+04 0.  0.
        2    1    3    3  502    0 -0.11555188911E+03  0.71193929648E+03 -0.11694367523E+04  0.13739694751E+04  0.25500000920E-02 0. -1.
       -2    1    3    3    0  502  0.11555188911E+03 -0.71193929648E+03  0.84406548927E+02  0.72617784768E+03  0.25500000920E-02 0.  1.
</event>
<event>
 5   0  0.8893075E-05  0.1800481E+04  0.7818609E-02  0.8706043E-01
       -2   -1    0    0    0  501  0.00000000000E+00  0.00000000000E+00  0.71280385931E+03  0.71280385931E+03  0.25500000920E-02 0. -1.
        2   -1    0    0  501    0  0.00000000000E+00  0.00000000000E+00 -0.11369655090E+04  0.11369655090E+04  0.25500000920E-02 0.  1.
    10030    2    1    2    0    0  0.00000000000E+00  0.00000000000E+00 -0.42416164973E+03  0.18497693683E+04  0.18004814942E+04 0.  0.
        1    1    3    3  502    0 -0.28871219659E+03 -0.49018013538E+03  0.50473097394E+03  0.76051604432E+03  0.50400001928E-02 0. -1.
       -1    1    3    3    0  502  0.28871219659E+03  0.49018013538E+03 -0.92889262367E+03  0.10892533240E+04  0.50400001928E-02 0.  1.
</event>
<event>
 5   0  0.9147432E-05  0.1797863E+04  0.7818609E-02  0.8707437E-01
       -2   -1    0    0    0  501  0.00000000000E+00  0.00000000000E+00  0.46843542876E+03  0.46843542877E+03  0.25500000920E-02 0.  1.
        2   -1    0    0  501    0  0.00000000000E+00  0.00000000000E+00 -0.17250567396E+04  0.17250567396E+04  0.25500000920E-02 0. -1.
    10030    2    1    2    0    0  0.00000000000E+00  0.00000000000E+00 -0.12566213109E+04  0.21934921684E+04  0.17978628351E+04 0.  0.
        3    1    3    3  502    0 -0.39818272811E+03 -0.44542926252E+03 -0.14477674134E+04  0.15662015216E+04  0.10100000352E+00 0. -1.
       -3    1    3    3    0  502  0.39818272811E+03  0.44542926252E+03  0.19114610249E+03  0.62729064680E+03  0.10100000352E+00 0.  1.
</event>
<event>
 5   0  0.4535100E-05  0.1799768E+04  0.7818609E-02  0.8706423E-01
       -1   -1    0    0    0  501  0.00000000000E+00  0.00000000000E+00  0.42493224700E+03  0.42493224703E+03  0.50400001928E-02 0.  1.
        1   -1    0    0  501    0  0.00000000000E+00  0.00000000000E+00 -0.19056943155E+04  0.19056943155E+04  0.50400001928E-02 0. -1.
    10030    2    1    2    0    0  0.00000000000E+00  0.00000000000E+00 -0.14807620685E+04  0.23306265625E+04  0.17997677268E+04 0.  0.
        1    1    3    3  502    0  0.89250965918E+03 -0.59317179405E+02 -0.61284921666E+03  0.10842860240E+04  0.50400001928E-02 0.  1.
       -1    1    3    3    0  502 -0.89250965918E+03  0.59317179405E+02 -0.86791285181E+03  0.12463405385E+04  0.50400001928E-02 0. -1.
</event>
<event>
 5   0  0.4535100E-05  0.1802577E+04  0.7818609E-02  0.8704930E-01
        1   -1    0    0  501    0  0.00000000000E+00  0.00000000000E+00  0.14904149444E+04  0.14904149444E+04  0.50400001928E-02 0. -1.
       -1   -1    0    0    0  501  0.00000000000E+00  0.00000000000E+00 -0.54503033065E+03  0.54503033067E+03  0.50400001928E-02 0.  1.
    10030    2    1    2    0    0  0.00000000000E+00  0.00000000000E+00  0.94538461371E+03  0.20354452750E+04  0.18025774324E+04 0.  0.
        1    1    3    3  502    0  0.54170282068E+03 -0.28083427606E+03  0.12217193900E+04  0.13656163826E+04  0.50400001928E-02 0. -1.
       -1    1    3    3    0  502 -0.54170282068E+03  0.28083427606E+03 -0.27633477627E+03  0.66982889244E+03  0.50400001928E-02 0.  1.
</event>
<event>
 5   0  0.8893075E-05  0.1780206E+04  0.7818609E-02  0.8716897E-01
       -2   -1    0    0    0  501  0.00000000000E+00  0.00000000000E+00  0.87449241872E+03  0.87449241873E+03  0.25500000920E-02 0.  1.
        2   -1    0    0  501    0  0.00000000000E+00  0.00000000000E+00 -0.90599216516E+03  0.90599216516E+03  0.25500000920E-02 0. -1.
    10030    2    1    2    0    0  0.00000000000E+00  0.00000000000E+00 -0.31499746437E+02  0.17804845839E+04  0.17802059205E+04 0.  0.
        1    1    3    3  502    0  0.37641572147E+03  0.49079211436E+03 -0.65594192623E+03  0.90156835875E+03  0.50400001928E-02 0. -1.
       -1    1    3    3    0  502 -0.37641572147E+03 -0.49079211436E+03  0.62444217980E+03  0.87891622514E+03  0.50400001928E-02 0.  1.
</event>
<event>
 5   0  0.4578107E-05  0.1794417E+04  0.7818609E-02  0.8709274E-01
        1   -1    0    0  501    0  0.00000000000E+00  0.00000000000E+00  0.14429037110E+04  0.14429037110E+04  0.50400001928E-02 0. -1.
       -1   -1    0    0    0  501  0.00000000000E+00  0.00000000000E+00 -0.55789113179E+03  0.55789113181E+03  0.50400001928E-02 0.  1.
    10030    2    1    2    0    0  0.00000000000E+00  0.00000000000E+00  0.88501257922E+03  0.20007948428E+04  0.17944171025E+04 0.  0.
        2    1    3    3  502    0 -0.62423012412E+03 -0.64387801256E+03  0.47285920622E+03  0.10138234421E+04  0.25500000920E-02 0. -1.
       -2    1    3    3    0  502  0.62423012412E+03  0.64387801256E+03  0.41215337299E+03  0.98697140069E+03  0.25500000920E-02 0.  1.
</event>
<event>
 5   0  0.4535100E-05  0.1806105E+04  0.7818609E-02  0.8703059E-01
        1   -1    0    0  501    0  0.00000000000E+00  0.00000000000E+00  0.82713778302E+03  0.82713778304E+03  0.50400001928E-02 0.  1.
       -1   -1    0    0    0  501  0.00000000000E+00  0.00000000000E+00 -0.98593512794E+03  0.98593512796E+03  0.50400001928E-02 0. -1.
    10030    2    1    2    0    0  0.00000000000E+00  0.00000000000E+00 -0.15879734492E+03  0.18130729110E+04  0.18061054188E+04 0.  0.
        1    1    3    3  502    0  0.40829163994E+03  0.13236568099E+03 -0.87699600097E+03  0.97639373333E+03  0.50400001928E-02 0. -1.
       -1    1    3    3    0  502 -0.40829163994E+03 -0.13236568099E+03  0.71819865605E+03  0.83667917766E+03  0.50400001928E-02 0.  1.
</event>
<event>
 5   0  0.9147432E-05  0.1802581E+04  0.7818609E-02  0.8704928E-01
       -2   -1    0    0    0  501  0.00000000000E+00  0.00000000000E+00  0.37300394477E+03  0.37300394478E+03  0.25500000920E-02 0.  1.
        2   -1    0    0  501    0  0.00000000000E+00  0.00000000000E+00 -0.21777918370E+04  0.21777918370E+04  0.25500000920E-02 0. -1.
    10030    2    1    2    0    0  0.00000000000E+00  0.00000000000E+00 -0.18047878923E+04  0.25507957818E+04  0.18025814224E+04 0.  0.
        3    1    3    3  502    0  0.87807619782E+03  0.16405142924E+03 -0.73261829687E+03  0.11552749715E+04  0.10100000352E+00 0.  1.
       -3    1    3    3    0  502 -0.87807619782E+03 -0.16405142924E+03 -0.10721695954E+04  0.13955208103E+04  0.10100000352E+00 0. -1.
</event>
<event>
 5   0  0.4494757E-05  0.1674068E+04  0.7818609E-02  0.8776294E-01
       -1   -1    0    0    0  501  0.00000000000E+00  0.00000000000E+00  0.68260606832E+03  0.68260606833E+03  0.50400001928E-02 0. -1.
        1   -1    0    0  501    0  0.00000000000E+00  0.00000000000E+00 -0.10263980139E+04  0.10263980139E+04  0.50400001928E-02 0.  1.
    10030    2    1    2    0    0  0.00000000000E+00  0.00000000000E+00 -0.34379194560E+03  0.17090040823E+04  0.16740675170E+04 0.  0.
        4    1    3    3  502    0 -0.46879184708E+03 -0.89141053247E+02 -0.87393343392E+03  0.99572746426E+03  0.12699999809E+01 0.  1.
       -4    1    3    3    0  502  0.46879184708E+03  0.89141053247E+02  0.53014148831E+03  0.71327661801E+03  0.12699999809E+01 0. -1.
</event>
<event>
 5   0  0.4535100E-05  0.1801082E+04  0.7818609E-02  0.8705724E-01
        1   -1    0    0  501    0  0.00000000000E+00  0.00000000000E+00  0.14397858588E+04  0.14397858588E+04  0.50400001928E-02 0.  1.
       -1   -1    0    0    0  501  0.00000000000E+00  0.00000000000E+00 -0.56326005555E+03  0.56326005557E+03  0.50400001928E-02 0. -1.
    10030    2    1    2    0    0  0.00000000000E+00  0.00000000000E+00  0.87652580321E+03  0.20030459143E+04  0.18010817447E+04 0.  0.
        1    1    3    3  502    0  0.54080155890E+03 -0.47734942086E+03  0.10378316092E+04  0.12638921017E+04  0.50400001928E-02 0.  1.
       -1    1    3    3    0  502 -0.54080155890E+03  0.47734942086E+03 -0.16130580595E+03  0.73915381265E+03  0.50400001928E-02 0. -1.
</event>
<event>
 5   0  0.4494757E-05  0.1797572E+04  0.7818609E-02  0.8707592E-01
       -1   -1    0    0    0  501  0.00000000000E+00  0.00000000000E+00  0.69806629738E+03  0.69806629740E+03  0.50400001928E-02 0. -1.
        1   -1    0    0  501    0  0.00000000000E+00  0.00000000000E+00 -0.11572196069E+04  0.11572196069E+04  0.50400001928E-02 0.  1.
    10030    2    1    2    0    0  0.00000000000E+00  0.00000000000E+00 -0.45915330949E+03  0.18552859043E+04  0.17975717023E+04 0.  0.
        4    1    3    3  502    0 -0.10058977957E+03 -0.54051565599E+03 -0.96341756361E+03  0.11092567299E+04  0.12699999809E+01 0.  1.
       -4    1    3    3    0  502  0.10058977957E+03  0.54051565599E+03  0.50426425411E+03  0.74602917436E+03  0.12699999809E+01 0. -1.
</event>
<event>
 5   0  0.8802655E-05  0.1796914E+04  0.7818609E-02  0.8707942E-01
        2   -1    0    0  501    0  0.00000000000E+00  0.00000000000E+00  0.30173704948E+04  0.30173704948E+04  0.25500000920E-02 0. -1.
       -2   -1    0    0    0  501  0.00000000000E+00  0.00000000000E+00 -0.26752608379E+03  0.26752608380E+03  0.25500000920E-02 0.  1.
    10030    2    1    2    0    0  0.00000000000E+00  0.00000000000E+00  0.27498444110E+04  0.32848965786E+04  0.17969143684E+04 0.  0.
        2    1    3    3  502    0 -0.20898181496E+03  0.46615856738E+03  0.23816617151E+02  0.51141415720E+03  0.25500000920E-02 0.  1.
       -2    1    3    3    0  502  0.20898181496E+03 -0.46615856738E+03  0.27260277939E+04  0.27734824214E+04  0.25500000920E-02 0. -1.
</event>
<event>
 5   0  0.8892280E-05  0.1803530E+04  0.7818609E-02  0.8704425E-01
       -2   -1    0    0    0  501  0.00000000000E+00  0.00000000000E+00  0.11690501504E+04  0.11690501504E+04  0.25500000920E-02 0.  1.
        2   -1    0    0  501    0  0.00000000000E+00  0.00000000000E+00 -0.69559011919E+03  0.69559011919E+03  0.25500000920E-02 0. -1.
    10030    2    1    2    0    0  0.00000000000E+00  0.00000000000E+00  0.47346003119E+03  0.18646402696E+04  0.18035295766E+04 0.  0.
        4    1    3    3  502    0 -0.15744077732E+03 -0.29319285366E+03  0.11032385489E+04  0.11523396012E+04  0.12699999809E+01 0.  1.
       -4    1    3    3    0  502  0.15744077732E+03  0.29319285366E+03 -0.62977851775E+03  0.71230066834E+03  0.12699999809E+01 0. -1.
</event>
<event>
 5   0  0.9147432E-05  0.1783042E+04  0.7818609E-02  0.8715370E-01
        2   -1    0    0  501    0  0.00000000000E+00  0.00000000000E+00  0.12167597004E+04  0.12167597004E+04  0.25500000920E-02 0.  1.
       -2   -1    0    0    0  501  0.00000000000E+00  0.00000000000E+00 -0.65321821784E+03  0.65321821785E+03  0.25500000920E-02 0. -1.
    10030    2    1    2    0    0  0.00000000000E+00  0.00000000000E+00  0.56354148257E+03  0.18699779183E+04  0.17830418986E+04 0.  0.
        3    1    3    3  502    0  0.83013444985E+03 -0.31776765692E+03  0.35374715248E+03  0.95667996044E+03  0.10100000352E+00 0. -1.
       -3    1    3    3    0  502 -0.83013444985E+03  0.31776765692E+03  0.20979433008E+03  0.91329795782E+03  0.10100000352E+00 0.  1.
</event>
<event>
 5   0  0.4335117E-05  0.1801585E+04  0.7818609E-02  0.8705457E-01
       -1   -1    0    0    0  501  0.00000000000E+00  0.00000000000E+00  0.44341045894E+03  0.44341045897E+03  0.50400001928E-02 0.  1.
        1   -1    0    0  501    0  0.00000000000E+00  0.00000000000E+00 -0.18299690250E+04  0.18299690250E+04  0.50400001928E-02 0. -1.
    10030    2    1    2    0    0  0.00000000000E+00  0.00000000000E+00 -0.13865585661E+04  0.22733794840E+04  0.18015853077E+04 0.  0.
        3    1    3    3  502    0 -0.51592577353E+03 -0.29770001384E+03 -0.15459784732E+04  0.16567601370E+04  0.10100000352E+00 0. -1.
       -3    1    3    3    0  502  0.51592577353E+03  0.29770001384E+03  0.15941990710E+03  0.61661934693E+03  0.10100000352E+00 0.  1.
</event>
<event>
 5   0  0.9184414E-05  0.1780393E+04  0.7818609E-02  0.8716796E-01
        2   -1    0    0  501    0  0.00000000000E+00  0.00000000000E+00  0.17435837221E+04  0.17435837221E+04  0.25500000920E-02 0.  1.
       -2   -1    0    0    0  501  0.00000000000E+00  0.00000000000E+00 -0.45449503332E+03  0.45449503332E+03  0.25500000920E-02 0. -1.
    10030    2    1    2    0    0  0.00000000000E+00  0.00000000000E+00  0.12890886888E+04  0.21980787554E+04  0.17803933744E+04 0.  0.
        5    1    3    3  502    0 -0.55842858692E+03  0.24299264637E+03  0.14461241116E+04  0.15691350958E+04  0.46999998093E+01 0.  1.
       -5    1    3    3    0  502  0.55842858692E+03 -0.24299264637E+03 -0.15703542283E+03  0.62894365956E+03  0.46999998093E+01 0. -1.
</event>
<event>
 5   0  0.8802655E-05  0.1797198E+04  0.7818609E-02  0.8707791E-01
        2   -1    0    0  501    0  0.00000000000E+00  0.00000000000E+00  0.14804885138E+04  0.14804885138E+04  0.25500000920E-02 0. -1.
       -2   -1    0    0    0  501  0.00000000000E+00  0.00000000000E+00 -0.54541450749E+03  0.54541450749E+03  0.25500000920E-02 0.  1.
    10030    2    1    2    0    0  0.00000000000E+00  0.00000000000E+00  0.93507400635E+03  0.20259030213E+04  0.17971977227E+04 0.  0.
        2    1    3    3  502    0 -0.21752370711E+03 -0.75013970663E+03 -0.33368160479E+02  0.78175416645E+03  0.25500000920E-02 0.  1.
       -2    1    3    3    0  502  0.21752370711E+03  0.75013970663E+03  0.96844216683E+03  0.12441488549E+04  0.25500000920E-02 0. -1.
</event>
<event>
 5   0  0.4335117E-05  0.1798829E+04  0.7818609E-02  0.8706922E-01
       -1   -1    0    0    0  501  0.00000000000E+00  0.00000000000E+00  0.12475538036E+04  0.12475538037E+04  0.50400001928E-02 0. -1.
        1   -1    0    0  501    0  0.00000000000E+00  0.00000000000E+00 -0.64842639158E+03  0.64842639160E+03  0.50400001928E-02 0.  1.
    10030    2    1    2    0    0  0.00000000000E+00  0.00000000000E+00  0.59912741206E+03  0.18959801953E+04  0.17988294096E+04 0.  0.
        3    1    3    3  502    0 -0.24707761229E+03 -0.68706173456E+03 -0.25401180449E+03  0.77306091650E+03  0.10100000352E+00 0.  1.
       -3    1    3    3    0  502  0.24707761229E+03  0.68706173456E+03  0.85313921655E+03  0.11229192788E+04  0.10100000352E+00 0. -1.
</event>
<event>
 5   0  0.9184414E-05  0.1779664E+04  0.7818609E-02  0.8717189E-01
        2   -1    0    0  501    0  0.00000000000E+00  0.00000000000E+00  0.22307955495E+04  0.22307955495E+04  0.25500000920E-02 0.  1.
       -2   -1    0    0    0  501  0.00000000000E+00  0.00000000000E+00 -0.35494108490E+03  0.35494108491E+03  0.25500000920E-02 0. -1.
    10030    2    1    2    0    0  0.00000000000E+00  0.00000000000E+00  0.18758544646E+04  0.25857366344E+04  0.17796640049E+04 0.  0.
        5    1    3    3  502    0  0.42870309381E+02  0.15147500836E+03  0.22103836711E+04  0.22159875011E+04  0.46999998093E+01 0.  1.
       -5    1    3    3    0  502 -0.42870309381E+02 -0.15147500836E+03 -0.33452920650E+03  0.36974913331E+03  0.46999998093E+01 0. -1.
</event>
<event>
 5   0  0.3270375E-05  0.1802702E+04  0.7818609E-02  0.8704864E-01
        3   -1    0    0  501    0  0.00000000000E+00  0.00000000000E+00  0.33756614721E+04  0.33756614737E+04  0.10100000352E+00 0.  1.
       -3   -1    0    0    0  501  0.00000000000E+00  0.00000000000E+00 -0.24067401534E+03  0.24067403654E+03  0.10100000352E+00 0. -1.
    10030    2    1    2    0    0  0.00000000000E+00  0.00000000000E+00  0.31349874568E+04  0.36163355102E+04  0.18027024624E+04 0.  0.
        2    1    3    3  502    0  0.55431130606E+02 -0.84836278229E+03  0.21681146893E+04  0.23288437746E+04  0.25500000920E-02 0.  1.
       -2    1    3    3    0  502 -0.55431130606E+02  0.84836278229E+03  0.96687276747E+03  0.12874917355E+04  0.25500000920E-02 0. -1.
</event>
<event>
 5   0  0.9184414E-05  0.1794232E+04  0.7818609E-02  0.8709373E-01
        2   -1    0    0  501    0  0.00000000000E+00  0.00000000000E+00  0.14201693471E+04  0.14201693471E+04  0.25500000920E-02 0. -1.
       -2   -1    0    0    0  501  0.00000000000E+00  0.00000000000E+00 -0.56670473308E+03  0.56670473309E+03  0.25500000920E-02 0.  1.
    10030    2    1    2    0    0  0.00000000000E+00  0.00000000000E+00  0.85346461400E+03  0.19868740802E+04  0.17942315244E+04 0.  0.
        5    1    3    3  502    0  0.54865279345E+03  0.55037227862E+03  0.92303207170E+03  0.12066233166E+04  0.46999998093E+01 0. -1.
       -5    1    3    3    0  502 -0.54865279345E+03 -0.55037227862E+03 -0.69567457701E+02  0.78025076354E+03  0.46999998093E+01 0.  1.
</event>
<event>
 5   0  0.8893075E-05  0.1796955E+04  0.7818609E-02  0.8707921E-01
        2   -1    0    0  501    0  0.00000000000E+00  0.00000000000E+00  0.24025936570E+04  0.24025936570E+04  0.25500000920E-02 0.  1.
       -2   -1    0    0    0  501  0.00000000000E+00  0.00000000000E+00 -0.33599580559E+03  0.33599580560E+03  0.25500000920E-02 0. -1.
    10030    2    1    2    0    0  0.00000000000E+00  0.00000000000E+00  0.20665978514E+04  0.27385894626E+04  0.17969545251E+04 0.  0.
        1    1    3    3  502    0 -0.40917694143E+03 -0.24439578670E+03  0.21940621630E+04  0.22452313567E+04  0.50400001928E-02 0.  1.
       -1    1    3    3    0  502  0.40917694143E+03  0.24439578670E+03 -0.12746431155E+03  0.49335810594E+03  0.50400001928E-02 0. -1.
</event>
<event>
 5   0  0.8892280E-05  0.1799997E+04  0.7818609E-02  0.8706301E-01
       -2   -1    0    0    0  501  0.00000000000E+00  0.00000000000E+00  0.57290893680E+03  0.57290893681E+03  0.25500000920E-02 0. -1.
        2   -1    0    0  501    0  0.00000000000E+00  0.00000000000E+00 -0.14138320197E+04  0.14138320197E+04  0.25500000920E-02 0.  1.
    10030    2    1    2    0    0  0.00000000000E+00  0.00000000000E+00 -0.84092308293E+03  0.19867409565E+04  0.17999966658E+04 0.  0.
        4    1    3    3  502    0  0.88671312365E+03  0.12539952779E+03 -0.51924647508E+03  0.10351829404E+04  0.12699999809E+01 0.  1.
       -4    1    3    3    0  502 -0.88671312365E+03 -0.12539952779E+03 -0.32167660784E+03  0.95155801618E+03  0.12699999809E+01 0. -1.
</event>
<event>
 5   0  0.4335117E-05  0.1803885E+04  0.7818609E-02  0.8704236E-01
       -1   -1    0    0    0  501  0.00000000000E+00  0.00000000000E+00  0.82855819136E+03  0.82855819138E+03  0.50400001928E-02 0.  1.
        1   -1    0    0  501    0  0.00000000000E+00  0.00000000000E+00 -0.98182612655E+03  0.98182612656E+03  0.50400001928E-02 0. -1.
    10030    2    1    2    0    0  0.00000000000E+00  0.00000000000E+00 -0.15326793519E+03  0.18103843179E+04  0.18038847853E+04 0.  0.
        3    1    3    3  502    0 -0.11578641402E+03 -0.42103092186E+03  0.71540315656E+03  0.83813794655E+03  0.10100000352E+00 0.  1.
       -3    1    3    3    0  502  0.11578641402E+03  0.42103092186E+03 -0.86867109175E+03  0.97224637139E+03  0.10100000352E+00 0. -1.
</event>
<event>
 5   0  0.4494757E-05  0.1808250E+04  0.7818609E-02  0.8701924E-01
       -1   -1    0    0    0  501  0.00000000000E+00  0.00000000000E+00  0.60019255126E+03  0.60019255128E+03  0.50400001928E-02 0. -1.
        1   -1    0    0  501    0  0.00000000000E+00  0.00000000000E+00 -0.13619667855E+04  0.13619667855E+04  0.50400001928E-02 0.  1.
    10030    2    1    2    0    0  0.00000000000E+00  0.00000000000E+00 -0.76177423419E+03  0.19621593367E+04  0.18082503363E+04 0.  0.
        4    1    3    3  502    0  0.12324824709E+03  0.86790250670E+03 -0.62107727686E+03  0.10743293202E+04  0.12699999809E+01 0.  1.
       -4    1    3    3    0  502 -0.12324824709E+03 -0.86790250670E+03 -0.14069695734E+03  0.88783001653E+03  0.12699999809E+01 0. -1.
</event>
<event>
 5   0  0.8893075E-05  0.1817259E+04  0.7818609E-02  0.8697175E-01
        2   -1    0    0  501    0  0.00000000000E+00  0.00000000000E+00  0.68576848124E+03  0.68576848124E+03  0.25500000920E-02 0. -1.
       -2   -1    0    0    0  501  0.00000000000E+00  0.00000000000E+00 -0.12039162572E+04  0.12039162572E+04  0.25500000920E-02 0.  1.
    10030    2    1    2    0    0  0.00000000000E+00  0.00000000000E+00 -0.51814777599E+03  0.18896847385E+04  0.18172592806E+04 0.  0.
        1    1    3    3  502    0 -0.23973143936E+03 -0.58963254127E+03 -0.93335350730E+03  0.11297284923E+04  0.50400001928E-02 0.  1.
       -1    1    3    3    0  502  0.23973143936E+03  0.58963254127E+03  0.41520573131E+03  0.75995624616E+03  0.50400001928E-02 0. -1.
</event>
<event>
 5   0  0.4535100E-05  0.1803079E+04  0.7818609E-02  0.8704664E-01
        1   -1    0    0  501    0  0.00000000000E+00  0.00000000000E+00  0.14915701838E+04  0.14915701838E+04  0.50400001928E-02 0.  1.
       -1   -1    0    0    0  501  0.00000000000E+00  0.00000000000E+00 -0.54491133501E+03  0.54491133504E+03  0.50400001928E-02 0. -1.
    10030    2    1    2    0    0  0.00000000000E+00  0.00000000000E+00  0.94665884881E+03  0.20364815189E+04  0.18030790334E+04 0.  0.
        1    1    3    3  502    0  0.63086681790E+03  0.43549019690E+03  0.10092263716E+04  0.12673525645E+04  0.50400001928E-02 0.  1.
       -1    1    3    3    0  502 -0.63086681790E+03 -0.43549019690E+03 -0.62567522823E+02  0.76912895437E+03  0.50400001928E-02 0. -1.
</event>
<event>
 5   0  0.8892280E-05  0.1805691E+04  0.7818609E-02  0.8703279E-01
        2   -1    0    0  501    0  0.00000000000E+00  0.00000000000E+00  0.19677110992E+04  0.19677110992E+04  0.25500000920E-02 0. -1.
       -2   -1    0    0    0  501  0.00000000000E+00  0.00000000000E+00 -0.41425306614E+03  0.41425306614E+03  0.25500000920E-02 0.  1.
    10030    2    1    2    0    0  0.00000000000E+00  0.00000000000E+00  0.15534580330E+04  0.23819641653E+04  0.18056913979E+04 0.  0.
        4    1    3    3  502    0 -0.43233311052E+03  0.34824261197E+03  0.17159583520E+04  0.18035241928E+04  0.12699999809E+01 0. -1.
       -4    1    3    3    0  502  0.43233311052E+03 -0.34824261197E+03 -0.16250031898E+03  0.57843997252E+03  0.12699999809E+01 0.  1.
</event>
<event>
 5   0  0.9184414E-05  0.1802631E+04  0.7818609E-02  0.8704902E-01
       -2   -1    0    0    0  501  0.00000000000E+00  0.00000000000E+00  0.59065188221E+03  0.59065188222E+03  0.25500000920E-02 0. -1.
        2   -1    0    0  501    0  0.00000000000E+00  0.00000000000E+00 -0.13753779990E+04  0.13753779990E+04  0.25500000920E-02 0.  1.
    10030    2    1    2    0    0  0.00000000000E+00  0.00000000000E+00 -0.78472611680E+03  0.19660298812E+04  0.18026309704E+04 0.  0.
        5    1    3    3  502    0  0.76809105536E+03  0.33338118019E+03 -0.28602998869E+02  0.83782283459E+03  0.46999998093E+01 0. -1.
       -5    1    3    3    0  502 -0.76809105536E+03 -0.33338118019E+03 -0.75612311793E+03  0.11282070466E+04  0.46999998093E+01 0.  1.
</event>
<event>
 5   0  0.9184414E-05  0.1802816E+04  0.7818609E-02  0.8704803E-01
       -2   -1    0    0    0  501  0.00000000000E+00  0.00000000000E+00  0.78277211307E+03  0.78277211307E+03  0.25500000920E-02 0.  1.
        2   -1    0    0  501    0  0.00000000000E+00  0.00000000000E+00 -0.10380239620E+04  0.10380239620E+04  0.25500000920E-02 0. -1.
    10030    2    1    2    0    0  0.00000000000E+00  0.00000000000E+00 -0.25525184893E+03  0.18207960751E+04  0.18028158088E+04 0.  0.
        5    1    3    3  502    0  0.55545807812E+03 -0.15016918043E+03 -0.82839733028E+03  0.10086370438E+04  0.46999998093E+01 0. -1.
       -5    1    3    3    0  502 -0.55545807812E+03  0.15016918043E+03  0.57314548135E+03  0.81215903128E+03  0.46999998093E+01 0.  1.
</event>
<event>
 5   0  0.4494757E-05  0.1781456E+04  0.7818609E-02  0.8716223E-01
        1   -1    0    0  501    0  0.00000000000E+00  0.00000000000E+00  0.11079207072E+04  0.11079207073E+04  0.50400001928E-02 0. -1.
       -1   -1    0    0    0  501  0.00000000000E+00  0.00000000000E+00 -0.71611305555E+03  0.71611305557E+03  0.50400001928E-02 0.  1.
    10030    2    1    2    0    0  0.00000000000E+00  0.00000000000E+00  0.39180765169E+03  0.18240337628E+04  0.17814561269E+04 0.  0.
        4    1    3    3  502    0  0.57877581277E+02 -0.29923725069E+03  0.10528676120E+04  0.10960951455E+04  0.12699999809E+01 0. -1.
       -4    1    3    3    0  502 -0.57877581277E+02  0.29923725069E+03 -0.66105996031E+03  0.72793861736E+03  0.12699999809E+01 0.  1.
</event>
<event>
 5   0  0.4494757E-05  0.1802440E+04  0.7818609E-02  0.8705003E-01
        1   -1    0    0  501    0  0.00000000000E+00  0.00000000000E+00  0.10788526728E+04  0.10788526728E+04  0.50400001928E-02 0.  1.
       -1   -1    0    0    0  501  0.00000000000E+00  0.00000000000E+00 -0.75283453978E+03  0.75283453979E+03  0.50400001928E-02 0. -1.
    10030    2    1    2    0    0  0.00000000000E+00  0.00000000000E+00  0.32601813304E+03  0.18316872126E+04  0.18024400744E+04 0.  0.
        4    1    3    3  502    0 -0.16052118156E+03 -0.73290232663E+02 -0.73510596305E+03  0.75599001167E+03  0.12699999809E+01 0. -1.
       -4    1    3    3    0  502  0.16052118156E+03  0.73290232663E+02  0.10611240961E+04  0.10756972010E+04  0.12699999809E+01 0.  1.
</event>
<event>
 5   0  0.4535100E-05  0.1796209E+04  0.7818609E-02  0.8708318E-01
        1   -1    0    0  501    0  0.00000000000E+00  0.00000000000E+00  0.12045609224E+04  0.12045609224E+04  0.50400001928E-02 0.  1.
       -1   -1    0    0    0  501  0.00000000000E+00  0.00000000000E+00 -0.66961437237E+03  0.66961437239E+03  0.50400001928E-02 0. -1.
    10030    2    1    2    0    0  0.00000000000E+00  0.00000000000E+00  0.53494655004E+03  0.18741752948E+04  0.17962085693E+04 0.  0.
        1    1    3    3  502    0  0.83317975264E+03  0.10584836091E+03 -0.64452826981E+02  0.84234585691E+03  0.50400001928E-02 0. -1.
       -1    1    3    3    0  502 -0.83317975264E+03 -0.10584836091E+03  0.59939937702E+03  0.10318294379E+04  0.50400001928E-02 0.  1.
</event>
<event>
 5   0  0.9184414E-05  0.1801400E+04  0.7818609E-02  0.8705555E-01
       -2   -1    0    0    0  501  0.00000000000E+00  0.00000000000E+00  0.11452920520E+04  0.11452920520E+04  0.25500000920E-02 0.  1.
        2   -1    0    0  501    0  0.00000000000E+00  0.00000000000E+00 -0.70834386097E+03  0.70834386097E+03  0.25500000920E-02 0. -1.
    10030    2    1    2    0    0  0.00000000000E+00  0.00000000000E+00  0.43694819108E+03  0.18536359130E+04  0.18014001156E+04 0.  0.
        5    1    3    3  502    0  0.24458801771E+03  0.93464088697E+02 -0.66830412172E+03  0.71778222560E+03  0.46999998093E+01 0. -1.
       -5    1    3    3    0  502 -0.24458801771E+03 -0.93464088697E+02  0.11052523128E+04  0.11358536874E+04  0.46999998093E+01 0.  1.
</event>
<event>
 5   0  0.8892280E-05  0.1799559E+04  0.7818609E-02  0.8706534E-01
        2   -1    0    0  501    0  0.00000000000E+00  0.00000000000E+00  0.63770578236E+03  0.63770578236E+03  0.25500000920E-02 0.  1.
       -2   -1    0    0    0  501  0.00000000000E+00  0.00000000000E+00 -0.12695558770E+04  0.12695558770E+04  0.25500000920E-02 0. -1.
    10030    2    1    2    0    0  0.00000000000E+00  0.00000000000E+00 -0.63185009459E+03  0.19072616593E+04  0.17995589724E+04 0.  0.
        4    1    3    3  502    0 -0.40737284729E+03  0.38228014675E+03 -0.10634839808E+04  0.12012870338E+04  0.12699999809E+01 0. -1.
       -4    1    3    3    0  502  0.40737284729E+03 -0.38228014675E+03  0.43163388616E+03  0.70597462553E+03  0.12699999809E+01 0.  1.
</event>
<event>
 5   0  0.8893075E-05  0.1803369E+04  0.7818609E-02  0.8704510E-01
       -2   -1    0    0    0  501  0.00000000000E+00  0.00000000000E+00  0.89095417736E+03  0.89095417737E+03  0.25500000920E-02 0. -1.
        2   -1    0    0  501    0  0.00000000000E+00  0.00000000000E+00 -0.91254453739E+03  0.91254453739E+03  0.25500000920E-02 0.  1.
    10030    2    1    2    0    0  0.00000000000E+00  0.00000000000E+00 -0.21590360025E+02  0.18034987148E+04  0.18033694770E+04 0.  0.
        1    1    3    3  502    0  0.68238051025E+03  0.52236008911E+03  0.26223014328E+03  0.89848086876E+03  0.50400001928E-02 0. -1.
       -1    1    3    3    0  502 -0.68238051025E+03 -0.52236008911E+03 -0.28382050330E+03  0.90501784600E+03  0.50400001928E-02 0.  1.
</event>
<event>
 5   0  0.8893075E-05  0.1797214E+04  0.7818609E-02  0.8707782E-01
        2   -1    0    0  501    0  0.00000000000E+00  0.00000000000E+00  0.80251991606E+03  0.80251991607E+03  0.25500000920E-02 0. -1.
       -2   -1    0    0    0  501  0.00000000000E+00  0.00000000000E+00 -0.10061987129E+04  0.10061987129E+04  0.25500000920E-02 0.  1.
    10030    2    1    2    0    0  0.00000000000E+00  0.00000000000E+00 -0.20367879686E+03  0.18087186290E+04  0.17972139624E+04 0.  0.
        1    1    3    3  502    0  0.81667367965E+03  0.69233847604E+02 -0.47263416823E+03  0.94611430689E+03  0.50400001928E-02 0.  1.
       -1    1    3    3    0  502 -0.81667367965E+03 -0.69233847604E+02  0.26895537137E+03  0.86260432210E+03  0.50400001928E-02 0. -1.
</event>
<event>
 5   0  0.4578107E-05  0.1807047E+04  0.7818609E-02  0.8702561E-01
        1   -1    0    0  501    0  0.00000000000E+00  0.00000000000E+00  0.11113523480E+04  0.11113523480E+04  0.50400001928E-02 0.  1.
       -1   -1    0    0    0  501  0.00000000000E+00  0.00000000000E+00 -0.73455997973E+03  0.73455997975E+03  0.50400001928E-02 0. -1.
    10030    2    1    2    0    0  0.00000000000E+00  0.00000000000E+00  0.37679236830E+03  0.18459123278E+04  0.18070472692E+04 0.  0.
        2    1    3    3  502    0 -0.82708216034E+03  0.19688106178E+03  0.50079700205E+03  0.98672422171E+03  0.25500000920E-02 0.  1.
       -2    1    3    3    0  502  0.82708216034E+03 -0.19688106178E+03 -0.12400463375E+03  0.85918810609E+03  0.25500000920E-02 0. -1.
</event>
<event>
 5   0  0.4623665E-05  0.1849065E+04  0.7818609E-02  0.8680634E-01
        1   -1    0    0  501    0  0.00000000000E+00  0.00000000000E+00  0.80551206532E+03  0.80551206534E+03  0.50400001928E-02 0.  1.
       -1   -1    0    0    0  501  0.00000000000E+00  0.00000000000E+00 -0.10611395938E+04  0.10611395938E+04  0.50400001928E-02 0. -1.
    10030    2    1    2    0    0  0.00000000000E+00  0.00000000000E+00 -0.25562752847E+03  0.18666516591E+04  0.18490654351E+04 0.  0.
        5    1    3    3  502    0 -0.79961750437E+03  0.46075280786E+03 -0.18363298413E+03  0.94096996026E+03  0.46999998093E+01 0.  1.
       -5    1    3    3    0  502  0.79961750437E+03 -0.46075280786E+03 -0.71994544345E+02  0.92568169889E+03  0.46999998093E+01 0. -1.
</event>
<event>
 5   0  0.9184414E-05  0.1797802E+04  0.7818609E-02  0.8707469E-01
       -2   -1    0    0    0  501  0.00000000000E+00  0.00000000000E+00  0.10579470496E+04  0.10579470496E+04  0.25500000920E-02 0. -1.
        2   -1    0    0  501    0  0.00000000000E+00  0.00000000000E+00 -0.76376539784E+03  0.76376539784E+03  0.25500000920E-02 0.  1.
    10030    2    1    2    0    0  0.00000000000E+00  0.00000000000E+00  0.29418165179E+03  0.18217124475E+04  0.17978023799E+04 0.  0.
        5    1    3    3  502    0 -0.68917982119E+03 -0.26809976416E+03  0.66492058545E+03  0.99447864956E+03  0.46999998093E+01 0. -1.
       -5    1    3    3    0  502  0.68917982119E+03  0.26809976416E+03 -0.37073893366E+03  0.82723379791E+03  0.46999998093E+01 0.  1.
</event>
<event>
 5   0  0.4494757E-05  0.1793926E+04  0.7818609E-02  0.8709536E-01
       -1   -1    0    0    0  501  0.00000000000E+00  0.00000000000E+00  0.35675838774E+03  0.35675838777E+03  0.50400001928E-02 0. -1.
        1   -1    0    0  501    0  0.00000000000E+00  0.00000000000E+00 -0.22551464171E+04  0.22551464171E+04  0.50400001928E-02 0.  1.
    10030    2    1    2    0    0  0.00000000000E+00  0.00000000000E+00 -0.18983880293E+04  0.26119048048E+04  0.17939257509E+04 0.  0.
        4    1    3    3  502    0  0.54105458780E+03  0.24802673653E+03 -0.19261969683E+04  0.20160589531E+04  0.12699999809E+01 0.  1.
       -4    1    3    3    0  502 -0.54105458780E+03 -0.24802673653E+03  0.27808938952E+02  0.59584585171E+03  0.12699999809E+01 0. -1.
</event>
<event>
 5   0  0.8802655E-05  0.1799387E+04  0.7818609E-02  0.8706625E-01
       -2   -1    0    0    0  501  0.00000000000E+00  0.00000000000E+00  0.36114523619E+03  0.36114523620E+03  0.25500000920E-02 0. -1.
        2   -1    0    0  501    0  0.00000000000E+00  0.00000000000E+00 -0.22413385277E+04  0.22413385277E+04  0.25500000920E-02 0.  1.
    10030    2    1    2    0    0  0.00000000000E+00  0.00000000000E+00 -0.18801932915E+04  0.26024837639E+04  0.17993873757E+04 0.  0.
        2    1    3    3  502    0  0.59075155040E+03 -0.25605523965E+03 -0.31219243923E+02  0.64461331142E+03  0.25500000920E-02 0. -1.
       -2    1    3    3    0  502 -0.59075155040E+03  0.25605523965E+03 -0.18489740476E+04  0.19578704525E+04  0.25500000920E-02 0.  1.
</event>
<event>
 5   0  0.4535100E-05  0.1811274E+04  0.7818609E-02  0.8700327E-01
        1   -1    0    0  501    0  0.00000000000E+00  0.00000000000E+00  0.73189529267E+03  0.73189529269E+03  0.50400001928E-02 0.  1.
       -1   -1    0    0    0  501  0.00000000000E+00  0.00000000000E+00 -0.11206222342E+04  0.11206222342E+04  0.50400001928E-02 0. -1.
    10030    2    1    2    0    0  0.00000000000E+00  0.00000000000E+00 -0.38872694157E+03  0.18525175269E+04  0.18112737376E+04 0.  0.
        1    1    3    3  502    0 -0.49883103065E+03 -0.74623029069E+03 -0.71264651251E+02  0.90042806177E+03  0.50400001928E-02 0.  1.
       -1    1    3    3    0  502  0.49883103065E+03  0.74623029069E+03 -0.31746229032E+03  0.95208946517E+03  0.50400001928E-02 0. -1.
</event>
<event>
 5   0  0.9147432E-05  0.1810534E+04  0.7818609E-02  0.8700717E-01
        2   -1    0    0  501    0  0.00000000000E+00  0.00000000000E+00  0.13475950423E+04  0.13475950423E+04  0.25500000920E-02 0.  1.
       -2   -1    0    0    0  501  0.00000000000E+00  0.00000000000E+00 -0.60812678600E+03  0.60812678600E+03  0.25500000920E-02 0. -1.
    10030    2    1    2    0    0  0.00000000000E+00  0.00000000000E+00  0.73946825634E+03  0.19557218283E+04  0.18105343321E+04 0.  0.
        3    1    3    3  502    0 -0.69990434757E+03 -0.52840472971E+03  0.61231078822E+03  0.10695803690E+04  0.10100000352E+00 0. -1.
       -3    1    3    3    0  502  0.69990434757E+03  0.52840472971E+03  0.12715746813E+03  0.88614145938E+03  0.10100000352E+00 0.  1.
</event>
<event>
 5   0  0.9184414E-05  0.1801624E+04  0.7818609E-02  0.8705436E-01
       -2   -1    0    0    0  501  0.00000000000E+00  0.00000000000E+00  0.32251023743E+03  0.32251023744E+03  0.25500000920E-02 0.  1.
        2   -1    0    0  501    0  0.00000000000E+00  0.00000000000E+00 -0.25160822148E+04  0.25160822148E+04  0.25500000920E-02 0. -1.
    10030    2    1    2    0    0  0.00000000000E+00  0.00000000000E+00 -0.21935719774E+04  0.28385924522E+04  0.18016240146E+04 0.  0.
        5    1    3    3  502    0 -0.70584001131E+02 -0.34529823493E+03 -0.24029239591E+04  0.24286371931E+04  0.46999998093E+01 0. -1.
       -5    1    3    3    0  502  0.70584001131E+02  0.34529823493E+03  0.20935198175E+03  0.40995525917E+03  0.46999998093E+01 0.  1.
</event>
<event>
 5   0  0.4535100E-05  0.1798929E+04  0.7818609E-02  0.8706869E-01
       -1   -1    0    0    0  501  0.00000000000E+00  0.00000000000E+00  0.70239413825E+03  0.70239413827E+03  0.50400001928E-02 0.  1.
        1   -1    0    0  501    0  0.00000000000E+00  0.00000000000E+00 -0.11518269285E+04  0.11518269285E+04  0.50400001928E-02 0. -1.
    10030    2    1    2    0    0  0.00000000000E+00  0.00000000000E+00 -0.44943279022E+03  0.18542210667E+04  0.17989291068E+04 0.  0.
        1    1    3    3  502    0  0.52449257156E+03  0.25892807232E+03  0.47958658944E+03  0.75639903560E+03  0.50400001928E-02 0.  1.
       -1    1    3    3    0  502 -0.52449257156E+03 -0.25892807232E+03 -0.92901937966E+03  0.10978220311E+04  0.50400001928E-02 0. -1.
</event>
<event>
 5   0  0.4494757E-05  0.1806344E+04  0.7818609E-02  0.8702933E-01
       -1   -1    0    0    0  501  0.00000000000E+00  0.00000000000E+00  0.55584688367E+03  0.55584688369E+03  0.50400001928E-02 0.  1.
        1   -1    0    0  501    0  0.00000000000E+00  0.00000000000E+00 -0.14675266009E+04  0.14675266010E+04  0.50400001928E-02 0. -1.
    10030    2    1    2    0    0  0.00000000000E+00  0.00000000000E+00 -0.91167971728E+03  0.20233734846E+04  0.18063444720E+04 0.  0.
        4    1    3    3  502    0  0.24713011313E+02 -0.60253083094E+03  0.29729995248E+03  0.67234143841E+03  0.12699999809E+01 0.  1.
       -4    1    3    3    0  502 -0.24713011313E+02  0.60253083094E+03 -0.12089796698E+04  0.13510320462E+04  0.12699999809E+01 0. -1.
</event>
<event>
 5   0  0.4623665E-05  0.1799330E+04  0.7818609E-02  0.8706656E-01
        1   -1    0    0  501    0  0.00000000000E+00  0.00000000000E+00  0.22191493010E+04  0.22191493010E+04  0.50400001928E-02 0. -1.
       -1   -1    0    0    0  501  0.00000000000E+00  0.00000000000E+00 -0.36473315714E+03  0.36473315718E+03  0.50400001928E-02 0.  1.
    10030    2    1    2    0    0  0.00000000000E+00  0.00000000000E+00  0.18544161438E+04  0.25838824582E+04  0.17993302429E+04 0.  0.
        5    1    3    3  502    0 -0.24882621791E+03  0.23159327148E+03  0.21233616490E+04  0.21504038487E+04  0.46999998093E+01 0. -1.
       -5    1    3    3    0  502  0.24882621791E+03 -0.23159327148E+03 -0.26894550516E+03  0.43347860946E+03  0.46999998093E+01 0.  1.
</event>
<event>
 5   0  0.4623665E-05  0.1678436E+04  0.7818609E-02  0.8773760E-01
        1   -1    0    0  501    0  0.00000000000E+00  0.00000000000E+00  0.92529499964E+03  0.92529499966E+03  0.50400001928E-02 0. -1.
       -1   -1    0    0    0  501  0.00000000000E+00  0.00000000000E+00 -0.76114830435E+03  0.76114830437E+03  0.50400001928E-02 0.  1.
    10030    2    1    2    0    0  0.00000000000E+00  0.00000000000E+00  0.16414669529E+03  0.16864433040E+04  0.16784358433E+04 0.  0.
        5    1    3    3  502    0  0.37790108682E+03  0.20742184436E+03 -0.64138365216E+03  0.77280536501E+03  0.46999998093E+01 0.  1.
       -5    1    3    3    0  502 -0.37790108682E+03 -0.20742184436E+03  0.80553034745E+03  0.91363793901E+03  0.46999998093E+01 0. -1.
</event>
<event>
 5   0  0.9184414E-05  0.1801018E+04  0.7818609E-02  0.8705758E-01
        2   -1    0    0  501    0  0.00000000000E+00  0.00000000000E+00  0.90693680130E+03  0.90693680130E+03  0.25500000920E-02 0. -1.
       -2   -1    0    0    0  501  0.00000000000E+00  0.00000000000E+00 -0.89412683683E+03  0.89412683683E+03  0.25500000920E-02 0.  1.
    10030    2    1    2    0    0  0.00000000000E+00  0.00000000000E+00  0.12809964468E+02  0.18010636381E+04  0.18010180825E+04 0.  0.
        5    1    3    3  502    0  0.11934738171E+03  0.27450773360E+03  0.85571802228E+03  0.90657251060E+03  0.46999998093E+01 0. -1.
       -5    1    3    3    0  502 -0.11934738171E+03 -0.27450773360E+03 -0.84290805781E+03  0.89449112754E+03  0.46999998093E+01 0.  1.
</event>
<event>
 5   0  0.9184414E-05  0.1828033E+04  0.7818609E-02  0.8691532E-01
       -2   -1    0    0    0  501  0.00000000000E+00  0.00000000000E+00  0.49977903257E+03  0.49977903257E+03  0.25500000920E-02 0. -1.
        2   -1    0    0  501    0  0.00000000000E+00  0.00000000000E+00 -0.16715909129E+04  0.16715909129E+04  0.25500000920E-02 0.  1.
    10030    2    1    2    0    0  0.00000000000E+00  0.00000000000E+00 -0.11718118803E+04  0.21713699454E+04  0.18280329202E+04 0.  0.
        5    1    3    3  502    0 -0.28359730715E+03  0.84605939144E+03 -0.35084982441E+03  0.95883346612E+03  0.46999998093E+01 0.  1.
       -5    1    3    3    0  502  0.28359730715E+03 -0.84605939144E+03 -0.82096205589E+03  0.12125364793E+04  0.46999998093E+01 0. -1.
</event>
<event>
 5   0  0.9147432E-05  0.1811736E+04  0.7818609E-02  0.8700083E-01
       -2   -1    0    0    0  501  0.00000000000E+00  0.00000000000E+00  0.72036894960E+03  0.72036894960E+03  0.25500000920E-02 0.  1.
        2   -1    0    0  501    0  0.00000000000E+00  0.00000000000E+00 -0.11391344644E+04  0.11391344644E+04  0.25500000920E-02 0. -1.
    10030    2    1    2    0    0  0.00000000000E+00  0.00000000000E+00 -0.41876551483E+03  0.18595034140E+04  0.18117362916E+04 0.  0.
        3    1    3    3  502    0  0.29804105544E+03  0.46474491051E+02 -0.10860746887E+04  0.11271852504E+04  0.10100000352E+00 0. -1.
       -3    1    3    3    0  502 -0.29804105544E+03 -0.46474491051E+02  0.66730917388E+03  0.73231816364E+03  0.10100000352E+00 0.  1.
</event>
<event>
 5   0  0.9184414E-05  0.1800758E+04  0.7818609E-02  0.8705896E-01
        2   -1    0    0  501    0  0.00000000000E+00  0.00000000000E+00  0.26203224275E+04  0.26203224276E+04  0.25500000920E-02 0.  1.
       -2   -1    0    0    0  501  0.00000000000E+00  0.00000000000E+00 -0.30938270534E+03  0.30938270535E+03  0.25500000920E-02 0. -1.
    10030    2    1    2    0    0  0.00000000000E+00  0.00000000000E+00  0.23109397222E+04  0.29297051329E+04  0.18007581087E+04 0.  0.
        5    1    3    3  502    0  0.61201967439E+02  0.43098281961E+03  0.24377214266E+04  0.24762874864E+04  0.46999998093E+01 0.  1.
       -5    1    3    3    0  502 -0.61201967439E+02 -0.43098281961E+03 -0.12678170436E+03  0.45341764652E+03  0.46999998093E+01 0. -1.
</event>
<event>
 5   0  0.4578107E-05  0.1804783E+04  0.7818609E-02  0.8703760E-01
       -1   -1    0    0    0  501  0.00000000000E+00  0.00000000000E+00  0.56904661242E+03  0.56904661245E+03  0.50400001928E-02 0.  1.
        1   -1    0    0  501    0  0.00000000000E+00  0.00000000000E+00 -0.14310089326E+04  0.14310089326E+04  0.50400001928E-02 0. -1.
    10030    2    1    2    0    0  0.00000000000E+00  0.00000000000E+00 -0.86196232021E+03  0.20000555451E+04  0.18047834058E+04 0.  0.
        2    1    3    3  502    0  0.28650861906E+03 -0.49385565964E+03  0.34343383272E+03  0.66627876959E+03  0.25500000920E-02 0.  1.
       -2    1    3    3    0  502 -0.28650861906E+03  0.49385565964E+03 -0.12053961529E+04  0.13337767755E+04  0.25500000920E-02 0. -1.
</event>
<event>
 5   0  0.9147432E-05  0.1803574E+04  0.7818609E-02  0.8704401E-01
       -2   -1    0    0    0  501  0.00000000000E+00  0.00000000000E+00  0.66427026653E+03  0.66427026654E+03  0.25500000920E-02 0. -1.
        2   -1    0    0  501    0  0.00000000000E+00  0.00000000000E+00 -0.12242296675E+04  0.12242296675E+04  0.25500000920E-02 0.  1.
    10030    2    1    2    0    0  0.00000000000E+00  0.00000000000E+00 -0.55995940097E+03  0.18884999340E+04  0.18035735278E+04 0.  0.
        3    1    3    3  502    0  0.27832935611E+03  0.12817695586E+02 -0.11780294384E+04  0.12105308306E+04  0.10100000352E+00 0.  1.
       -3    1    3    3    0  502 -0.27832935611E+03 -0.12817695586E+02  0.61807003748E+03  0.67796910344E+03  0.10100000352E+00 0. -1.
</event>
<event>
 5   0  0.8802655E-05  0.1798816E+04  0.7818609E-02  0.8706929E-01
        2   -1    0    0  501    0  0.00000000000E+00  0.00000000000E+00  0.11539136426E+04  0.11539136426E+04  0.25500000920E-02 0.  1.
       -2   -1    0    0    0  501  0.00000000000E+00  0.00000000000E+00 -0.70103579089E+03  0.70103579090E+03  0.25500000920E-02 0. -1.
    10030    2    1    2    0    0  0.00000000000E+00  0.00000000000E+00  0.45287785172E+03  0.18549494335E+04  0.17988160140E+04 0.  0.
        2    1    3    3  502    0 -0.17126566975E+03 -0.87499725896E+03  0.10450072953E+03  0.89770403547E+03  0.25500000920E-02 0. -1.
       -2    1    3    3    0  502  0.17126566975E+03  0.87499725896E+03  0.34837712219E+03  0.95724539805E+03  0.25500000920E-02 0.  1.
</event>
<event>
 5   0  0.9147432E-05  0.1801569E+04  0.7818609E-02  0.8705465E-01
       -2   -1    0    0    0  501  0.00000000000E+00  0.00000000000E+00  0.51523864427E+03  0.51523864427E+03  0.25500000920E-02 0.  1.
        2   -1    0    0  501    0  0.00000000000E+00  0.00000000000E+00 -0.15748290560E+04  0.15748290560E+04  0.25500000920E-02 0. -1.
    10030    2    1    2    0    0  0.00000000000E+00  0.00000000000E+00 -0.10595904118E+04  0.20900677003E+04  0.18015690803E+04 0.  0.
        3    1    3    3  502    0  0.37833235254E+03 -0.75495843707E+03 -0.89355918730E+03  0.12294493247E+04  0.10100000352E+00 0. -1.
       -3    1    3    3    0  502 -0.37833235254E+03  0.75495843707E+03 -0.16603122448E+03  0.86061837558E+03  0.10100000352E+00 0.  1.
</event>
<event>
 5   0  0.4578107E-05  0.1803796E+04  0.7818609E-02  0.8704284E-01
        1   -1    0    0  501    0  0.00000000000E+00  0.00000000000E+00  0.25838584966E+04  0.25838584966E+04  0.50400001928E-02 0. -1.
       -1   -1    0    0    0  501  0.00000000000E+00  0.00000000000E+00 -0.31480816023E+03  0.31480816027E+03  0.50400001928E-02 0.  1.
    10030    2    1    2    0    0  0.00000000000E+00  0.00000000000E+00  0.22690503364E+04  0.28986666569E+04  0.18037957087E+04 0.  0.
        2    1    3    3  502    0  0.56180276103E+03  0.24573864583E+03  0.21973342021E+04  0.22812907355E+04  0.25500000920E-02 0. -1.
       -2    1    3    3    0  502 -0.56180276103E+03 -0.24573864583E+03  0.71716134302E+02  0.61737592137E+03  0.25500000920E-02 0.  1.
</event>
<event>
 5   0  0.8802655E-05  0.1806939E+04  0.7818609E-02  0.8702618E-01
        2   -1    0    0  501    0  0.00000000000E+00  0.00000000000E+00  0.15475960162E+04  0.15475960162E+04  0.25500000920E-02 0.  1.
       -2   -1    0    0    0  501  0.00000000000E+00  0.00000000000E+00 -0.52743580892E+03  0.52743580893E+03  0.25500000920E-02 0. -1.
    10030    2    1    2    0    0  0.00000000000E+00  0.00000000000E+00  0.10201602073E+04  0.20750318251E+04  0.18069394641E+04 0.  0.
        2    1    3    3  502    0  0.44272717170E+03  0.66365551514E+03  0.23123825097E+02  0.79811070825E+03  0.25500000920E-02 0. -1.
       -2    1    3    3    0  502 -0.44272717170E+03 -0.66365551514E+03  0.99703638219E+03  0.12769211169E+04  0.25500000920E-02 0.  1.
</event>
<event>
 5   0  0.4494757E-05  0.1801253E+04  0.7818609E-02  0.8705633E-01
        1   -1    0    0  501    0  0.00000000000E+00  0.00000000000E+00  0.16136515116E+04  0.16136515116E+04  0.50400001928E-02 0.  1.
       -1   -1    0    0    0  501  0.00000000000E+00  0.00000000000E+00 -0.50266621322E+03  0.50266621325E+03  0.50400001928E-02 0. -1.
    10030    2    1    2    0    0  0.00000000000E+00  0.00000000000E+00  0.11109852983E+04  0.21163177248E+04  0.18012530026E+04 0.  0.
        4    1    3    3  502    0  0.34723314942E+03  0.80180521015E+03  0.81200100488E+03  0.11928158701E+04  0.12699999809E+01 0.  1.
       -4    1    3    3    0  502 -0.34723314942E+03 -0.80180521015E+03  0.29898429347E+03  0.92350185475E+03  0.12699999809E+01 0. -1.
</event>
<event>
 5   0  0.4494757E-05  0.1791450E+04  0.7818609E-02  0.8710860E-01
       -1   -1    0    0    0  501  0.00000000000E+00  0.00000000000E+00  0.38933669008E+03  0.38933669011E+03  0.50400001928E-02 0.  1.
        1   -1    0    0  501    0  0.00000000000E+00  0.00000000000E+00 -0.20607437754E+04  0.20607437754E+04  0.50400001928E-02 0. -1.
    10030    2    1    2    0    0  0.00000000000E+00  0.00000000000E+00 -0.16714070853E+04  0.24500804655E+04  0.17914498716E+04 0.  0.
        4    1    3    3  502    0 -0.37828833259E+03 -0.55387838816E+03 -0.16476309184E+04  0.17789245593E+04  0.12699999809E+01 0. -1.
       -4    1    3    3    0  502  0.37828833259E+03  0.55387838816E+03 -0.23776166915E+02  0.67115590622E+03  0.12699999809E+01 0.  1.
</event>
<event>
 5   0  0.8892280E-05  0.1804984E+04  0.7818609E-02  0.8703653E-01
        2   -1    0    0  501    0  0.00000000000E+00  0.00000000000E+00  0.84537433637E+03  0.84537433637E+03  0.25500000920E-02 0.  1.
       -2   -1    0    0    0  501  0.00000000000E+00  0.00000000000E+00 -0.96346893063E+03  0.96346893063E+03  0.25500000920E-02 0. -1.
    10030    2    1    2    0    0  0.00000000000E+00  0.00000000000E+00 -0.11809459426E+03  0.18088432670E+04  0.18049841084E+04 0.  0.
        4    1    3    3  502    0 -0.91130859411E+02 -0.74666296073E+03  0.44069704225E+03  0.87179464693E+03  0.12699999809E+01 0.  1.
       -4    1    3    3    0  502  0.91130859411E+02  0.74666296073E+03 -0.55879163651E+03  0.93704862008E+03  0.12699999809E+01 0. -1.
</event>
<event>
 5   0  0.4335117E-05  0.1807617E+04  0.7818609E-02  0.8702259E-01
        1   -1    0    0  501    0  0.00000000000E+00  0.00000000000E+00  0.11386450116E+04  0.11386450116E+04  0.50400001928E-02 0.  1.
       -1   -1    0    0    0  501  0.00000000000E+00  0.00000000000E+00 -0.71740523436E+03  0.71740523438E+03  0.50400001928E-02 0. -1.
    10030    2    1    2    0    0  0.00000000000E+00  0.00000000000E+00  0.42123977721E+03  0.18560502460E+04  0.18076170960E+04 0.  0.
        3    1    3    3  502    0  0.78182713104E+03  0.29908628874E+03 -0.13934005627E+03  0.84859998375E+03  0.10100000352E+00 0. -1.
       -3    1    3    3    0  502 -0.78182713104E+03 -0.29908628874E+03  0.56057983348E+03  0.10074502622E+04  0.10100000352E+00 0.  1.
</event>
<event>
 5   0  0.4578107E-05  0.1808633E+04  0.7818609E-02  0.8701722E-01
       -1   -1    0    0    0  501  0.00000000000E+00  0.00000000000E+00  0.55137994951E+03  0.55137994953E+03  0.50400001928E-02 0.  1.
        1   -1    0    0  501    0  0.00000000000E+00  0.00000000000E+00 -0.14831672852E+04  0.14831672852E+04  0.50400001928E-02 0. -1.
    10030    2    1    2    0    0  0.00000000000E+00  0.00000000000E+00 -0.93178733570E+03  0.20345472347E+04  0.18086334099E+04 0.  0.
        2    1    3    3  502    0 -0.47464139676E+03 -0.59729164600E+03 -0.10120792822E+04  0.12674171528E+04  0.25500000920E-02 0. -1.
       -2    1    3    3    0  502  0.47464139676E+03  0.59729164600E+03  0.80291946462E+02  0.76713008191E+03  0.25500000920E-02 0.  1.
</event>
<event>
 5   0  0.8893075E-05  0.1804631E+04  0.7818609E-02  0.8703841E-01
        2   -1    0    0  501    0  0.00000000000E+00  0.00000000000E+00  0.87263367899E+03  0.87263367899E+03  0.25500000920E-02 0.  1.
       -2   -1    0    0    0  501  0.00000000000E+00  0.00000000000E+00 -0.93300674848E+03  0.93300674848E+03  0.25500000920E-02 0. -1.
    10030    2    1    2    0    0  0.00000000000E+00  0.00000000000E+00 -0.60373069488E+02  0.18056404275E+04  0.18046308337E+04 0.  0.
        1    1    3    3  502    0 -0.58672231657E+03  0.56749002730E+03  0.35458692768E+03  0.88995499726E+03  0.50400001928E-02 0.  1.
       -1    1    3    3    0  502  0.58672231657E+03 -0.56749002730E+03 -0.41495999717E+03  0.91568543022E+03  0.50400001928E-02 0. -1.
</event>
<event>
 5   0  0.9147432E-05  0.1801869E+04  0.7818609E-02  0.8705306E-01
        2   -1    0    0  501    0  0.00000000000E+00  0.00000000000E+00  0.16868888718E+04  0.16868888718E+04  0.25500000920E-02 0.  1.
       -2   -1    0    0    0  501  0.00000000000E+00  0.00000000000E+00 -0.48117174838E+03  0.48117174838E+03  0.25500000920E-02 0. -1.
    10030    2    1    2    0    0  0.00000000000E+00  0.00000000000E+00  0.12057171234E+04  0.21680606202E+04  0.18018693269E+04 0.  0.
        3    1    3    3  502    0 -0.19062941395E+01  0.88338574307E+03  0.38995423925E+03  0.96562846060E+03  0.10100000352E+00 0.  1.
       -3    1    3    3    0  502  0.19062941395E+01 -0.88338574307E+03  0.81576288418E+03  0.12024321596E+04  0.10100000352E+00 0. -1.
</event>
<event>
 5   0  0.8802655E-05  0.1798135E+04  0.7818609E-02  0.8707292E-01
        2   -1    0    0  501    0  0.00000000000E+00  0.00000000000E+00  0.12871565590E+04  0.12871565590E+04  0.25500000920E-02 0.  1.
       -2   -1    0    0    0  501  0.00000000000E+00  0.00000000000E+00 -0.62799049197E+03  0.62799049198E+03  0.25500000920E-02 0. -1.
    10030    2    1    2    0    0  0.00000000000E+00  0.00000000000E+00  0.65916606703E+03  0.19151470510E+04  0.17981346788E+04 0.  0.
        2    1    3    3  502    0  0.59475843833E+03 -0.59855152430E+03  0.66013473274E+03  0.10713446656E+04  0.25500000920E-02 0.  1.
       -2    1    3    3    0  502 -0.59475843833E+03  0.59855152430E+03 -0.96866570613E+00  0.84380238535E+03  0.25500000920E-02 0. -1.
</event>
<event>
 5   0  0.4535100E-05  0.1825458E+04  0.7818609E-02  0.8692877E-01
        1   -1    0    0  501    0  0.00000000000E+00  0.00000000000E+00  0.79336552280E+03  0.79336552281E+03  0.50400001928E-02 0. -1.
       -1   -1    0    0    0  501  0.00000000000E+00  0.00000000000E+00 -0.10500504459E+04  0.10500504459E+04  0.50400001928E-02 0.  1.
    10030    2    1    2    0    0  0.00000000000E+00  0.00000000000E+00 -0.25668492312E+03  0.18434159687E+04  0.18254575547E+04 0.  0.
        1    1    3    3  502    0  0.82957703278E+02  0.60136570878E+03 -0.81662755514E+03  0.10175476697E+04  0.50400001928E-02 0.  1.
       -1    1    3    3    0  502 -0.82957703278E+02 -0.60136570878E+03  0.55994263201E+03  0.82586829907E+03  0.50400001928E-02 0. -1.
</event>
<event>
 5   0  0.8892280E-05  0.1787716E+04  0.7818609E-02  0.8712860E-01
        2   -1    0    0  501    0  0.00000000000E+00  0.00000000000E+00  0.93453165056E+03  0.93453165056E+03  0.25500000920E-02 0. -1.
       -2   -1    0    0    0  501  0.00000000000E+00  0.00000000000E+00 -0.85495413144E+03  0.85495413144E+03  0.25500000920E-02 0.  1.
    10030    2    1    2    0    0  0.00000000000E+00  0.00000000000E+00  0.79577519125E+02  0.17894857820E+04  0.17877155206E+04 0.  0.
        4    1    3    3  502    0 -0.66823243206E+03  0.59151559510E+03 -0.10806323446E+02  0.89249295349E+03  0.12699999809E+01 0.  1.
       -4    1    3    3    0  502  0.66823243206E+03 -0.59151559510E+03  0.90383842571E+02  0.89699282851E+03  0.12699999809E+01 0. -1.
</event>
<event>
 5   0  0.4335117E-05  0.1798905E+04  0.7818609E-02  0.8706882E-01
        1   -1    0    0  501    0  0.00000000000E+00  0.00000000000E+00  0.79422256203E+03  0.79422256205E+03  0.50400001928E-02 0.  1.
       -1   -1    0    0    0  501  0.00000000000E+00  0.00000000000E+00 -0.10186246414E+04  0.10186246414E+04  0.50400001928E-02 0. -1.
    10030    2    1    2    0    0  0.00000000000E+00  0.00000000000E+00 -0.22440207937E+03  0.18128472035E+04  0.17989048585E+04 0.  0.
        3    1    3    3  502    0  0.52255778715E+03 -0.22504012434E+03  0.58983656039E+03  0.81952234665E+03  0.10100000352E+00 0.  1.
       -3    1    3    3    0  502 -0.52255778715E+03  0.22504012434E+03 -0.81423863976E+03  0.99332485681E+03  0.10100000352E+00 0. -1.
</event>
<event>
 5   0  0.9147432E-05  0.1813154E+04  0.7818609E-02  0.8699335E-01
       -2   -1    0    0    0  501  0.00000000000E+00  0.00000000000E+00  0.65475216770E+03  0.65475216770E+03  0.25500000920E-02 0.  1.
        2   -1    0    0  501    0  0.00000000000E+00  0.00000000000E+00 -0.12552565287E+04  0.12552565287E+04  0.25500000920E-02 0. -1.
    10030    2    1    2    0    0  0.00000000000E+00  0.00000000000E+00 -0.60050436102E+03  0.19100086964E+04  0.18131540841E+04 0.  0.
        3    1    3    3  502    0  0.27238610531E+03  0.29374019507E+03 -0.11569628624E+04  0.12243531222E+04  0.10100000352E+00 0. -1.
       -3    1    3    3    0  502 -0.27238610531E+03 -0.29374019507E+03  0.55645850138E+03  0.68565557427E+03  0.10100000352E+00 0.  1.
</event>
<event>
 5   0  0.9147432E-05  0.1799685E+04  0.7818609E-02  0.8706467E-01
        2   -1    0    0  501    0  0.00000000000E+00  0.00000000000E+00  0.15358581432E+04  0.15358581432E+04  0.25500000920E-02 0.  1.
       -2   -1    0    0    0  501  0.00000000000E+00  0.00000000000E+00 -0.52720772203E+03  0.52720772203E+03  0.25500000920E-02 0. -1.
    10030    2    1    2    0    0  0.00000000000E+00  0.00000000000E+00  0.10086504212E+04  0.20630658652E+04  0.17996847202E+04 0.  0.
        3    1    3    3  502    0  0.40771202859E+03 -0.69924633871E+03  0.53675041720E+02  0.81120623812E+03  0.10100000352E+00 0. -1.
       -3    1    3    3    0  502 -0.40771202859E+03  0.69924633871E+03  0.95497537946E+03  0.12518596271E+04  0.10100000352E+00 0.  1.
</event>
<event>
 5   0  0.4494757E-05  0.1799383E+04  0.7818609E-02  0.8706628E-01
        1   -1    0    0  501    0  0.00000000000E+00  0.00000000000E+00  0.90789780160E+03  0.90789780162E+03  0.50400001928E-02 0. -1.
       -1   -1    0    0    0  501  0.00000000000E+00  0.00000000000E+00 -0.89155937288E+03  0.89155937289E+03  0.50400001928E-02 0.  1.
    10030    2    1    2    0    0  0.00000000000E+00  0.00000000000E+00  0.16338428725E+02  0.17994571745E+04  0.17993829994E+04 0.  0.
        4    1    3    3  502    0  0.22414821057E+02  0.65939458517E+03  0.61986389734E+03  0.90528255660E+03  0.12699999809E+01 0. -1.
       -4    1    3    3    0  502 -0.22414821057E+02 -0.65939458517E+03 -0.60352546862E+03  0.89417461791E+03  0.12699999809E+01 0.  1.
</event>
<event>
 5   0  0.4535100E-05  0.1795723E+04  0.7818609E-02  0.8708577E-01
        1   -1    0    0  501    0  0.00000000000E+00  0.00000000000E+00  0.13162736486E+04  0.13162736486E+04  0.50400001928E-02 0. -1.
       -1   -1    0    0    0  501  0.00000000000E+00  0.00000000000E+00 -0.61245259344E+03  0.61245259347E+03  0.50400001928E-02 0.  1.
    10030    2    1    2    0    0  0.00000000000E+00  0.00000000000E+00  0.70382105513E+03  0.19287262420E+04  0.17957229294E+04 0.  0.
        1    1    3    3  502    0  0.19272831103E+03 -0.80075111041E+02  0.12898598471E+04  0.13066348573E+04  0.50400001928E-02 0. -1.
       -1    1    3    3    0  502 -0.19272831103E+03  0.80075111041E+02 -0.58603879193E+03  0.62209138473E+03  0.50400001928E-02 0.  1.
</event>
<event>
 5   0  0.8893075E-05  0.1807988E+04  0.7818609E-02  0.8702063E-01
        2   -1    0    0  501    0  0.00000000000E+00  0.00000000000E+00  0.73120495525E+03  0.73120495526E+03  0.25500000920E-02 0. -1.
       -2   -1    0    0    0  501  0.00000000000E+00  0.00000000000E+00 -0.11176141117E+04  0.11176141117E+04  0.25500000920E-02 0.  1.
    10030    2    1    2    0    0  0.00000000000E+00  0.00000000000E+00 -0.38640915648E+03  0.18488190670E+04  0.18079878059E+04 0.  0.
        1    1    3    3  502    0 -0.66614581975E+03 -0.17713716384E+03 -0.79128687307E+03  0.10494106649E+04  0.50400001928E-02 0.  1.
       -1    1    3    3    0  502  0.66614581975E+03  0.17713716384E+03  0.40487771660E+03  0.79940840214E+03  0.50400001928E-02 0. -1.
</event>
<event>
 5   0  0.4494757E-05  0.1805328E+04  0.7818609E-02  0.8703471E-01
       -1   -1    0    0    0  501  0.00000000000E+00  0.00000000000E+00  0.52325710074E+03  0.52325710076E+03  0.50400001928E-02 0. -1.
        1   -1    0    0  501    0  0.00000000000E+00  0.00000000000E+00 -0.15571731292E+04  0.15571731292E+04  0.50400001928E-02 0.  1.
    10030    2    1    2    0    0  0.00000000000E+00  0.00000000000E+00 -0.10339160285E+04  0.20804302300E+04  0.18053275570E+04 0.  0.
        4    1    3    3  502    0  0.57211109363E+03 -0.68407716470E+03 -0.67799355211E+03  0.11202453036E+04  0.12699999809E+01 0.  1.
       -4    1    3    3    0  502 -0.57211109363E+03  0.68407716470E+03 -0.35592247638E+03  0.96018492636E+03  0.12699999809E+01 0. -1.
</event>
<event>
 5   0  0.9184414E-05  0.1830359E+04  0.7818609E-02  0.8690319E-01
        2   -1    0    0  501    0  0.00000000000E+00  0.00000000000E+00  0.22817459515E+04  0.22817459515E+04  0.25500000920E-02 0. -1.
       -2   -1    0    0    0  501  0.00000000000E+00  0.00000000000E+00 -0.36706712848E+03  0.36706712849E+03  0.25500000920E-02 0.  1.
    10030    2    1    2    0    0  0.00000000000E+00  0.00000000000E+00  0.19146788230E+04  0.26488130800E+04  0.18303594558E+04 0.  0.
        5    1    3    3  502    0  0.33352287623E+03 -0.14801797829E+03  0.21719022213E+04  0.22023460627E+04  0.46999998093E+01 0. -1.
       -5    1    3    3    0  502 -0.33352287623E+03  0.14801797829E+03 -0.25722339833E+03  0.44646701727E+03  0.46999998093E+01 0.  1.
</event>
<event>
 5   0  0.4578107E-05  0.1803511E+04  0.7818609E-02  0.8704435E-01
        1   -1    0    0  501    0  0.00000000000E+00  0.00000000000E+00  0.56403758252E+03  0.56403758254E+03  0.50400001928E-02 0. -1.
       -1   -1    0    0    0  501  0.00000000000E+00  0.00000000000E+00 -0.14416821155E+04  0.14416821155E+04  0.50400001928E-02 0.  1.
    10030    2    1    2    0    0  0.00000000000E+00  0.00000000000E+00 -0.87764453295E+03  0.20057196980E+04  0.18035109040E+04 0.  0.
        2    1    3    3  502    0 -0.69552929719E+03 -0.25227323234E+03 -0.10121413042E+04  0.12537275648E+04  0.25500000920E-02 0.  1.
       -2    1    3    3    0  502  0.69552929719E+03  0.25227323234E+03  0.13449677123E+03  0.75199213326E+03  0.25500000920E-02 0. -1.
</event>
<event>
 5   0  0.4623665E-05  0.1800482E+04  0.7818609E-02  0.8706043E-01
        1   -1    0    0  501    0  0.00000000000E+00  0.00000000000E+00  0.81860840636E+03  0.81860840638E+03  0.50400001928E-02 0.  1.
       -1   -1    0    0    0  501  0.00000000000E+00  0.00000000000E+00 -0.99001379543E+03  0.99001379544E+03  0.50400001928E-02 0. -1.
    10030    2    1    2    0    0  0.00000000000E+00  0.00000000000E+00 -0.17140538907E+03  0.18086222018E+04  0.18004817304E+04 0.  0.
        5    1    3    3  502    0  0.78353241039E+03  0.93517991397E+02  0.34954939832E+03  0.86306171547E+03  0.46999998093E+01 0.  1.
       -5    1    3    3    0  502 -0.78353241039E+03 -0.93517991397E+02 -0.52095478739E+03  0.94556048635E+03  0.46999998093E+01 0. -1.
</event>
<event>
 5   0  0.4535100E-05  0.1830686E+04  0.7818609E-02  0.8690149E-01
        1   -1    0    0  501    0  0.00000000000E+00  0.00000000000E+00  0.42446593824E+03  0.42446593827E+03  0.50400001928E-02 0.  1.
       -1   -1    0    0    0  501  0.00000000000E+00  0.00000000000E+00 -0.19738981028E+04  0.19738981028E+04  0.50400001928E-02 0. -1.
    10030    2    1    2    0    0  0.00000000000E+00  0.00000000000E+00 -0.15494321645E+04  0.23983640410E+04  0.18306856751E+04 0.  0.
        1    1    3    3  502    0  0.21360762957E+03  0.87973661586E+03 -0.59754950887E+03  0.10847258401E+04  0.50400001928E-02 0. -1.
       -1    1    3    3    0  502 -0.21360762957E+03 -0.87973661586E+03 -0.95188265565E+03  0.13136382009E+04  0.50400001928E-02 0.  1.
</event>
<event>
 5   0  0.9184414E-05  0.1800347E+04  0.7818609E-02  0.8706115E-01
       -2   -1    0    0    0  501  0.00000000000E+00  0.00000000000E+00  0.45611760877E+03  0.45611760878E+03  0.25500000920E-02 0. -1.
        2   -1    0    0  501    0  0.00000000000E+00  0.00000000000E+00 -0.17765431962E+04  0.17765431962E+04  0.25500000920E-02 0.  1.
    10030    2    1    2    0    0  0.00000000000E+00  0.00000000000E+00 -0.13204255874E+04  0.22326608049E+04  0.18003473382E+04 0.  0.
        5    1    3    3  502    0  0.35033781707E+02  0.10775264388E+03  0.44722380470E+03  0.46137752396E+03  0.46999998093E+01 0. -1.
       -5    1    3    3    0  502 -0.35033781707E+02 -0.10775264388E+03 -0.17676493921E+04  0.17712832810E+04  0.46999998093E+01 0.  1.
</event>
<event>
 5   0  0.4578107E-05  0.1799809E+04  0.7818609E-02  0.8706401E-01
       -1   -1    0    0    0  501  0.00000000000E+00  0.00000000000E+00  0.11833957358E+04  0.11833957358E+04  0.50400001928E-02 0.  1.
        1   -1    0    0  501    0  0.00000000000E+00  0.00000000000E+00 -0.68432538462E+03  0.68432538464E+03  0.50400001928E-02 0. -1.
    10030    2    1    2    0    0  0.00000000000E+00  0.00000000000E+00  0.49907035118E+03  0.18677211205E+04  0.17998085921E+04 0.  0.
        2    1    3    3  502    0  0.21796072991E+03 -0.82165559204E+02  0.11515693074E+04  0.11748914540E+04  0.25500000920E-02 0.  1.
       -2    1    3    3    0  502 -0.21796072991E+03  0.82165559204E+02 -0.65249895620E+03  0.69282966648E+03  0.25500000920E-02 0. -1.
</event>
<event>
 5   0  0.4335117E-05  0.1806145E+04  0.7818609E-02  0.8703038E-01
        1   -1    0    0  501    0  0.00000000000E+00  0.00000000000E+00  0.94348322855E+03  0.94348322856E+03  0.50400001928E-02 0.  1.
       -1   -1    0    0    0  501  0.00000000000E+00  0.00000000000E+00 -0.86439261245E+03  0.86439261246E+03  0.50400001928E-02 0. -1.
    10030    2    1    2    0    0  0.00000000000E+00  0.00000000000E+00  0.79090616098E+02  0.18078758410E+04  0.18061449917E+04 0.  0.
        3    1    3    3  502    0  0.46026745901E+03  0.66597883092E+03 -0.36104564339E+03  0.88641294206E+03  0.10100000352E+00 0. -1.
       -3    1    3    3    0  502 -0.46026745901E+03 -0.66597883092E+03  0.44013625949E+03  0.92146289896E+03  0.10100000352E+00 0.  1.
</event>
<event>
 5   0  0.9147432E-05  0.1726306E+04  0.7818609E-02  0.8746502E-01
        2   -1    0    0  501    0  0.00000000000E+00  0.00000000000E+00  0.20220740758E+04  0.20220740758E+04  0.25500000920E-02 0.  1.
       -2   -1    0    0    0  501  0.00000000000E+00  0.00000000000E+00 -0.36845005491E+03  0.36845005492E+03  0.25500000920E-02 0. -1.
    10030    2    1    2    0    0  0.00000000000E+00  0.00000000000E+00  0.16536240209E+04  0.23905241307E+04  0.17263062350E+04 0.  0.
        3    1    3    3  502    0  0.47256375050E+03  0.39578021506E+03  0.16635051943E+04  0.17740372089E+04  0.10100000352E+00 0.  1.
       -3    1    3    3    0  502 -0.47256375050E+03 -0.39578021506E+03 -0.98811734675E+01  0.61648692176E+03  0.10100000352E+00 0. -1.
</event>
<event>
 5   0  0.9184414E-05  0.1793125E+04  0.7818609E-02  0.8709964E-01
       -2   -1    0    0    0  501  0.00000000000E+00  0.00000000000E+00  0.66167508813E+03  0.66167508813E+03  0.25500000920E-02 0.  1.
        2   -1    0    0  501    0  0.00000000000E+00  0.00000000000E+00 -0.12148320681E+04  0.12148320681E+04  0.25500000920E-02 0. -1.
    10030    2    1    2    0    0  0.00000000000E+00  0.00000000000E+00 -0.55315697997E+03  0.18765071562E+04  0.17931247762E+04 0.  0.
        5    1    3    3  502    0 -0.48943881803E+03 -0.39666062651E+03 -0.94413797536E+03  0.11350368345E+04  0.46999998093E+01 0. -1.
       -5    1    3    3    0  502  0.48943881803E+03  0.39666062651E+03  0.39098099539E+03  0.74147032171E+03  0.46999998093E+01 0.  1.
</event>
<event>
 5   0  0.8893075E-05  0.1798769E+04  0.7818609E-02  0.8706954E-01
       -2   -1    0    0    0  501  0.00000000000E+00  0.00000000000E+00  0.31343203422E+03  0.31343203424E+03  0.25500000920E-02 0.  1.
        2   -1    0    0  501    0  0.00000000000E+00  0.00000000000E+00 -0.25807586615E+04  0.25807586615E+04  0.25500000920E-02 0. -1.
    10030    2    1    2    0    0  0.00000000000E+00  0.00000000000E+00 -0.22673266273E+04  0.28941906958E+04  0.17987689536E+04 0.  0.
        1    1    3    3  502    0  0.27408003540E+03 -0.50655895121E+03 -0.22451099063E+04  0.23178093814E+04  0.50400001928E-02 0. -1.
       -1    1    3    3    0  502 -0.27408003540E+03  0.50655895121E+03 -0.22216720968E+02  0.57638131439E+03  0.50400001928E-02 0.  1.
</event>
<event>
 5   0  0.4494757E-05  0.1799870E+04  0.7818609E-02  0.8706368E-01
        1   -1    0    0  501    0  0.00000000000E+00  0.00000000000E+00  0.10007886965E+04  0.10007886965E+04  0.50400001928E-02 0. -1.
       -1   -1    0    0    0  501  0.00000000000E+00  0.00000000000E+00 -0.80924511349E+03  0.80924511351E+03  0.50400001928E-02 0.  1.
    10030    2    1    2    0    0  0.00000000000E+00  0.00000000000E+00  0.19154358301E+03  0.18100338100E+04  0.17998703979E+04 0.  0.
        4    1    3    3  502    0 -0.16225866379E+03 -0.67881852914E+03 -0.47555530492E+03  0.84455723928E+03  0.12699999809E+01 0.  1.
       -4    1    3    3    0  502  0.16225866379E+03  0.67881852914E+03  0.66709888794E+03  0.96547657075E+03  0.12699999809E+01 0. -1.
</event>
<event>
 5   0  0.4335117E-05  0.1799449E+04  0.7818609E-02  0.8706593E-01
        1   -1    0    0  501    0  0.00000000000E+00  0.00000000000E+00  0.19176780619E+04  0.19176780619E+04  0.50400001928E-02 0.  1.
       -1   -1    0    0    0  501  0.00000000000E+00  0.00000000000E+00 -0.42212709524E+03  0.42212709527E+03  0.50400001928E-02 0. -1.
    10030    2    1    2    0    0  0.00000000000E+00  0.00000000000E+00  0.14955509666E+04  0.23398051572E+04  0.17994486599E+04 0.  0.
        3    1    3    3  502    0  0.24566441691E+03  0.68478461074E+03  0.14360980975E+04  0.16098629521E+04  0.10100000352E+00 0.  1.
       -3    1    3    3    0  502 -0.24566441691E+03 -0.68478461074E+03  0.59452869174E+02  0.72994220504E+03  0.10100000352E+00 0. -1.
</event>
<event>
 5   0  0.4535100E-05  0.1794320E+04  0.7818609E-02  0.8709326E-01
       -1   -1    0    0    0  501  0.00000000000E+00  0.00000000000E+00  0.82634774171E+03  0.82634774173E+03  0.50400001928E-02 0. -1.
        1   -1    0    0  501    0  0.00000000000E+00  0.00000000000E+00 -0.97404034696E+03  0.97404034697E+03  0.50400001928E-02 0.  1.
    10030    2    1    2    0    0  0.00000000000E+00  0.00000000000E+00 -0.14769260524E+03  0.18003880887E+04  0.17943199727E+04 0.  0.
        1    1    3    3  502    0 -0.48261963972E+03 -0.24441638449E+03  0.64428001949E+03  0.84128344164E+03  0.50400001928E-02 0. -1.
       -1    1    3    3    0  502  0.48261963972E+03  0.24441638449E+03 -0.79197262473E+03  0.95910464705E+03  0.50400001928E-02 0.  1.
</event>
<event>
 5   0  0.8802655E-05  0.1801877E+04  0.7818609E-02  0.8705302E-01
        2   -1    0    0  501    0  0.00000000000E+00  0.00000000000E+00  0.16769605395E+04  0.16769605395E+04  0.25500000920E-02 0.  1.
       -2   -1    0    0    0  501  0.00000000000E+00  0.00000000000E+00 -0.48402487855E+03  0.48402487856E+03  0.25500000920E-02 0. -1.
    10030    2    1    2    0    0  0.00000000000E+00  0.00000000000E+00  0.11929356610E+04  0.21609854181E+04  0.18018774892E+04 0.  0.
        2    1    3    3  502    0 -0.16220212060E+03 -0.78061565196E+03  0.10996299663E+04  0.13582549050E+04  0.25500000920E-02 0.  1.
       -2    1    3    3    0  502  0.16220212060E+03  0.78061565196E+03  0.93305694635E+02  0.80273051311E+03  0.25500000920E-02 0. -1.
</event>
<event>
 5   0  0.4535100E-05  0.1801979E+04  0.7818609E-02  0.8705248E-01
       -1   -1    0    0    0  501  0.00000000000E+00  0.00000000000E+00  0.52540510928E+03  0.52540510930E+03  0.50400001928E-02 0. -1.
        1   -1    0    0  501    0  0.00000000000E+00  0.00000000000E+00 -0.15450589500E+04  0.15450589500E+04  0.50400001928E-02 0.  1.
    10030    2    1    2    0    0  0.00000000000E+00  0.00000000000E+00 -0.10196538407E+04  0.20704640593E+04  0.18019787640E+04 0.  0.
        1    1    3    3  502    0 -0.19526943807E+03  0.85739715623E+03 -0.73533986710E+03  0.11462917417E+04  0.50400001928E-02 0. -1.
       -1    1    3    3    0  502  0.19526943807E+03 -0.85739715623E+03 -0.28431397358E+03  0.92417231756E+03  0.50400001928E-02 0.  1.
</event>
<event>
 5   0  0.3270375E-05  0.1803539E+04  0.7818609E-02  0.8704420E-01
        4   -1    0    0  501    0  0.00000000000E+00  0.00000000000E+00  0.82022440005E+03  0.82022538325E+03  0.12699999809E+01 0. -1.
       -4   -1    0    0    0  501  0.00000000000E+00  0.00000000000E+00 -0.99141982490E+03  0.99142063833E+03  0.12699999809E+01 0.  1.
    10030    2    1    2    0    0  0.00000000000E+00  0.00000000000E+00 -0.17119542485E+03  0.18116460216E+04  0.18035391413E+04 0.  0.
        5    1    3    3  502    0  0.11726963557E+03  0.33268127927E+03 -0.91923007140E+03  0.98459891081E+03  0.46999998093E+01 0.  1.
       -5    1    3    3    0  502 -0.11726963557E+03 -0.33268127927E+03  0.74803464655E+03  0.82704711077E+03  0.46999998093E+01 0. -1.
</event>
<event>
 5   0  0.4494757E-05  0.1790775E+04  0.7818609E-02  0.8711221E-01
       -1   -1    0    0    0  501  0.00000000000E+00  0.00000000000E+00  0.48322287229E+03  0.48322287232E+03  0.50400001928E-02 0. -1.
        1   -1    0    0  501    0  0.00000000000E+00  0.00000000000E+00 -0.16591077122E+04  0.16591077123E+04  0.50400001928E-02 0.  1.
    10030    2    1    2    0    0  0.00000000000E+00  0.00000000000E+00 -0.11758848400E+04  0.21423305846E+04  0.17907750213E+04 0.  0.
        4    1    3    3  502    0  0.25034582854E+02  0.88040674267E+03 -0.39513738276E+03  0.96533824488E+03  0.12699999809E+01 0.  1.
       -4    1    3    3    0  502 -0.25034582854E+02 -0.88040674267E+03 -0.78074745720E+03  0.11769923397E+04  0.12699999809E+01 0. -1.
</event>
<event>
 5   0  0.8893075E-05  0.1798842E+04  0.7818609E-02  0.8706916E-01
        2   -1    0    0  501    0  0.00000000000E+00  0.00000000000E+00  0.11836073516E+04  0.11836073516E+04  0.25500000920E-02 0. -1.
       -2   -1    0    0    0  501  0.00000000000E+00  0.00000000000E+00 -0.68346796228E+03  0.68346796229E+03  0.25500000920E-02 0.  1.
    10030    2    1    2    0    0  0.00000000000E+00  0.00000000000E+00  0.50013938932E+03  0.18670753139E+04  0.17988415214E+04 0.  0.
        1    1    3    3  502    0 -0.67825949115E+03 -0.16810395507E+03  0.83782051275E+03  0.10909803338E+04  0.50400001928E-02 0. -1.
       -1    1    3    3    0  502  0.67825949115E+03  0.16810395507E+03 -0.33768112343E+03  0.77609498013E+03  0.50400001928E-02 0.  1.
</event>
<event>
 5   0  0.9147432E-05  0.1801712E+04  0.7818609E-02  0.8705390E-01
        2   -1    0    0  501    0  0.00000000000E+00  0.00000000000E+00  0.13437751408E+04  0.13437751408E+04  0.25500000920E-02 0.  1.
       -2   -1    0    0    0  501  0.00000000000E+00  0.00000000000E+00 -0.60392650435E+03  0.60392650435E+03  0.25500000920E-02 0. -1.
    10030    2    1    2    0    0  0.00000000000E+00  0.00000000000E+00  0.73984863643E+03  0.19477016451E+04  0.18017118786E+04 0.  0.
        3    1    3    3  502    0  0.77922825796E+03  0.19318177181E+03  0.81172718460E+03  0.11416728548E+04  0.10100000352E+00 0.  1.
       -3    1    3    3    0  502 -0.77922825796E+03 -0.19318177181E+03 -0.71878548173E+02  0.80602879033E+03  0.10100000352E+00 0. -1.
</event>
<event>
 5   0  0.4578107E-05  0.1781022E+04  0.7818609E-02  0.8716457E-01
       -1   -1    0    0    0  501  0.00000000000E+00  0.00000000000E+00  0.12785893798E+04  0.12785893798E+04  0.50400001928E-02 0. -1.
        1   -1    0    0  501    0  0.00000000000E+00  0.00000000000E+00 -0.62022277523E+03  0.62022277525E+03  0.50400001928E-02 0.  1.
    10030    2    1    2    0    0  0.00000000000E+00  0.00000000000E+00  0.65836660455E+03  0.18988121550E+04  0.17810224631E+04 0.  0.
        2    1    3    3  502    0  0.11166228778E+03  0.88193400923E+03  0.27343559869E+03  0.93007692681E+03  0.25500000920E-02 0.  1.
       -2    1    3    3    0  502 -0.11166228778E+03 -0.88193400923E+03  0.38493100586E+03  0.96873522824E+03  0.25500000920E-02 0. -1.
</event>
<event>
 5   0  0.3270375E-05  0.1797934E+04  0.7818609E-02  0.8707399E-01
       -3   -1    0    0    0  501  0.00000000000E+00  0.00000000000E+00  0.17480834021E+04  0.17480834051E+04  0.10100000352E+00 0.  1.
        3   -1    0    0  501    0  0.00000000000E+00  0.00000000000E+00 -0.46230142735E+03  0.46230143838E+03  0.10100000352E+00 0. -1.
    10030    2    1    2    0    0  0.00000000000E+00  0.00000000000E+00  0.12857819748E+04  0.22103848434E+04  0.17979337778E+04 0.  0.
        5    1    3    3  502    0 -0.48424111436E+03 -0.52965187130E+03  0.13084724753E+04  0.14923615079E+04  0.46999998093E+01 0.  1.
       -5    1    3    3    0  502  0.48424111436E+03  0.52965187130E+03 -0.22690500495E+02  0.71802333556E+03  0.46999998093E+01 0. -1.
</event>
<event>
 5   0  0.4623665E-05  0.1795870E+04  0.7818609E-02  0.8708499E-01
       -1   -1    0    0    0  501  0.00000000000E+00  0.00000000000E+00  0.49403445818E+03  0.49403445820E+03  0.50400001928E-02 0. -1.
        1   -1    0    0  501    0  0.00000000000E+00  0.00000000000E+00 -0.16320462137E+04  0.16320462137E+04  0.50400001928E-02 0.  1.
    10030    2    1    2    0    0  0.00000000000E+00  0.00000000000E+00 -0.11380117555E+04  0.21260806719E+04  0.17958697803E+04 0.  0.
        5    1    3    3  502    0  0.63280850709E+03 -0.43962340156E+03 -0.11148078224E+04  0.13551877777E+04  0.46999998093E+01 0.  1.
       -5    1    3    3    0  502 -0.63280850709E+03  0.43962340156E+03 -0.23203933090E+02  0.77089289422E+03  0.46999998093E+01 0. -1.
</event>
<event>
 5   0  0.9184414E-05  0.1802577E+04  0.7818609E-02  0.8704930E-01
        2   -1    0    0  501    0  0.00000000000E+00  0.00000000000E+00  0.17470610968E+04  0.17470610968E+04  0.25500000920E-02 0.  1.
       -2   -1    0    0    0  501  0.00000000000E+00  0.00000000000E+00 -0.46496429473E+03  0.46496429474E+03  0.25500000920E-02 0. -1.
    10030    2    1    2    0    0  0.00000000000E+00  0.00000000000E+00  0.12820968021E+04  0.22120253915E+04  0.18025770782E+04 0.  0.
        5    1    3    3  502    0  0.44691056212E+03  0.26819464568E+03 -0.26125160913E+03  0.58303680139E+03  0.46999998093E+01 0. -1.
       -5    1    3    3    0  502 -0.44691056212E+03 -0.26819464568E+03  0.15433484112E+04  0.16289885901E+04  0.46999998093E+01 0.  1.
</event>
<event>
 5   0  0.8893075E-05  0.1805348E+04  0.7818609E-02  0.8703461E-01
        2   -1    0    0  501    0  0.00000000000E+00  0.00000000000E+00  0.10978395679E+04  0.10978395679E+04  0.25500000920E-02 0. -1.
       -2   -1    0    0    0  501  0.00000000000E+00  0.00000000000E+00 -0.74220319580E+03  0.74220319581E+03  0.25500000920E-02 0.  1.
    10030    2    1    2    0    0  0.00000000000E+00  0.00000000000E+00  0.35563637208E+03  0.18400427637E+04  0.18053476516E+04 0.  0.
        1    1    3    3  502    0  0.80490642239E+03  0.39654017645E+03  0.27820766560E+03  0.93942427346E+03  0.50400001928E-02 0.  1.
       -1    1    3    3    0  502 -0.80490642239E+03 -0.39654017645E+03  0.77428706479E+02  0.90061849023E+03  0.50400001928E-02 0. -1.
</event>
<event>
 5   0  0.3270375E-05  0.1811754E+04  0.7818609E-02  0.8700074E-01
       -3   -1    0    0    0  501  0.00000000000E+00  0.00000000000E+00  0.59225389441E+03  0.59225390302E+03  0.10100000352E+00 0. -1.
        3   -1    0    0  501    0  0.00000000000E+00  0.00000000000E+00 -0.13855771050E+04  0.13855771087E+04  0.10100000352E+00 0.  1.
    10030    2    1    2    0    0  0.00000000000E+00  0.00000000000E+00 -0.79332321060E+03  0.19778310117E+04  0.18117543416E+04 0.  0.
        2    1    3    3  502    0 -0.36774618125E+03  0.82602138069E+03 -0.45709766517E+03  0.10131568737E+04  0.25500000920E-02 0. -1.
       -2    1    3    3    0  502  0.36774618125E+03 -0.82602138069E+03 -0.33622554543E+03  0.96467413803E+03  0.25500000920E-02 0.  1.
</event>
<event>
 5   0  0.4494757E-05  0.1798340E+04  0.7818609E-02  0.8707183E-01
       -1   -1    0    0    0  501  0.00000000000E+00  0.00000000000E+00  0.59012597894E+03  0.59012597896E+03  0.50400001928E-02 0.  1.
        1   -1    0    0  501    0  0.00000000000E+00  0.00000000000E+00 -0.13700570694E+04  0.13700570694E+04  0.50400001928E-02 0. -1.
    10030    2    1    2    0    0  0.00000000000E+00  0.00000000000E+00 -0.77993109047E+03  0.19601830484E+04  0.17983395334E+04 0.  0.
        4    1    3    3  502    0 -0.34105158730E+03 -0.26783634449E+03  0.46861113658E+03  0.63847513879E+03  0.12699999809E+01 0.  1.
       -4    1    3    3    0  502  0.34105158730E+03  0.26783634449E+03 -0.12485422270E+04  0.13217079096E+04  0.12699999809E+01 0. -1.
</event>
<event>
 5   0  0.8892280E-05  0.1802142E+04  0.7818609E-02  0.8705161E-01
       -2   -1    0    0    0  501  0.00000000000E+00  0.00000000000E+00  0.72655201938E+03  0.72655201939E+03  0.25500000920E-02 0.  1.
        2   -1    0    0  501    0  0.00000000000E+00  0.00000000000E+00 -0.11175101208E+04  0.11175101208E+04  0.25500000920E-02 0. -1.
    10030    2    1    2    0    0  0.00000000000E+00  0.00000000000E+00 -0.39095810144E+03  0.18440621402E+04  0.18021423195E+04 0.  0.
        4    1    3    3  502    0 -0.25632033375E+03 -0.46787755478E+03  0.54757910712E+03  0.76449591969E+03  0.12699999809E+01 0.  1.
       -4    1    3    3    0  502  0.25632033375E+03  0.46787755478E+03 -0.93853720855E+03  0.10795662205E+04  0.12699999809E+01 0. -1.
</event>
<event>
 5   0  0.8893075E-05  0.1798157E+04  0.7818609E-02  0.8707280E-01
        2   -1    0    0  501    0  0.00000000000E+00  0.00000000000E+00  0.91528776673E+03  0.91528776673E+03  0.25500000920E-02 0.  1.
       -2   -1    0    0    0  501  0.00000000000E+00  0.00000000000E+00 -0.88315604269E+03  0.88315604269E+03  0.25500000920E-02 0. -1.
    10030    2    1    2    0    0  0.00000000000E+00  0.00000000000E+00  0.32131724041E+02  0.17984438094E+04  0.17981567473E+04 0.  0.
        1    1    3    3  502    0 -0.28420598028E+03 -0.16208094350E+03 -0.82150358728E+03  0.88425755038E+03  0.50400001928E-02 0. -1.
       -1    1    3    3    0  502  0.28420598028E+03  0.16208094350E+03  0.85363531132E+03  0.91418625905E+03  0.50400001928E-02 0.  1.
</event>
<event>
 5   0  0.9184414E-05  0.1769686E+04  0.7818609E-02  0.8722588E-01
        2   -1    0    0  501    0  0.00000000000E+00  0.00000000000E+00  0.12366939761E+04  0.12366939761E+04  0.25500000920E-02 0. -1.
       -2   -1    0    0    0  501  0.00000000000E+00  0.00000000000E+00 -0.63309678690E+03  0.63309678691E+03  0.25500000920E-02 0.  1.
    10030    2    1    2    0    0  0.00000000000E+00  0.00000000000E+00  0.60359718917E+03  0.18697907630E+04  0.17696858282E+04 0.  0.
        5    1    3    3  502    0 -0.10428959718E+03 -0.27006443421E+03 -0.58162860456E+03  0.64971150702E+03  0.46999998093E+01 0.  1.
       -5    1    3    3    0  502  0.10428959718E+03  0.27006443421E+03  0.11852257937E+04  0.12200792560E+04  0.46999998093E+01 0. -1.
</event>
<event>
 5   0  0.9184414E-05  0.1789896E+04  0.7818609E-02  0.8711691E-01
        2   -1    0    0  501    0  0.00000000000E+00  0.00000000000E+00  0.98305570592E+03  0.98305570592E+03  0.25500000920E-02 0. -1.
       -2   -1    0    0    0  501  0.00000000000E+00  0.00000000000E+00 -0.81473721399E+03  0.81473721399E+03  0.25500000920E-02 0.  1.
    10030    2    1    2    0    0  0.00000000000E+00  0.00000000000E+00  0.16831849193E+03  0.17977929199E+04  0.17898961613E+04 0.  0.
        5    1    3    3  502    0  0.23391173468E+03 -0.78226116243E+03 -0.28387615933E+03  0.86443911856E+03  0.46999998093E+01 0.  1.
       -5    1    3    3    0  502 -0.23391173468E+03  0.78226116243E+03  0.45219465126E+03  0.93335380135E+03  0.46999998093E+01 0. -1.
</event>
<event>
 5   0  0.9184414E-05  0.1795556E+04  0.7818609E-02  0.8708667E-01
       -2   -1    0    0    0  501  0.00000000000E+00  0.00000000000E+00  0.75546569756E+03  0.75546569757E+03  0.25500000920E-02 0. -1.
        2   -1    0    0  501    0  0.00000000000E+00  0.00000000000E+00 -0.10668981038E+04  0.10668981038E+04  0.25500000920E-02 0.  1.
    10030    2    1    2    0    0  0.00000000000E+00  0.00000000000E+00 -0.31143240620E+03  0.18223638013E+04  0.17955555354E+04 0.  0.
        5    1    3    3  502    0  0.21535072066E+03  0.34038244624E+03 -0.97003365378E+03  0.10503444778E+04  0.46999998093E+01 0.  1.
       -5    1    3    3    0  502 -0.21535072066E+03 -0.34038244624E+03  0.65860124758E+03  0.77201932353E+03  0.46999998093E+01 0. -1.
</event>
<event>
 5   0  0.4623665E-05  0.1799674E+04  0.7818609E-02  0.8706473E-01
        1   -1    0    0  501    0  0.00000000000E+00  0.00000000000E+00  0.79198280507E+03  0.79198280509E+03  0.50400001928E-02 0.  1.
       -1   -1    0    0    0  501  0.00000000000E+00  0.00000000000E+00 -0.10223790510E+04  0.10223790510E+04  0.50400001928E-02 0. -1.
    10030    2    1    2    0    0  0.00000000000E+00  0.00000000000E+00 -0.23039624589E+03  0.18143618561E+04  0.17996740023E+04 0.  0.
        5    1    3    3  502    0 -0.75000725609E+03 -0.34670767096E+03 -0.47443114743E+03  0.95279803576E+03  0.46999998093E+01 0. -1.
       -5    1    3    3    0  502  0.75000725609E+03  0.34670767096E+03  0.24403490154E+03  0.86156382030E+03  0.46999998093E+01 0.  1.
</event>
<event>
 5   0  0.8893075E-05  0.1765636E+04  0.7818609E-02  0.8724791E-01
        2   -1    0    0  501    0  0.00000000000E+00  0.00000000000E+00  0.12026121432E+04  0.12026121432E+04  0.25500000920E-02 0.  1.
       -2   -1    0    0    0  501  0.00000000000E+00  0.00000000000E+00 -0.64806198013E+03  0.64806198014E+03  0.25500000920E-02 0. -1.
    10030    2    1    2    0    0  0.00000000000E+00  0.00000000000E+00  0.55455016306E+03  0.18506741233E+04  0.17656355307E+04 0.  0.
        1    1    3    3  502    0 -0.29312217584E+03 -0.19106507454E+03 -0.57228087370E+03  0.67076961105E+03  0.50400001928E-02 0. -1.
       -1    1    3    3    0  502  0.29312217584E+03  0.19106507454E+03  0.11268310368E+04  0.11799045123E+04  0.50400001928E-02 0.  1.
</event>
<event>
 5   0  0.4578107E-05  0.1800722E+04  0.7818609E-02  0.8705916E-01
       -1   -1    0    0    0  501  0.00000000000E+00  0.00000000000E+00  0.62043035374E+03  0.62043035376E+03  0.50400001928E-02 0.  1.
        1   -1    0    0  501    0  0.00000000000E+00  0.00000000000E+00 -0.13065927964E+04  0.13065927964E+04  0.50400001928E-02 0. -1.
    10030    2    1    2    0    0  0.00000000000E+00  0.00000000000E+00 -0.68616244266E+03  0.19270231502E+04  0.18007218896E+04 0.  0.
        2    1    3    3  502    0 -0.53310569971E+03  0.83486301646E+02  0.42821986644E+03  0.68887147106E+03  0.25500000920E-02 0.  1.
       -2    1    3    3    0  502  0.53310569971E+03 -0.83486301646E+02 -0.11143823091E+04  0.12381516791E+04  0.25500000920E-02 0. -1.
</event>
<event>
 5   0  0.4578107E-05  0.1797551E+04  0.7818609E-02  0.8707603E-01
        1   -1    0    0  501    0  0.00000000000E+00  0.00000000000E+00  0.85242622114E+03  0.85242622116E+03  0.50400001928E-02 0.  1.
       -1   -1    0    0    0  501  0.00000000000E+00  0.00000000000E+00 -0.94764501435E+03  0.94764501436E+03  0.50400001928E-02 0. -1.
    10030    2    1    2    0    0  0.00000000000E+00  0.00000000000E+00 -0.95218793203E+02  0.18000712355E+04  0.17975510659E+04 0.  0.
        2    1    3    3  502    0  0.58556770985E+03 -0.58735866552E+03 -0.39438626894E+03  0.91837915586E+03  0.25500000920E-02 0. -1.
       -2    1    3    3    0  502 -0.58556770985E+03  0.58735866552E+03  0.29916747574E+03  0.88169207966E+03  0.25500000920E-02 0.  1.
</event>
<event>
 5   0  0.4335117E-05  0.1819427E+04  0.7818609E-02  0.8696036E-01
       -1   -1    0    0    0  501  0.00000000000E+00  0.00000000000E+00  0.10945899876E+04  0.10945899876E+04  0.50400001928E-02 0. -1.
        1   -1    0    0  501    0  0.00000000000E+00  0.00000000000E+00 -0.75606271984E+03  0.75606271986E+03  0.50400001928E-02 0.  1.
    10030    2    1    2    0    0  0.00000000000E+00  0.00000000000E+00  0.33852726771E+03  0.18506527074E+04  0.18194270341E+04 0.  0.
        3    1    3    3  502    0 -0.55798975279E+03  0.42821586865E+03 -0.41757583116E+03  0.81797981599E+03  0.10100000352E+00 0.  1.
       -3    1    3    3    0  502  0.55798975279E+03 -0.42821586865E+03  0.75610309887E+03  0.10326728914E+04  0.10100000352E+00 0. -1.
</event>
<event>
 5   0  0.8893075E-05  0.1795321E+04  0.7818609E-02  0.8708791E-01
       -2   -1    0    0    0  501  0.00000000000E+00  0.00000000000E+00  0.80486127851E+03  0.80486127851E+03  0.25500000920E-02 0.  1.
        2   -1    0    0  501    0  0.00000000000E+00  0.00000000000E+00 -0.10011598335E+04  0.10011598335E+04  0.25500000920E-02 0. -1.
    10030    2    1    2    0    0  0.00000000000E+00  0.00000000000E+00 -0.19629855494E+03  0.18060211120E+04  0.17953214571E+04 0.  0.
        1    1    3    3  502    0 -0.38358271809E+03 -0.78861916920E+03  0.94666960091E+02  0.88205313275E+03  0.50400001928E-02 0.  1.
       -1    1    3    3    0  502  0.38358271809E+03  0.78861916920E+03 -0.29096551503E+03  0.92396797921E+03  0.50400001928E-02 0. -1.
</event>
<event>
 5   0  0.4494757E-05  0.1798417E+04  0.7818609E-02  0.8707142E-01
        1   -1    0    0  501    0  0.00000000000E+00  0.00000000000E+00  0.12213202445E+04  0.12213202445E+04  0.50400001928E-02 0. -1.
       -1   -1    0    0    0  501  0.00000000000E+00  0.00000000000E+00 -0.66205088466E+03  0.66205088468E+03  0.50400001928E-02 0.  1.
    10030    2    1    2    0    0  0.00000000000E+00  0.00000000000E+00  0.55926935983E+03  0.18833711292E+04  0.17984172467E+04 0.  0.
        4    1    3    3  502    0  0.59545155116E+03  0.24453400674E+03 -0.37789003328E+03  0.74643279697E+03  0.12699999809E+01 0.  1.
       -4    1    3    3    0  502 -0.59545155116E+03 -0.24453400674E+03  0.93715939312E+03  0.11369383322E+04  0.12699999809E+01 0. -1.
</event>
<event>
 5   0  0.4494757E-05  0.1789808E+04  0.7818609E-02  0.8711738E-01
       -1   -1    0    0    0  501  0.00000000000E+00  0.00000000000E+00  0.31616394274E+03  0.31616394278E+03  0.50400001928E-02 0. -1.
        1   -1    0    0  501    0  0.00000000000E+00  0.00000000000E+00 -0.25330307173E+04  0.25330307173E+04  0.50400001928E-02 0.  1.
    10030    2    1    2    0    0  0.00000000000E+00  0.00000000000E+00 -0.22168667746E+04  0.28491946601E+04  0.17898077871E+04 0.  0.
        4    1    3    3  502    0 -0.62382320429E+03 -0.91502374702E+00 -0.21298516006E+04  0.22193300073E+04  0.12699999809E+01 0.  1.
       -4    1    3    3    0  502  0.62382320429E+03  0.91502374702E+00 -0.87015173916E+02  0.62986465282E+03  0.12699999809E+01 0. -1.
</event>
<event>
 5   0  0.4623665E-05  0.1800574E+04  0.7818609E-02  0.8705995E-01
        1   -1    0    0  501    0  0.00000000000E+00  0.00000000000E+00  0.11687279307E+04  0.11687279307E+04  0.50400001928E-02 0. -1.
       -1   -1    0    0    0  501  0.00000000000E+00  0.00000000000E+00 -0.69350292823E+03  0.69350292825E+03  0.50400001928E-02 0.  1.
    10030    2    1    2    0    0  0.00000000000E+00  0.00000000000E+00  0.47522500248E+03  0.18622308590E+04  0.18005735112E+04 0.  0.
        5    1    3    3  502    0 -0.25173768406E+03 -0.86405468332E+03  0.26146285125E+03  0.93720182988E+03  0.46999998093E+01 0. -1.
       -5    1    3    3    0  502  0.25173768406E+03  0.86405468332E+03  0.21376215122E+03  0.92502902908E+03  0.46999998093E+01 0.  1.
</event>
<event>
 5   0  0.8802655E-05  0.1808101E+04  0.7818609E-02  0.8702003E-01
        2   -1    0    0  501    0  0.00000000000E+00  0.00000000000E+00  0.15455314291E+04  0.15455314291E+04  0.25500000920E-02 0. -1.
       -2   -1    0    0    0  501  0.00000000000E+00  0.00000000000E+00 -0.52881938970E+03  0.52881938971E+03  0.25500000920E-02 0.  1.
    10030    2    1    2    0    0  0.00000000000E+00  0.00000000000E+00  0.10167120394E+04  0.20743508188E+04  0.18081006466E+04 0.  0.
        2    1    3    3  502    0  0.86801078551E+03  0.46786197207E+02  0.79327100637E+03  0.11768222302E+04  0.25500000920E-02 0. -1.
       -2    1    3    3    0  502 -0.86801078551E+03 -0.46786197207E+02  0.22344103299E+03  0.89752858854E+03  0.25500000920E-02 0.  1.
</event>
<event>
 5   0  0.8892280E-05  0.1799609E+04  0.7818609E-02  0.8706507E-01
       -2   -1    0    0    0  501  0.00000000000E+00  0.00000000000E+00  0.50079241858E+03  0.50079241859E+03  0.25500000920E-02 0. -1.
        2   -1    0    0  501    0  0.00000000000E+00  0.00000000000E+00 -0.16167342457E+04  0.16167342457E+04  0.25500000920E-02 0.  1.
    10030    2    1    2    0    0  0.00000000000E+00  0.00000000000E+00 -0.11159418271E+04  0.21175266643E+04  0.17996091277E+04 0.  0.
        4    1    3    3  502    0 -0.61338023775E+02  0.81286787853E+03 -0.10971147132E+03  0.82252948940E+03  0.12699999809E+01 0. -1.
       -4    1    3    3    0  502  0.61338023775E+02 -0.81286787853E+03 -0.10062303558E+04  0.12949971749E+04  0.12699999809E+01 0.  1.
</event>
<event>
 5   0  0.9184414E-05  0.1781243E+04  0.7818609E-02  0.8716338E-01
       -2   -1    0    0    0  501  0.00000000000E+00  0.00000000000E+00  0.88600267872E+03  0.88600267873E+03  0.25500000920E-02 0.  1.
        2   -1    0    0  501    0  0.00000000000E+00  0.00000000000E+00 -0.89526484106E+03  0.89526484106E+03  0.25500000920E-02 0. -1.
    10030    2    1    2    0    0  0.00000000000E+00  0.00000000000E+00 -0.92621623331E+01  0.17812675198E+04  0.17812434391E+04 0.  0.
        5    1    3    3  502    0 -0.20105497280E+03 -0.62492308502E+01  0.86297663818E+03  0.88612240859E+03  0.46999998093E+01 0.  1.
       -5    1    3    3    0  502  0.20105497280E+03  0.62492308502E+01 -0.87223880051E+03  0.89514511119E+03  0.46999998093E+01 0. -1.
</event>
<event>
 5   0  0.9147432E-05  0.1798483E+04  0.7818609E-02  0.8707107E-01
        2   -1    0    0  501    0  0.00000000000E+00  0.00000000000E+00  0.12850485827E+04  0.12850485827E+04  0.25500000920E-02 0. -1.
       -2   -1    0    0    0  501  0.00000000000E+00  0.00000000000E+00 -0.62926404124E+03  0.62926404125E+03  0.25500000920E-02 0.  1.
    10030    2    1    2    0    0  0.00000000000E+00  0.00000000000E+00  0.65578454148E+03  0.19143126240E+04  0.17984825430E+04 0.  0.
        3    1    3    3  502    0 -0.25233075144E+03 -0.86041889237E+03  0.40042325121E+03  0.98200319184E+03  0.10100000352E+00 0.  1.
       -3    1    3    3    0  502  0.25233075144E+03  0.86041889237E+03  0.25536129027E+03  0.93230943214E+03  0.10100000352E+00 0. -1.
</event>
<event>
 5   0  0.9184414E-05  0.1829364E+04  0.7818609E-02  0.8690838E-01
       -2   -1    0    0    0  501  0.00000000000E+00  0.00000000000E+00  0.90984560609E+03  0.90984560609E+03  0.25500000920E-02 0. -1.
        2   -1    0    0  501    0  0.00000000000E+00  0.00000000000E+00 -0.91954411846E+03  0.91954411846E+03  0.25500000920E-02 0.  1.
    10030    2    1    2    0    0  0.00000000000E+00  0.00000000000E+00 -0.96985123715E+01  0.18293897245E+04  0.18293640160E+04 0.  0.
        5    1    3    3  502    0 -0.16200309813E+03  0.87275592911E+03  0.21577381202E+03  0.91352522875E+03  0.46999998093E+01 0.  1.
       -5    1    3    3    0  502  0.16200309813E+03 -0.87275592911E+03 -0.22547232440E+03  0.91586449580E+03  0.46999998093E+01 0. -1.
</event>
<event>
 5   0  0.8802655E-05  0.1790638E+04  0.7818609E-02  0.8711294E-01
        2   -1    0    0  501    0  0.00000000000E+00  0.00000000000E+00  0.14934564755E+04  0.14934564755E+04  0.25500000920E-02 0. -1.
       -2   -1    0    0    0  501  0.00000000000E+00  0.00000000000E+00 -0.53673905893E+03  0.53673905893E+03  0.25500000920E-02 0.  1.
    10030    2    1    2    0    0  0.00000000000E+00  0.00000000000E+00  0.95671741656E+03  0.20301955344E+04  0.17906383479E+04 0.  0.
        2    1    3    3  502    0  0.69487324208E+03 -0.33585023619E+03 -0.36174281830E+02  0.77262719495E+03  0.25500000920E-02 0.  1.
       -2    1    3    3    0  502 -0.69487324208E+03  0.33585023619E+03  0.99289169839E+03  0.12575683395E+04  0.25500000920E-02 0. -1.
</event>
<event>
 5   0  0.4535100E-05  0.1797226E+04  0.7818609E-02  0.8707776E-01
       -1   -1    0    0    0  501  0.00000000000E+00  0.00000000000E+00  0.13477938668E+04  0.13477938668E+04  0.50400001928E-02 0. -1.
        1   -1    0    0  501    0  0.00000000000E+00  0.00000000000E+00 -0.59913089621E+03  0.59913089623E+03  0.50400001928E-02 0.  1.
    10030    2    1    2    0    0  0.00000000000E+00  0.00000000000E+00  0.74866297063E+03  0.19469247631E+04  0.17972255811E+04 0.  0.
        1    1    3    3  502    0  0.20720930435E+03  0.37105252715E+03 -0.48338152321E+03  0.64364071555E+03  0.50400001928E-02 0.  1.
       -1    1    3    3    0  502 -0.20720930435E+03 -0.37105252715E+03  0.12320444938E+04  0.13032840475E+04  0.50400001928E-02 0. -1.
</event>
<event>
 5   0  0.4494757E-05  0.1800663E+04  0.7818609E-02  0.8705947E-01
       -1   -1    0    0    0  501  0.00000000000E+00  0.00000000000E+00  0.44737370782E+03  0.44737370785E+03  0.50400001928E-02 0.  1.
        1   -1    0    0  501    0  0.00000000000E+00  0.00000000000E+00 -0.18119015739E+04  0.18119015739E+04  0.50400001928E-02 0. -1.
    10030    2    1    2    0    0  0.00000000000E+00  0.00000000000E+00 -0.13645278660E+04  0.22592752817E+04  0.18006633504E+04 0.  0.
        4    1    3    3  502    0  0.59181060677E+03  0.35812849903E+03  0.40790286353E+02  0.69293670451E+03  0.12699999809E+01 0.  1.
       -4    1    3    3    0  502 -0.59181060677E+03 -0.35812849903E+03 -0.14053181524E+04  0.15663385772E+04  0.12699999809E+01 0. -1.
</event>
<event>
 5   0  0.8892280E-05  0.1795793E+04  0.7818609E-02  0.8708540E-01
       -2   -1    0    0    0  501  0.00000000000E+00  0.00000000000E+00  0.48642592570E+03  0.48642592571E+03  0.25500000920E-02 0. -1.
        2   -1    0    0  501    0  0.00000000000E+00  0.00000000000E+00 -0.16574332780E+04  0.16574332780E+04  0.25500000920E-02 0.  1.
    10030    2    1    2    0    0  0.00000000000E+00  0.00000000000E+00 -0.11710073523E+04  0.21438592037E+04  0.17957934364E+04 0.  0.
        4    1    3    3  502    0  0.66933181890E+03  0.15071904842E+03 -0.12769895094E+04  0.14496293096E+04  0.12699999809E+01 0.  1.
       -4    1    3    3    0  502 -0.66933181890E+03 -0.15071904842E+03  0.10598215706E+03  0.69422989410E+03  0.12699999809E+01 0. -1.
</event>
<event>
 5   0  0.8892280E-05  0.1801592E+04  0.7818609E-02  0.8705453E-01
       -2   -1    0    0    0  501  0.00000000000E+00  0.00000000000E+00  0.81967759854E+03  0.81967759854E+03  0.25500000920E-02 0.  1.
        2   -1    0    0  501    0  0.00000000000E+00  0.00000000000E+00 -0.98994209396E+03  0.98994209396E+03  0.25500000920E-02 0. -1.
    10030    2    1    2    0    0  0.00000000000E+00  0.00000000000E+00 -0.17026449542E+03  0.18096196925E+04  0.18015919164E+04 0.  0.
        4    1    3    3  502    0 -0.22757321920E+03 -0.79317789133E+03  0.27774059009E+03  0.87066766661E+03  0.12699999809E+01 0.  1.
       -4    1    3    3    0  502  0.22757321920E+03  0.79317789133E+03 -0.44800508552E+03  0.93895202590E+03  0.12699999809E+01 0. -1.
</event>
<event>
 5   0  0.4578107E-05  0.1798512E+04  0.7818609E-02  0.8707091E-01
        1   -1    0    0  501    0  0.00000000000E+00  0.00000000000E+00  0.88354320940E+03  0.88354320942E+03  0.50400001928E-02 0.  1.
       -1   -1    0    0    0  501  0.00000000000E+00  0.00000000000E+00 -0.91524810107E+03  0.91524810108E+03  0.50400001928E-02 0. -1.
    10030    2    1    2    0    0  0.00000000000E+00  0.00000000000E+00 -0.31704891666E+02  0.17987913105E+04  0.17985118789E+04 0.  0.
        2    1    3    3  502    0  0.10871196394E+03  0.80305493756E+03  0.37401027300E+03  0.89252406587E+03  0.25500000920E-02 0.  1.
       -2    1    3    3    0  502 -0.10871196394E+03 -0.80305493756E+03 -0.40571516467E+03  0.90626724463E+03  0.25500000920E-02 0. -1.
</event>
<event>
 5   0  0.4578107E-05  0.1801724E+04  0.7818609E-02  0.8705383E-01
        1   -1    0    0  501    0  0.00000000000E+00  0.00000000000E+00  0.64061513663E+03  0.64061513665E+03  0.50400001928E-02 0.  1.
       -1   -1    0    0    0  501  0.00000000000E+00  0.00000000000E+00 -0.12668325484E+04  0.12668325484E+04  0.50400001928E-02 0. -1.
    10030    2    1    2    0    0  0.00000000000E+00  0.00000000000E+00 -0.62621741178E+03  0.19074476851E+04  0.18017237370E+04 0.  0.
        2    1    3    3  502    0 -0.14467989805E+03  0.45530310889E+03  0.49546099633E+03  0.68826941873E+03  0.25500000920E-02 0.  1.
       -2    1    3    3    0  502  0.14467989805E+03 -0.45530310889E+03 -0.11216784081E+04  0.12191782663E+04  0.25500000920E-02 0. -1.
</event>
<event>
 5   0  0.8802655E-05  0.1796750E+04  0.7818609E-02  0.8708030E-01
       -2   -1    0    0    0  501  0.00000000000E+00  0.00000000000E+00  0.78578785245E+03  0.78578785245E+03  0.25500000920E-02 0.  1.
        2   -1    0    0  501    0  0.00000000000E+00  0.00000000000E+00 -0.10270936219E+04  0.10270936219E+04  0.25500000920E-02 0. -1.
    10030    2    1    2    0    0  0.00000000000E+00  0.00000000000E+00 -0.24130576948E+03  0.18128814744E+04  0.17967500566E+04 0.  0.
        2    1    3    3  502    0  0.21995022117E+03 -0.81490656281E+03  0.18972374785E+03  0.86512768214E+03  0.25500000920E-02 0.  1.
       -2    1    3    3    0  502 -0.21995022117E+03  0.81490656281E+03 -0.43102951733E+03  0.94775379225E+03  0.25500000920E-02 0. -1.
</event>
<event>
 5   0  0.9147432E-05  0.1799757E+04  0.7818609E-02  0.8706428E-01
       -2   -1    0    0    0  501  0.00000000000E+00  0.00000000000E+00  0.39069293536E+03  0.39069293537E+03  0.25500000920E-02 0.  1.
        2   -1    0    0  501    0  0.00000000000E+00  0.00000000000E+00 -0.20726807797E+04  0.20726807797E+04  0.25500000920E-02 0. -1.
    10030    2    1    2    0    0  0.00000000000E+00  0.00000000000E+00 -0.16819878444E+04  0.24633737151E+04  0.17997574702E+04 0.  0.
        3    1    3    3  502    0  0.40663144757E+03 -0.11630741154E+03 -0.19281661875E+04  0.19740064349E+04  0.10100000352E+00 0. -1.
       -3    1    3    3    0  502 -0.40663144757E+03  0.11630741154E+03  0.24617834312E+03  0.48936728023E+03  0.10100000352E+00 0.  1.
</event>
<event>
 5   0  0.8802655E-05  0.1802150E+04  0.7818609E-02  0.8705157E-01
       -2   -1    0    0    0  501  0.00000000000E+00  0.00000000000E+00  0.53641230045E+03  0.53641230046E+03  0.25500000920E-02 0. -1.
        2   -1    0    0  501    0  0.00000000000E+00  0.00000000000E+00 -0.15136422334E+04  0.15136422334E+04  0.25500000920E-02 0.  1.
    10030    2    1    2    0    0  0.00000000000E+00  0.00000000000E+00 -0.97722993297E+03  0.20500545339E+04  0.18021501741E+04 0.  0.
        2    1    3    3  502    0  0.82413045453E+03 -0.12963790606E+03 -0.87595270245E+03  0.12096652966E+04  0.25500000920E-02 0.  1.
       -2    1    3    3    0  502 -0.82413045453E+03  0.12963790606E+03 -0.10127723052E+03  0.84038923732E+03  0.25500000920E-02 0. -1.
</event>
<event>
 5   0  0.8893075E-05  0.1731788E+04  0.7818609E-02  0.8743439E-01
       -2   -1    0    0    0  501  0.00000000000E+00  0.00000000000E+00  0.67293244619E+03  0.67293244620E+03  0.25500000920E-02 0. -1.
        2   -1    0    0  501    0  0.00000000000E+00  0.00000000000E+00 -0.11141873456E+04  0.11141873456E+04  0.25500000920E-02 0.  1.
    10030    2    1    2    0    0  0.00000000000E+00  0.00000000000E+00 -0.44125489945E+03  0.17871197918E+04  0.17317884582E+04 0.  0.
        1    1    3    3  502    0 -0.66553991368E+03 -0.10857308473E+02  0.35088263043E+03  0.75244925291E+03  0.50400001928E-02 0. -1.
       -1    1    3    3    0  502  0.66553991368E+03  0.10857308473E+02 -0.79213752988E+03  0.10346705389E+04  0.50400001928E-02 0.  1.
</event>
<event>
 5   0  0.4623665E-05  0.1800316E+04  0.7818609E-02  0.8706131E-01
       -1   -1    0    0    0  501  0.00000000000E+00  0.00000000000E+00  0.85647623477E+03  0.85647623478E+03  0.50400001928E-02 0. -1.
        1   -1    0    0  501    0  0.00000000000E+00  0.00000000000E+00 -0.94606771902E+03  0.94606771903E+03  0.50400001928E-02 0.  1.
    10030    2    1    2    0    0  0.00000000000E+00  0.00000000000E+00 -0.89591484250E+02  0.18025439538E+04  0.18003161032E+04 0.  0.
        5    1    3    3  502    0  0.16541969601E+03  0.53037669667E+03  0.66431744734E+03  0.86602706484E+03  0.46999998093E+01 0. -1.
       -5    1    3    3    0  502 -0.16541969601E+03 -0.53037669667E+03 -0.75390893159E+03  0.93651688897E+03  0.46999998093E+01 0.  1.
</event>
<event>
 5   0  0.9184414E-05  0.1799660E+04  0.7818609E-02  0.8706480E-01
        2   -1    0    0  501    0  0.00000000000E+00  0.00000000000E+00  0.14768961890E+04  0.14768961890E+04  0.25500000920E-02 0.  1.
       -2   -1    0    0    0  501  0.00000000000E+00  0.00000000000E+00 -0.54824040256E+03  0.54824040257E+03  0.25500000920E-02 0. -1.
    10030    2    1    2    0    0  0.00000000000E+00  0.00000000000E+00  0.92865578642E+03  0.20251365915E+04  0.17996601470E+04 0.  0.
        5    1    3    3  502    0 -0.62603001791E+03 -0.59902673642E+03  0.19116902735E+03  0.88730733192E+03  0.46999998093E+01 0. -1.
       -5    1    3    3    0  502  0.62603001791E+03  0.59902673642E+03  0.73748675907E+03  0.11378292596E+04  0.46999998093E+01 0.  1.
</event>
<event>
 5   0  0.8892280E-05  0.1785738E+04  0.7818609E-02  0.8713921E-01
       -2   -1    0    0    0  501  0.00000000000E+00  0.00000000000E+00  0.45832220742E+03  0.45832220743E+03  0.25500000920E-02 0.  1.
        2   -1    0    0  501    0  0.00000000000E+00  0.00000000000E+00 -0.17394202344E+04  0.17394202344E+04  0.25500000920E-02 0. -1.
    10030    2    1    2    0    0  0.00000000000E+00  0.00000000000E+00 -0.12810980270E+04  0.21977424418E+04  0.17857378548E+04 0.  0.
        4    1    3    3  502    0  0.46013764825E+02  0.14269794268E+03 -0.17238152641E+04  0.17303238561E+04  0.12699999809E+01 0. -1.
       -4    1    3    3    0  502 -0.46013764825E+02 -0.14269794268E+03  0.44271723708E+03  0.46741858575E+03  0.12699999809E+01 0.  1.
</event>
<event>
 5   0  0.8802655E-05  0.1795668E+04  0.7818609E-02  0.8708606E-01
        2   -1    0    0  501    0  0.00000000000E+00  0.00000000000E+00  0.16035038727E+04  0.16035038727E+04  0.25500000920E-02 0. -1.
       -2   -1    0    0    0  501  0.00000000000E+00  0.00000000000E+00 -0.50271551306E+03  0.50271551307E+03  0.25500000920E-02 0.  1.
    10030    2    1    2    0    0  0.00000000000E+00  0.00000000000E+00  0.11007883596E+04  0.21062193857E+04  0.17956684238E+04 0.  0.
        2    1    3    3  502    0  0.40802602894E+03 -0.41698702596E+03  0.13508743152E+04  0.14714702973E+04  0.25500000920E-02 0. -1.
       -2    1    3    3    0  502 -0.40802602894E+03  0.41698702596E+03 -0.25008595564E+03  0.63474908848E+03  0.25500000920E-02 0.  1.
</event>
<event>
 5   0  0.4335117E-05  0.1798560E+04  0.7818609E-02  0.8707065E-01
       -1   -1    0    0    0  501  0.00000000000E+00  0.00000000000E+00  0.37514250817E+03  0.37514250821E+03  0.50400001928E-02 0. -1.
        1   -1    0    0  501    0  0.00000000000E+00  0.00000000000E+00 -0.21557271163E+04  0.21557271163E+04  0.50400001928E-02 0.  1.
    10030    2    1    2    0    0  0.00000000000E+00  0.00000000000E+00 -0.17805846081E+04  0.25308696245E+04  0.17985603992E+04 0.  0.
        3    1    3    3  502    0 -0.65360302102E+03 -0.56225918829E+03 -0.53050775910E+03  0.10123096347E+04  0.10100000352E+00 0. -1.
       -3    1    3    3    0  502  0.65360302102E+03  0.56225918829E+03 -0.12500768490E+04  0.15185599898E+04  0.10100000352E+00 0.  1.
</event>
<event>
 5   0  0.4623665E-05  0.1801254E+04  0.7818609E-02  0.8705633E-01
       -1   -1    0    0    0  501  0.00000000000E+00  0.00000000000E+00  0.61016228817E+03  0.61016228819E+03  0.50400001928E-02 0.  1.
        1   -1    0    0  501    0  0.00000000000E+00  0.00000000000E+00 -0.13293660886E+04  0.13293660886E+04  0.50400001928E-02 0. -1.
    10030    2    1    2    0    0  0.00000000000E+00  0.00000000000E+00 -0.71920380044E+03  0.19395283768E+04  0.18012540681E+04 0.  0.
        5    1    3    3  502    0  0.23840741446E+03 -0.10813780119E+03 -0.12874809097E+04  0.13138344882E+04  0.46999998093E+01 0. -1.
       -5    1    3    3    0  502 -0.23840741446E+03  0.10813780119E+03  0.56827710931E+03  0.62569388864E+03  0.46999998093E+01 0.  1.
</event>
<event>
 5   0  0.8893075E-05  0.1804541E+04  0.7818609E-02  0.8703888E-01
       -2   -1    0    0    0  501  0.00000000000E+00  0.00000000000E+00  0.68363911815E+03  0.68363911815E+03  0.25500000920E-02 0. -1.
        2   -1    0    0  501    0  0.00000000000E+00  0.00000000000E+00 -0.11908210178E+04  0.11908210178E+04  0.25500000920E-02 0.  1.
    10030    2    1    2    0    0  0.00000000000E+00  0.00000000000E+00 -0.50718189970E+03  0.18744601360E+04  0.18045407510E+04 0.  0.
        1    1    3    3  502    0  0.79838305226E+03  0.39658205373E+03 -0.10891402645E+03  0.89808412115E+03  0.50400001928E-02 0. -1.
       -1    1    3    3    0  502 -0.79838305226E+03 -0.39658205373E+03 -0.39826787325E+03  0.97637601485E+03  0.50400001928E-02 0.  1.
</event>
<event>
 5   0  0.9184414E-05  0.1803391E+04  0.7818609E-02  0.8704498E-01
        2   -1    0    0  501    0  0.00000000000E+00  0.00000000000E+00  0.27505554050E+04  0.27505554050E+04  0.25500000920E-02 0. -1.
       -2   -1    0    0    0  501  0.00000000000E+00  0.00000000000E+00 -0.29559674255E+03  0.29559674256E+03  0.25500000920E-02 0.  1.
    10030    2    1    2    0    0  0.00000000000E+00  0.00000000000E+00  0.24549586625E+04  0.30461521476E+04  0.18033914916E+04 0.  0.
        5    1    3    3  502    0 -0.77453457679E+03 -0.20864279227E+03  0.53186054632E+03  0.96246213232E+03  0.46999998093E+01 0.  1.
       -5    1    3    3    0  502  0.77453457679E+03  0.20864279227E+03  0.19230981162E+04  0.20836900153E+04  0.46999998093E+01 0. -1.
</event>
<event>
 5   0  0.9184414E-05  0.1805013E+04  0.7818609E-02  0.8703638E-01
       -2   -1    0    0    0  501  0.00000000000E+00  0.00000000000E+00  0.83093235683E+03  0.83093235683E+03  0.25500000920E-02 0. -1.
        2   -1    0    0  501    0  0.00000000000E+00  0.00000000000E+00 -0.98024608881E+03  0.98024608881E+03  0.25500000920E-02 0.  1.
    10030    2    1    2    0    0  0.00000000000E+00  0.00000000000E+00 -0.14931373198E+03  0.18111784456E+04  0.18050132330E+04 0.  0.
        5    1    3    3  502    0 -0.31018626140E+03  0.63440400187E+03  0.48923426900E+03  0.85910198132E+03  0.46999998093E+01 0. -1.
       -5    1    3    3    0  502  0.31018626140E+03 -0.63440400187E+03 -0.63854800098E+03  0.95207646432E+03  0.46999998093E+01 0.  1.
</event>
<event>
 5   0  0.4494757E-05  0.1796454E+04  0.7818609E-02  0.8708188E-01
       -1   -1    0    0    0  501  0.00000000000E+00  0.00000000000E+00  0.11152066484E+04  0.11152066484E+04  0.50400001928E-02 0.  1.
        1   -1    0    0  501    0  0.00000000000E+00  0.00000000000E+00 -0.72346355325E+03  0.72346355327E+03  0.50400001928E-02 0. -1.
    10030    2    1    2    0    0  0.00000000000E+00  0.00000000000E+00  0.39174309513E+03  0.18386702017E+04  0.17964535780E+04 0.  0.
        4    1    3    3  502    0 -0.27525506499E+03  0.85355813350E+03  0.24687136644E+03  0.93020101190E+03  0.12699999809E+01 0.  1.
       -4    1    3    3    0  502  0.27525506499E+03 -0.85355813350E+03  0.14487172869E+03  0.90846918976E+03  0.12699999809E+01 0. -1.
</event>
<event>
 5   0  0.4494757E-05  0.1801138E+04  0.7818609E-02  0.8705695E-01
       -1   -1    0    0    0  501  0.00000000000E+00  0.00000000000E+00  0.11123952495E+04  0.11123952495E+04  0.50400001928E-02 0. -1.
        1   -1    0    0  501    0  0.00000000000E+00  0.00000000000E+00 -0.72907941363E+03  0.72907941365E+03  0.50400001928E-02 0.  1.
    10030    2    1    2    0    0  0.00000000000E+00  0.00000000000E+00  0.38331583582E+03  0.18414746631E+04  0.18011379472E+04 0.  0.
        4    1    3    3  502    0  0.12613142358E+03  0.20275256958E+03 -0.69612323263E+03  0.73593947332E+03  0.12699999809E+01 0.  1.
       -4    1    3    3    0  502 -0.12613142358E+03 -0.20275256958E+03  0.10794390684E+04  0.11055351898E+04  0.12699999809E+01 0. -1.
</event>
<event>
 5   0  0.4578107E-05  0.1799408E+04  0.7818609E-02  0.8706614E-01
       -1   -1    0    0    0  501  0.00000000000E+00  0.00000000000E+00  0.68720339942E+03  0.68720339944E+03  0.50400001928E-02 0.  1.
        1   -1    0    0  501    0  0.00000000000E+00  0.00000000000E+00 -0.11779148041E+04  0.11779148041E+04  0.50400001928E-02 0. -1.
    10030    2    1    2    0    0  0.00000000000E+00  0.00000000000E+00 -0.49071140464E+03  0.18651182035E+04  0.17994077444E+04 0.  0.
        2    1    3    3  502    0  0.99246116366E+02 -0.35576782085E+03 -0.10957088394E+04  0.11562864674E+04  0.25500000920E-02 0. -1.
       -2    1    3    3    0  502 -0.99246116366E+02  0.35576782085E+03  0.60499743479E+03  0.70883173608E+03  0.25500000920E-02 0.  1.
</event>
<event>
 5   0  0.8893075E-05  0.1789186E+04  0.7818609E-02  0.8712071E-01
       -2   -1    0    0    0  501  0.00000000000E+00  0.00000000000E+00  0.64450711678E+03  0.64450711678E+03  0.25500000920E-02 0. -1.
        2   -1    0    0  501    0  0.00000000000E+00  0.00000000000E+00 -0.12417191741E+04  0.12417191741E+04  0.25500000920E-02 0.  1.
    10030    2    1    2    0    0  0.00000000000E+00  0.00000000000E+00 -0.59721205728E+03  0.18862262908E+04  0.17891862337E+04 0.  0.
        1    1    3    3  502    0  0.22545753147E+02  0.85386740344E+03 -0.57892007075E+03  0.10318654476E+04  0.50400001928E-02 0.  1.
       -1    1    3    3    0  502 -0.22545753147E+02 -0.85386740344E+03 -0.18291986524E+02  0.85436084322E+03  0.50400001928E-02 0. -1.
</event>
<event>
 5   0  0.9184414E-05  0.1816607E+04  0.7818609E-02  0.8697518E-01
       -2   -1    0    0    0  501  0.00000000000E+00  0.00000000000E+00  0.65491301219E+03  0.65491301219E+03  0.25500000920E-02 0.  1.
        2   -1    0    0  501    0  0.00000000000E+00  0.00000000000E+00 -0.12597321260E+04  0.12597321261E+04  0.25500000920E-02 0. -1.
    10030    2    1    2    0    0  0.00000000000E+00  0.00000000000E+00 -0.60481911386E+03  0.19146451382E+04  0.18166066842E+04 0.  0.
        5    1    3    3  502    0 -0.54656884468E+03  0.24479021008E+03 -0.10221493540E+04  0.11846818732E+04  0.46999998093E+01 0. -1.
       -5    1    3    3    0  502  0.54656884468E+03 -0.24479021008E+03  0.41733024013E+03  0.72996326500E+03  0.46999998093E+01 0.  1.
</event>
<event>
 5   0  0.9147432E-05  0.1805030E+04  0.7818609E-02  0.8703629E-01
        2   -1    0    0  501    0  0.00000000000E+00  0.00000000000E+00  0.13291367912E+04  0.13291367912E+04  0.25500000920E-02 0. -1.
       -2   -1    0    0    0  501  0.00000000000E+00  0.00000000000E+00 -0.61282875802E+03  0.61282875803E+03  0.25500000920E-02 0.  1.
    10030    2    1    2    0    0  0.00000000000E+00  0.00000000000E+00  0.71630803319E+03  0.19419655492E+04  0.18050299156E+04 0.  0.
        3    1    3    3  502    0 -0.82864856261E+03  0.35492585075E+03  0.31122813048E+03  0.95367382225E+03  0.10100000352E+00 0. -1.
       -3    1    3    3    0  502  0.82864856261E+03 -0.35492585075E+03  0.40507990271E+03  0.98829172699E+03  0.10100000352E+00 0.  1.
</event>
<event>
 5   0  0.4494757E-05  0.1803645E+04  0.7818609E-02  0.8704364E-01
        1   -1    0    0  501    0  0.00000000000E+00  0.00000000000E+00  0.94590471545E+03  0.94590471547E+03  0.50400001928E-02 0. -1.
       -1   -1    0    0    0  501  0.00000000000E+00  0.00000000000E+00 -0.85979446477E+03  0.85979446479E+03  0.50400001928E-02 0.  1.
    10030    2    1    2    0    0  0.00000000000E+00  0.00000000000E+00  0.86110250681E+02  0.18056991803E+04  0.18036447972E+04 0.  0.
        4    1    3    3  502    0  0.35259628911E+03 -0.26306406874E+03  0.83119712170E+03  0.94043453540E+03  0.12699999809E+01 0. -1.
       -4    1    3    3    0  502 -0.35259628911E+03  0.26306406874E+03 -0.74508687102E+03  0.86526464485E+03  0.12699999809E+01 0.  1.
</event>
<event>
 5   0  0.8893075E-05  0.1799390E+04  0.7818609E-02  0.8706624E-01
       -2   -1    0    0    0  501  0.00000000000E+00  0.00000000000E+00  0.53616203809E+03  0.53616203810E+03  0.25500000920E-02 0. -1.
        2   -1    0    0  501    0  0.00000000000E+00  0.00000000000E+00 -0.15097138397E+04  0.15097138397E+04  0.25500000920E-02 0.  1.
    10030    2    1    2    0    0  0.00000000000E+00  0.00000000000E+00 -0.97355180156E+03  0.20458758778E+04  0.17993901736E+04 0.  0.
        1    1    3    3  502    0 -0.28861404810E+03 -0.84898732379E+03 -0.40342873680E+03  0.98327630421E+03  0.50400001928E-02 0. -1.
       -1    1    3    3    0  502  0.28861404810E+03  0.84898732379E+03 -0.57012306476E+03  0.10625995735E+04  0.50400001928E-02 0.  1.
</event>
<event>
 5   0  0.4494757E-05  0.1874191E+04  0.7818609E-02  0.8667811E-01
       -1   -1    0    0    0  501  0.00000000000E+00  0.00000000000E+00  0.53162033950E+03  0.53162033952E+03  0.50400001928E-02 0.  1.
        1   -1    0    0  501    0  0.00000000000E+00  0.00000000000E+00 -0.16518324271E+04  0.16518324271E+04  0.50400001928E-02 0. -1.
    10030    2    1    2    0    0  0.00000000000E+00  0.00000000000E+00 -0.11202120876E+04  0.21834527666E+04  0.18741907221E+04 0.  0.
        4    1    3    3  502    0  0.84102170220E+01  0.48785638768E+03 -0.14921668980E+04  0.15699166383E+04  0.12699999809E+01 0. -1.
       -4    1    3    3    0  502 -0.84102170220E+01 -0.48785638768E+03  0.37195481048E+03  0.61353612827E+03  0.12699999809E+01 0.  1.
</event>
<event>
 5   0  0.9147432E-05  0.1796842E+04  0.7818609E-02  0.8707981E-01
        2   -1    0    0  501    0  0.00000000000E+00  0.00000000000E+00  0.11857314408E+04  0.11857314408E+04  0.25500000920E-02 0. -1.
       -2   -1    0    0    0  501  0.00000000000E+00  0.00000000000E+00 -0.68072788157E+03  0.68072788157E+03  0.25500000920E-02 0.  1.
    10030    2    1    2    0    0  0.00000000000E+00  0.00000000000E+00  0.50500355919E+03  0.18664593223E+04  0.17968421765E+04 0.  0.
        3    1    3    3  502    0 -0.69903423762E+03 -0.47172745125E+03  0.57431938662E+03  0.10203031028E+04  0.10100000352E+00 0. -1.
       -3    1    3    3    0  502  0.69903423762E+03  0.47172745125E+03 -0.69315827428E+02  0.84615621948E+03  0.10100000352E+00 0.  1.
</event>
<event>
 5   0  0.8892280E-05  0.1808447E+04  0.7818609E-02  0.8701821E-01
        2   -1    0    0  501    0  0.00000000000E+00  0.00000000000E+00  0.10692850990E+04  0.10692850990E+04  0.25500000920E-02 0.  1.
       -2   -1    0    0    0  501  0.00000000000E+00  0.00000000000E+00 -0.76464144018E+03  0.76464144018E+03  0.25500000920E-02 0. -1.
    10030    2    1    2    0    0  0.00000000000E+00  0.00000000000E+00  0.30464365884E+03  0.18339265392E+04  0.18084465135E+04 0.  0.
        4    1    3    3  502    0 -0.54940435813E+03  0.71743870012E+03  0.11938892460E+03  0.91149260303E+03  0.12699999809E+01 0. -1.
       -4    1    3    3    0  502  0.54940435813E+03 -0.71743870012E+03  0.18525473424E+03  0.92243393618E+03  0.12699999809E+01 0.  1.
</event>
<event>
 5   0  0.4535100E-05  0.1806285E+04  0.7818609E-02  0.8702964E-01
       -1   -1    0    0    0  501  0.00000000000E+00  0.00000000000E+00  0.80912908160E+03  0.80912908161E+03  0.50400001928E-02 0.  1.
        1   -1    0    0  501    0  0.00000000000E+00  0.00000000000E+00 -0.10080798022E+04  0.10080798022E+04  0.50400001928E-02 0. -1.
    10030    2    1    2    0    0  0.00000000000E+00  0.00000000000E+00 -0.19895072057E+03  0.18172088838E+04  0.18062853424E+04 0.  0.
        1    1    3    3  502    0 -0.45516834418E+03 -0.77907613111E+03 -0.13881226710E+03  0.91291110473E+03  0.50400001928E-02 0.  1.
       -1    1    3    3    0  502  0.45516834418E+03  0.77907613111E+03 -0.60138453472E+02  0.90429777907E+03  0.50400001928E-02 0. -1.
</event>
<event>
 5   0  0.8893075E-05  0.1801534E+04  0.7818609E-02  0.8705484E-01
        2   -1    0    0  501    0  0.00000000000E+00  0.00000000000E+00  0.81586392634E+03  0.81586392635E+03  0.25500000920E-02 0.  1.
       -2   -1    0    0    0  501  0.00000000000E+00  0.00000000000E+00 -0.99450534438E+03  0.99450534438E+03  0.25500000920E-02 0. -1.
    10030    2    1    2    0    0  0.00000000000E+00  0.00000000000E+00 -0.17864141804E+03  0.18103692707E+04  0.18015338299E+04 0.  0.
        1    1    3    3  502    0  0.82785674509E+03 -0.31826076187E+03 -0.24739549958E+03  0.92078294738E+03  0.50400001928E-02 0. -1.
       -1    1    3    3    0  502 -0.82785674509E+03  0.31826076187E+03  0.68754081540E+02  0.88958632335E+03  0.50400001928E-02 0.  1.
</event>
<event>
 5   0  0.4623665E-05  0.1796994E+04  0.7818609E-02  0.8707899E-01
       -1   -1    0    0    0  501  0.00000000000E+00  0.00000000000E+00  0.59012017766E+03  0.59012017768E+03  0.50400001928E-02 0.  1.
        1   -1    0    0  501    0  0.00000000000E+00  0.00000000000E+00 -0.13680215898E+04  0.13680215898E+04  0.50400001928E-02 0. -1.
    10030    2    1    2    0    0  0.00000000000E+00  0.00000000000E+00 -0.77790141214E+03  0.19581417675E+04  0.17969943168E+04 0.  0.
        5    1    3    3  502    0  0.47309157520E+03 -0.14984627467E+03 -0.12051213886E+04  0.13033070228E+04  0.46999998093E+01 0. -1.
       -5    1    3    3    0  502 -0.47309157520E+03  0.14984627467E+03  0.42721997644E+03  0.65483474466E+03  0.46999998093E+01 0.  1.
</event>
<event>
 5   0  0.4623665E-05  0.1804645E+04  0.7818609E-02  0.8703833E-01
       -1   -1    0    0    0  501  0.00000000000E+00  0.00000000000E+00  0.81136835264E+03  0.81136835265E+03  0.50400001928E-02 0. -1.
        1   -1    0    0  501    0  0.00000000000E+00  0.00000000000E+00 -0.10034723400E+04  0.10034723400E+04  0.50400001928E-02 0.  1.
    10030    2    1    2    0    0  0.00000000000E+00  0.00000000000E+00 -0.19210398733E+03  0.18148406926E+04  0.18046447844E+04 0.  0.
        5    1    3    3  502    0 -0.73323162710E+03  0.42939649332E+03  0.20923129365E+03  0.87510558889E+03  0.46999998093E+01 0.  1.
       -5    1    3    3    0  502  0.73323162710E+03 -0.42939649332E+03 -0.40133528098E+03  0.93973510375E+03  0.46999998093E+01 0. -1.
</event>
<event>
 5   0  0.4494757E-05  0.1808253E+04  0.7818609E-02  0.8701923E-01
        1   -1    0    0  501    0  0.00000000000E+00  0.00000000000E+00  0.12066276667E+04  0.12066276667E+04  0.50400001928E-02 0. -1.
       -1   -1    0    0    0  501  0.00000000000E+00  0.00000000000E+00 -0.67746240800E+03  0.67746240802E+03  0.50400001928E-02 0.  1.
    10030    2    1    2    0    0  0.00000000000E+00  0.00000000000E+00  0.52916525866E+03  0.18840900747E+04  0.18082531733E+04 0.  0.
        4    1    3    3  502    0 -0.76464922834E+03  0.47904801062E+03  0.32414505063E+03  0.95877373015E+03  0.12699999809E+01 0. -1.
       -4    1    3    3    0  502  0.76464922834E+03 -0.47904801062E+03  0.20502020803E+03  0.92531634454E+03  0.12699999809E+01 0.  1.
</event>
<event>
 5   0  0.4335117E-05  0.1806902E+04  0.7818609E-02  0.8702638E-01
       -1   -1    0    0    0  501  0.00000000000E+00  0.00000000000E+00  0.52953313729E+03  0.52953313732E+03  0.50400001928E-02 0.  1.
        1   -1    0    0  501    0  0.00000000000E+00  0.00000000000E+00 -0.15414020254E+04  0.15414020254E+04  0.50400001928E-02 0. -1.
    10030    2    1    2    0    0  0.00000000000E+00  0.00000000000E+00 -0.10118688881E+04  0.20709351627E+04  0.18069017133E+04 0.  0.
        3    1    3    3  502    0 -0.78079935151E+03  0.20211972544E+03 -0.39356797268E+02  0.80749549747E+03  0.10100000352E+00 0.  1.
       -3    1    3    3    0  502  0.78079935151E+03 -0.20211972544E+03 -0.97251209086E+03  0.12634396653E+04  0.10100000352E+00 0. -1.
</event>
<event>
 5   0  0.4335117E-05  0.1812543E+04  0.7818609E-02  0.8699658E-01
       -1   -1    0    0    0  501  0.00000000000E+00  0.00000000000E+00  0.42321589216E+03  0.42321589219E+03  0.50400001928E-02 0. -1.
        1   -1    0    0  501    0  0.00000000000E+00  0.00000000000E+00 -0.19406833860E+04  0.19406833860E+04  0.50400001928E-02 0.  1.
    10030    2    1    2    0    0  0.00000000000E+00  0.00000000000E+00 -0.15174674938E+04  0.23638992782E+04  0.18125430209E+04 0.  0.
        3    1    3    3  502    0  0.55935920708E+03 -0.65070218766E+03 -0.37842895921E+03  0.93781903742E+03  0.10100000352E+00 0. -1.
       -3    1    3    3    0  502 -0.55935920708E+03  0.65070218766E+03 -0.11390385346E+04  0.14260802408E+04  0.10100000352E+00 0.  1.
</event>
<event>
 5   0  0.4494757E-05  0.1798611E+04  0.7818609E-02  0.8707039E-01
        1   -1    0    0  501    0  0.00000000000E+00  0.00000000000E+00  0.78937812471E+03  0.78937812473E+03  0.50400001928E-02 0. -1.
       -1   -1    0    0    0  501  0.00000000000E+00  0.00000000000E+00 -0.10245410275E+04  0.10245410275E+04  0.50400001928E-02 0.  1.
    10030    2    1    2    0    0  0.00000000000E+00  0.00000000000E+00 -0.23516290281E+03  0.18139191523E+04  0.17986108807E+04 0.  0.
        4    1    3    3  502    0  0.44335176802E+03 -0.34285947891E+03 -0.82687047860E+03  0.99891431753E+03  0.12699999809E+01 0.  1.
       -4    1    3    3    0  502 -0.44335176802E+03  0.34285947891E+03  0.59170757579E+03  0.81500483473E+03  0.12699999809E+01 0. -1.
</event>
<event>
 5   0  0.4335117E-05  0.1803087E+04  0.7818609E-02  0.8704660E-01
        1   -1    0    0  501    0  0.00000000000E+00  0.00000000000E+00  0.28944976655E+04  0.28944976655E+04  0.50400001928E-02 0. -1.
       -1   -1    0    0    0  501  0.00000000000E+00  0.00000000000E+00 -0.28080196133E+03  0.28080196138E+03  0.50400001928E-02 0.  1.
    10030    2    1    2    0    0  0.00000000000E+00  0.00000000000E+00  0.26136957041E+04  0.31752996269E+04  0.18030869326E+04 0.  0.
        3    1    3    3  502    0 -0.56292300619E+03 -0.64864995035E+03  0.82408149694E+03  0.11902686221E+04  0.10100000352E+00 0.  1.
       -3    1    3    3    0  502  0.56292300619E+03  0.64864995035E+03  0.17896142072E+04  0.19850310047E+04  0.10100000352E+00 0. -1.
</event>
<event>
 5   0  0.4535100E-05  0.1795522E+04  0.7818609E-02  0.8708685E-01
       -1   -1    0    0    0  501  0.00000000000E+00  0.00000000000E+00  0.12114464847E+04  0.12114464848E+04  0.50400001928E-02 0.  1.
        1   -1    0    0  501    0  0.00000000000E+00  0.00000000000E+00 -0.66529939093E+03  0.66529939095E+03  0.50400001928E-02 0. -1.
    10030    2    1    2    0    0  0.00000000000E+00  0.00000000000E+00  0.54614709382E+03  0.18767458757E+04  0.17955217720E+04 0.  0.
        1    1    3    3  502    0 -0.28559916497E+03  0.49321996642E+03 -0.45194870250E+03  0.72738603782E+03  0.50400001928E-02 0. -1.
       -1    1    3    3    0  502  0.28559916497E+03 -0.49321996642E+03  0.99809579632E+03  0.11493598379E+04  0.50400001928E-02 0.  1.
</event>
<event>
 5   0  0.4623665E-05  0.1802049E+04  0.7818609E-02  0.8705211E-01
       -1   -1    0    0    0  501  0.00000000000E+00  0.00000000000E+00  0.16862145690E+04  0.16862145690E+04  0.50400001928E-02 0. -1.
        1   -1    0    0  501    0  0.00000000000E+00  0.00000000000E+00 -0.48146026395E+03  0.48146026398E+03  0.50400001928E-02 0.  1.
    10030    2    1    2    0    0  0.00000000000E+00  0.00000000000E+00  0.12047543050E+04  0.21676748330E+04  0.18020491797E+04 0.  0.
        5    1    3    3  502    0 -0.90037862074E+03  0.31699754319E+02  0.61644054633E+03  0.10916535954E+04  0.46999998093E+01 0.  1.
       -5    1    3    3    0  502  0.90037862074E+03 -0.31699754319E+02  0.58831375872E+03  0.10760212376E+04  0.46999998093E+01 0. -1.
</event>
<event>
 5   0  0.9147432E-05  0.1798263E+04  0.7818609E-02  0.8707224E-01
        2   -1    0    0  501    0  0.00000000000E+00  0.00000000000E+00  0.18537289045E+04  0.18537289045E+04  0.25500000920E-02 0. -1.
       -2   -1    0    0    0  501  0.00000000000E+00  0.00000000000E+00 -0.43611397691E+03  0.43611397692E+03  0.25500000920E-02 0.  1.
    10030    2    1    2    0    0  0.00000000000E+00  0.00000000000E+00  0.14176149276E+04  0.22898428814E+04  0.17982625889E+04 0.  0.
        3    1    3    3  502    0  0.38920417208E+03 -0.21653038099E+03  0.17033950704E+04  0.17606589873E+04  0.10100000352E+00 0. -1.
       -3    1    3    3    0  502 -0.38920417208E+03  0.21653038099E+03 -0.28578014289E+03  0.52918389405E+03  0.10100000352E+00 0.  1.
</event>
<event>
 5   0  0.8802655E-05  0.1795981E+04  0.7818609E-02  0.8708440E-01
       -2   -1    0    0    0  501  0.00000000000E+00  0.00000000000E+00  0.56861227492E+03  0.56861227493E+03  0.25500000920E-02 0. -1.
        2   -1    0    0  501    0  0.00000000000E+00  0.00000000000E+00 -0.14181669081E+04  0.14181669081E+04  0.25500000920E-02 0.  1.
    10030    2    1    2    0    0  0.00000000000E+00  0.00000000000E+00 -0.84955463323E+03  0.19867791831E+04  0.17959811935E+04 0.  0.
        2    1    3    3  502    0 -0.43971277213E+02  0.89480702772E+03 -0.49273679195E+03  0.10224493319E+04  0.25500000920E-02 0.  1.
       -2    1    3    3    0  502  0.43971277213E+02 -0.89480702772E+03 -0.35681784128E+03  0.96432985121E+03  0.25500000920E-02 0. -1.
</event>
<event>
 5   0  0.4623665E-05  0.1797017E+04  0.7818609E-02  0.8707888E-01
       -1   -1    0    0    0  501  0.00000000000E+00  0.00000000000E+00  0.74949161062E+03  0.74949161064E+03  0.50400001928E-02 0. -1.
        1   -1    0    0  501    0  0.00000000000E+00  0.00000000000E+00 -0.10771530457E+04  0.10771530457E+04  0.50400001928E-02 0.  1.
    10030    2    1    2    0    0  0.00000000000E+00  0.00000000000E+00 -0.32766143505E+03  0.18266446563E+04  0.17970166066E+04 0.  0.
        5    1    3    3  502    0 -0.71643974928E+03  0.23355855650E+03  0.33358336546E+03  0.82409675729E+03  0.46999998093E+01 0. -1.
       -5    1    3    3    0  502  0.71643974928E+03 -0.23355855650E+03 -0.66124480051E+03  0.10025478990E+04  0.46999998093E+01 0.  1.
</event>
<event>
 5   0  0.9147432E-05  0.1798269E+04  0.7818609E-02  0.8707221E-01
        2   -1    0    0  501    0  0.00000000000E+00  0.00000000000E+00  0.61651971255E+03  0.61651971256E+03  0.25500000920E-02 0.  1.
       -2   -1    0    0    0  501  0.00000000000E+00  0.00000000000E+00 -0.13113002638E+04  0.13113002638E+04  0.25500000920E-02 0. -1.
    10030    2    1    2    0    0  0.00000000000E+00  0.00000000000E+00 -0.69478055128E+03  0.19278199764E+04  0.17982685692E+04 0.  0.
        3    1    3    3  502    0 -0.51909834497E+03 -0.71981874058E+03 -0.19262827772E+03  0.90813422721E+03  0.10100000352E+00 0. -1.
       -3    1    3    3    0  502  0.51909834497E+03  0.71981874058E+03 -0.50215227356E+03  0.10196857492E+04  0.10100000352E+00 0.  1.
</event>
<event>
 5   0  0.8893075E-05  0.1799045E+04  0.7818609E-02  0.8706808E-01
        2   -1    0    0  501    0  0.00000000000E+00  0.00000000000E+00  0.83699845856E+03  0.83699845857E+03  0.25500000920E-02 0.  1.
       -2   -1    0    0    0  501  0.00000000000E+00  0.00000000000E+00 -0.96671705107E+03  0.96671705107E+03  0.25500000920E-02 0. -1.
    10030    2    1    2    0    0  0.00000000000E+00  0.00000000000E+00 -0.12971859250E+03  0.18037155096E+04  0.17990449484E+04 0.  0.
        1    1    3    3  502    0  0.36337351417E+03 -0.79872341046E+03 -0.26321448323E+03  0.91612295104E+03  0.50400001928E-02 0. -1.
       -1    1    3    3    0  502 -0.36337351417E+03  0.79872341046E+03  0.13349589073E+03  0.88759255860E+03  0.50400001928E-02 0.  1.
</event>
<event>
 5   0  0.8892280E-05  0.1795943E+04  0.7818609E-02  0.8708460E-01
        2   -1    0    0  501    0  0.00000000000E+00  0.00000000000E+00  0.73037733826E+03  0.73037733826E+03  0.25500000920E-02 0.  1.
       -2   -1    0    0    0  501  0.00000000000E+00  0.00000000000E+00 -0.11040221621E+04  0.11040221621E+04  0.25500000920E-02 0. -1.
    10030    2    1    2    0    0  0.00000000000E+00  0.00000000000E+00 -0.37364482382E+03  0.18343995003E+04  0.17959429480E+04 0.  0.
        4    1    3    3  502    0  0.60139784275E+02  0.74599011882E+02 -0.10987842875E+04  0.11029552708E+04  0.12699999809E+01 0. -1.
       -4    1    3    3    0  502 -0.60139784275E+02 -0.74599011882E+02  0.72513946364E+03  0.73144422949E+03  0.12699999809E+01 0.  1.
</event>
<event>
 5   0  0.8802655E-05  0.1801415E+04  0.7818609E-02  0.8705547E-01
       -2   -1    0    0    0  501  0.00000000000E+00  0.00000000000E+00  0.49445955468E+03  0.49445955469E+03  0.25500000920E-02 0. -1.
        2   -1    0    0  501    0  0.00000000000E+00  0.00000000000E+00 -0.16407293777E+04  0.16407293777E+04  0.25500000920E-02 0.  1.
    10030    2    1    2    0    0  0.00000000000E+00  0.00000000000E+00 -0.11462698230E+04  0.21351889324E+04  0.18014153518E+04 0.  0.
        2    1    3    3  502    0 -0.59627033707E+03  0.36519729726E+03  0.99838174971E+02  0.70631086781E+03  0.25500000920E-02 0. -1.
       -2    1    3    3    0  502  0.59627033707E+03 -0.36519729726E+03 -0.12461079980E+04  0.14288780646E+04  0.25500000920E-02 0.  1.
</event>
<event>
 5   0  0.4623665E-05  0.1791429E+04  0.7818609E-02  0.8710871E-01
       -1   -1    0    0    0  501  0.00000000000E+00  0.00000000000E+00  0.10613929335E+04  0.10613929335E+04  0.50400001928E-02 0.  1.
        1   -1    0    0  501    0  0.00000000000E+00  0.00000000000E+00 -0.75589742282E+03  0.75589742284E+03  0.50400001928E-02 0. -1.
    10030    2    1    2    0    0  0.00000000000E+00  0.00000000000E+00  0.30549551069E+03  0.18172903564E+04  0.17914286847E+04 0.  0.
        5    1    3    3  502    0 -0.12716587804E+03 -0.40634927809E+03  0.95215396934E+03  0.10430293225E+04  0.46999998093E+01 0.  1.
       -5    1    3    3    0  502  0.12716587804E+03  0.40634927809E+03 -0.64665845865E+03  0.77426103382E+03  0.46999998093E+01 0. -1.
</event>
<event>
 5   0  0.8802655E-05  0.1779699E+04  0.7818609E-02  0.8717170E-01
        2   -1    0    0  501    0  0.00000000000E+00  0.00000000000E+00  0.14912649718E+04  0.14912649718E+04  0.25500000920E-02 0.  1.
       -2   -1    0    0    0  501  0.00000000000E+00  0.00000000000E+00 -0.53098010852E+03  0.53098010853E+03  0.25500000920E-02 0. -1.
    10030    2    1    2    0    0  0.00000000000E+00  0.00000000000E+00  0.96028486329E+03  0.20222450803E+04  0.17796988920E+04 0.  0.
        2    1    3    3  502    0 -0.45131849252E+03 -0.37934269804E+03  0.12374938496E+04  0.13707590204E+04  0.25500000920E-02 0.  1.
       -2    1    3    3    0  502  0.45131849252E+03  0.37934269804E+03 -0.27720898627E+03  0.65148605996E+03  0.25500000920E-02 0. -1.
</event>
<event>
 5   0  0.4623665E-05  0.1797322E+04  0.7818609E-02  0.8707725E-01
       -1   -1    0    0    0  501  0.00000000000E+00  0.00000000000E+00  0.48289620401E+03  0.48289620403E+03  0.50400001928E-02 0. -1.
        1   -1    0    0  501    0  0.00000000000E+00  0.00000000000E+00 -0.16723916499E+04  0.16723916499E+04  0.50400001928E-02 0.  1.
    10030    2    1    2    0    0  0.00000000000E+00  0.00000000000E+00 -0.11894954459E+04  0.21552878539E+04  0.17973219849E+04 0.  0.
        5    1    3    3  502    0 -0.38789810128E+03 -0.27362791123E+03  0.32026587710E+03  0.57265128378E+03  0.46999998093E+01 0. -1.
       -5    1    3    3    0  502  0.38789810128E+03  0.27362791123E+03 -0.15097613230E+04  0.15826365701E+04  0.46999998093E+01 0.  1.
</event>
<event>
 5   0  0.4494757E-05  0.1807621E+04  0.7818609E-02  0.8702257E-01
       -1   -1    0    0    0  501  0.00000000000E+00  0.00000000000E+00  0.62387773817E+03  0.62387773819E+03  0.50400001928E-02 0. -1.
        1   -1    0    0  501    0  0.00000000000E+00  0.00000000000E+00 -0.13093489774E+04  0.13093489774E+04  0.50400001928E-02 0.  1.
    10030    2    1    2    0    0  0.00000000000E+00  0.00000000000E+00 -0.68547123924E+03  0.19332267156E+04  0.18076212861E+04 0.  0.
        4    1    3    3  502    0  0.28361587081E+03  0.50488421443E+03  0.39940333348E+03  0.70347044561E+03  0.12699999809E+01 0. -1.
       -4    1    3    3    0  502 -0.28361587081E+03 -0.50488421443E+03 -0.10848745727E+04  0.12297562700E+04  0.12699999809E+01 0.  1.
</event>
<event>
 5   0  0.4578107E-05  0.1802739E+04  0.7818609E-02  0.8704844E-01
       -1   -1    0    0    0  501  0.00000000000E+00  0.00000000000E+00  0.85639012257E+03  0.85639012259E+03  0.50400001928E-02 0.  1.
        1   -1    0    0  501    0  0.00000000000E+00  0.00000000000E+00 -0.94871175828E+03  0.94871175829E+03  0.50400001928E-02 0. -1.
    10030    2    1    2    0    0  0.00000000000E+00  0.00000000000E+00 -0.92321635706E+02  0.18051018809E+04  0.18027394476E+04 0.  0.
        2    1    3    3  502    0  0.30262590735E+03 -0.51729980062E+03  0.62798654555E+03  0.86807178558E+03  0.25500000920E-02 0.  1.
       -2    1    3    3    0  502 -0.30262590735E+03  0.51729980062E+03 -0.72030818125E+03  0.93703009530E+03  0.25500000920E-02 0. -1.
</event>
<event>
 5   0  0.4494757E-05  0.1801653E+04  0.7818609E-02  0.8705421E-01
       -1   -1    0    0    0  501  0.00000000000E+00  0.00000000000E+00  0.65844810829E+03  0.65844810831E+03  0.50400001928E-02 0.  1.
        1   -1    0    0  501    0  0.00000000000E+00  0.00000000000E+00 -0.12324261007E+04  0.12324261007E+04  0.50400001928E-02 0. -1.
    10030    2    1    2    0    0  0.00000000000E+00  0.00000000000E+00 -0.57397799242E+03  0.18908742090E+04  0.18016532792E+04 0.  0.
        4    1    3    3  502    0 -0.43237852999E+03  0.56345195776E+03  0.29458024917E+03  0.76890079854E+03  0.12699999809E+01 0.  1.
       -4    1    3    3    0  502  0.43237852999E+03 -0.56345195776E+03 -0.86855824158E+03  0.11219734105E+04  0.12699999809E+01 0. -1.
</event>
<event>
 5   0  0.8893075E-05  0.1786069E+04  0.7818609E-02  0.8713743E-01
       -2   -1    0    0    0  501  0.00000000000E+00  0.00000000000E+00  0.48292360785E+03  0.48292360786E+03  0.25500000920E-02 0. -1.
        2   -1    0    0  501    0  0.00000000000E+00  0.00000000000E+00 -0.16514214018E+04  0.16514214018E+04  0.25500000920E-02 0.  1.
    10030    2    1    2    0    0  0.00000000000E+00  0.00000000000E+00 -0.11684977940E+04  0.21343450097E+04  0.17860687349E+04 0.  0.
        1    1    3    3  502    0  0.81420818349E+03 -0.35857688418E+03 -0.67679771967E+03  0.11178405527E+04  0.50400001928E-02 0.  1.
       -1    1    3    3    0  502 -0.81420818349E+03  0.35857688418E+03 -0.49170007430E+03  0.10165044570E+04  0.50400001928E-02 0. -1.
</event>
<event>
 5   0  0.8892280E-05  0.1800680E+04  0.7818609E-02  0.8705938E-01
        2   -1    0    0  501    0  0.00000000000E+00  0.00000000000E+00  0.66118744503E+03  0.66118744503E+03  0.25500000920E-02 0. -1.
       -2   -1    0    0    0  501  0.00000000000E+00  0.00000000000E+00 -0.12259949693E+04  0.12259949693E+04  0.25500000920E-02 0.  1.
    10030    2    1    2    0    0  0.00000000000E+00  0.00000000000E+00 -0.56480752424E+03  0.18871824143E+04  0.18006804062E+04 0.  0.
        4    1    3    3  502    0  0.89390305283E+03  0.10118872981E+03 -0.32032250743E+03  0.95493976175E+03  0.12699999809E+01 0.  1.
       -4    1    3    3    0  502 -0.89390305283E+03 -0.10118872981E+03 -0.24448501681E+03  0.93224265255E+03  0.12699999809E+01 0. -1.
</event>
<event>
 5   0  0.4335117E-05  0.1791105E+04  0.7818609E-02  0.8711044E-01
        1   -1    0    0  501    0  0.00000000000E+00  0.00000000000E+00  0.70581539317E+03  0.70581539318E+03  0.50400001928E-02 0.  1.
       -1   -1    0    0    0  501  0.00000000000E+00  0.00000000000E+00 -0.11362948762E+04  0.11362948762E+04  0.50400001928E-02 0. -1.
    10030    2    1    2    0    0  0.00000000000E+00  0.00000000000E+00 -0.43047948304E+03  0.18421102694E+04  0.17911051503E+04 0.  0.
        3    1    3    3  502    0 -0.50796687268E+03  0.50752386378E+03 -0.76564651347E+03  0.10496787174E+04  0.10100000352E+00 0. -1.
       -3    1    3    3    0  502  0.50796687268E+03 -0.50752386378E+03  0.33516703044E+03  0.79243155196E+03  0.10100000352E+00 0.  1.
</event>
<event>
 5   0  0.9147432E-05  0.1794451E+04  0.7818609E-02  0.8709256E-01
       -2   -1    0    0    0  501  0.00000000000E+00  0.00000000000E+00  0.92778140860E+03  0.92778140861E+03  0.25500000920E-02 0. -1.
        2   -1    0    0  501    0  0.00000000000E+00  0.00000000000E+00 -0.86767623010E+03  0.86767623010E+03  0.25500000920E-02 0.  1.
    10030    2    1    2    0    0  0.00000000000E+00  0.00000000000E+00  0.60105178505E+02  0.17954576387E+04  0.17944513089E+04 0.  0.
        3    1    3    3  502    0  0.14037840063E+03  0.91120304914E+02 -0.85192053607E+03  0.86820367156E+03  0.10100000352E+00 0.  1.
       -3    1    3    3    0  502 -0.14037840063E+03 -0.91120304914E+02  0.91202571458E+03  0.92725396714E+03  0.10100000352E+00 0. -1.
</event>
<event>
 5   0  0.4335117E-05  0.1808468E+04  0.7818609E-02  0.8701809E-01
        1   -1    0    0  501    0  0.00000000000E+00  0.00000000000E+00  0.11328272847E+04  0.11328272847E+04  0.50400001928E-02 0.  1.
       -1   -1    0    0    0  501  0.00000000000E+00  0.00000000000E+00 -0.72176875222E+03  0.72176875223E+03  0.50400001928E-02 0. -1.
    10030    2    1    2    0    0  0.00000000000E+00  0.00000000000E+00  0.41105853249E+03  0.18545960370E+04  0.18084682312E+04 0.  0.
        3    1    3    3  502    0 -0.54277499530E+03  0.63993561457E+03 -0.13998737640E+03  0.85071661679E+03  0.10100000352E+00 0. -1.
       -3    1    3    3    0  502  0.54277499530E+03 -0.63993561457E+03  0.55104590889E+03  0.10038794202E+04  0.10100000352E+00 0.  1.
</event>
<event>
 5   0  0.4578107E-05  0.1799010E+04  0.7818609E-02  0.8706826E-01
       -1   -1    0    0    0  501  0.00000000000E+00  0.00000000000E+00  0.89866910975E+03  0.89866910977E+03  0.50400001928E-02 0.  1.
        1   -1    0    0  501    0  0.00000000000E+00  0.00000000000E+00 -0.90034147328E+03  0.90034147329E+03  0.50400001928E-02 0. -1.
    10030    2    1    2    0    0  0.00000000000E+00  0.00000000000E+00 -0.16723635227E+01  0.17990105831E+04  0.17990098057E+04 0.  0.
        2    1    3    3  502    0  0.86614176639E+03  0.47782708801E+02  0.23712258034E+03  0.89928408463E+03  0.25500000920E-02 0.  1.
       -2    1    3    3    0  502 -0.86614176639E+03 -0.47782708801E+02 -0.23879494386E+03  0.89972649843E+03  0.25500000920E-02 0. -1.
</event>
<event>
 5   0  0.8802655E-05  0.1821723E+04  0.7818609E-02  0.8694832E-01
       -2   -1    0    0    0  501  0.00000000000E+00  0.00000000000E+00  0.32650490144E+03  0.32650490145E+03  0.25500000920E-02 0.  1.
        2   -1    0    0  501    0  0.00000000000E+00  0.00000000000E+00 -0.25410594886E+04  0.25410594886E+04  0.25500000920E-02 0. -1.
    10030    2    1    2    0    0  0.00000000000E+00  0.00000000000E+00 -0.22145545872E+04  0.28675643901E+04  0.18217226769E+04 0.  0.
        2    1    3    3  502    0  0.46894610180E+03  0.77238216355E+03 -0.12880155053E+04  0.15733621944E+04  0.25500000920E-02 0.  1.
       -2    1    3    3    0  502 -0.46894610180E+03 -0.77238216355E+03 -0.92653908188E+03  0.12942021956E+04  0.25500000920E-02 0. -1.
</event>
<event>
 5   0  0.4623665E-05  0.1817823E+04  0.7818609E-02  0.8696879E-01
        1   -1    0    0  501    0  0.00000000000E+00  0.00000000000E+00  0.10464108182E+04  0.10464108182E+04  0.50400001928E-02 0. -1.
       -1   -1    0    0    0  501  0.00000000000E+00  0.00000000000E+00 -0.78947936128E+03  0.78947936130E+03  0.50400001928E-02 0.  1.
    10030    2    1    2    0    0  0.00000000000E+00  0.00000000000E+00  0.25693145693E+03  0.18358901795E+04  0.18178225925E+04 0.  0.
        5    1    3    3  502    0  0.14721189622E+03 -0.36908180576E+03 -0.69709692965E+03  0.80240821348E+03  0.46999998093E+01 0.  1.
       -5    1    3    3    0  502 -0.14721189622E+03  0.36908180576E+03  0.95402838658E+03  0.10334819660E+04  0.46999998093E+01 0. -1.
</event>
<event>
 5   0  0.4535100E-05  0.1788060E+04  0.7818609E-02  0.8712675E-01
        1   -1    0    0  501    0  0.00000000000E+00  0.00000000000E+00  0.68337918614E+03  0.68337918615E+03  0.50400001928E-02 0.  1.
       -1   -1    0    0    0  501  0.00000000000E+00  0.00000000000E+00 -0.11696130639E+04  0.11696130640E+04  0.50400001928E-02 0. -1.
    10030    2    1    2    0    0  0.00000000000E+00  0.00000000000E+00 -0.48623387781E+03  0.18529922501E+04  0.17880595334E+04 0.  0.
        1    1    3    3  502    0  0.10707653256E+03  0.72628904129E+03 -0.77186906468E+03  0.10652431687E+04  0.50400001928E-02 0. -1.
       -1    1    3    3    0  502 -0.10707653256E+03 -0.72628904129E+03  0.28563518687E+03  0.78774908145E+03  0.50400001928E-02 0.  1.
</event>
<event>
 5   0  0.8892280E-05  0.1810935E+04  0.7818609E-02  0.8700506E-01
        2   -1    0    0  501    0  0.00000000000E+00  0.00000000000E+00  0.97311155102E+03  0.97311155103E+03  0.25500000920E-02 0.  1.
       -2   -1    0    0    0  501  0.00000000000E+00  0.00000000000E+00 -0.84252570849E+03  0.84252570849E+03  0.25500000920E-02 0. -1.
    10030    2    1    2    0    0  0.00000000000E+00  0.00000000000E+00  0.13058584253E+03  0.18156372595E+04  0.18109351164E+04 0.  0.
        4    1    3    3  502    0 -0.76321390497E+03 -0.40516889600E+03 -0.20598788832E+03  0.88830733536E+03  0.12699999809E+01 0. -1.
       -4    1    3    3    0  502  0.76321390497E+03  0.40516889600E+03  0.33657373085E+03  0.92732992415E+03  0.12699999809E+01 0.  1.
</event>
<event>
 5   0  0.4535100E-05  0.1801656E+04  0.7818609E-02  0.8705419E-01
        1   -1    0    0  501    0  0.00000000000E+00  0.00000000000E+00  0.87404813358E+03  0.87404813360E+03  0.50400001928E-02 0.  1.
       -1   -1    0    0    0  501  0.00000000000E+00  0.00000000000E+00 -0.92842837580E+03  0.92842837581E+03  0.50400001928E-02 0. -1.
    10030    2    1    2    0    0  0.00000000000E+00  0.00000000000E+00 -0.54380242214E+02  0.18024765094E+04  0.18016560039E+04 0.  0.
        1    1    3    3  502    0  0.85719075171E+02 -0.56321952365E+03  0.67092928740E+03  0.88017617576E+03  0.50400001928E-02 0.  1.
       -1    1    3    3    0  502 -0.85719075171E+02  0.56321952365E+03 -0.72530952961E+03  0.92230033365E+03  0.50400001928E-02 0. -1.
</event>
<event>
 5   0  0.8892280E-05  0.1797547E+04  0.7818609E-02  0.8707605E-01
       -2   -1    0    0    0  501  0.00000000000E+00  0.00000000000E+00  0.36742570850E+03  0.36742570851E+03  0.25500000920E-02 0. -1.
        2   -1    0    0  501    0  0.00000000000E+00  0.00000000000E+00 -0.21985232343E+04  0.21985232343E+04  0.25500000920E-02 0.  1.
    10030    2    1    2    0    0  0.00000000000E+00  0.00000000000E+00 -0.18310975258E+04  0.25659489428E+04  0.17975471699E+04 0.  0.
        4    1    3    3  502    0 -0.32052475182E+03 -0.83878967845E+03 -0.86048267780E+03  0.12436785328E+04  0.12699999809E+01 0. -1.
       -4    1    3    3    0  502  0.32052475182E+03  0.83878967845E+03 -0.97061484800E+03  0.13222704100E+04  0.12699999809E+01 0.  1.
</event>
<event>
 5   0  0.9184414E-05  0.1801895E+04  0.7818609E-02  0.8705292E-01
        2   -1    0    0  501    0  0.00000000000E+00  0.00000000000E+00  0.18858365731E+04  0.18858365731E+04  0.25500000920E-02 0.  1.
       -2   -1    0    0    0  501  0.00000000000E+00  0.00000000000E+00 -0.43042261810E+03  0.43042261811E+03  0.25500000920E-02 0. -1.
    10030    2    1    2    0    0  0.00000000000E+00  0.00000000000E+00  0.14554139550E+04  0.23162591912E+04  0.18018953523E+04 0.  0.
        5    1    3    3  502    0  0.42981267789E+02 -0.75045398520E+03  0.89291395568E+02  0.75698323403E+03  0.46999998093E+01 0. -1.
       -5    1    3    3    0  502 -0.42981267789E+02  0.75045398520E+03  0.13661225594E+04  0.15592759572E+04  0.46999998093E+01 0.  1.
</event>
<event>
 5   0  0.4494757E-05  0.1801706E+04  0.7818609E-02  0.8705393E-01
        1   -1    0    0  501    0  0.00000000000E+00  0.00000000000E+00  0.10341760940E+04  0.10341760940E+04  0.50400001928E-02 0. -1.
       -1   -1    0    0    0  501  0.00000000000E+00  0.00000000000E+00 -0.78471789853E+03  0.78471789854E+03  0.50400001928E-02 0.  1.
    10030    2    1    2    0    0  0.00000000000E+00  0.00000000000E+00  0.24945819544E+03  0.18188939925E+04  0.18017064036E+04 0.  0.
        4    1    3    3  502    0  0.21820029862E+03 -0.10680179613E+03  0.10004818095E+04  0.10295549806E+04  0.12699999809E+01 0. -1.
       -4    1    3    3    0  502 -0.21820029862E+03  0.10680179613E+03 -0.75102361407E+03  0.78933901194E+03  0.12699999809E+01 0.  1.
</event>
<event>
 5   0  0.9184414E-05  0.1799360E+04  0.7818609E-02  0.8706640E-01
        2   -1    0    0  501    0  0.00000000000E+00  0.00000000000E+00  0.81158250856E+03  0.81158250857E+03  0.25500000920E-02 0. -1.
       -2   -1    0    0    0  501  0.00000000000E+00  0.00000000000E+00 -0.99734031905E+03  0.99734031906E+03  0.25500000920E-02 0.  1.
    10030    2    1    2    0    0  0.00000000000E+00  0.00000000000E+00 -0.18575781049E+03  0.18089228276E+04  0.17993598395E+04 0.  0.
        5    1    3    3  502    0  0.57341856020E+03 -0.40596212455E+03 -0.65781545571E+03  0.96247459993E+03  0.46999998093E+01 0.  1.
       -5    1    3    3    0  502 -0.57341856020E+03  0.40596212455E+03  0.47205764522E+03  0.84644822769E+03  0.46999998093E+01 0. -1.
</event>
<event>
 5   0  0.4578107E-05  0.1812042E+04  0.7818609E-02  0.8699922E-01
       -1   -1    0    0    0  501  0.00000000000E+00  0.00000000000E+00  0.64557720584E+03  0.64557720586E+03  0.50400001928E-02 0.  1.
        1   -1    0    0  501    0  0.00000000000E+00  0.00000000000E+00 -0.12715350492E+04  0.12715350492E+04  0.50400001928E-02 0. -1.
    10030    2    1    2    0    0  0.00000000000E+00  0.00000000000E+00 -0.62595784334E+03  0.19171122550E+04  0.18120419909E+04 0.  0.
        2    1    3    3  502    0  0.64766053733E+03 -0.15160326829E+03  0.33785466084E+03  0.74605193816E+03  0.25500000920E-02 0.  1.
       -2    1    3    3    0  502 -0.64766053733E+03  0.15160326829E+03 -0.96381250418E+03  0.11710603169E+04  0.25500000920E-02 0. -1.
</event>
<event>
 5   0  0.8802655E-05  0.1803292E+04  0.7818609E-02  0.8704551E-01
       -2   -1    0    0    0  501  0.00000000000E+00  0.00000000000E+00  0.47403849928E+03  0.47403849928E+03  0.25500000920E-02 0. -1.
        2   -1    0    0  501    0  0.00000000000E+00  0.00000000000E+00 -0.17149787381E+04  0.17149787381E+04  0.25500000920E-02 0.  1.
    10030    2    1    2    0    0  0.00000000000E+00  0.00000000000E+00 -0.12409402389E+04  0.21890172374E+04  0.18032924858E+04 0.  0.
        2    1    3    3  502    0  0.52326479938E+03 -0.25341181442E+03  0.21610213453E+03  0.62026101805E+03  0.25500000920E-02 0. -1.
       -2    1    3    3    0  502 -0.52326479938E+03  0.25341181442E+03 -0.14570423734E+04  0.15687562194E+04  0.25500000920E-02 0.  1.
</event>
<event>
 5   0  0.4623665E-05  0.1802104E+04  0.7818609E-02  0.8705182E-01
        1   -1    0    0  501    0  0.00000000000E+00  0.00000000000E+00  0.20752974781E+04  0.20752974781E+04  0.50400001928E-02 0. -1.
       -1   -1    0    0    0  501  0.00000000000E+00  0.00000000000E+00 -0.39121830968E+03  0.39121830971E+03  0.50400001928E-02 0.  1.
    10030    2    1    2    0    0  0.00000000000E+00  0.00000000000E+00  0.16840791684E+04  0.24665157878E+04  0.18021036280E+04 0.  0.
        5    1    3    3  502    0 -0.33734262131E+03  0.56629419376E+03  0.12344092634E+01  0.65917582769E+03  0.46999998093E+01 0.  1.
       -5    1    3    3    0  502  0.33734262131E+03 -0.56629419376E+03  0.16828447592E+04  0.18073399601E+04  0.46999998093E+01 0. -1.
</event>
</LesHouchesEvents>
